 Entering Gaussian System, Link 0=/apps/cent7/gaussian/g16-A.03/g16-haswell/g16/g16
 Initial command:
 /apps/cent7/gaussian/g16-A.03/g16-haswell/g16/l1.exe "/scratch/brown/finej/gaussian/Gau-189663.inp" -scrdir="/scratch/brown/finej/gaussian/"
 Entering Link 1 = /apps/cent7/gaussian/g16-A.03/g16-haswell/g16/l1.exe PID=    189664.
  
 Copyright (c) 1988,1990,1992,1993,1995,1998,2003,2009,2016,
            Gaussian, Inc.  All Rights Reserved.
  
 This is part of the Gaussian(R) 16 program.  It is based on
 the Gaussian(R) 09 system (copyright 2009, Gaussian, Inc.),
 the Gaussian(R) 03 system (copyright 2003, Gaussian, Inc.),
 the Gaussian(R) 98 system (copyright 1998, Gaussian, Inc.),
 the Gaussian(R) 94 system (copyright 1995, Gaussian, Inc.),
 the Gaussian 92(TM) system (copyright 1992, Gaussian, Inc.),
 the Gaussian 90(TM) system (copyright 1990, Gaussian, Inc.),
 the Gaussian 88(TM) system (copyright 1988, Gaussian, Inc.),
 the Gaussian 86(TM) system (copyright 1986, Carnegie Mellon
 University), and the Gaussian 82(TM) system (copyright 1983,
 Carnegie Mellon University). Gaussian is a federally registered
 trademark of Gaussian, Inc.
  
 This software contains proprietary and confidential information,
 including trade secrets, belonging to Gaussian, Inc.
  
 This software is provided under written license and may be
 used, copied, transmitted, or stored only in accord with that
 written license.
  
 The following legend is applicable only to US Government
 contracts under FAR:
  
                    RESTRICTED RIGHTS LEGEND
  
 Use, reproduction and disclosure by the US Government is
 subject to restrictions as set forth in subparagraphs (a)
 and (c) of the Commercial Computer Software - Restricted
 Rights clause in FAR 52.227-19.
  
 Gaussian, Inc.
 340 Quinnipiac St., Bldg. 40, Wallingford CT 06492
  
  
 ---------------------------------------------------------------
 Warning -- This program may not be used in any manner that
 competes with the business of Gaussian, Inc. or will provide
 assistance to any competitor of Gaussian, Inc.  The licensee
 of this program is prohibited from giving any competitor of
 Gaussian, Inc. access to this program.  By using this program,
 the user acknowledges that Gaussian, Inc. is engaged in the
 business of creating and licensing software in the field of
 computational chemistry and represents and warrants to the
 licensee that it is not a competitor of Gaussian, Inc. and that
 it will not use this program in any manner prohibited above.
 ---------------------------------------------------------------
  

 Cite this work as:
 Gaussian 16, Revision A.03,
 M. J. Frisch, G. W. Trucks, H. B. Schlegel, G. E. Scuseria, 
 M. A. Robb, J. R. Cheeseman, G. Scalmani, V. Barone, 
 G. A. Petersson, H. Nakatsuji, X. Li, M. Caricato, A. V. Marenich, 
 J. Bloino, B. G. Janesko, R. Gomperts, B. Mennucci, H. P. Hratchian, 
 J. V. Ortiz, A. F. Izmaylov, J. L. Sonnenberg, D. Williams-Young, 
 F. Ding, F. Lipparini, F. Egidi, J. Goings, B. Peng, A. Petrone, 
 T. Henderson, D. Ranasinghe, V. G. Zakrzewski, J. Gao, N. Rega, 
 G. Zheng, W. Liang, M. Hada, M. Ehara, K. Toyota, R. Fukuda, 
 J. Hasegawa, M. Ishida, T. Nakajima, Y. Honda, O. Kitao, H. Nakai, 
 T. Vreven, K. Throssell, J. A. Montgomery, Jr., J. E. Peralta, 
 F. Ogliaro, M. J. Bearpark, J. J. Heyd, E. N. Brothers, K. N. Kudin, 
 V. N. Staroverov, T. A. Keith, R. Kobayashi, J. Normand, 
 K. Raghavachari, A. P. Rendell, J. C. Burant, S. S. Iyengar, 
 J. Tomasi, M. Cossi, J. M. Millam, M. Klene, C. Adamo, R. Cammi, 
 J. W. Ochterski, R. L. Martin, K. Morokuma, O. Farkas, 
 J. B. Foresman, and D. J. Fox, Gaussian, Inc., Wallingford CT, 2016.
 
 ******************************************
 Gaussian 16:  ES64L-G16RevA.03 25-Dec-2016
                14-Oct-2019 
 ******************************************
 %nprocshared=24
 Will use up to   24 processors via shared memory.
 %mem=80GB
 %chk=11_p.chk
 -------------------------------------------------------------------
 #p opt freq m062x/6-311++g(d,p) geom=connectivity temperature=0.001
 -------------------------------------------------------------------
 1/18=20,19=15,26=3,38=1,57=2,112=-1000/1,3;
 2/9=110,12=2,17=6,18=5,40=1/2;
 3/5=4,6=6,7=1111,11=2,25=1,30=1,71=1,74=-55/1,2,3;
 4//1;
 5/5=2,38=5/2;
 6/7=2,8=2,9=2,10=2,28=1/1;
 7//1,2,3,16;
 1/18=20,19=15,26=3/3(2);
 2/9=110/2;
 99//99;
 2/9=110/2;
 3/5=4,6=6,7=1111,11=2,25=1,30=1,71=1,74=-55/1,2,3;
 4/5=5,16=3,69=1/1;
 5/5=2,38=5/2;
 7//1,2,3,16;
 1/18=20,19=15,26=3/3(-5);
 2/9=110/2;
 6/7=2,8=2,9=2,10=2,19=2,28=1/1;
 99/9=1/99;
 Leave Link    1 at Mon Oct 14 09:11:42 2019, MaxMem= 10737418240 cpu:               0.9 elap:               0.0
 (Enter /apps/cent7/gaussian/g16-A.03/g16-haswell/g16/l101.exe)
 ----------------------------
 dodecyl_methyl_sulfoxide.sdf
 ----------------------------
 Symbolic Z-matrix:
 Charge =  1 Multiplicity = 1
 C                     2.9792    10.5268  -7.2751 
 C                     2.7012    10.2325  -5.7827 
 C                     2.3928    8.7353   -5.5108 
 C                     2.113     8.4363   -4.0122 
 C                     1.8065    6.9354   -3.7555 
 C                     1.5255    6.6153   -2.2632 
 C                     1.225     5.1097   -2.0252 
 C                     0.951     4.7883   -0.5332 
 C                     0.6594    3.284    -0.2747 
 C                     0.3786    2.9998    1.2229 
 C                     0.0416    1.517     1.5132 
 S                    -0.2283    1.2265    3.303 
 C                    -1.709     2.1975    3.7681 
 O                    -0.6859   -0.3061    3.4066 
 H                     3.18531   11.56922  -7.4007 
 H                     3.8229    9.95469  -7.60031 
 H                     2.12175   10.26013  -7.85697 
 H                     1.80802   10.76796  -5.53691 
 H                     3.61262   10.44575  -5.26429 
 H                     3.28612   8.20025  -5.75698 
 H                     1.48153   8.52246  -6.02963 
 H                     1.21896   8.96931  -3.76422 
 H                     3.0236    8.64743  -3.4915 
 H                     2.70103   6.40492  -4.00711 
 H                     0.89616   6.72719  -4.27784 
 H                     0.62867   7.14114  -2.01006 
 H                     2.43422   6.82376  -1.73816 
 H                     2.12025   4.58348  -2.28312 
 H                     0.31366   4.90246  -2.54618 
 H                     0.05205   5.31036  -0.27973 
 H                     1.86059   5.00558  -0.01326 
 H                     1.55968   2.75841  -0.51586 
 H                    -0.24707   3.06027  -0.79734 
 H                    -0.50296   3.55486   1.46717 
 H                     1.29572   3.19887   1.73686 
 H                     0.91003   0.95273   1.24427 
 H                    -0.89383   1.32115   1.03205 
 H                    -1.73254   2.32535   4.83017 
 H                    -1.67023   3.15607   3.29424 
 H                    -2.58965   1.67859   3.45172 
 H                    -0.02616  -1.00189   3.45363 
 
 ITRead=  0  0  0  0  0  0  0  0  0  0  0  0  0  0  0  0  0  0  0  0
 ITRead=  0  0  0  0  0  0  0  0  0  0  0  0  0  0  0  0  0  0  0  0
 ITRead=  0
 MicOpt= -1 -1 -1 -1 -1 -1 -1 -1 -1 -1 -1 -1 -1 -1 -1 -1 -1 -1 -1 -1
 MicOpt= -1 -1 -1 -1 -1 -1 -1 -1 -1 -1 -1 -1 -1 -1 -1 -1 -1 -1 -1 -1
 MicOpt= -1
 NAtoms=     41 NQM=       41 NQMF=       0 NMMI=      0 NMMIF=      0
                NMic=       0 NMicF=      0.
                    Isotopes and Nuclear Properties:
 (Nuclear quadrupole moments (NQMom) in fm**2, nuclear magnetic moments (NMagM)
  in nuclear magnetons)

  Atom         1           2           3           4           5           6           7           8           9          10
 IAtWgt=          12          12          12          12          12          12          12          12          12          12
 AtmWgt=  12.0000000  12.0000000  12.0000000  12.0000000  12.0000000  12.0000000  12.0000000  12.0000000  12.0000000  12.0000000
 NucSpn=           0           0           0           0           0           0           0           0           0           0
 AtZEff=  -0.0000000  -0.0000000  -0.0000000  -0.0000000  -0.0000000  -0.0000000  -0.0000000  -0.0000000  -0.0000000  -0.0000000
 NQMom=    0.0000000   0.0000000   0.0000000   0.0000000   0.0000000   0.0000000   0.0000000   0.0000000   0.0000000   0.0000000
 NMagM=    0.0000000   0.0000000   0.0000000   0.0000000   0.0000000   0.0000000   0.0000000   0.0000000   0.0000000   0.0000000
 AtZNuc=   6.0000000   6.0000000   6.0000000   6.0000000   6.0000000   6.0000000   6.0000000   6.0000000   6.0000000   6.0000000

  Atom        11          12          13          14          15          16          17          18          19          20
 IAtWgt=          12          32          12          16           1           1           1           1           1           1
 AtmWgt=  12.0000000  31.9720718  12.0000000  15.9949146   1.0078250   1.0078250   1.0078250   1.0078250   1.0078250   1.0078250
 NucSpn=           0           0           0           0           1           1           1           1           1           1
 AtZEff=  -0.0000000  -0.0000000  -0.0000000  -0.0000000  -0.0000000  -0.0000000  -0.0000000  -0.0000000  -0.0000000  -0.0000000
 NQMom=    0.0000000   0.0000000   0.0000000   0.0000000   0.0000000   0.0000000   0.0000000   0.0000000   0.0000000   0.0000000
 NMagM=    0.0000000   0.0000000   0.0000000   0.0000000   2.7928460   2.7928460   2.7928460   2.7928460   2.7928460   2.7928460
 AtZNuc=   6.0000000  16.0000000   6.0000000   8.0000000   1.0000000   1.0000000   1.0000000   1.0000000   1.0000000   1.0000000

  Atom        21          22          23          24          25          26          27          28          29          30
 IAtWgt=           1           1           1           1           1           1           1           1           1           1
 AtmWgt=   1.0078250   1.0078250   1.0078250   1.0078250   1.0078250   1.0078250   1.0078250   1.0078250   1.0078250   1.0078250
 NucSpn=           1           1           1           1           1           1           1           1           1           1
 AtZEff=  -0.0000000  -0.0000000  -0.0000000  -0.0000000  -0.0000000  -0.0000000  -0.0000000  -0.0000000  -0.0000000  -0.0000000
 NQMom=    0.0000000   0.0000000   0.0000000   0.0000000   0.0000000   0.0000000   0.0000000   0.0000000   0.0000000   0.0000000
 NMagM=    2.7928460   2.7928460   2.7928460   2.7928460   2.7928460   2.7928460   2.7928460   2.7928460   2.7928460   2.7928460
 AtZNuc=   1.0000000   1.0000000   1.0000000   1.0000000   1.0000000   1.0000000   1.0000000   1.0000000   1.0000000   1.0000000

  Atom        31          32          33          34          35          36          37          38          39          40
 IAtWgt=           1           1           1           1           1           1           1           1           1           1
 AtmWgt=   1.0078250   1.0078250   1.0078250   1.0078250   1.0078250   1.0078250   1.0078250   1.0078250   1.0078250   1.0078250
 NucSpn=           1           1           1           1           1           1           1           1           1           1
 AtZEff=  -0.0000000  -0.0000000  -0.0000000  -0.0000000  -0.0000000  -0.0000000  -0.0000000  -0.0000000  -0.0000000  -0.0000000
 NQMom=    0.0000000   0.0000000   0.0000000   0.0000000   0.0000000   0.0000000   0.0000000   0.0000000   0.0000000   0.0000000
 NMagM=    2.7928460   2.7928460   2.7928460   2.7928460   2.7928460   2.7928460   2.7928460   2.7928460   2.7928460   2.7928460
 AtZNuc=   1.0000000   1.0000000   1.0000000   1.0000000   1.0000000   1.0000000   1.0000000   1.0000000   1.0000000   1.0000000

  Atom        41
 IAtWgt=           1
 AtmWgt=   1.0078250
 NucSpn=           1
 AtZEff=  -0.0000000
 NQMom=    0.0000000
 NMagM=    2.7928460
 AtZNuc=   1.0000000
 Leave Link  101 at Mon Oct 14 09:11:43 2019, MaxMem= 10737418240 cpu:               8.7 elap:               0.4
 (Enter /apps/cent7/gaussian/g16-A.03/g16-haswell/g16/l103.exe)

 GradGradGradGradGradGradGradGradGradGradGradGradGradGradGradGradGradGrad
 Berny optimization.
 Initialization pass.
                           ----------------------------
                           !    Initial Parameters    !
                           ! (Angstroms and Degrees)  !
 --------------------------                            --------------------------
 ! Name  Definition              Value          Derivative Info.                !
 --------------------------------------------------------------------------------
 ! R1    R(1,2)                  1.5463         estimate D2E/DX2                !
 ! R2    R(1,15)                 1.07           estimate D2E/DX2                !
 ! R3    R(1,16)                 1.07           estimate D2E/DX2                !
 ! R4    R(1,17)                 1.07           estimate D2E/DX2                !
 ! R5    R(2,3)                  1.5526         estimate D2E/DX2                !
 ! R6    R(2,18)                 1.07           estimate D2E/DX2                !
 ! R7    R(2,19)                 1.07           estimate D2E/DX2                !
 ! R8    R(3,4)                  1.5535         estimate D2E/DX2                !
 ! R9    R(3,20)                 1.07           estimate D2E/DX2                !
 ! R10   R(3,21)                 1.07           estimate D2E/DX2                !
 ! R11   R(4,5)                  1.5532         estimate D2E/DX2                !
 ! R12   R(4,22)                 1.07           estimate D2E/DX2                !
 ! R13   R(4,23)                 1.07           estimate D2E/DX2                !
 ! R14   R(5,6)                  1.5519         estimate D2E/DX2                !
 ! R15   R(5,24)                 1.07           estimate D2E/DX2                !
 ! R16   R(5,25)                 1.07           estimate D2E/DX2                !
 ! R17   R(6,7)                  1.5536         estimate D2E/DX2                !
 ! R18   R(6,26)                 1.07           estimate D2E/DX2                !
 ! R19   R(6,27)                 1.07           estimate D2E/DX2                !
 ! R20   R(7,8)                  1.5506         estimate D2E/DX2                !
 ! R21   R(7,28)                 1.07           estimate D2E/DX2                !
 ! R22   R(7,29)                 1.07           estimate D2E/DX2                !
 ! R23   R(8,9)                  1.554          estimate D2E/DX2                !
 ! R24   R(8,30)                 1.07           estimate D2E/DX2                !
 ! R25   R(8,31)                 1.07           estimate D2E/DX2                !
 ! R26   R(9,10)                 1.55           estimate D2E/DX2                !
 ! R27   R(9,32)                 1.07           estimate D2E/DX2                !
 ! R28   R(9,33)                 1.07           estimate D2E/DX2                !
 ! R29   R(10,11)                1.5481         estimate D2E/DX2                !
 ! R30   R(10,34)                1.07           estimate D2E/DX2                !
 ! R31   R(10,35)                1.07           estimate D2E/DX2                !
 ! R32   R(11,12)                1.8332         estimate D2E/DX2                !
 ! R33   R(11,36)                1.07           estimate D2E/DX2                !
 ! R34   R(11,37)                1.07           estimate D2E/DX2                !
 ! R35   R(12,13)                1.8307         estimate D2E/DX2                !
 ! R36   R(12,14)                1.6028         estimate D2E/DX2                !
 ! R37   R(13,38)                1.07           estimate D2E/DX2                !
 ! R38   R(13,39)                1.07           estimate D2E/DX2                !
 ! R39   R(13,40)                1.07           estimate D2E/DX2                !
 ! R40   R(14,41)                0.96           estimate D2E/DX2                !
 ! A1    A(2,1,15)             109.4712         estimate D2E/DX2                !
 ! A2    A(2,1,16)             109.4712         estimate D2E/DX2                !
 ! A3    A(2,1,17)             109.4712         estimate D2E/DX2                !
 ! A4    A(15,1,16)            109.4712         estimate D2E/DX2                !
 ! A5    A(15,1,17)            109.4712         estimate D2E/DX2                !
 ! A6    A(16,1,17)            109.4712         estimate D2E/DX2                !
 ! A7    A(1,2,3)              112.8457         estimate D2E/DX2                !
 ! A8    A(1,2,18)             106.0532         estimate D2E/DX2                !
 ! A9    A(1,2,19)             106.0532         estimate D2E/DX2                !
 ! A10   A(3,2,18)             106.0532         estimate D2E/DX2                !
 ! A11   A(3,2,19)             106.0532         estimate D2E/DX2                !
 ! A12   A(18,2,19)            120.0            estimate D2E/DX2                !
 ! A13   A(2,3,4)              112.973          estimate D2E/DX2                !
 ! A14   A(2,3,20)             106.0256         estimate D2E/DX2                !
 ! A15   A(2,3,21)             106.0256         estimate D2E/DX2                !
 ! A16   A(4,3,20)             106.0256         estimate D2E/DX2                !
 ! A17   A(4,3,21)             106.0256         estimate D2E/DX2                !
 ! A18   A(20,3,21)            120.0            estimate D2E/DX2                !
 ! A19   A(3,4,5)              112.392          estimate D2E/DX2                !
 ! A20   A(3,4,22)             106.1514         estimate D2E/DX2                !
 ! A21   A(3,4,23)             106.1514         estimate D2E/DX2                !
 ! A22   A(5,4,22)             106.1514         estimate D2E/DX2                !
 ! A23   A(5,4,23)             106.1514         estimate D2E/DX2                !
 ! A24   A(22,4,23)            120.0            estimate D2E/DX2                !
 ! A25   A(4,5,6)              113.2015         estimate D2E/DX2                !
 ! A26   A(4,5,24)             105.976          estimate D2E/DX2                !
 ! A27   A(4,5,25)             105.976          estimate D2E/DX2                !
 ! A28   A(6,5,24)             105.976          estimate D2E/DX2                !
 ! A29   A(6,5,25)             105.976          estimate D2E/DX2                !
 ! A30   A(24,5,25)            120.0            estimate D2E/DX2                !
 ! A31   A(5,6,7)              112.471          estimate D2E/DX2                !
 ! A32   A(5,6,26)             106.1343         estimate D2E/DX2                !
 ! A33   A(5,6,27)             106.1343         estimate D2E/DX2                !
 ! A34   A(7,6,26)             106.1343         estimate D2E/DX2                !
 ! A35   A(7,6,27)             106.1343         estimate D2E/DX2                !
 ! A36   A(26,6,27)            120.0            estimate D2E/DX2                !
 ! A37   A(6,7,8)              112.4848         estimate D2E/DX2                !
 ! A38   A(6,7,28)             106.1313         estimate D2E/DX2                !
 ! A39   A(6,7,29)             106.1313         estimate D2E/DX2                !
 ! A40   A(8,7,28)             106.1313         estimate D2E/DX2                !
 ! A41   A(8,7,29)             106.1313         estimate D2E/DX2                !
 ! A42   A(28,7,29)            120.0            estimate D2E/DX2                !
 ! A43   A(7,8,9)              113.1954         estimate D2E/DX2                !
 ! A44   A(7,8,30)             105.9773         estimate D2E/DX2                !
 ! A45   A(7,8,31)             105.9773         estimate D2E/DX2                !
 ! A46   A(9,8,30)             105.9773         estimate D2E/DX2                !
 ! A47   A(9,8,31)             105.9773         estimate D2E/DX2                !
 ! A48   A(30,8,31)            120.0            estimate D2E/DX2                !
 ! A49   A(8,9,10)             111.8528         estimate D2E/DX2                !
 ! A50   A(8,9,32)             106.2679         estimate D2E/DX2                !
 ! A51   A(8,9,33)             106.2679         estimate D2E/DX2                !
 ! A52   A(10,9,32)            106.2679         estimate D2E/DX2                !
 ! A53   A(10,9,33)            106.2679         estimate D2E/DX2                !
 ! A54   A(32,9,33)            120.0            estimate D2E/DX2                !
 ! A55   A(9,10,11)            113.344          estimate D2E/DX2                !
 ! A56   A(9,10,34)            105.9451         estimate D2E/DX2                !
 ! A57   A(9,10,35)            105.9451         estimate D2E/DX2                !
 ! A58   A(11,10,34)           105.9451         estimate D2E/DX2                !
 ! A59   A(11,10,35)           105.9451         estimate D2E/DX2                !
 ! A60   A(34,10,35)           120.0            estimate D2E/DX2                !
 ! A61   A(10,11,12)           111.5257         estimate D2E/DX2                !
 ! A62   A(10,11,36)           106.3384         estimate D2E/DX2                !
 ! A63   A(10,11,37)           106.3384         estimate D2E/DX2                !
 ! A64   A(12,11,36)           106.3384         estimate D2E/DX2                !
 ! A65   A(12,11,37)           106.3384         estimate D2E/DX2                !
 ! A66   A(36,11,37)           120.0            estimate D2E/DX2                !
 ! A67   A(11,12,13)           106.4432         estimate D2E/DX2                !
 ! A68   A(11,12,14)           104.8723         estimate D2E/DX2                !
 ! A69   A(13,12,14)           105.0594         estimate D2E/DX2                !
 ! A70   A(12,13,38)           109.4712         estimate D2E/DX2                !
 ! A71   A(12,13,39)           109.4712         estimate D2E/DX2                !
 ! A72   A(12,13,40)           109.4712         estimate D2E/DX2                !
 ! A73   A(38,13,39)           109.4712         estimate D2E/DX2                !
 ! A74   A(38,13,40)           109.4712         estimate D2E/DX2                !
 ! A75   A(39,13,40)           109.4712         estimate D2E/DX2                !
 ! A76   A(12,14,41)           120.0            estimate D2E/DX2                !
 ! D1    D(15,1,2,3)          -179.9438         estimate D2E/DX2                !
 ! D2    D(15,1,2,18)           64.3679         estimate D2E/DX2                !
 ! D3    D(15,1,2,19)          -64.2556         estimate D2E/DX2                !
 ! D4    D(16,1,2,3)           -59.9438         estimate D2E/DX2                !
 ! D5    D(16,1,2,18)         -175.6321         estimate D2E/DX2                !
 ! D6    D(16,1,2,19)           55.7444         estimate D2E/DX2                !
 ! D7    D(17,1,2,3)            60.0562         estimate D2E/DX2                !
 ! D8    D(17,1,2,18)          -55.6321         estimate D2E/DX2                !
 ! D9    D(17,1,2,19)          175.7444         estimate D2E/DX2                !
 ! D10   D(1,2,3,4)           -179.9991         estimate D2E/DX2                !
 ! D11   D(1,2,3,20)            64.2962         estimate D2E/DX2                !
 ! D12   D(1,2,3,21)           -64.2943         estimate D2E/DX2                !
 ! D13   D(18,2,3,4)           -64.3108         estimate D2E/DX2                !
 ! D14   D(18,2,3,20)          179.9845         estimate D2E/DX2                !
 ! D15   D(18,2,3,21)           51.3939         estimate D2E/DX2                !
 ! D16   D(19,2,3,4)            64.3127         estimate D2E/DX2                !
 ! D17   D(19,2,3,20)          -51.392          estimate D2E/DX2                !
 ! D18   D(19,2,3,21)         -179.9826         estimate D2E/DX2                !
 ! D19   D(2,3,4,5)           -179.9897         estimate D2E/DX2                !
 ! D20   D(2,3,4,22)            64.381          estimate D2E/DX2                !
 ! D21   D(2,3,4,23)           -64.3605         estimate D2E/DX2                !
 ! D22   D(20,3,4,5)           -64.285          estimate D2E/DX2                !
 ! D23   D(20,3,4,22)         -179.9142         estimate D2E/DX2                !
 ! D24   D(20,3,4,23)           51.3442         estimate D2E/DX2                !
 ! D25   D(21,3,4,5)            64.3055         estimate D2E/DX2                !
 ! D26   D(21,3,4,22)          -51.3237         estimate D2E/DX2                !
 ! D27   D(21,3,4,23)          179.9348         estimate D2E/DX2                !
 ! D28   D(3,4,5,6)            179.937          estimate D2E/DX2                !
 ! D29   D(3,4,5,24)            64.2027         estimate D2E/DX2                !
 ! D30   D(3,4,5,25)           -64.3288         estimate D2E/DX2                !
 ! D31   D(22,4,5,6)           -64.4338         estimate D2E/DX2                !
 ! D32   D(22,4,5,24)          179.8319         estimate D2E/DX2                !
 ! D33   D(22,4,5,25)           51.3004         estimate D2E/DX2                !
 ! D34   D(23,4,5,6)            64.3078         estimate D2E/DX2                !
 ! D35   D(23,4,5,24)          -51.4265         estimate D2E/DX2                !
 ! D36   D(23,4,5,25)         -179.958          estimate D2E/DX2                !
 ! D37   D(4,5,6,7)           -179.8432         estimate D2E/DX2                !
 ! D38   D(4,5,6,26)            64.5173         estimate D2E/DX2                !
 ! D39   D(4,5,6,27)           -64.2037         estimate D2E/DX2                !
 ! D40   D(24,5,6,7)           -64.109          estimate D2E/DX2                !
 ! D41   D(24,5,6,26)         -179.7485         estimate D2E/DX2                !
 ! D42   D(24,5,6,27)           51.5305         estimate D2E/DX2                !
 ! D43   D(25,5,6,7)            64.4226         estimate D2E/DX2                !
 ! D44   D(25,5,6,26)          -51.217          estimate D2E/DX2                !
 ! D45   D(25,5,6,27)         -179.9379         estimate D2E/DX2                !
 ! D46   D(5,6,7,8)            179.7201         estimate D2E/DX2                !
 ! D47   D(5,6,7,28)            64.0788         estimate D2E/DX2                !
 ! D48   D(5,6,7,29)           -64.6385         estimate D2E/DX2                !
 ! D49   D(26,6,7,8)           -64.6404         estimate D2E/DX2                !
 ! D50   D(26,6,7,28)          179.7183         estimate D2E/DX2                !
 ! D51   D(26,6,7,29)           51.001          estimate D2E/DX2                !
 ! D52   D(27,6,7,8)            64.0806         estimate D2E/DX2                !
 ! D53   D(27,6,7,28)          -51.5607         estimate D2E/DX2                !
 ! D54   D(27,6,7,29)          179.7219         estimate D2E/DX2                !
 ! D55   D(6,7,8,9)           -179.5442         estimate D2E/DX2                !
 ! D56   D(6,7,8,30)            64.7223         estimate D2E/DX2                !
 ! D57   D(6,7,8,31)           -63.8108         estimate D2E/DX2                !
 ! D58   D(28,7,8,9)           -63.9029         estimate D2E/DX2                !
 ! D59   D(28,7,8,30)         -179.6364         estimate D2E/DX2                !
 ! D60   D(28,7,8,31)           51.8305         estimate D2E/DX2                !
 ! D61   D(29,7,8,9)            64.8144         estimate D2E/DX2                !
 ! D62   D(29,7,8,30)          -50.919          estimate D2E/DX2                !
 ! D63   D(29,7,8,31)         -179.4521         estimate D2E/DX2                !
 ! D64   D(7,8,9,10)          -179.5241         estimate D2E/DX2                !
 ! D65   D(7,8,9,32)            64.9174         estimate D2E/DX2                !
 ! D66   D(7,8,9,33)           -63.9656         estimate D2E/DX2                !
 ! D67   D(30,8,9,10)          -63.7907         estimate D2E/DX2                !
 ! D68   D(30,8,9,32)         -179.3492         estimate D2E/DX2                !
 ! D69   D(30,8,9,33)           51.7678         estimate D2E/DX2                !
 ! D70   D(31,8,9,10)           64.7424         estimate D2E/DX2                !
 ! D71   D(31,8,9,32)          -50.8161         estimate D2E/DX2                !
 ! D72   D(31,8,9,33)         -179.6991         estimate D2E/DX2                !
 ! D73   D(8,9,10,11)          178.2691         estimate D2E/DX2                !
 ! D74   D(8,9,10,34)           62.5165         estimate D2E/DX2                !
 ! D75   D(8,9,10,35)          -65.9783         estimate D2E/DX2                !
 ! D76   D(32,9,10,11)         -66.1724         estimate D2E/DX2                !
 ! D77   D(32,9,10,34)         178.0751         estimate D2E/DX2                !
 ! D78   D(32,9,10,35)          49.5802         estimate D2E/DX2                !
 ! D79   D(33,9,10,11)          62.7106         estimate D2E/DX2                !
 ! D80   D(33,9,10,34)         -53.042          estimate D2E/DX2                !
 ! D81   D(33,9,10,35)         178.4632         estimate D2E/DX2                !
 ! D82   D(9,10,11,12)         178.175          estimate D2E/DX2                !
 ! D83   D(9,10,11,36)          62.6596         estimate D2E/DX2                !
 ! D84   D(9,10,11,37)         -66.3097         estimate D2E/DX2                !
 ! D85   D(34,10,11,12)        -66.0724         estimate D2E/DX2                !
 ! D86   D(34,10,11,36)        178.4122         estimate D2E/DX2                !
 ! D87   D(34,10,11,37)         49.4429         estimate D2E/DX2                !
 ! D88   D(35,10,11,12)         62.4224         estimate D2E/DX2                !
 ! D89   D(35,10,11,36)        -53.093          estimate D2E/DX2                !
 ! D90   D(35,10,11,37)        177.9377         estimate D2E/DX2                !
 ! D91   D(10,11,12,13)         64.21           estimate D2E/DX2                !
 ! D92   D(10,11,12,14)        175.2283         estimate D2E/DX2                !
 ! D93   D(36,11,12,13)        179.7254         estimate D2E/DX2                !
 ! D94   D(36,11,12,14)        -69.2563         estimate D2E/DX2                !
 ! D95   D(37,11,12,13)        -51.3054         estimate D2E/DX2                !
 ! D96   D(37,11,12,14)         59.713          estimate D2E/DX2                !
 ! D97   D(11,12,13,38)       -161.8064         estimate D2E/DX2                !
 ! D98   D(11,12,13,39)        -41.8064         estimate D2E/DX2                !
 ! D99   D(11,12,13,40)         78.1936         estimate D2E/DX2                !
 ! D100  D(14,12,13,38)         87.3059         estimate D2E/DX2                !
 ! D101  D(14,12,13,39)       -152.6941         estimate D2E/DX2                !
 ! D102  D(14,12,13,40)        -32.6941         estimate D2E/DX2                !
 ! D103  D(11,12,14,41)         85.4208         estimate D2E/DX2                !
 ! D104  D(13,12,14,41)       -162.5707         estimate D2E/DX2                !
 --------------------------------------------------------------------------------
 Trust Radius=3.00D-01 FncErr=1.00D-07 GrdErr=1.00D-06 EigMax=2.50D+02 EigMin=1.00D-04
 Number of steps in this run=    230 maximum allowed number of steps=    246.
 GradGradGradGradGradGradGradGradGradGradGradGradGradGradGradGradGradGrad

 Leave Link  103 at Mon Oct 14 09:11:43 2019, MaxMem= 10737418240 cpu:               0.5 elap:               0.0
 (Enter /apps/cent7/gaussian/g16-A.03/g16-haswell/g16/l202.exe)
                          Input orientation:                          
 ---------------------------------------------------------------------
 Center     Atomic      Atomic             Coordinates (Angstroms)
 Number     Number       Type             X           Y           Z
 ---------------------------------------------------------------------
      1          6           0        2.979200   10.526800   -7.275100
      2          6           0        2.701200   10.232500   -5.782700
      3          6           0        2.392800    8.735300   -5.510800
      4          6           0        2.113000    8.436300   -4.012200
      5          6           0        1.806500    6.935400   -3.755500
      6          6           0        1.525500    6.615300   -2.263200
      7          6           0        1.225000    5.109700   -2.025200
      8          6           0        0.951000    4.788300   -0.533200
      9          6           0        0.659400    3.284000   -0.274700
     10          6           0        0.378600    2.999800    1.222900
     11          6           0        0.041600    1.517000    1.513200
     12         16           0       -0.228300    1.226500    3.303000
     13          6           0       -1.709000    2.197500    3.768100
     14          8           0       -0.685900   -0.306100    3.406600
     15          1           0        3.185314   11.569221   -7.400698
     16          1           0        3.822899    9.954692   -7.600314
     17          1           0        2.121752   10.260130   -7.856967
     18          1           0        1.808021   10.767959   -5.536907
     19          1           0        3.612615   10.445749   -5.264292
     20          1           0        3.286120    8.200255   -5.756984
     21          1           0        1.481529    8.522459   -6.029628
     22          1           0        1.218963    8.969313   -3.764216
     23          1           0        3.023601    8.647429   -3.491498
     24          1           0        2.701032    6.404923   -4.007110
     25          1           0        0.896164    6.727194   -4.277839
     26          1           0        0.628665    7.141142   -2.010063
     27          1           0        2.434222    6.823756   -1.738156
     28          1           0        2.120246    4.583475   -2.283119
     29          1           0        0.313662    4.902465   -2.546176
     30          1           0        0.052052    5.310359   -0.279731
     31          1           0        1.860587    5.005576   -0.013255
     32          1           0        1.559679    2.758414   -0.515859
     33          1           0       -0.247072    3.060272   -0.797341
     34          1           0       -0.502955    3.554862    1.467169
     35          1           0        1.295721    3.198872    1.736864
     36          1           0        0.910031    0.952727    1.244272
     37          1           0       -0.893833    1.321147    1.032049
     38          1           0       -1.732539    2.325349    4.830174
     39          1           0       -1.670226    3.156069    3.294241
     40          1           0       -2.589647    1.678593    3.451718
     41          1           0       -0.026158   -1.001893    3.453634
 ---------------------------------------------------------------------
                    Distance matrix (angstroms):
                    1          2          3          4          5
     1  C    0.000000
     2  C    1.546336   0.000000
     3  C    2.581878   1.552626   0.000000
     4  C    3.970769   2.589785   1.553541   0.000000
     5  C    5.163426   3.972518   2.581563   1.553235   0.000000
     6  C    6.521673   5.182016   3.974106   2.592335   1.551897
     7  C    7.744911   6.522350   5.163152   3.975296   2.581717
     8  C    9.082797   7.762716   6.514146   5.173160   3.965493
     9  C   10.336596   9.098828   7.754875   6.529016   5.173445
    10  C   11.646238  10.333676   9.071697   7.744027   6.504791
    11  C   12.924404  11.673199  10.342561   9.093814   7.761001
    12  S   14.445755  13.124022  11.871618  10.534470   9.303460
    13  C   14.605092  13.237404  12.069200  10.680046   9.560910
    14  O   15.648751  14.386722  13.066956  11.802627  10.485564
    15  H    1.070000   2.153859   3.497271   4.737823   6.054824
    16  H    1.070000   2.153859   2.810368   4.254860   5.288155
    17  H    1.070000   2.153859   2.811240   4.255428   5.289163
    18  H    2.109771   1.070000   2.115266   2.802566   4.226337
    19  H    2.109771   1.070000   2.115266   2.802582   4.226234
    20  H    2.794940   2.114903   1.070000   2.115703   2.791965
    21  H    2.794925   2.114903   1.070000   2.115702   2.792136
    22  H    4.224986   2.804808   2.117359   1.070000   2.117091
    23  H    4.224885   2.804639   2.117359   1.070000   2.117091
    24  H    5.267542   4.219367   2.790474   2.114781   1.070000
    25  H    5.268740   4.220181   2.791523   2.114781   1.070000
    26  H    6.686428   5.299499   4.231864   2.808779   2.115697
    27  H    6.683359   5.296145   4.229487   2.806200   2.115697
    28  H    7.809020   6.670537   5.265915   4.223036   2.792471
    29  H    7.816711   6.677178   5.272802   4.227864   2.797116
    30  H    9.204056   7.843987   6.676332   5.286808   4.218983
    31  H    9.190734   7.830316   6.664615   5.274954   4.210884
    32  H   10.394720   9.214372   7.833690   6.690961   5.291825
    33  H   10.398040   9.218838   7.835277   6.693798   5.290036
    34  H   11.711558  10.364268   9.160479   7.790709   6.636105
    35  H   11.736615  10.391878   9.186090   7.819868   6.662477
    36  H   12.981681  11.777131  10.411438   9.223963   7.848169
    37  H   12.990502  11.780377  10.420196   9.225556   7.856988
    38  H   15.362354  13.957584  12.846853  11.415755  10.367794
    39  H   13.698752  12.311625  11.187705   9.776386   8.721801
    40  H   14.978900  13.654188  12.447836  11.112676   9.945055
    41  H   16.032738  14.797295  13.454567  12.222691  10.878000
                    6          7          8          9         10
     6  C    0.000000
     7  C    1.553633   0.000000
     8  C    2.580868   1.550625   0.000000
     9  C    3.975150   2.591782   1.553953   0.000000
    10  C    5.151710   3.964622   2.571043   1.549975   0.000000
    11  C    6.515813   5.179595   3.964362   2.588542   1.548076
    12  S    7.943397   6.751373   5.365967   4.221523   2.799953
    13  C    8.145890   7.116993   5.682343   4.809785   3.388186
    14  O    9.216436   7.904864   6.644876   5.315131   4.102521
    15  H    7.327360   8.629266   9.906340  11.216282  12.477142
    16  H    6.701818   7.829746   9.213225  10.400504  11.750865
    17  H    6.703024   7.832024   9.216786  10.406519  11.755635
    18  H    5.295427   6.684900   7.843971   9.220618  10.396275
    19  H    5.294803   6.683251   7.840545   9.214562  10.391567
    20  H    4.221183   5.265544   6.661992   7.818226   9.176992
    21  H    4.221987   5.267654   6.666043   7.825378   9.182341
    22  H    2.808627   4.233299   5.290759   6.694222   7.823849
    23  H    2.807592   4.230901   5.285838   6.686076   7.817755
    24  H    2.113612   2.790025   4.212379   5.276297   6.658946
    25  H    2.113612   2.792634   4.217184   5.285524   6.664794
    26  H    1.070000   2.117215   2.796585   4.229654   5.259780
    27  H    1.070000   2.117215   2.791943   4.221560   5.255100
    28  H    2.117175   1.070000   2.114546   2.802937   4.222976
    29  H    2.117175   1.070000   2.114546   2.810439   4.222592
    30  H    2.794292   2.112519   1.070000   2.115426   2.775467
    31  H    2.786709   2.112519   1.070000   2.115426   2.783434
    32  H    4.234376   2.814013   2.119252   1.070000   2.115773
    33  H    4.234262   2.806206   2.119252   1.070000   2.115773
    34  H    5.234173   4.195234   2.763481   2.111526   1.070000
    35  H    5.265481   4.220117   2.792544   2.111526   1.070000
    36  H    6.689237   5.298026   4.227612   2.793730   2.115038
    37  H    6.688788   5.309365   4.227832   2.823635   2.115038
    38  H    8.906988   7.968425   6.483308   5.718402   4.233700
    39  H    7.284511   6.363604   4.917755   4.263902   2.917630
    40  H    8.600337   7.504709   6.171388   5.198060   3.940013
    41  H    9.649428   8.302686   7.097607   5.721831   4.599299
                   11         12         13         14         15
    11  C    0.000000
    12  S    1.833199   0.000000
    13  C    2.934664   1.830746   0.000000
    14  O    2.727254   1.602808   2.728631   0.000000
    15  H   13.798104  15.270684  15.379386  16.516877   0.000000
    16  H   12.982643  14.542208  14.832963  15.708765   1.747303
    17  H   12.983427  14.549023  14.656836  15.697008   1.747303
    18  H   11.764544  13.165485  13.130322  14.451323   2.452076
    19  H   11.764740  13.158483  13.339314  14.465955   2.451328
    20  H   10.394632  11.961091  12.317122  13.118928   3.749919
    21  H   10.394427  11.968813  12.090495  13.102809   3.750397
    22  H    9.207294  10.582592  10.543538  11.877810   4.883653
    23  H    9.207733  10.574037  10.802817  11.895791   4.883120
    24  H    7.838252   9.425220   9.879508  10.558042   6.198463
    25  H    7.836615   9.433514   9.593860  10.536639   6.199813
    26  H    6.662507   7.996625   7.955591   9.302135   7.429892
    27  H    6.667654   7.989465   8.299843   9.329444   7.426167
    28  H    5.304345   6.927458   7.548063   8.009700   8.724943
    29  H    5.292818   6.929596   7.160871   7.972692   8.732606
    30  H    4.195746   5.439895   5.401493   6.758566   9.984932
    31  H    4.220064   5.444485   5.909813   6.811308   9.970489
    32  H    2.821835   4.486347   5.417674   5.460728  11.299293
    33  H    2.793496   4.491756   4.870817   5.403531  11.304327
    34  H    2.109867   2.977748   2.931085   4.324568  12.508890
    35  H    2.109867   2.943752   3.762581   4.358861  12.535084
    36  H    1.070000   2.368356   3.844281   2.967710  13.878846
    37  H    1.070000   2.368356   2.986380   2.886116  13.884296
    38  H    3.847507   2.408830   1.070000   3.169628  16.100579
    39  H    2.964625   2.408830   1.070000   3.601130  14.447807
    40  H    3.272220   2.408830   1.070000   2.750508  15.778137
    41  H    3.180361   2.242608   3.628631   0.960000  16.916353
                   16         17         18         19         20
    16  H    0.000000
    17  H    1.747303   0.000000
    18  H    2.996463   2.395620   0.000000
    19  H    2.396321   2.996514   1.853294   0.000000
    20  H    2.600779   3.163664   2.970912   2.321979   0.000000
    21  H    3.162335   2.601644   2.321991   2.970912   1.853294
    22  H    4.739948   4.385413   2.593174   3.187422   2.972492
    23  H    4.385223   4.740406   3.187158   2.593008   2.324071
    24  H    5.174027   5.479012   4.708909   4.328944   2.574412
    25  H    5.479175   5.176278   4.329494   4.709548   3.173273
    26  H    7.026386   6.792914   5.194546   5.514924   4.714149
    27  H    6.789410   7.024681   5.511749   5.190479   4.332604
    28  H    7.747359   7.955639   6.995174   6.743946   5.148601
    29  H    7.961411   7.757465   6.751415   6.999946   5.479070
    30  H    9.454103   9.284309   7.778607   7.993478   6.986486
    31  H    9.268650   9.444700   7.982390   7.761344   6.725216
    32  H   10.348821  10.511115   9.456501   9.265920   7.750072
    33  H   10.506100  10.357973   9.278757   9.454951   7.968747
    34  H   11.911762  11.780883  10.316320  10.475438   9.387499
    35  H   11.798755  11.940908  10.510056  10.339313   9.226769
    36  H   12.951713  13.073965  11.963676  11.822979  10.353262
    37  H   13.088291  12.962012  11.819198  11.967052  10.530199
    38  H   15.607267  15.452502  13.830747  14.014628  13.106843
    39  H   13.967356  13.754861  12.166686  12.421607  11.486246
    40  H   15.223731  14.957486  13.518558  13.831121  12.722299
    41  H   16.032834  16.105166  14.923922  14.842217  13.434515
                   21         22         23         24         25
    21  H    0.000000
    22  H    2.323944   0.000000
    23  H    2.972492   1.853294   0.000000
    24  H    3.172022   2.971803   2.323519   0.000000
    25  H    2.575731   2.322737   2.971805   1.853294   0.000000
    26  H    4.335011   2.601483   3.193629   2.970676   2.320715
    27  H    4.712743   3.191423   2.597568   2.322663   2.970680
    28  H    5.473562   4.716092   4.334969   2.574322   3.173770
    29  H    5.157782   4.340788   4.718280   3.176672   2.582170
    30  H    6.739608   5.185678   5.502871   4.701970   4.324907
    31  H    6.979176   5.494778   5.168546   4.314557   4.699017
    32  H    7.976965   7.017348   6.758550   5.175766   5.508536
    33  H    7.758890   6.772619   7.012283   5.493690   5.183356
    34  H    9.209623   7.723255   7.934684   6.953856   6.710167
    35  H    9.417723   7.972813   7.746490   6.726582   6.984652
    36  H   10.513661   9.457591   9.279178   7.778891   7.989892
    37  H   10.361878   9.271596   9.459555   8.010054   7.786164
    38  H   12.910062  11.256871  11.482150  10.695656  10.451900
    39  H   11.210095   9.589736   9.911272   9.108934   8.756466
    40  H   12.381797  10.942111  11.326141  10.293862   9.868399
    41  H   13.524743  12.372252  12.273765  10.860995  10.971105
                   26         27         28         29         30
    26  H    0.000000
    27  H    1.853294   0.000000
    28  H    2.973387   2.326891   0.000000
    29  H    2.323428   2.973387   1.853294   0.000000
    30  H    2.584240   3.176808   2.969739   2.317669   0.000000
    31  H    3.172619   2.571015   2.323333   2.969730   1.853294
    32  H    4.723106   4.334264   2.601594   3.204949   2.973402
    33  H    4.346390   4.715748   3.183061   2.601254   2.328151
    34  H    5.121826   5.439373   4.690830   4.311593   2.538003
    35  H    5.479590   5.148954   4.330962   4.712865   3.173601
    36  H    6.997595   6.759217   5.204752   5.506685   4.695495
    37  H    6.741274   7.002049   5.542363   5.204572   4.304565
    38  H    8.692294   8.985572   8.398929   8.077066   6.181114
    39  H    7.021492   7.458112   6.892903   6.410630   4.514475
    40  H    8.368274   8.868300   7.969303   7.402518   5.838836
    41  H    9.828011   9.708189   8.289374   8.424645   7.334075
                   31         32         33         34         35
    31  H    0.000000
    32  H    2.322261   0.000000
    33  H    2.973420   1.853294   0.000000
    34  H    3.143654   2.970048   2.331973   0.000000
    35  H    2.578017   2.310506   2.970121   1.853294   0.000000
    36  H    4.348623   2.603960   3.154175   2.969397   2.331646
    37  H    4.717468   3.237510   2.605671   2.309025   2.969304
    38  H    6.599467   6.293354   5.866485   3.785945   4.416103
    39  H    5.179464   5.010716   4.333080   2.204484   3.350238
    40  H    6.548239   5.841625   5.044918   3.437019   4.510882
    41  H    7.188103   5.693124   5.883943   4.993736   4.726637
                   36         37         38         39         40
    36  H    0.000000
    37  H    1.853294   0.000000
    38  H    4.661112   4.017163   0.000000
    39  H    3.964192   3.014504   1.747303   0.000000
    40  H    4.200887   2.976298   1.747303   1.747303   0.000000
    41  H    3.094878   3.466043   3.984613   4.474038   3.708974
                   41
    41  H    0.000000
 Stoichiometry    C12H27OS(1+)
 Framework group  C1[X(C12H27OS)]
 Deg. of freedom   117
 Full point group                 C1      NOp   1
 Largest Abelian subgroup         C1      NOp   1
 Largest concise Abelian subgroup C1      NOp   1
                         Standard orientation:                         
 ---------------------------------------------------------------------
 Center     Atomic      Atomic             Coordinates (Angstroms)
 Number     Number       Type             X           Y           Z
 ---------------------------------------------------------------------
      1          6           0       -8.702840   -0.136810    0.199490
      2          6           0       -7.386513    0.550570   -0.231728
      3          6           0       -6.123351   -0.247475    0.190403
      4          6           0       -4.799085    0.440547   -0.241379
      5          6           0       -3.544647   -0.368903    0.187240
      6          6           0       -2.210504    0.301185   -0.236348
      7          6           0       -0.967618   -0.524090    0.197164
      8          6           0        0.365427    0.141684   -0.231990
      9          6           0        1.619665   -0.676143    0.183723
     10          6           0        2.933646    0.022503   -0.249603
     11          6           0        4.207357   -0.742475    0.185146
     12         16           0        5.728637    0.097741   -0.398261
     13          6           0        5.781576    1.720235    0.448110
     14          8           0        6.934065   -0.744264    0.239677
     15          1           0       -9.535278    0.455739   -0.118049
     16          1           0       -8.762902   -1.106033   -0.249843
     17          1           0       -8.721181   -0.235775    1.264745
     18          1           0       -7.345681    1.475027    0.305498
     19          1           0       -7.390886    0.553332   -1.301715
     20          1           0       -6.164767   -1.171900   -0.346834
     21          1           0       -6.119581   -0.250226    1.260392
     22          1           0       -4.754870    1.364767    0.295988
     23          1           0       -4.800230    0.443341   -1.311375
     24          1           0       -3.593225   -1.293395   -0.349280
     25          1           0       -3.546664   -0.370555    1.257237
     26          1           0       -2.157196    1.224181    0.302295
     27          1           0       -2.206345    0.305159   -1.306333
     28          1           0       -1.023642   -1.449105   -0.337727
     29          1           0       -0.969068   -0.523875    1.267163
     30          1           0        0.422010    1.063095    0.309029
     31          1           0        0.359919    0.148989   -1.301951
     32          1           0        1.573764   -1.594344   -0.363726
     33          1           0        1.626780   -0.690931    1.253597
     34          1           0        2.957476    0.954972    0.274643
     35          1           0        2.934132    0.010111   -1.319531
     36          1           0        4.175556   -1.688309   -0.314140
     37          1           0        4.232426   -0.702363    1.254100
     38          1           0        6.450717    2.372655   -0.072945
     39          1           0        4.801350    2.149120    0.458736
     40          1           0        6.123602    1.587213    1.453208
     41          1           0        7.264391   -1.525595   -0.209774
 ---------------------------------------------------------------------
 Rotational constants (GHZ):           3.5315670           0.0865550           0.0855144
 Leave Link  202 at Mon Oct 14 09:11:43 2019, MaxMem= 10737418240 cpu:               1.0 elap:               0.1
 (Enter /apps/cent7/gaussian/g16-A.03/g16-haswell/g16/l301.exe)
 Standard basis: 6-311++G(d,p) (5D, 7F)
 Ernie: Thresh=  0.10000D-02 Tol=  0.10000D-05 Strict=F.
 There are   519 symmetry adapted cartesian basis functions of A   symmetry.
 There are   505 symmetry adapted basis functions of A   symmetry.
   505 basis functions,   761 primitive gaussians,   519 cartesian basis functions
    61 alpha electrons       61 beta electrons
       nuclear repulsion energy       952.9564607280 Hartrees.
 IExCor= 4336 DFT=T Ex+Corr=M062X ExCW=0 ScaHFX=  0.540000
 ScaDFX=  1.000000  1.000000  1.000000  1.000000 ScalE2=  1.000000  1.000000
 IRadAn=      5 IRanWt=     -1 IRanGd=            0 ICorTp=0 IEmpDi=  4
 NAtoms=   41 NActive=   41 NUniq=   41 SFac= 1.00D+00 NAtFMM=   60 NAOKFM=F Big=F
 Integral buffers will be    131072 words long.
 Raffenetti 2 integral format.
 Two-electron integral symmetry is turned on.
 Leave Link  301 at Mon Oct 14 09:11:43 2019, MaxMem= 10737418240 cpu:               1.7 elap:               0.1
 (Enter /apps/cent7/gaussian/g16-A.03/g16-haswell/g16/l302.exe)
 NPDir=0 NMtPBC=     1 NCelOv=     1 NCel=       1 NClECP=     1 NCelD=      1
         NCelK=      1 NCelE2=     1 NClLst=     1 CellRange=     0.0.
 One-electron integrals computed using PRISM.
 One-electron integral symmetry used in STVInt
 NBasis=   505 RedAO= T EigKep=  1.27D-06  NBF=   505
 NBsUse=   505 1.00D-06 EigRej= -1.00D+00 NBFU=   505
 Precomputing XC quadrature grid using
 IXCGrd= 4 IRadAn=           5 IRanWt=          -1 IRanGd=           0 AccXCQ= 0.00D+00.
 Generated NRdTot=       0 NPtTot=           0 NUsed=           0 NTot=          32
 NSgBfM=   488   487   487   487   488 MxSgAt=    41 MxSgA2=    41.
 Leave Link  302 at Mon Oct 14 09:11:44 2019, MaxMem= 10737418240 cpu:              11.0 elap:               0.5
 (Enter /apps/cent7/gaussian/g16-A.03/g16-haswell/g16/l303.exe)
 DipDrv:  MaxL=1.
 Leave Link  303 at Mon Oct 14 09:11:44 2019, MaxMem= 10737418240 cpu:               1.5 elap:               0.1
 (Enter /apps/cent7/gaussian/g16-A.03/g16-haswell/g16/l401.exe)
 ExpMin= 3.60D-02 ExpMax= 9.34D+04 ExpMxC= 3.17D+03 IAcc=3 IRadAn=         5 AccDes= 0.00D+00
 Harris functional with IExCor= 1009 and IRadAn=       5 diagonalized for initial guess.
 HarFok:  IExCor= 1009 AccDes= 0.00D+00 IRadAn=         5 IDoV= 1 UseB2=F ITyADJ=14
 ICtDFT=  3500011 ScaDFX=  1.000000  1.000000  1.000000  1.000000
 FoFCou: FMM=F IPFlag=           0 FMFlag=      100000 FMFlg1=           0
         NFxFlg=           0 DoJE=T BraDBF=F KetDBF=T FulRan=T
         wScrn=  0.000000 ICntrl=       500 IOpCl=  0 I1Cent=   200000004 NGrid=           0
         NMat0=    1 NMatS0=      1 NMatT0=    0 NMatD0=    1 NMtDS0=    0 NMtDT0=    0
 Petite list used in FoFCou.
 Harris En= -946.336800381655    
 JPrj=0 DoOrth=F DoCkMO=F.
 Leave Link  401 at Mon Oct 14 09:11:45 2019, MaxMem= 10737418240 cpu:              28.2 elap:               1.2
 (Enter /apps/cent7/gaussian/g16-A.03/g16-haswell/g16/l502.exe)
 Integral symmetry usage will be decided dynamically.
 Closed shell SCF:
 Using DIIS extrapolation, IDIIS=  1040.
 NGot= 10737418240 LenX= 10736861774 LenY= 10736591894
 Requested convergence on RMS density matrix=1.00D-08 within 128 cycles.
 Requested convergence on MAX density matrix=1.00D-06.
 Requested convergence on             energy=1.00D-06.
 No special actions if energy rises.
 Fock matrices will be formed incrementally for  20 cycles.

 Cycle   1  Pass 1  IDiag  1:
 FoFJK:  IHMeth= 1 ICntrl=       0 DoSepK=F KAlg= 0 I1Cent=           0 FoldK=F
 IRaf= 770000000 NMat=       1 IRICut=       1 DoRegI=T DoRafI=F ISym2E= 0 IDoP0=0 IntGTp=1.
 FoFCou: FMM=F IPFlag=           0 FMFlag=      100000 FMFlg1=           0
         NFxFlg=           0 DoJE=F BraDBF=F KetDBF=F FulRan=T
         wScrn=  0.000000 ICntrl=         0 IOpCl=  0 I1Cent=           0 NGrid=           0
         NMat0=    1 NMatS0=      1 NMatT0=    0 NMatD0=    1 NMtDS0=    0 NMtDT0=    0
 Symmetry not used in FoFCou.
 E= -945.819568075803    
 DIIS: error= 3.71D-02 at cycle   1 NSaved=   1.
 NSaved= 1 IEnMin= 1 EnMin= -945.819568075803     IErMin= 1 ErrMin= 3.71D-02
 ErrMax= 3.71D-02  0.00D+00 EMaxC= 1.00D-01 BMatC= 7.67D-01 BMatP= 7.67D-01
 IDIUse=3 WtCom= 6.29D-01 WtEn= 3.71D-01
 Coeff-Com:  0.100D+01
 Coeff-En:   0.100D+01
 Coeff:      0.100D+01
 Gap=     0.399 Goal=   None    Shift=    0.000
 GapD=    0.399 DampG=1.000 DampE=0.500 DampFc=0.5000 IDamp=-1.
 Damping current iteration by 5.00D-01
 RMSDP=9.62D-02 MaxDP=1.17D+01              OVMax= 9.64D-01

 Cycle   2  Pass 1  IDiag  1:
 RMSU=  4.20D-02    CP:  1.96D+00
 E= -945.768346049906     Delta-E=        0.051222025897 Rises=F Damp=T
 DIIS: error= 1.02D-02 at cycle   2 NSaved=   2.
 NSaved= 2 IEnMin= 1 EnMin= -945.819568075803     IErMin= 2 ErrMin= 1.02D-02
 ErrMax= 1.02D-02  0.00D+00 EMaxC= 1.00D-01 BMatC= 9.47D-02 BMatP= 7.67D-01
 IDIUse=3 WtCom= 8.98D-01 WtEn= 1.02D-01
 Coeff-Com:  0.111D+00 0.889D+00
 Coeff-En:   0.538D+00 0.462D+00
 Coeff:      0.154D+00 0.846D+00
 Gap=    -0.440 Goal=   None    Shift=    0.000
 RMSDP=4.78D-02 MaxDP=5.45D+00 DE= 5.12D-02 OVMax= 5.97D-01

 Cycle   3  Pass 1  IDiag  1:
 RMSU=  8.72D-03    CP:  9.21D-01  5.83D-02
 E= -946.335132131162     Delta-E=       -0.566786081256 Rises=F Damp=F
 DIIS: error= 1.30D-02 at cycle   3 NSaved=   3.
 NSaved= 3 IEnMin= 3 EnMin= -946.335132131162     IErMin= 2 ErrMin= 1.02D-02
 ErrMax= 1.30D-02  0.00D+00 EMaxC= 1.00D-01 BMatC= 1.31D-01 BMatP= 9.47D-02
 IDIUse=2 WtCom= 0.00D+00 WtEn= 1.00D+00
 Coeff-En:   0.000D+00 0.000D+00 0.100D+01
 Coeff:      0.000D+00 0.000D+00 0.100D+01
 Gap=     0.653 Goal=   None    Shift=    0.000
 RMSDP=9.75D-03 MaxDP=6.09D-01 DE=-5.67D-01 OVMax= 3.18D-01

 Cycle   4  Pass 1  IDiag  1:
 RMSU=  6.61D-03    CP:  1.02D+00  1.85D-01  5.28D-01
 E= -946.289550658365     Delta-E=        0.045581472797 Rises=F Damp=F
 DIIS: error= 2.07D-02 at cycle   4 NSaved=   4.
 NSaved= 4 IEnMin= 3 EnMin= -946.335132131162     IErMin= 2 ErrMin= 1.02D-02
 ErrMax= 2.07D-02  0.00D+00 EMaxC= 1.00D-01 BMatC= 1.87D-01 BMatP= 9.47D-02
 IDIUse=2 WtCom= 0.00D+00 WtEn= 1.00D+00
 Coeff-En:   0.000D+00 0.000D+00 0.574D+00 0.426D+00
 Coeff:      0.000D+00 0.000D+00 0.574D+00 0.426D+00
 Gap=     0.187 Goal=   None    Shift=    0.000
 RMSDP=6.85D-03 MaxDP=4.73D-01 DE= 4.56D-02 OVMax= 2.87D-01

 Cycle   5  Pass 1  IDiag  1:
 RMSU=  2.14D-03    CP:  9.29D-01  7.90D-02  8.04D-01  4.87D-01
 E= -946.481878051695     Delta-E=       -0.192327393331 Rises=F Damp=F
 DIIS: error= 1.16D-03 at cycle   5 NSaved=   5.
 NSaved= 5 IEnMin= 5 EnMin= -946.481878051695     IErMin= 5 ErrMin= 1.16D-03
 ErrMax= 1.16D-03  0.00D+00 EMaxC= 1.00D-01 BMatC= 1.06D-03 BMatP= 9.47D-02
 IDIUse=3 WtCom= 9.88D-01 WtEn= 1.16D-02
 Coeff-Com: -0.604D-02 0.145D-01 0.818D-01 0.389D-01 0.871D+00
 Coeff-En:   0.000D+00 0.000D+00 0.000D+00 0.000D+00 0.100D+01
 Coeff:     -0.597D-02 0.143D-01 0.809D-01 0.385D-01 0.872D+00
 Gap=     0.234 Goal=   None    Shift=    0.000
 RMSDP=1.29D-03 MaxDP=1.20D-01 DE=-1.92D-01 OVMax= 1.24D-02

 Cycle   6  Pass 1  IDiag  1:
 RMSU=  1.13D-03    CP:  9.14D-01  7.15D-02  7.60D-01  4.75D-01  9.57D-01
 E= -946.482662579174     Delta-E=       -0.000784527479 Rises=F Damp=F
 DIIS: error= 1.07D-03 at cycle   6 NSaved=   6.
 NSaved= 6 IEnMin= 6 EnMin= -946.482662579174     IErMin= 6 ErrMin= 1.07D-03
 ErrMax= 1.07D-03  0.00D+00 EMaxC= 1.00D-01 BMatC= 6.64D-04 BMatP= 1.06D-03
 IDIUse=3 WtCom= 9.89D-01 WtEn= 1.07D-02
 Coeff-Com: -0.780D-02 0.138D-01-0.338D-02-0.262D-01 0.433D+00 0.591D+00
 Coeff-En:   0.000D+00 0.000D+00 0.000D+00 0.000D+00 0.178D+00 0.822D+00
 Coeff:     -0.771D-02 0.136D-01-0.335D-02-0.259D-01 0.430D+00 0.593D+00
 Gap=     0.232 Goal=   None    Shift=    0.000
 RMSDP=4.05D-04 MaxDP=3.78D-02 DE=-7.85D-04 OVMax= 4.33D-03

 Cycle   7  Pass 1  IDiag  1:
 RMSU=  1.29D-04    CP:  9.21D-01  7.35D-02  7.79D-01  4.74D-01  1.03D+00
                    CP:  7.82D-01
 E= -946.483235173830     Delta-E=       -0.000572594656 Rises=F Damp=F
 DIIS: error= 1.52D-04 at cycle   7 NSaved=   7.
 NSaved= 7 IEnMin= 7 EnMin= -946.483235173830     IErMin= 7 ErrMin= 1.52D-04
 ErrMax= 1.52D-04  0.00D+00 EMaxC= 1.00D-01 BMatC= 1.79D-05 BMatP= 6.64D-04
 IDIUse=3 WtCom= 9.98D-01 WtEn= 1.52D-03
 Coeff-Com: -0.192D-02 0.423D-02-0.705D-02-0.466D-02 0.201D-01 0.949D-01
 Coeff-Com:  0.894D+00
 Coeff-En:   0.000D+00 0.000D+00 0.000D+00 0.000D+00 0.000D+00 0.000D+00
 Coeff-En:   0.100D+01
 Coeff:     -0.192D-02 0.422D-02-0.704D-02-0.465D-02 0.200D-01 0.947D-01
 Coeff:      0.895D+00
 Gap=     0.232 Goal=   None    Shift=    0.000
 RMSDP=9.41D-05 MaxDP=7.44D-03 DE=-5.73D-04 OVMax= 1.33D-03

 Cycle   8  Pass 1  IDiag  1:
 RMSU=  5.86D-05    CP:  9.22D-01  7.32D-02  7.77D-01  4.75D-01  1.03D+00
                    CP:  8.41D-01  1.04D+00
 E= -946.483255488976     Delta-E=       -0.000020315146 Rises=F Damp=F
 DIIS: error= 1.09D-04 at cycle   8 NSaved=   8.
 NSaved= 8 IEnMin= 8 EnMin= -946.483255488976     IErMin= 8 ErrMin= 1.09D-04
 ErrMax= 1.09D-04  0.00D+00 EMaxC= 1.00D-01 BMatC= 4.75D-06 BMatP= 1.79D-05
 IDIUse=3 WtCom= 9.99D-01 WtEn= 1.09D-03
 Coeff-Com: -0.208D-04 0.414D-03-0.451D-02 0.119D-02-0.459D-01-0.331D-01
 Coeff-Com:  0.382D+00 0.700D+00
 Coeff-En:   0.000D+00 0.000D+00 0.000D+00 0.000D+00 0.000D+00 0.000D+00
 Coeff-En:   0.000D+00 0.100D+01
 Coeff:     -0.208D-04 0.413D-03-0.450D-02 0.119D-02-0.458D-01-0.331D-01
 Coeff:      0.381D+00 0.700D+00
 Gap=     0.232 Goal=   None    Shift=    0.000
 RMSDP=3.14D-05 MaxDP=2.36D-03 DE=-2.03D-05 OVMax= 5.70D-04

 Cycle   9  Pass 1  IDiag  1:
 RMSU=  1.39D-05    CP:  9.22D-01  7.31D-02  7.76D-01  4.76D-01  1.03D+00
                    CP:  8.61D-01  1.11D+00  1.09D+00
 E= -946.483261135683     Delta-E=       -0.000005646707 Rises=F Damp=F
 DIIS: error= 1.76D-05 at cycle   9 NSaved=   9.
 NSaved= 9 IEnMin= 9 EnMin= -946.483261135683     IErMin= 9 ErrMin= 1.76D-05
 ErrMax= 1.76D-05  0.00D+00 EMaxC= 1.00D-01 BMatC= 1.70D-07 BMatP= 4.75D-06
 IDIUse=1 WtCom= 1.00D+00 WtEn= 0.00D+00
 Coeff-Com:  0.135D-03-0.238D-03-0.996D-03 0.655D-03-0.107D-01-0.116D-01
 Coeff-Com:  0.210D-01 0.149D+00 0.853D+00
 Coeff:      0.135D-03-0.238D-03-0.996D-03 0.655D-03-0.107D-01-0.116D-01
 Coeff:      0.210D-01 0.149D+00 0.853D+00
 Gap=     0.232 Goal=   None    Shift=    0.000
 RMSDP=1.16D-05 MaxDP=1.08D-03 DE=-5.65D-06 OVMax= 1.57D-04

 Cycle  10  Pass 1  IDiag  1:
 RMSU=  3.90D-06    CP:  9.22D-01  7.30D-02  7.76D-01  4.76D-01  1.03D+00
                    CP:  8.67D-01  1.12D+00  1.12D+00  1.16D+00
 E= -946.483261348162     Delta-E=       -0.000000212479 Rises=F Damp=F
 DIIS: error= 3.93D-06 at cycle  10 NSaved=  10.
 NSaved=10 IEnMin=10 EnMin= -946.483261348162     IErMin=10 ErrMin= 3.93D-06
 ErrMax= 3.93D-06  0.00D+00 EMaxC= 1.00D-01 BMatC= 1.65D-08 BMatP= 1.70D-07
 IDIUse=1 WtCom= 1.00D+00 WtEn= 0.00D+00
 Coeff-Com:  0.553D-04-0.102D-03 0.814D-04 0.783D-04 0.417D-03-0.499D-03
 Coeff-Com: -0.247D-01-0.110D-01 0.278D+00 0.758D+00
 Coeff:      0.553D-04-0.102D-03 0.814D-04 0.783D-04 0.417D-03-0.499D-03
 Coeff:     -0.247D-01-0.110D-01 0.278D+00 0.758D+00
 Gap=     0.232 Goal=   None    Shift=    0.000
 RMSDP=3.11D-06 MaxDP=2.24D-04 DE=-2.12D-07 OVMax= 3.33D-05

 Cycle  11  Pass 1  IDiag  1:
 RMSU=  1.01D-06    CP:  9.22D-01  7.30D-02  7.76D-01  4.76D-01  1.03D+00
                    CP:  8.68D-01  1.12D+00  1.15D+00  1.25D+00  9.40D-01
 E= -946.483261366240     Delta-E=       -0.000000018078 Rises=F Damp=F
 DIIS: error= 1.42D-06 at cycle  11 NSaved=  11.
 NSaved=11 IEnMin=11 EnMin= -946.483261366240     IErMin=11 ErrMin= 1.42D-06
 ErrMax= 1.42D-06  0.00D+00 EMaxC= 1.00D-01 BMatC= 2.09D-09 BMatP= 1.65D-08
 IDIUse=1 WtCom= 1.00D+00 WtEn= 0.00D+00
 Coeff-Com:  0.150D-04-0.310D-04 0.153D-03-0.285D-04 0.116D-02 0.882D-03
 Coeff-Com: -0.113D-01-0.162D-01 0.311D-01 0.251D+00 0.743D+00
 Coeff:      0.150D-04-0.310D-04 0.153D-03-0.285D-04 0.116D-02 0.882D-03
 Coeff:     -0.113D-01-0.162D-01 0.311D-01 0.251D+00 0.743D+00
 Gap=     0.232 Goal=   None    Shift=    0.000
 RMSDP=9.91D-07 MaxDP=1.19D-04 DE=-1.81D-08 OVMax= 1.40D-05

 Cycle  12  Pass 1  IDiag  1:
 RMSU=  4.63D-07    CP:  9.22D-01  7.30D-02  7.76D-01  4.76D-01  1.03D+00
                    CP:  8.69D-01  1.12D+00  1.15D+00  1.26D+00  9.54D-01
                    CP:  1.18D+00
 E= -946.483261368726     Delta-E=       -0.000000002486 Rises=F Damp=F
 DIIS: error= 7.33D-07 at cycle  12 NSaved=  12.
 NSaved=12 IEnMin=12 EnMin= -946.483261368726     IErMin=12 ErrMin= 7.33D-07
 ErrMax= 7.33D-07  0.00D+00 EMaxC= 1.00D-01 BMatC= 2.13D-10 BMatP= 2.09D-09
 IDIUse=1 WtCom= 1.00D+00 WtEn= 0.00D+00
 Coeff-Com: -0.137D-06-0.210D-06 0.392D-04-0.103D-04 0.147D-03 0.205D-03
 Coeff-Com:  0.519D-03-0.953D-03-0.216D-01-0.452D-01 0.132D+00 0.935D+00
 Coeff:     -0.137D-06-0.210D-06 0.392D-04-0.103D-04 0.147D-03 0.205D-03
 Coeff:      0.519D-03-0.953D-03-0.216D-01-0.452D-01 0.132D+00 0.935D+00
 Gap=     0.232 Goal=   None    Shift=    0.000
 RMSDP=2.81D-07 MaxDP=2.62D-05 DE=-2.49D-09 OVMax= 8.16D-06

 Cycle  13  Pass 1  IDiag  1:
 RMSU=  1.45D-07    CP:  9.22D-01  7.30D-02  7.76D-01  4.76D-01  1.03D+00
                    CP:  8.69D-01  1.11D+00  1.15D+00  1.26D+00  9.68D-01
                    CP:  1.26D+00  1.17D+00
 E= -946.483261369074     Delta-E=       -0.000000000348 Rises=F Damp=F
 DIIS: error= 1.04D-07 at cycle  13 NSaved=  13.
 NSaved=13 IEnMin=13 EnMin= -946.483261369074     IErMin=13 ErrMin= 1.04D-07
 ErrMax= 1.04D-07  0.00D+00 EMaxC= 1.00D-01 BMatC= 1.23D-11 BMatP= 2.13D-10
 IDIUse=1 WtCom= 1.00D+00 WtEn= 0.00D+00
 Coeff-Com: -0.521D-06 0.289D-06-0.343D-05-0.192D-06-0.436D-04 0.471D-05
 Coeff-Com:  0.778D-03 0.839D-03-0.553D-02-0.288D-01-0.400D-01 0.212D+00
 Coeff-Com:  0.861D+00
 Coeff:     -0.521D-06 0.289D-06-0.343D-05-0.192D-06-0.436D-04 0.471D-05
 Coeff:      0.778D-03 0.839D-03-0.553D-02-0.288D-01-0.400D-01 0.212D+00
 Coeff:      0.861D+00
 Gap=     0.232 Goal=   None    Shift=    0.000
 RMSDP=7.67D-08 MaxDP=3.88D-06 DE=-3.48D-10 OVMax= 2.26D-06

 Cycle  14  Pass 1  IDiag  1:
 RMSU=  3.61D-08    CP:  9.22D-01  7.30D-02  7.76D-01  4.76D-01  1.03D+00
                    CP:  8.69D-01  1.11D+00  1.15D+00  1.26D+00  9.66D-01
                    CP:  1.29D+00  1.24D+00  1.19D+00
 E= -946.483261369098     Delta-E=       -0.000000000025 Rises=F Damp=F
 DIIS: error= 3.58D-08 at cycle  14 NSaved=  14.
 NSaved=14 IEnMin=14 EnMin= -946.483261369098     IErMin=14 ErrMin= 3.58D-08
 ErrMax= 3.58D-08  0.00D+00 EMaxC= 1.00D-01 BMatC= 2.01D-12 BMatP= 1.23D-11
 IDIUse=1 WtCom= 1.00D+00 WtEn= 0.00D+00
 Coeff-Com: -0.121D-06-0.807D-07-0.634D-05 0.104D-05-0.292D-04-0.133D-04
 Coeff-Com:  0.178D-03 0.376D-03 0.677D-03-0.528D-02-0.324D-01-0.309D-01
 Coeff-Com:  0.305D+00 0.762D+00
 Coeff:     -0.121D-06-0.807D-07-0.634D-05 0.104D-05-0.292D-04-0.133D-04
 Coeff:      0.178D-03 0.376D-03 0.677D-03-0.528D-02-0.324D-01-0.309D-01
 Coeff:      0.305D+00 0.762D+00
 Gap=     0.232 Goal=   None    Shift=    0.000
 RMSDP=2.52D-08 MaxDP=2.13D-06 DE=-2.46D-11 OVMax= 7.72D-07

 Cycle  15  Pass 1  IDiag  1:
 RMSU=  1.29D-08    CP:  9.22D-01  7.30D-02  7.76D-01  4.76D-01  1.03D+00
                    CP:  8.69D-01  1.11D+00  1.15D+00  1.26D+00  9.66D-01
                    CP:  1.29D+00  1.26D+00  1.28D+00  1.16D+00
 E= -946.483261369096     Delta-E=        0.000000000002 Rises=F Damp=F
 DIIS: error= 1.01D-08 at cycle  15 NSaved=  15.
 NSaved=15 IEnMin=14 EnMin= -946.483261369098     IErMin=15 ErrMin= 1.01D-08
 ErrMax= 1.01D-08  0.00D+00 EMaxC= 1.00D-01 BMatC= 1.44D-13 BMatP= 2.01D-12
 IDIUse=1 WtCom= 1.00D+00 WtEn= 0.00D+00
 Coeff-Com: -0.254D-07 0.853D-07-0.147D-05 0.180D-06-0.279D-05-0.216D-05
 Coeff-Com: -0.349D-04 0.365D-04 0.743D-03 0.164D-02-0.363D-02-0.294D-01
 Coeff-Com: -0.212D-01 0.191D+00 0.861D+00
 Coeff:     -0.254D-07 0.853D-07-0.147D-05 0.180D-06-0.279D-05-0.216D-05
 Coeff:     -0.349D-04 0.365D-04 0.743D-03 0.164D-02-0.363D-02-0.294D-01
 Coeff:     -0.212D-01 0.191D+00 0.861D+00
 Gap=     0.232 Goal=   None    Shift=    0.000
 RMSDP=1.01D-08 MaxDP=6.09D-07 DE= 2.27D-12 OVMax= 2.32D-07

 Cycle  16  Pass 1  IDiag  1:
 RMSU=  3.74D-09    CP:  9.22D-01  7.30D-02  7.76D-01  4.76D-01  1.03D+00
                    CP:  8.69D-01  1.11D+00  1.15D+00  1.26D+00  9.65D-01
                    CP:  1.29D+00  1.26D+00  1.32D+00  1.27D+00  1.26D+00
 E= -946.483261369091     Delta-E=        0.000000000005 Rises=F Damp=F
 DIIS: error= 3.40D-09 at cycle  16 NSaved=  16.
 NSaved=16 IEnMin=14 EnMin= -946.483261369098     IErMin=16 ErrMin= 3.40D-09
 ErrMax= 3.40D-09  0.00D+00 EMaxC= 1.00D-01 BMatC= 1.09D-14 BMatP= 1.44D-13
 IDIUse=1 WtCom= 1.00D+00 WtEn= 0.00D+00
 Coeff-Com: -0.198D-07 0.854D-07 0.795D-07-0.423D-07 0.137D-05 0.219D-06
 Coeff-Com: -0.224D-04-0.118D-04 0.116D-03 0.749D-03 0.168D-02-0.429D-02
 Coeff-Com: -0.285D-01-0.119D-01 0.197D+00 0.845D+00
 Coeff:     -0.198D-07 0.854D-07 0.795D-07-0.423D-07 0.137D-05 0.219D-06
 Coeff:     -0.224D-04-0.118D-04 0.116D-03 0.749D-03 0.168D-02-0.429D-02
 Coeff:     -0.285D-01-0.119D-01 0.197D+00 0.845D+00
 Gap=     0.232 Goal=   None    Shift=    0.000
 RMSDP=3.24D-09 MaxDP=2.58D-07 DE= 4.55D-12 OVMax= 5.50D-08

 SCF Done:  E(RM062X) =  -946.483261369     A.U. after   16 cycles
            NFock= 16  Conv=0.32D-08     -V/T= 2.0024
 KE= 9.442111159269D+02 PE=-4.109374115592D+03 EE= 1.265723277568D+03
 Leave Link  502 at Mon Oct 14 09:13:01 2019, MaxMem= 10737418240 cpu:            1820.3 elap:              76.1
 (Enter /apps/cent7/gaussian/g16-A.03/g16-haswell/g16/l601.exe)
 Copying SCF densities to generalized density rwf, IOpCl= 0 IROHF=0.

 **********************************************************************

            Population analysis using the SCF density.

 **********************************************************************

 Orbital symmetries:
       Occupied  (A) (A) (A) (A) (A) (A) (A) (A) (A) (A) (A) (A)
                 (A) (A) (A) (A) (A) (A) (A) (A) (A) (A) (A) (A)
                 (A) (A) (A) (A) (A) (A) (A) (A) (A) (A) (A) (A)
                 (A) (A) (A) (A) (A) (A) (A) (A) (A) (A) (A) (A)
                 (A) (A) (A) (A) (A) (A) (A) (A) (A) (A) (A) (A)
                 (A)
       Virtual   (A) (A) (A) (A) (A) (A) (A) (A) (A) (A) (A) (A)
                 (A) (A) (A) (A) (A) (A) (A) (A) (A) (A) (A) (A)
                 (A) (A) (A) (A) (A) (A) (A) (A) (A) (A) (A) (A)
                 (A) (A) (A) (A) (A) (A) (A) (A) (A) (A) (A) (A)
                 (A) (A) (A) (A) (A) (A) (A) (A) (A) (A) (A) (A)
                 (A) (A) (A) (A) (A) (A) (A) (A) (A) (A) (A) (A)
                 (A) (A) (A) (A) (A) (A) (A) (A) (A) (A) (A) (A)
                 (A) (A) (A) (A) (A) (A) (A) (A) (A) (A) (A) (A)
                 (A) (A) (A) (A) (A) (A) (A) (A) (A) (A) (A) (A)
                 (A) (A) (A) (A) (A) (A) (A) (A) (A) (A) (A) (A)
                 (A) (A) (A) (A) (A) (A) (A) (A) (A) (A) (A) (A)
                 (A) (A) (A) (A) (A) (A) (A) (A) (A) (A) (A) (A)
                 (A) (A) (A) (A) (A) (A) (A) (A) (A) (A) (A) (A)
                 (A) (A) (A) (A) (A) (A) (A) (A) (A) (A) (A) (A)
                 (A) (A) (A) (A) (A) (A) (A) (A) (A) (A) (A) (A)
                 (A) (A) (A) (A) (A) (A) (A) (A) (A) (A) (A) (A)
                 (A) (A) (A) (A) (A) (A) (A) (A) (A) (A) (A) (A)
                 (A) (A) (A) (A) (A) (A) (A) (A) (A) (A) (A) (A)
                 (A) (A) (A) (A) (A) (A) (A) (A) (A) (A) (A) (A)
                 (A) (A) (A) (A) (A) (A) (A) (A) (A) (A) (A) (A)
                 (A) (A) (A) (A) (A) (A) (A) (A) (A) (A) (A) (A)
                 (A) (A) (A) (A) (A) (A) (A) (A) (A) (A) (A) (A)
                 (A) (A) (A) (A) (A) (A) (A) (A) (A) (A) (A) (A)
                 (A) (A) (A) (A) (A) (A) (A) (A) (A) (A) (A) (A)
                 (A) (A) (A) (A) (A) (A) (A) (A) (A) (A) (A) (A)
                 (A) (A) (A) (A) (A) (A) (A) (A) (A) (A) (A) (A)
                 (A) (A) (A) (A) (A) (A) (A) (A) (A) (A) (A) (A)
                 (A) (A) (A) (A) (A) (A) (A) (A) (A) (A) (A) (A)
                 (A) (A) (A) (A) (A) (A) (A) (A) (A) (A) (A) (A)
                 (A) (A) (A) (A) (A) (A) (A) (A) (A) (A) (A) (A)
                 (A) (A) (A) (A) (A) (A) (A) (A) (A) (A) (A) (A)
                 (A) (A) (A) (A) (A) (A) (A) (A) (A) (A) (A) (A)
                 (A) (A) (A) (A) (A) (A) (A) (A) (A) (A) (A) (A)
                 (A) (A) (A) (A) (A) (A) (A) (A) (A) (A) (A) (A)
                 (A) (A) (A) (A) (A) (A) (A) (A) (A) (A) (A) (A)
                 (A) (A) (A) (A) (A) (A) (A) (A) (A) (A) (A) (A)
                 (A) (A) (A) (A) (A) (A) (A) (A) (A) (A) (A) (A)
 The electronic state is 1-A.
 Alpha  occ. eigenvalues --  -90.21571 -19.86846 -10.76286 -10.75601 -10.69843
 Alpha  occ. eigenvalues --  -10.66215 -10.63535 -10.61565 -10.60149 -10.59011
 Alpha  occ. eigenvalues --  -10.58173 -10.57470 -10.57121 -10.55725  -8.57375
 Alpha  occ. eigenvalues --   -6.49555  -6.49238  -6.48900  -1.40229  -1.12872
 Alpha  occ. eigenvalues --   -1.05461  -1.00480  -0.97650  -0.95651  -0.93339
 Alpha  occ. eigenvalues --   -0.90197  -0.86382  -0.82361  -0.81560  -0.78448
 Alpha  occ. eigenvalues --   -0.75807  -0.75022  -0.72674  -0.72074  -0.71893
 Alpha  occ. eigenvalues --   -0.70164  -0.68652  -0.68036  -0.67380  -0.64834
 Alpha  occ. eigenvalues --   -0.63146  -0.62336  -0.60991  -0.59788  -0.57474
 Alpha  occ. eigenvalues --   -0.57016  -0.54709  -0.54268  -0.54207  -0.53015
 Alpha  occ. eigenvalues --   -0.52197  -0.51509  -0.49255  -0.49086  -0.47680
 Alpha  occ. eigenvalues --   -0.46951  -0.46243  -0.45135  -0.43392  -0.41297
 Alpha  occ. eigenvalues --   -0.40940
 Alpha virt. eigenvalues --   -0.17746  -0.13406  -0.13109  -0.11149  -0.10957
 Alpha virt. eigenvalues --   -0.09918  -0.09034  -0.08212  -0.07256  -0.06983
 Alpha virt. eigenvalues --   -0.06676  -0.06274  -0.05218  -0.05073  -0.04831
 Alpha virt. eigenvalues --   -0.04044  -0.03893  -0.03515  -0.02983  -0.02597
 Alpha virt. eigenvalues --   -0.02542  -0.02036  -0.01692  -0.01571  -0.00958
 Alpha virt. eigenvalues --   -0.00862  -0.00377  -0.00074   0.00125   0.00620
 Alpha virt. eigenvalues --    0.01116   0.01745   0.01944   0.02228   0.02508
 Alpha virt. eigenvalues --    0.02521   0.02754   0.03060   0.03268   0.03989
 Alpha virt. eigenvalues --    0.04020   0.04548   0.04631   0.05005   0.05073
 Alpha virt. eigenvalues --    0.05538   0.05615   0.05977   0.06329   0.06502
 Alpha virt. eigenvalues --    0.06894   0.07154   0.07376   0.07902   0.08337
 Alpha virt. eigenvalues --    0.08425   0.08717   0.08895   0.09181   0.09406
 Alpha virt. eigenvalues --    0.09941   0.10011   0.10385   0.10589   0.10767
 Alpha virt. eigenvalues --    0.11192   0.11266   0.11425   0.11954   0.12131
 Alpha virt. eigenvalues --    0.12462   0.12933   0.13085   0.13580   0.13712
 Alpha virt. eigenvalues --    0.13923   0.14478   0.14751   0.14907   0.15539
 Alpha virt. eigenvalues --    0.15663   0.15996   0.16356   0.16881   0.17431
 Alpha virt. eigenvalues --    0.17498   0.17846   0.18233   0.18590   0.18800
 Alpha virt. eigenvalues --    0.19422   0.19795   0.19869   0.20197   0.20347
 Alpha virt. eigenvalues --    0.20615   0.20705   0.21232   0.21834   0.22139
 Alpha virt. eigenvalues --    0.22523   0.22975   0.23058   0.23546   0.23879
 Alpha virt. eigenvalues --    0.24130   0.24670   0.25368   0.25643   0.26666
 Alpha virt. eigenvalues --    0.26696   0.26953   0.27271   0.27718   0.28151
 Alpha virt. eigenvalues --    0.28869   0.29425   0.29477   0.30418   0.30751
 Alpha virt. eigenvalues --    0.32016   0.33176   0.33614   0.33916   0.34838
 Alpha virt. eigenvalues --    0.35218   0.35881   0.37656   0.38532   0.39391
 Alpha virt. eigenvalues --    0.40364   0.40759   0.41570   0.42245   0.43261
 Alpha virt. eigenvalues --    0.44101   0.44853   0.44999   0.45426   0.46431
 Alpha virt. eigenvalues --    0.47155   0.47476   0.49153   0.50420   0.50553
 Alpha virt. eigenvalues --    0.51848   0.52864   0.54068   0.54449   0.55136
 Alpha virt. eigenvalues --    0.55776   0.56108   0.58009   0.58201   0.58770
 Alpha virt. eigenvalues --    0.59963   0.60233   0.61614   0.61877   0.62789
 Alpha virt. eigenvalues --    0.63265   0.63702   0.64115   0.64881   0.65597
 Alpha virt. eigenvalues --    0.65752   0.66263   0.67326   0.67910   0.68013
 Alpha virt. eigenvalues --    0.68474   0.69287   0.70156   0.70348   0.70475
 Alpha virt. eigenvalues --    0.70998   0.71226   0.71523   0.71698   0.72005
 Alpha virt. eigenvalues --    0.72644   0.73460   0.73702   0.74198   0.74733
 Alpha virt. eigenvalues --    0.75093   0.75444   0.76789   0.77047   0.77645
 Alpha virt. eigenvalues --    0.78224   0.79118   0.79921   0.80617   0.83997
 Alpha virt. eigenvalues --    0.85160   0.86365   0.87685   0.88107   0.90945
 Alpha virt. eigenvalues --    0.91287   0.94128   0.94601   0.95533   0.96716
 Alpha virt. eigenvalues --    0.97755   0.98924   0.99268   0.99664   1.02339
 Alpha virt. eigenvalues --    1.02875   1.03337   1.08873   1.10113   1.12788
 Alpha virt. eigenvalues --    1.15875   1.17555   1.19575   1.19825   1.22233
 Alpha virt. eigenvalues --    1.23653   1.24553   1.25076   1.25536   1.26567
 Alpha virt. eigenvalues --    1.27299   1.27879   1.29090   1.29917   1.31351
 Alpha virt. eigenvalues --    1.32590   1.33157   1.38567   1.39278   1.40684
 Alpha virt. eigenvalues --    1.41911   1.43536   1.44132   1.44963   1.45251
 Alpha virt. eigenvalues --    1.46471   1.47929   1.48643   1.49088   1.50057
 Alpha virt. eigenvalues --    1.50479   1.51692   1.52288   1.53122   1.53579
 Alpha virt. eigenvalues --    1.54350   1.54984   1.55970   1.56370   1.56976
 Alpha virt. eigenvalues --    1.57461   1.57652   1.58405   1.59326   1.59998
 Alpha virt. eigenvalues --    1.60797   1.61104   1.61981   1.62528   1.63767
 Alpha virt. eigenvalues --    1.64161   1.65091   1.65591   1.66242   1.67423
 Alpha virt. eigenvalues --    1.68410   1.70457   1.70992   1.71535   1.72866
 Alpha virt. eigenvalues --    1.73287   1.75345   1.75669   1.77261   1.77780
 Alpha virt. eigenvalues --    1.78091   1.78702   1.78828   1.79453   1.80144
 Alpha virt. eigenvalues --    1.81408   1.82862   1.84273   1.85125   1.85645
 Alpha virt. eigenvalues --    1.86985   1.87943   1.89711   1.91535   1.91943
 Alpha virt. eigenvalues --    1.93546   1.95822   1.97080   1.98741   1.99269
 Alpha virt. eigenvalues --    2.01043   2.02058   2.03497   2.05288   2.06144
 Alpha virt. eigenvalues --    2.08059   2.09511   2.10840   2.11652   2.13862
 Alpha virt. eigenvalues --    2.14528   2.15253   2.17848   2.18282   2.18714
 Alpha virt. eigenvalues --    2.21504   2.24746   2.24864   2.28557   2.29680
 Alpha virt. eigenvalues --    2.30490   2.32988   2.34393   2.35035   2.36533
 Alpha virt. eigenvalues --    2.37351   2.38792   2.40168   2.40406   2.40975
 Alpha virt. eigenvalues --    2.42698   2.43021   2.44230   2.44256   2.44865
 Alpha virt. eigenvalues --    2.45301   2.45595   2.47525   2.48579   2.50074
 Alpha virt. eigenvalues --    2.50709   2.51643   2.52962   2.53300   2.54721
 Alpha virt. eigenvalues --    2.56125   2.56766   2.57899   2.57991   2.58633
 Alpha virt. eigenvalues --    2.59541   2.60081   2.61866   2.63613   2.63674
 Alpha virt. eigenvalues --    2.64312   2.65206   2.66648   2.67720   2.67975
 Alpha virt. eigenvalues --    2.68606   2.70271   2.70938   2.71741   2.72415
 Alpha virt. eigenvalues --    2.74743   2.75340   2.76710   2.79133   2.79932
 Alpha virt. eigenvalues --    2.81060   2.82629   2.83083   2.84369   2.86605
 Alpha virt. eigenvalues --    2.87395   2.87812   2.88123   2.90721   2.91799
 Alpha virt. eigenvalues --    2.93351   2.93569   2.95283   2.95765   2.97431
 Alpha virt. eigenvalues --    2.98542   2.99278   3.00938   3.01729   3.02720
 Alpha virt. eigenvalues --    3.06185   3.13029   3.16805   3.20756   3.24339
 Alpha virt. eigenvalues --    3.30427   3.35346   3.38685   3.63004   3.63847
 Alpha virt. eigenvalues --    3.68330   3.69153   3.76657   3.80514   3.82887
 Alpha virt. eigenvalues --    3.84007   3.85454   3.86872   3.87214   3.88488
 Alpha virt. eigenvalues --    3.92502   3.94228   3.95407   3.98402   4.00467
 Alpha virt. eigenvalues --    4.03354   4.05642   4.10300   4.10576   4.17916
 Alpha virt. eigenvalues --    4.26526   4.33957   4.39928   4.92413   4.98276
 Alpha virt. eigenvalues --    5.39518   7.93986  17.33712  17.37904  17.42537
 Alpha virt. eigenvalues --   23.76889  23.84764  23.85485  23.88230  23.91087
 Alpha virt. eigenvalues --   23.92904  23.94135  23.95017  23.95471  23.97373
 Alpha virt. eigenvalues --   23.98437  24.07814  49.78844 189.22955
          Condensed to atoms (all electrons):
               1          2          3          4          5          6
     1  C    5.556749   0.222006   0.126413  -0.072148  -0.150604  -0.052218
     2  C    0.222006   6.241806   0.236155   0.030579  -0.335250  -0.425850
     3  C    0.126413   0.236155   6.466810   1.066492   0.107305  -0.792096
     4  C   -0.072148   0.030579   1.066492   6.894719   1.084670  -0.510978
     5  C   -0.150604  -0.335250   0.107305   1.084670   9.284838   0.221310
     6  C   -0.052218  -0.425850  -0.792096  -0.510978   0.221310   9.193463
     7  C   -0.021123  -0.153831  -0.883124  -1.104609  -1.217839   1.508501
     8  C   -0.003310  -0.043743  -0.182695  -1.173516  -1.087782  -1.582888
     9  C   -0.000622  -0.008905  -0.127485  -0.255795  -2.309213  -0.961377
    10  C   -0.000023  -0.000655  -0.002795  -0.092798  -0.075058  -1.300302
    11  C   -0.000002  -0.000039  -0.001639  -0.002237  -0.101569  -0.058280
    12  S    0.000000   0.000000  -0.000019   0.000480  -0.002989   0.019143
[...]
     8  C    0.000295   0.000591  -0.002229   0.002334  -0.010289   0.012737
     9  C   -0.000054   0.000185   0.000930  -0.001846   0.000646  -0.004132
    10  C   -0.000003   0.000094  -0.000102   0.001002  -0.000698   0.002217
    11  C   -0.000000   0.000002   0.000021  -0.000063  -0.000019   0.000182
    12  S   -0.000000   0.000001  -0.000001   0.000003   0.000016  -0.000006
    13  C    0.000000  -0.000000  -0.000001   0.000010  -0.000013   0.000039
    14  O   -0.000000  -0.000000   0.000000  -0.000000   0.000000  -0.000000
    15  H   -0.003559  -0.001759  -0.001942   0.000631   0.000431   0.000087
    16  H   -0.022451   0.005874  -0.002107   0.001572  -0.000456   0.000562
    17  H    0.014013  -0.002194   0.005780  -0.000437   0.001556  -0.000196
    18  H   -0.086475   0.020506  -0.032802   0.005978  -0.003977  -0.000109
    19  H    0.617322  -0.032866   0.020654  -0.004251   0.005782   0.002317
    20  H   -0.032866   0.644780  -0.115509   0.023821  -0.037645  -0.004491
    21  H    0.020654  -0.115509   0.645661  -0.038052   0.024286   0.003710
    22  H   -0.004251   0.023821  -0.038052   0.653465  -0.120897   0.021326
    23  H    0.005782  -0.037645   0.024286  -0.120897   0.655521  -0.033528
    24  H    0.002317  -0.004491   0.003710   0.021326  -0.033528   0.648247
    25  H   -0.000067   0.004204  -0.004614  -0.033163   0.020927  -0.117810
    26  H    0.001191  -0.002536   0.005874  -0.015970   0.010098   0.020450
    27  H   -0.000714   0.005696  -0.002807   0.010007  -0.017029  -0.032375
    28  H    0.000068  -0.001449   0.001962  -0.003907   0.007464  -0.013507
    29  H   -0.000212   0.001634  -0.001595   0.007158  -0.003364   0.008495
    30  H   -0.000051  -0.000115   0.000052  -0.000390   0.001339  -0.002862
    31  H   -0.000026   0.000016  -0.000136   0.001763   0.000251   0.005808
    32  H   -0.000011   0.000116  -0.000146  -0.000032  -0.000322  -0.000868
    33  H    0.000019  -0.000134   0.000114  -0.000136  -0.000066   0.001780
    34  H   -0.000002   0.000027  -0.000035  -0.000029  -0.000099  -0.000217
    35  H    0.000006  -0.000031   0.000028  -0.000143  -0.000070   0.000164
    36  H   -0.000000   0.000001  -0.000001   0.000019   0.000003   0.000028
    37  H   -0.000000  -0.000000   0.000001  -0.000002   0.000020  -0.000079
    38  H    0.000000   0.000000  -0.000000   0.000000  -0.000001   0.000002
    39  H    0.000000  -0.000000   0.000000  -0.000002   0.000004  -0.000007
    40  H    0.000000  -0.000000   0.000000  -0.000003   0.000001  -0.000005
    41  H   -0.000000   0.000000  -0.000000   0.000000   0.000000  -0.000000
              25         26         27         28         29         30
     1  C   -0.003686   0.001139   0.000846   0.000183   0.000232  -0.000066
     2  C   -0.008022  -0.002883  -0.005327   0.001270   0.001103   0.000229
     3  C    0.009922   0.011437   0.009664  -0.006117  -0.003763   0.000147
     4  C   -0.102590   0.047392   0.006712   0.025895   0.019507  -0.009394
     5  C    0.483032  -0.080972  -0.095359   0.004255  -0.005946   0.007046
     6  C   -0.033059   0.437731   0.465324  -0.060349  -0.064280   0.017303
     7  C   -0.005068  -0.079968  -0.064059   0.431542   0.451768  -0.056147
     8  C    0.011861  -0.005078   0.018677  -0.066362  -0.096200   0.431881
     9  C   -0.007697   0.007565   0.013609   0.004541   0.045214  -0.012435
    10  C   -0.000209   0.001772  -0.006278   0.003632  -0.011202   0.009925
    11  C   -0.000880   0.004194  -0.000034   0.003812   0.005382  -0.041016
    12  S   -0.000002   0.000198  -0.000707  -0.000475   0.000011  -0.000769
    13  C    0.000005  -0.000380   0.000417  -0.001583   0.000742  -0.000274
    14  O   -0.000000   0.000001  -0.000001   0.000058  -0.000058   0.000390
    15  H    0.000022  -0.000051  -0.000062  -0.000003  -0.000002   0.000003
    16  H   -0.000215  -0.000110   0.000054  -0.000018   0.000008   0.000006
    17  H    0.000556   0.000050  -0.000109  -0.000000  -0.000016  -0.000008
    18  H    0.002393  -0.000879   0.001229  -0.000190   0.000082   0.000009
    19  H   -0.000067   0.001191  -0.000714   0.000068  -0.000212  -0.000051
    20  H    0.004204  -0.002536   0.005696  -0.001449   0.001634  -0.000115
    21  H   -0.004614   0.005874  -0.002807   0.001962  -0.001595   0.000052
    22  H   -0.033163  -0.015970   0.010007  -0.003907   0.007158  -0.000390
    23  H    0.020927   0.010098  -0.017029   0.007464  -0.003364   0.001339
    24  H   -0.117810   0.020450  -0.032375  -0.013507   0.008495  -0.002862
    25  H    0.649404  -0.033937   0.022227   0.006590  -0.011609   0.005457
    26  H   -0.033937   0.672724  -0.130873   0.029756  -0.043158  -0.015125
    27  H    0.022227  -0.130873   0.673210  -0.043490   0.026299   0.008411
    28  H    0.006590   0.029756  -0.043490   0.673264  -0.132496   0.022298
    29  H   -0.011609  -0.043158   0.026299  -0.132496   0.667052  -0.033579
    30  H    0.005457  -0.015125   0.008411   0.022298  -0.033579   0.651489
    31  H   -0.003169   0.005697  -0.019528  -0.037439   0.025961  -0.120241
    32  H    0.001960  -0.004525   0.009468  -0.023619   0.013319   0.018743
    33  H   -0.001444   0.008823  -0.004579   0.014313  -0.021564  -0.036269
    34  H    0.000275  -0.001305   0.002756  -0.005857   0.008743  -0.012462
    35  H   -0.000173   0.002924  -0.000384   0.010431  -0.007068   0.006372
    36  H   -0.000060  -0.000275  -0.000289  -0.001366   0.001706   0.000027
    37  H    0.000054  -0.000278  -0.000231   0.001729  -0.001349   0.007582
    38  H    0.000000  -0.000017   0.000024  -0.000089   0.000024  -0.000030
    39  H   -0.000003   0.000073  -0.000128   0.000358  -0.000210  -0.000198
    40  H   -0.000008   0.000109  -0.000004   0.000285  -0.000144  -0.000030
    41  H   -0.000000  -0.000001  -0.000005   0.000006   0.000016  -0.000012
              31         32         33         34         35         36
     1  C   -0.000023  -0.000004  -0.000004   0.000003  -0.000001   0.000000
     2  C    0.000341  -0.000076  -0.000038  -0.000001   0.000002   0.000002
     3  C    0.002051   0.000623   0.000507   0.000110  -0.000381   0.000059
     4  C   -0.009193  -0.002828  -0.002797   0.000989   0.001924  -0.000044
     5  C    0.035545  -0.000130   0.009680   0.001430  -0.009915   0.003080
     6  C   -0.022973  -0.008054  -0.017954  -0.011668   0.024899  -0.007276
     7  C   -0.053101   0.040851   0.014497   0.017392  -0.052463   0.026346
     8  C    0.396542  -0.095375  -0.004342  -0.056883   0.205762  -0.080881
     9  C   -0.102980   0.533478   0.291171   0.030952  -0.195860   0.054273
    10  C    0.095084  -0.105055   0.031486   0.262485   0.443322  -0.020772
    11  C   -0.008610  -0.021949   0.031141   0.088821   0.023708   0.280968
    12  S    0.011657   0.017986  -0.009947   0.069901  -0.073700   0.014487
    13  C    0.001118   0.005142  -0.004011   0.018066  -0.035712   0.024619
    14  O   -0.000475  -0.000301   0.001847  -0.010128   0.011201   0.003974
    15  H    0.000004  -0.000000   0.000000  -0.000000  -0.000000   0.000000
    16  H   -0.000007   0.000000  -0.000001  -0.000000   0.000000  -0.000000
    17  H    0.000008  -0.000000   0.000001   0.000000  -0.000000   0.000000
    18  H   -0.000076   0.000019  -0.000017   0.000005  -0.000000  -0.000000
    19  H   -0.000026  -0.000011   0.000019  -0.000002   0.000006  -0.000000
    20  H    0.000016   0.000116  -0.000134   0.000027  -0.000031   0.000001
    21  H   -0.000136  -0.000146   0.000114  -0.000035   0.000028  -0.000001
    22  H    0.001763  -0.000032  -0.000136  -0.000029  -0.000143   0.000019
    23  H    0.000251  -0.000322  -0.000066  -0.000099  -0.000070   0.000003
    24  H    0.005808  -0.000868   0.001780  -0.000217   0.000164   0.000028
    25  H   -0.003169   0.001960  -0.001444   0.000275  -0.000173  -0.000060
    26  H    0.005697  -0.004525   0.008823  -0.001305   0.002924  -0.000275
    27  H   -0.019528   0.009468  -0.004579   0.002756  -0.000384  -0.000289
    28  H   -0.037439  -0.023619   0.014313  -0.005857   0.010431  -0.001366
    29  H    0.025961   0.013319  -0.021564   0.008743  -0.007068   0.001706
    30  H   -0.120241   0.018743  -0.036269  -0.012462   0.006372   0.000027
    31  H    0.671507  -0.033305   0.019515   0.004568  -0.027592   0.008363
    32  H   -0.033305   0.648162  -0.134411   0.039779  -0.060041  -0.005303
    33  H    0.019515  -0.134411   0.661213  -0.061380   0.043820  -0.000430
    34  H    0.004568   0.039779  -0.061380   0.661865  -0.152518   0.003659
    35  H   -0.027592  -0.060041   0.043820  -0.152518   0.654418  -0.030275
    36  H    0.008363  -0.005303  -0.000430   0.003659  -0.030275   0.457218
    37  H   -0.000793  -0.005012   0.001000  -0.041050   0.010105  -0.010583
    38  H   -0.000092   0.000765   0.000005   0.002117   0.000561  -0.002585
    39  H    0.001045  -0.002648   0.003511  -0.021072   0.007617  -0.001653
    40  H   -0.001451  -0.001308   0.001260  -0.005184   0.010469  -0.001726
    41  H    0.000121  -0.000000  -0.000610   0.001433  -0.002061   0.000844
              37         38         39         40         41
     1  C   -0.000000  -0.000000  -0.000000   0.000000  -0.000000
     2  C   -0.000000  -0.000000  -0.000000   0.000000  -0.000000
     3  C   -0.000021  -0.000000  -0.000008  -0.000004  -0.000000
     4  C   -0.000016  -0.000011  -0.000039   0.000090   0.000000
     5  C   -0.000774   0.000018  -0.000269  -0.000387  -0.000006
     6  C    0.001642  -0.000375   0.001614   0.002524   0.000041
     7  C   -0.001873   0.000895  -0.005648  -0.006898  -0.000206
     8  C    0.025518  -0.001601   0.029650   0.019053   0.001271
     9  C    0.000658   0.017427  -0.029156  -0.064267  -0.009677
    10  C    0.120140  -0.007290   0.096417   0.006453   0.050420
    11  C    0.272044   0.042039  -0.014796   0.029886  -0.106120
    12  S   -0.128159  -0.143047  -0.107151   0.019056   0.068241
    13  C   -0.021414   0.442898   0.307423   0.308456  -0.001597
    14  O    0.006031  -0.000378   0.022476  -0.000016   0.253858
    15  H   -0.000000  -0.000000  -0.000000  -0.000000  -0.000000
    16  H    0.000000  -0.000000  -0.000000   0.000000  -0.000000
    17  H   -0.000000   0.000000  -0.000000  -0.000000   0.000000
    18  H    0.000000   0.000000  -0.000000   0.000000   0.000000
    19  H   -0.000000   0.000000   0.000000   0.000000  -0.000000
    20  H   -0.000000   0.000000  -0.000000  -0.000000   0.000000
    21  H    0.000001  -0.000000   0.000000   0.000000  -0.000000
    22  H   -0.000002   0.000000  -0.000002  -0.000003   0.000000
    23  H    0.000020  -0.000001   0.000004   0.000001   0.000000
    24  H   -0.000079   0.000002  -0.000007  -0.000005  -0.000000
    25  H    0.000054   0.000000  -0.000003  -0.000008  -0.000000
    26  H   -0.000278  -0.000017   0.000073   0.000109  -0.000001
    27  H   -0.000231   0.000024  -0.000128  -0.000004  -0.000005
    28  H    0.001729  -0.000089   0.000358   0.000285   0.000006
    29  H   -0.001349   0.000024  -0.000210  -0.000144   0.000016
    30  H    0.007582  -0.000030  -0.000198  -0.000030  -0.000012
    31  H   -0.000793  -0.000092   0.001045  -0.001451   0.000121
    32  H   -0.005012   0.000765  -0.002648  -0.001308  -0.000000
    33  H    0.001000   0.000005   0.003511   0.001260  -0.000610
    34  H   -0.041050   0.002117  -0.021072  -0.005184   0.001433
    35  H    0.010105   0.000561   0.007617   0.010469  -0.002061
    36  H   -0.010583  -0.002585  -0.001653  -0.001726   0.000844
    37  H    0.428372  -0.001556   0.013262  -0.014503   0.000779
    38  H   -0.001556   0.434006  -0.028735  -0.030649  -0.004936
    39  H    0.013262  -0.028735   0.525245  -0.018493  -0.003149
    40  H   -0.014503  -0.030649  -0.018493   0.480890   0.006817
    41  H    0.000779  -0.004936  -0.003149   0.006817   0.393550
 Mulliken charges:
               1
     1  C   -0.641589
     2  C   -0.203453
     3  C   -0.323283
     4  C   -0.212000
     5  C   -0.224206
     6  C   -0.292584
     7  C   -0.353926
     8  C   -0.218588
     9  C   -0.423886
    10  C   -0.210954
    11  C   -0.857971
    12  S    0.929437
    13  C   -0.739871
    14  O   -0.225176
    15  H    0.180568
    16  H    0.149197
    17  H    0.149192
    18  H    0.148715
    19  H    0.148471
    20  H    0.143563
    21  H    0.143512
    22  H    0.145740
    23  H    0.145618
    24  H    0.147929
    25  H    0.148596
    26  H    0.149121
    27  H    0.149743
    28  H    0.154606
    29  H    0.153358
    30  H    0.152767
    31  H    0.154243
    32  H    0.174915
    33  H    0.164430
    34  H    0.164514
    35  H    0.190658
    36  H    0.283843
    37  H    0.338755
    38  H    0.280612
    39  H    0.224670
    40  H    0.259732
    41  H    0.350983
 Sum of Mulliken charges =   1.00000
 Mulliken charges with hydrogens summed into heavy atoms:
               1
     1  C   -0.162632
     2  C    0.093733
     3  C   -0.036208
     4  C    0.079359
     5  C    0.072318
     6  C    0.006280
     7  C   -0.045962
     8  C    0.088422
     9  C   -0.084541
    10  C    0.144218
    11  C   -0.235373
    12  S    0.929437
    13  C    0.025143
    14  O    0.125807
 APT charges:
               1
     1  C    0.036775
     2  C    0.096175
     3  C    0.067596
     4  C    0.071923
     5  C    0.070974
     6  C    0.069656
     7  C    0.069990
     8  C    0.063616
     9  C    0.094823
    10  C    0.006110
    11  C    0.085276
    12  S    0.764549
    13  C   -0.072951
    14  O   -0.676009
    15  H   -0.022190
    16  H   -0.011792
    17  H   -0.011836
    18  H   -0.036747
    19  H   -0.036794
    20  H   -0.033342
    21  H   -0.033446
    22  H   -0.032087
    23  H   -0.032084
    24  H   -0.030254
    25  H   -0.030596
    26  H   -0.029461
    27  H   -0.029312
    28  H   -0.025416
    29  H   -0.025924
    30  H   -0.023068
    31  H   -0.023410
    32  H   -0.013003
    33  H   -0.013217
    34  H    0.002931
    35  H    0.016350
    36  H    0.051567
    37  H    0.025981
    38  H    0.100442
    39  H    0.098087
    40  H    0.071407
    41  H    0.378707
 Sum of APT charges =   1.00000
 APT charges with hydrogens summed into heavy atoms:
               1
     1  C   -0.009043
     2  C    0.022634
     3  C    0.000809
     4  C    0.007753
     5  C    0.010125
     6  C    0.010883
     7  C    0.018651
     8  C    0.017138
     9  C    0.068603
    10  C    0.025391
    11  C    0.162824
    12  S    0.764549
    13  C    0.196986
    14  O   -0.297301
 Electronic spatial extent (au):  <R**2>=          11740.6961
 Charge=              1.0000 electrons
 Dipole moment (field-independent basis, Debye):
    X=             22.7517    Y=              0.7716    Z=             -0.7602  Tot=             22.7775
 Quadrupole moment (field-independent basis, Debye-Ang):
   XX=             48.6913   YY=            -90.1114   ZZ=            -94.7847
   XY=              3.5594   XZ=             -6.1796   YZ=              3.6591
 Traceless Quadrupole moment (field-independent basis, Debye-Ang):
   XX=             94.0929   YY=            -44.7098   ZZ=            -49.3831
   XY=              3.5594   XZ=             -6.1796   YZ=              3.6591
 Octapole moment (field-independent basis, Debye-Ang**2):
  XXX=            922.2244  YYY=              3.0382  ZZZ=              3.6866  XYY=             78.0654
  XXY=             18.0342  XXZ=            -53.7574  XZZ=             32.9359  YZZ=             -0.6280
  YYZ=             -1.0478  XYZ=             18.0936
 Hexadecapole moment (field-independent basis, Debye-Ang**3):
 XXXX=          -8829.1070 YYYY=           -406.3650 ZZZZ=           -220.9552 XXXY=           -101.6233
 XXXZ=           -395.4240 YYYX=             12.1519 YYYZ=             16.0514 ZZZX=             16.9632
 ZZZY=             -0.2244 XXYY=          -2280.7395 XXZZ=          -2478.3862 YYZZ=           -105.2202
 XXYZ=            145.0399 YYXZ=             -3.5543 ZZXY=             -1.0134
 N-N= 9.622718827120D+02 E-N=-4.127658768410D+03  KE= 9.436990275930D+02
  Exact polarizability: 222.389   0.987 146.993   0.063  -0.321 131.060
 Approx polarizability: 195.529  -1.037 189.262   0.029   0.117 177.851
 No NMR shielding tensors so no spin-rotation constants.
 Leave Link  601 at Mon Oct 14 09:40:55 2019, MaxMem= 10737418240 cpu:               5.6 elap:               0.3
 (Enter /apps/cent7/gaussian/g16-A.03/g16-haswell/g16/l701.exe)
 ... and contract with generalized density number  0.
 Compute integral second derivatives.
 Leave Link  701 at Mon Oct 14 09:40:55 2019, MaxMem= 10737418240 cpu:               6.6 elap:               0.3
 (Enter /apps/cent7/gaussian/g16-A.03/g16-haswell/g16/l702.exe)
 L702 exits ... SP integral derivatives will be done elsewhere.
 Leave Link  702 at Mon Oct 14 09:40:55 2019, MaxMem= 10737418240 cpu:               0.5 elap:               0.0
 (Enter /apps/cent7/gaussian/g16-A.03/g16-haswell/g16/l703.exe)
 Integral derivatives from FoFJK, PRISM(SPDF).
 Compute integral second derivatives, UseDBF=F ICtDFT=           0.
 Calling FoFJK, ICntrl=    100127 FMM=F ISym2X=0 I1Cent= 0 IOpClX= 0 NMat=1 NMatS=1 NMatT=0.
 FoFJK:  IHMeth= 1 ICntrl=  100127 DoSepK=F KAlg= 0 I1Cent=           0 FoldK=F
 IRaf=         0 NMat=       1 IRICut=       1 DoRegI=T DoRafI=F ISym2E= 0 IDoP0=0 IntGTp=1.
 FoFCou: FMM=F IPFlag=           0 FMFlag=      100000 FMFlg1=         800
         NFxFlg=           0 DoJE=F BraDBF=F KetDBF=F FulRan=T
         wScrn=  0.000000 ICntrl=    100127 IOpCl=  0 I1Cent=           0 NGrid=           0
         NMat0=    1 NMatS0=      1 NMatT0=    0 NMatD0=    1 NMtDS0=    0 NMtDT0=    0
 Symmetry not used in FoFCou.
Error: software termination
Error: software termination
   rax 00007fff869495d8, rbx 00002af42214c810, rcx 0000000000000eb0
   rdx 00002af423bfb150, rsp 00007fff86949320, rbp 00007fff86949390
   rax fffffffffffffffc, rbx 00007ffd6b1955c0, rcx ffffffffffffffff
   rsi 0000000000000029, rdi 00000000000001d6, r8  00002af423bf9130
   rdx 0000000000000000, rsp 00007ffd6b195588, rbp 0000000000000001
   r9  00002af422bc3ee0, r10 00007fff869495e0, r11 00002af42214d820
   rsi 00007ffd6b1955c0, rdi 000000000002e4e0, r8  00002ab14d933700
   r12 00002af42214b800, r13 00002af421e336b0, r14 00002af4250545a0
   r9  0000000000000000, r10 0000000000000000, r11 0000000000000246
   r15 00002af425053590
   r12 00007ffd6b1955e0, r13 000000000000008c, r14 0000000000000000
   r15 00007ffd6b19bfa0
  /usr/lib64/libpthread.so.0(+0xf5d0) [0x2af41ff0a5d0]
  /apps/cent7/gaussian/g16-A.03/g16-haswell/g16/l703.exe() [0xa436b1]
  /apps/cent7/gaussian/g16-A.03/g16-haswell/g16/l703.exe() [0x7799c5]
  /apps/cent7/gaussian/g16-A.03/g16-haswell/g16/l703.exe() [0x6d30b0]
  /usr/lib64/libpthread.so.0(+0xf5d0) [0x2ab14d05c5d0]
  /apps/cent7/gaussian/g16-A.03/g16-haswell/g16/l703.exe() [0x574c46]
  /usr/lib64/libc.so.6(waitpid+0x1c) [0x2ab14d62fa3c]
  /apps/cent7/gaussian/g16-A.03/g16-haswell/g16/l703.exe() [0x46a63d]
  /usr/lib64/libc.so.6(+0x42de2) [0x2ab14d5adde2]
  /apps/cent7/gaussian/g16-A.03/g16-haswell/g16/l703.exe() [0x5a705b]
  /apps/cent7/gaussian/g16-A.03/g16-haswell/g16/g16() [0x4054ba]
  /apps/cent7/gaussian/g16-A.03/g16-haswell/g16/l703.exe() [0x4a6da7]
  /apps/cent7/gaussian/g16-A.03/g16-haswell/g16/g16() [0x4046f1]
  /apps/cent7/gaussian/g16-A.03/g16-haswell/g16/l703.exe() [0x4083be]
  /apps/cent7/gaussian/g16-A.03/g16-haswell/g16/g16() [0x40332d]
  /apps/cent7/gaussian/g16-A.03/g16-haswell/g16/l703.exe() [0x40646b]
  /usr/lib64/libc.so.6(__libc_start_main+0xf5) [0x2ab14d58d3d5]
  /apps/cent7/gaussian/g16-A.03/g16-haswell/g16/l703.exe() [0x4033f0]
  /apps/cent7/gaussian/g16-A.03/g16-haswell/g16/g16() [0x403229]
  /apps/cent7/gaussian/g16-A.03/g16-haswell/g16/l703.exe() [0x40332d]
  /usr/lib64/libc.so.6(__libc_start_main+0xf5) [0x2af42043b3d5]
  /apps/cent7/gaussian/g16-A.03/g16-haswell/g16/l703.exe() [0x403229]
