Title Card Required                                                     
Freq      RM062X                                                      6-311++G(d,p)       
Number of atoms                            I               17
Info1-9                                    I   N=           9
          44          44        1002           0           0         100
           6          18        -502
Full Title                                 C   N=           2
Title Card Required     
Route                                      C   N=           6
#P opt freq m062x/6-311++g(d,p) geom=connectivity temperatur
e=0.001     
Charge                                     I                0
Multiplicity                               I                1
Number of electrons                        I               50
Number of alpha electrons                  I               25
Number of beta electrons                   I               25
Number of basis functions                  I              209
Number of independent functions            I              209
Number of point charges in /Mol/           I                0
Number of translation vectors              I                0
Atomic numbers                             I   N=          17
           6           6           7           8           6           6
           1           1           1           1           1           1
           1           1           1           1           1
Nuclear charges                            R   N=          17
  6.00000000E+00  6.00000000E+00  7.00000000E+00  8.00000000E+00  6.00000000E+00
  6.00000000E+00  1.00000000E+00  1.00000000E+00  1.00000000E+00  1.00000000E+00
  1.00000000E+00  1.00000000E+00  1.00000000E+00  1.00000000E+00  1.00000000E+00
  1.00000000E+00  1.00000000E+00
Current cartesian coordinates              R   N=          51
 -4.65249494E+00 -7.22861088E-02 -6.41353061E-01 -2.28737719E+00 -1.21463158E+00
  5.19778461E-01 -1.22837614E-05 -1.38648290E-02 -4.37097720E-01  4.59573791E-05
  2.53932850E+00  3.33343782E-01  2.28735018E+00 -1.21471399E+00  5.19729598E-01
  4.65245819E+00 -7.23016467E-02 -6.41351556E-01 -6.33571983E+00 -1.02300823E+00
  7.83155453E-02 -4.78665314E+00  1.93381300E+00 -1.95988586E-01 -4.59849580E+00
 -2.75236940E-01 -2.69214529E+00 -2.35200810E+00 -1.07406970E+00  2.60572755E+00
 -2.15054898E+00 -3.21928309E+00  4.39582047E-02  3.00035713E-04  2.54180004E+00
  2.17252018E+00  2.35197210E+00 -1.07424404E+00  2.60568405E+00  2.15050546E+00
 -3.21933722E+00  4.38203327E-02  6.33569756E+00 -1.02308733E+00  7.81951350E-02
  4.59840311E+00 -2.75078290E-01 -2.69216053E+00  4.78664845E+00  1.93375752E+00
 -1.95813465E-01
Number of symbols in /Mol/                 I                0
Force Field                                I                0
Atom Types                                 C   N=          17
                                                            
                                                            
                                                            
                        
Int Atom Types                             I   N=          17
           0           0           0           0           0           0
           0           0           0           0           0           0
           0           0           0           0           0
MM charges                                 R   N=          17
  0.00000000E+00  0.00000000E+00  0.00000000E+00  0.00000000E+00  0.00000000E+00
  0.00000000E+00  0.00000000E+00  0.00000000E+00  0.00000000E+00  0.00000000E+00
  0.00000000E+00  0.00000000E+00  0.00000000E+00  0.00000000E+00  0.00000000E+00
  0.00000000E+00  0.00000000E+00
Integer atomic weights                     I   N=          17
          12          12          14          16          12          12
           1           1           1           1           1           1
           1           1           1           1           1
Real atomic weights                        R   N=          17
  1.20000000E+01  1.20000000E+01  1.40030740E+01  1.59949146E+01  1.20000000E+01
  1.20000000E+01  1.00782504E+00  1.00782504E+00  1.00782504E+00  1.00782504E+00
  1.00782504E+00  1.00782504E+00  1.00782504E+00  1.00782504E+00  1.00782504E+00
  1.00782504E+00  1.00782504E+00
Atom fragment info                         I   N=          17
           0           0           0           0           0           0
           0           0           0           0           0           0
           0           0           0           0           0
Atom residue num                           I   N=          17
           0           0           0           0           0           0
           0           0           0           0           0           0
           0           0           0           0           0
Nuclear spins                              I   N=          17
           0           0           2           0           0           0
           1           1           1           1           1           1
           1           1           1           1           1
Nuclear ZEff                               R   N=          17
 -3.60000000E+00 -3.60000000E+00 -4.55000000E+00 -5.60000000E+00 -3.60000000E+00
 -3.60000000E+00 -1.00000000E+00 -1.00000000E+00 -1.00000000E+00 -1.00000000E+00
 -1.00000000E+00 -1.00000000E+00 -1.00000000E+00 -1.00000000E+00 -1.00000000E+00
 -1.00000000E+00 -1.00000000E+00
Nuclear ZNuc                               R   N=          17
  6.00000000E+00  6.00000000E+00  7.00000000E+00  8.00000000E+00  6.00000000E+00
  6.00000000E+00  1.00000000E+00  1.00000000E+00  1.00000000E+00  1.00000000E+00
  1.00000000E+00  1.00000000E+00  1.00000000E+00  1.00000000E+00  1.00000000E+00
  1.00000000E+00  1.00000000E+00
Nuclear QMom                               R   N=          17
  0.00000000E+00  0.00000000E+00  2.04400000E+00  0.00000000E+00  0.00000000E+00
  0.00000000E+00  0.00000000E+00  0.00000000E+00  0.00000000E+00  0.00000000E+00
  0.00000000E+00  0.00000000E+00  0.00000000E+00  0.00000000E+00  0.00000000E+00
  0.00000000E+00  0.00000000E+00
Nuclear GFac                               R   N=          17
  0.00000000E+00  0.00000000E+00  4.03761000E-01  0.00000000E+00  0.00000000E+00
  0.00000000E+00  2.79284600E+00  2.79284600E+00  2.79284600E+00  2.79284600E+00
  2.79284600E+00  2.79284600E+00  2.79284600E+00  2.79284600E+00  2.79284600E+00
  2.79284600E+00  2.79284600E+00
MicOpt                                     I   N=          17
          -1          -1          -1          -1          -1          -1
          -1          -1          -1          -1          -1          -1
          -1          -1          -1          -1          -1
Number of residues                         I                0
Number of secondary structures             I                0
Redundant internal dimensions              I   N=           4
          76          16          28          32
Redundant internal coordinate indices      I   N=         304
           1           2           0           0           1           7
           0           0           1           8           0           0
           1           9           0           0           2           3
           0           0           2          10           0           0
           2          11           0           0           3           4
           0           0           3           5           0           0
           4          12           0           0           5           6
           0           0           5          13           0           0
           5          14           0           0           6          15
           0           0           6          16           0           0
           6          17           0           0           2           1
           7           0           2           1           8           0
           2           1           9           0           7           1
           8           0           7           1           9           0
           8           1           9           0           1           2
           3           0           1           2          10           0
           1           2          11           0           3           2
          10           0           3           2          11           0
          10           2          11           0           2           3
           4           0           2           3           5           0
           4           3           5           0           3           4
          12           0           3           5           6           0
           3           5          13           0           3           5
          14           0           6           5          13           0
           6           5          14           0          13           5
          14           0           5           6          15           0
           5           6          16           0           5           6
          17           0          15           6          16           0
          15           6          17           0          16           6
          17           0           7           1           2           3
           7           1           2          10           7           1
           2          11           8           1           2           3
           8           1           2          10           8           1
           2          11           9           1           2           3
           9           1           2          10           9           1
           2          11           1           2           3           4
           1           2           3           5          10           2
           3           4          10           2           3           5
          11           2           3           4          11           2
           3           5           2           3           4          12
           5           3           4          12           2           3
           5           6           2           3           5          13
           2           3           5          14           4           3
           5           6           4           3           5          13
           4           3           5          14           3           5
           6          15           3           5           6          16
           3           5           6          17          13           5
           6          15          13           5           6          16
          13           5           6          17          14           5
           6          15          14           5           6          16
          14           5           6          17
Redundant internal coordinates             R   N=          76
  2.87175235E+00  2.06277519E+00  2.05931581E+00  2.06151733E+00  2.75490309E+00
  2.09167837E+00  2.06488609E+00  2.66690388E+00  2.75492001E+00  1.83917808E+00
  2.87175057E+00  2.09167726E+00  2.06488024E+00  2.06277377E+00  2.06151831E+00
  2.05931654E+00  1.92584914E+00  1.93233908E+00  1.91929938E+00  1.89691837E+00
  1.89976690E+00  1.88888609E+00  1.94979446E+00  1.92947974E+00  1.92579160E+00
  1.92063801E+00  1.86303245E+00  1.87244065E+00  1.89331611E+00  1.95924024E+00
  1.89331141E+00  1.86520721E+00  1.94977899E+00  1.92063251E+00  1.86303731E+00
  1.92948349E+00  1.92580369E+00  1.87244165E+00  1.92586034E+00  1.91929400E+00
  1.93233626E+00  1.89976938E+00  1.89690929E+00  1.88888959E+00  3.12432672E+00
 -1.01368856E+00  1.05475201E+00 -1.05808978E+00  1.08708024E+00 -3.12766449E+00
  1.02841934E+00 -3.10959594E+00 -1.04115537E+00  1.12330334E+00 -3.06797147E+00
 -1.02689226E+00  1.06501825E+00 -3.05330206E+00 -9.61391562E-01  1.06643881E+00
 -1.06617764E+00  3.06803715E+00 -1.06496246E+00  9.61448382E-01 -1.12323492E+00
  1.02695077E+00  3.05336162E+00 -3.12429471E+00 -1.02838058E+00  1.05812767E+00
  1.01373586E+00  3.10964999E+00 -1.08702708E+00 -1.05471589E+00  1.04119825E+00
  3.12770649E+00
ZRed-IntVec                                I   N=          76
           0           0           0           0           0           0
           0           0           0           0           0           0
           0           0           0           0           0           0
           0           0           0           0           0           0
           0           0           0           0           0           0
           0           0           0           0           0           0
           0           0           0           0           0           0
           0           0           0           0           0           0
           0           0           0           0           0           0
           0           0           0           0           0           0
           0           0           0           0           0           0
           0           0           0           0           0           0
           0           0           0           0
ZRed-FPVec                                 R   N=          76
  0.00000000E+00  0.00000000E+00  0.00000000E+00  0.00000000E+00  0.00000000E+00
  0.00000000E+00  0.00000000E+00  0.00000000E+00  0.00000000E+00  0.00000000E+00
  0.00000000E+00  0.00000000E+00  0.00000000E+00  0.00000000E+00  0.00000000E+00
  0.00000000E+00  0.00000000E+00  0.00000000E+00  0.00000000E+00  0.00000000E+00
  0.00000000E+00  0.00000000E+00  0.00000000E+00  0.00000000E+00  0.00000000E+00
  0.00000000E+00  0.00000000E+00  0.00000000E+00  0.00000000E+00  0.00000000E+00
  0.00000000E+00  0.00000000E+00  0.00000000E+00  0.00000000E+00  0.00000000E+00
  0.00000000E+00  0.00000000E+00  0.00000000E+00  0.00000000E+00  0.00000000E+00
  0.00000000E+00  0.00000000E+00  0.00000000E+00  0.00000000E+00  0.00000000E+00
  0.00000000E+00  0.00000000E+00  0.00000000E+00  0.00000000E+00  0.00000000E+00
  0.00000000E+00  0.00000000E+00  0.00000000E+00  0.00000000E+00  0.00000000E+00
  0.00000000E+00  0.00000000E+00  0.00000000E+00  0.00000000E+00  0.00000000E+00
  0.00000000E+00  0.00000000E+00  0.00000000E+00  0.00000000E+00  0.00000000E+00
  0.00000000E+00  0.00000000E+00  0.00000000E+00  0.00000000E+00  0.00000000E+00
  0.00000000E+00  0.00000000E+00  0.00000000E+00  0.00000000E+00  0.00000000E+00
  0.00000000E+00
ZRed-Constraint1                           R   N=          76
  2.87175235E+00  2.06277519E+00  2.05931581E+00  2.06151733E+00  2.75490309E+00
  2.09167837E+00  2.06488609E+00  2.66690388E+00  2.75492001E+00  1.83917808E+00
  2.87175057E+00  2.09167726E+00  2.06488024E+00  2.06277377E+00  2.06151831E+00
  2.05931654E+00  1.92584914E+00  1.93233908E+00  1.91929938E+00  1.89691837E+00
  1.89976690E+00  1.88888609E+00  1.94979446E+00  1.92947974E+00  1.92579160E+00
  1.92063801E+00  1.86303245E+00  1.87244065E+00  1.89331611E+00  1.95924024E+00
  1.89331141E+00  1.86520721E+00  1.94977899E+00  1.92063251E+00  1.86303731E+00
  1.92948349E+00  1.92580369E+00  1.87244165E+00  1.92586034E+00  1.91929400E+00
  1.93233626E+00  1.89976938E+00  1.89690929E+00  1.88888959E+00  3.12432672E+00
 -1.01368856E+00  1.05475201E+00 -1.05808978E+00  1.08708024E+00 -3.12766449E+00
  1.02841934E+00 -3.10959594E+00 -1.04115537E+00  1.12330334E+00 -3.06797147E+00
 -1.02689226E+00  1.06501825E+00 -3.05330206E+00 -9.61391562E-01  1.06643881E+00
 -1.06617764E+00  3.06803715E+00 -1.06496246E+00  9.61448382E-01 -1.12323492E+00
  1.02695077E+00  3.05336162E+00 -3.12429471E+00 -1.02838058E+00  1.05812767E+00
  1.01373586E+00  3.10964999E+00 -1.08702708E+00 -1.05471589E+00  1.04119825E+00
  3.12770649E+00
ZRed-Constraint2                           R   N=          76
  2.91877829E+00  2.05969850E+00  2.05959930E+00  2.05978606E+00  2.81474204E+00
  2.05980610E+00  2.05991112E+00  2.57846401E+00  2.81857357E+00  1.81419367E+00
  2.91686226E+00  2.05979504E+00  2.05978923E+00  2.05978200E+00  2.05975281E+00
  2.05973970E+00  1.91058063E+00  1.91065384E+00  1.91056018E+00  1.91069856E+00
  1.91062809E+00  1.91067810E+00  1.97372536E+00  1.86191276E+00  1.86198640E+00
  1.83802868E+00  1.83798387E+00  2.09439856E+00  1.91048924E+00  1.96733842E+00
  1.91795092E+00  1.91062398E+00  1.97562480E+00  1.83826932E+00  1.83830593E+00
  1.86089257E+00  1.86088509E+00  2.09434748E+00  1.91064137E+00  1.91065791E+00
  1.91060277E+00  1.91062959E+00  1.91068916E+00  1.91057862E+00  3.06797960E+00
 -1.20282047E+00  1.05560345E+00 -1.12075020E+00  8.91635037E-01 -3.13312635E+00
  9.73667731E-01  2.98605297E+00 -1.03870842E+00  1.09257860E+00 -3.05035600E+00
 -9.34027867E-01  1.20622284E+00  3.11924632E+00 -1.02368828E+00  1.77784068E+00
 -3.91555270E-01  3.04996156E+00 -1.20672047E+00  1.02344490E+00 -1.09716018E+00
  9.29343093E-01 -3.12367684E+00 -2.87972531E+00 -7.85314583E-01  1.30901008E+00
  1.39039748E+00 -2.79837710E+00 -7.04052435E-01 -8.66623038E-01  1.22778769E+00
 -2.96107296E+00
SymInf integers                            I   N=          26
           1           1           1           1           1           0
           0           0           0           0           0           0
           0           0           0           0           0           0
           0           0           0           0           0           0
           0           0
RotTr to input orientation                 R   N=          12
 -1.93008283E-02  8.83527890E-01  4.67980710E-01 -4.14499670E-01  4.18877454E-01
 -8.07918129E-01 -9.09844768E-01 -2.09571339E-01  3.58137337E-01  3.70313143E+00
 -1.24720425E+00 -2.16178239E+00
Number of contracted shells                I               91
Number of primitive shells                 I              155
Pure/Cartesian d shells                    I                0
Pure/Cartesian f shells                    I                0
Highest angular momentum                   I                2
Largest degree of contraction              I                6
Shell types                                I   N=          91
           0          -1          -1          -1          -1          -2
           0          -1          -1          -1          -1          -2
           0          -1          -1          -1          -1          -2
           0          -1          -1          -1          -1          -2
           0          -1          -1          -1          -1          -2
           0          -1          -1          -1          -1          -2
           0           0           0           0           1           0
           0           0           0           1           0           0
           0           0           1           0           0           0
           0           1           0           0           0           0
           1           0           0           0           0           1
           0           0           0           0           1           0
           0           0           0           1           0           0
           0           0           1           0           0           0
           0           1           0           0           0           0
           1
Number of primitives per shell             I   N=          91
           6           3           1           1           1           1
           6           3           1           1           1           1
           6           3           1           1           1           1
           6           3           1           1           1           1
           6           3           1           1           1           1
           6           3           1           1           1           1
           3           1           1           1           1           3
           1           1           1           1           3           1
           1           1           1           3           1           1
           1           1           3           1           1           1
           1           3           1           1           1           1
           3           1           1           1           1           3
           1           1           1           1           3           1
           1           1           1           3           1           1
           1           1           3           1           1           1
           1
Shell to atom map                          I   N=          91
           1           1           1           1           1           1
           2           2           2           2           2           2
           3           3           3           3           3           3
           4           4           4           4           4           4
           5           5           5           5           5           5
           6           6           6           6           6           6
           7           7           7           7           7           8
           8           8           8           8           9           9
           9           9           9          10          10          10
          10          10          11          11          11          11
          11          12          12          12          12          12
          13          13          13          13          13          14
          14          14          14          14          15          15
          15          15          15          16          16          16
          16          16          17          17          17          17
          17
Primitive exponents                        R   N=         155
  4.56324000E+03  6.82024000E+02  1.54973000E+02  4.44553000E+01  1.30290000E+01
  1.82773000E+00  2.09642000E+01  4.80331000E+00  1.45933000E+00  4.83456000E-01
  1.45585000E-01  4.38000000E-02  6.26000000E-01  4.56324000E+03  6.82024000E+02
  1.54973000E+02  4.44553000E+01  1.30290000E+01  1.82773000E+00  2.09642000E+01
  4.80331000E+00  1.45933000E+00  4.83456000E-01  1.45585000E-01  4.38000000E-02
  6.26000000E-01  6.29348000E+03  9.49044000E+02  2.18776000E+02  6.36916000E+01
  1.88282000E+01  2.72023000E+00  3.06331000E+01  7.02614000E+00  2.11205000E+00
  6.84009000E-01  2.00878000E-01  6.39000000E-02  9.13000000E-01  8.58850000E+03
  1.29723000E+03  2.99296000E+02  8.73771000E+01  2.56789000E+01  3.74004000E+00
  4.21175000E+01  9.62837000E+00  2.85332000E+00  9.05661000E-01  2.55611000E-01
  8.45000000E-02  1.29200000E+00  4.56324000E+03  6.82024000E+02  1.54973000E+02
  4.44553000E+01  1.30290000E+01  1.82773000E+00  2.09642000E+01  4.80331000E+00
  1.45933000E+00  4.83456000E-01  1.45585000E-01  4.38000000E-02  6.26000000E-01
  4.56324000E+03  6.82024000E+02  1.54973000E+02  4.44553000E+01  1.30290000E+01
  1.82773000E+00  2.09642000E+01  4.80331000E+00  1.45933000E+00  4.83456000E-01
  1.45585000E-01  4.38000000E-02  6.26000000E-01  3.38650000E+01  5.09479000E+00
  1.15879000E+00  3.25840000E-01  1.02741000E-01  3.60000000E-02  7.50000000E-01
  3.38650000E+01  5.09479000E+00  1.15879000E+00  3.25840000E-01  1.02741000E-01
  3.60000000E-02  7.50000000E-01  3.38650000E+01  5.09479000E+00  1.15879000E+00
  3.25840000E-01  1.02741000E-01  3.60000000E-02  7.50000000E-01  3.38650000E+01
  5.09479000E+00  1.15879000E+00  3.25840000E-01  1.02741000E-01  3.60000000E-02
  7.50000000E-01  3.38650000E+01  5.09479000E+00  1.15879000E+00  3.25840000E-01
  1.02741000E-01  3.60000000E-02  7.50000000E-01  3.38650000E+01  5.09479000E+00
  1.15879000E+00  3.25840000E-01  1.02741000E-01  3.60000000E-02  7.50000000E-01
  3.38650000E+01  5.09479000E+00  1.15879000E+00  3.25840000E-01  1.02741000E-01
  3.60000000E-02  7.50000000E-01  3.38650000E+01  5.09479000E+00  1.15879000E+00
  3.25840000E-01  1.02741000E-01  3.60000000E-02  7.50000000E-01  3.38650000E+01
  5.09479000E+00  1.15879000E+00  3.25840000E-01  1.02741000E-01  3.60000000E-02
  7.50000000E-01  3.38650000E+01  5.09479000E+00  1.15879000E+00  3.25840000E-01
  1.02741000E-01  3.60000000E-02  7.50000000E-01  3.38650000E+01  5.09479000E+00
  1.15879000E+00  3.25840000E-01  1.02741000E-01  3.60000000E-02  7.50000000E-01
Contraction coefficients                   R   N=         155
  1.96665025E-03  1.52306019E-02  7.61269097E-02  2.60801033E-01  6.16462078E-01
  2.21006028E-01  1.14660081E-01  9.19999648E-01 -3.03068213E-03  1.00000000E+00
  1.00000000E+00  1.00000000E+00  1.00000000E+00  1.96665025E-03  1.52306019E-02
  7.61269097E-02  2.60801033E-01  6.16462078E-01  2.21006028E-01  1.14660081E-01
  9.19999648E-01 -3.03068213E-03  1.00000000E+00  1.00000000E+00  1.00000000E+00
  1.00000000E+00  1.96978815E-03  1.49612859E-02  7.35005308E-02  2.48936766E-01
  6.02459433E-01  2.56201759E-01  1.11906080E-01  9.21666655E-01 -2.56919183E-03
  1.00000000E+00  1.00000000E+00  1.00000000E+00  1.00000000E+00  1.89515008E-03
  1.43859006E-02  7.07320031E-02  2.40001011E-01  5.94797026E-01  2.80802012E-01
  1.13889012E-01  9.20811101E-01 -3.27447036E-03  1.00000000E+00  1.00000000E+00
  1.00000000E+00  1.00000000E+00  1.96665025E-03  1.52306019E-02  7.61269097E-02
  2.60801033E-01  6.16462078E-01  2.21006028E-01  1.14660081E-01  9.19999648E-01
 -3.03068213E-03  1.00000000E+00  1.00000000E+00  1.00000000E+00  1.00000000E+00
  1.96665025E-03  1.52306019E-02  7.61269097E-02  2.60801033E-01  6.16462078E-01
  2.21006028E-01  1.14660081E-01  9.19999648E-01 -3.03068213E-03  1.00000000E+00
  1.00000000E+00  1.00000000E+00  1.00000000E+00  2.54938145E-02  1.90373109E-01
  8.52161486E-01  1.00000000E+00  1.00000000E+00  1.00000000E+00  1.00000000E+00
  2.54938145E-02  1.90373109E-01  8.52161486E-01  1.00000000E+00  1.00000000E+00
  1.00000000E+00  1.00000000E+00  2.54938145E-02  1.90373109E-01  8.52161486E-01
  1.00000000E+00  1.00000000E+00  1.00000000E+00  1.00000000E+00  2.54938145E-02
  1.90373109E-01  8.52161486E-01  1.00000000E+00  1.00000000E+00  1.00000000E+00
  1.00000000E+00  2.54938145E-02  1.90373109E-01  8.52161486E-01  1.00000000E+00
  1.00000000E+00  1.00000000E+00  1.00000000E+00  2.54938145E-02  1.90373109E-01
  8.52161486E-01  1.00000000E+00  1.00000000E+00  1.00000000E+00  1.00000000E+00
  2.54938145E-02  1.90373109E-01  8.52161486E-01  1.00000000E+00  1.00000000E+00
  1.00000000E+00  1.00000000E+00  2.54938145E-02  1.90373109E-01  8.52161486E-01
  1.00000000E+00  1.00000000E+00  1.00000000E+00  1.00000000E+00  2.54938145E-02
  1.90373109E-01  8.52161486E-01  1.00000000E+00  1.00000000E+00  1.00000000E+00
  1.00000000E+00  2.54938145E-02  1.90373109E-01  8.52161486E-01  1.00000000E+00
  1.00000000E+00  1.00000000E+00  1.00000000E+00  2.54938145E-02  1.90373109E-01
  8.52161486E-01  1.00000000E+00  1.00000000E+00  1.00000000E+00  1.00000000E+00
P(S=P) Contraction coefficients            R   N=         155
  0.00000000E+00  0.00000000E+00  0.00000000E+00  0.00000000E+00  0.00000000E+00
  0.00000000E+00  4.02486927E-02  2.37593957E-01  8.15853851E-01  1.00000000E+00
  1.00000000E+00  1.00000000E+00  0.00000000E+00  0.00000000E+00  0.00000000E+00
  0.00000000E+00  0.00000000E+00  0.00000000E+00  0.00000000E+00  4.02486927E-02
  2.37593957E-01  8.15853851E-01  1.00000000E+00  1.00000000E+00  1.00000000E+00
  0.00000000E+00  0.00000000E+00  0.00000000E+00  0.00000000E+00  0.00000000E+00
  0.00000000E+00  0.00000000E+00  3.83119186E-02  2.37403116E-01  8.17592398E-01
  1.00000000E+00  1.00000000E+00  1.00000000E+00  0.00000000E+00  0.00000000E+00
  0.00000000E+00  0.00000000E+00  0.00000000E+00  0.00000000E+00  0.00000000E+00
  3.65113974E-02  2.37152983E-01  8.19701941E-01  1.00000000E+00  1.00000000E+00
  1.00000000E+00  0.00000000E+00  0.00000000E+00  0.00000000E+00  0.00000000E+00
  0.00000000E+00  0.00000000E+00  0.00000000E+00  4.02486927E-02  2.37593957E-01
  8.15853851E-01  1.00000000E+00  1.00000000E+00  1.00000000E+00  0.00000000E+00
  0.00000000E+00  0.00000000E+00  0.00000000E+00  0.00000000E+00  0.00000000E+00
  0.00000000E+00  4.02486927E-02  2.37593957E-01  8.15853851E-01  1.00000000E+00
  1.00000000E+00  1.00000000E+00  0.00000000E+00  0.00000000E+00  0.00000000E+00
  0.00000000E+00  0.00000000E+00  0.00000000E+00  0.00000000E+00  0.00000000E+00
  0.00000000E+00  0.00000000E+00  0.00000000E+00  0.00000000E+00  0.00000000E+00
  0.00000000E+00  0.00000000E+00  0.00000000E+00  0.00000000E+00  0.00000000E+00
  0.00000000E+00  0.00000000E+00  0.00000000E+00  0.00000000E+00  0.00000000E+00
  0.00000000E+00  0.00000000E+00  0.00000000E+00  0.00000000E+00  0.00000000E+00
  0.00000000E+00  0.00000000E+00  0.00000000E+00  0.00000000E+00  0.00000000E+00
  0.00000000E+00  0.00000000E+00  0.00000000E+00  0.00000000E+00  0.00000000E+00
  0.00000000E+00  0.00000000E+00  0.00000000E+00  0.00000000E+00  0.00000000E+00
  0.00000000E+00  0.00000000E+00  0.00000000E+00  0.00000000E+00  0.00000000E+00
  0.00000000E+00  0.00000000E+00  0.00000000E+00  0.00000000E+00  0.00000000E+00
  0.00000000E+00  0.00000000E+00  0.00000000E+00  0.00000000E+00  0.00000000E+00
  0.00000000E+00  0.00000000E+00  0.00000000E+00  0.00000000E+00  0.00000000E+00
  0.00000000E+00  0.00000000E+00  0.00000000E+00  0.00000000E+00  0.00000000E+00
  0.00000000E+00  0.00000000E+00  0.00000000E+00  0.00000000E+00  0.00000000E+00
  0.00000000E+00  0.00000000E+00  0.00000000E+00  0.00000000E+00  0.00000000E+00
Coordinates of each shell                  R   N=         273
 -4.65249494E+00 -7.22861088E-02 -6.41353061E-01 -4.65249494E+00 -7.22861088E-02
 -6.41353061E-01 -4.65249494E+00 -7.22861088E-02 -6.41353061E-01 -4.65249494E+00
 -7.22861088E-02 -6.41353061E-01 -4.65249494E+00 -7.22861088E-02 -6.41353061E-01
 -4.65249494E+00 -7.22861088E-02 -6.41353061E-01 -2.28737719E+00 -1.21463158E+00
  5.19778461E-01 -2.28737719E+00 -1.21463158E+00  5.19778461E-01 -2.28737719E+00
 -1.21463158E+00  5.19778461E-01 -2.28737719E+00 -1.21463158E+00  5.19778461E-01
 -2.28737719E+00 -1.21463158E+00  5.19778461E-01 -2.28737719E+00 -1.21463158E+00
  5.19778461E-01 -1.22837614E-05 -1.38648290E-02 -4.37097720E-01 -1.22837614E-05
 -1.38648290E-02 -4.37097720E-01 -1.22837614E-05 -1.38648290E-02 -4.37097720E-01
 -1.22837614E-05 -1.38648290E-02 -4.37097720E-01 -1.22837614E-05 -1.38648290E-02