 Entering Gaussian System, Link 0=/apps/cent7/gaussian/g16-A.03/g16-haswell/g16/g16
 Initial command:
 /apps/cent7/gaussian/g16-A.03/g16-haswell/g16/l1.exe "/scratch/brown/finej/gaussian/Gau-17380.inp" -scrdir="/scratch/brown/finej/gaussian/"
 Entering Link 1 = /apps/cent7/gaussian/g16-A.03/g16-haswell/g16/l1.exe PID=     17381.
  
 Copyright (c) 1988,1990,1992,1993,1995,1998,2003,2009,2016,
            Gaussian, Inc.  All Rights Reserved.
  
 This is part of the Gaussian(R) 16 program.  It is based on
 the Gaussian(R) 09 system (copyright 2009, Gaussian, Inc.),
 the Gaussian(R) 03 system (copyright 2003, Gaussian, Inc.),
 the Gaussian(R) 98 system (copyright 1998, Gaussian, Inc.),
 the Gaussian(R) 94 system (copyright 1995, Gaussian, Inc.),
 the Gaussian 92(TM) system (copyright 1992, Gaussian, Inc.),
 the Gaussian 90(TM) system (copyright 1990, Gaussian, Inc.),
 the Gaussian 88(TM) system (copyright 1988, Gaussian, Inc.),
 the Gaussian 86(TM) system (copyright 1986, Carnegie Mellon
 University), and the Gaussian 82(TM) system (copyright 1983,
 Carnegie Mellon University). Gaussian is a federally registered
 trademark of Gaussian, Inc.
  
 This software contains proprietary and confidential information,
 including trade secrets, belonging to Gaussian, Inc.
  
 This software is provided under written license and may be
 used, copied, transmitted, or stored only in accord with that
 written license.
  
 The following legend is applicable only to US Government
 contracts under FAR:
  
                    RESTRICTED RIGHTS LEGEND
  
 Use, reproduction and disclosure by the US Government is
 subject to restrictions as set forth in subparagraphs (a)
 and (c) of the Commercial Computer Software - Restricted
 Rights clause in FAR 52.227-19.
  
 Gaussian, Inc.
 340 Quinnipiac St., Bldg. 40, Wallingford CT 06492
  
  
 ---------------------------------------------------------------
 Warning -- This program may not be used in any manner that
 competes with the business of Gaussian, Inc. or will provide
 assistance to any competitor of Gaussian, Inc.  The licensee
 of this program is prohibited from giving any competitor of
 Gaussian, Inc. access to this program.  By using this program,
 the user acknowledges that Gaussian, Inc. is engaged in the
 business of creating and licensing software in the field of
 computational chemistry and represents and warrants to the
 licensee that it is not a competitor of Gaussian, Inc. and that
 it will not use this program in any manner prohibited above.
 ---------------------------------------------------------------
  

 Cite this work as:
 Gaussian 16, Revision A.03,
 M. J. Frisch, G. W. Trucks, H. B. Schlegel, G. E. Scuseria, 
 M. A. Robb, J. R. Cheeseman, G. Scalmani, V. Barone, 
 G. A. Petersson, H. Nakatsuji, X. Li, M. Caricato, A. V. Marenich, 
 J. Bloino, B. G. Janesko, R. Gomperts, B. Mennucci, H. P. Hratchian, 
 J. V. Ortiz, A. F. Izmaylov, J. L. Sonnenberg, D. Williams-Young, 
 F. Ding, F. Lipparini, F. Egidi, J. Goings, B. Peng, A. Petrone, 
 T. Henderson, D. Ranasinghe, V. G. Zakrzewski, J. Gao, N. Rega, 
 G. Zheng, W. Liang, M. Hada, M. Ehara, K. Toyota, R. Fukuda, 
 J. Hasegawa, M. Ishida, T. Nakajima, Y. Honda, O. Kitao, H. Nakai, 
 T. Vreven, K. Throssell, J. A. Montgomery, Jr., J. E. Peralta, 
 F. Ogliaro, M. J. Bearpark, J. J. Heyd, E. N. Brothers, K. N. Kudin, 
 V. N. Staroverov, T. A. Keith, R. Kobayashi, J. Normand, 
 K. Raghavachari, A. P. Rendell, J. C. Burant, S. S. Iyengar, 
 J. Tomasi, M. Cossi, J. M. Millam, M. Klene, C. Adamo, R. Cammi, 
 J. W. Ochterski, R. L. Martin, K. Morokuma, O. Farkas, 
 J. B. Foresman, and D. J. Fox, Gaussian, Inc., Wallingford CT, 2016.
 
 ******************************************
 Gaussian 16:  ES64L-G16RevA.03 25-Dec-2016
                30-Dec-2019 
 ******************************************
 %chk=1_p_b.chk
 %nprocshared=24
 Will use up to   24 processors via shared memory.
 %mem=80GB
 -------------------------------------------------------------------
 #p opt freq m062x/6-311++g(d,p) geom=connectivity temperature=0.001
 -------------------------------------------------------------------
 1/18=20,19=15,26=3,38=1,57=2,112=-1000/1,3;
 2/9=110,12=2,17=6,18=5,40=1/2;
 3/5=4,6=6,7=1111,11=2,25=1,30=1,71=1,74=-55/1,2,3;
 4//1;
 5/5=2,38=5/2;
 6/7=2,8=2,9=2,10=2,28=1/1;
 7//1,2,3,16;
 1/18=20,19=15,26=3/3(2);
 2/9=110/2;
 99//99;
 2/9=110/2;
 3/5=4,6=6,7=1111,11=2,25=1,30=1,71=1,74=-55/1,2,3;
 4/5=5,16=3,69=1/1;
 5/5=2,38=5/2;
 7//1,2,3,16;
 1/18=20,19=15,26=3/3(-5);
 2/9=110/2;
 6/7=2,8=2,9=2,10=2,19=2,28=1/1;
 99/9=1/99;
 Leave Link    1 at Mon Dec 30 16:56:09 2019, MaxMem= 10737418240 cpu:               1.2 elap:               0.1
 (Enter /apps/cent7/gaussian/g16-A.03/g16-haswell/g16/l101.exe)
 -------------------
 Title Card Required
 -------------------
 Symbolic Z-matrix:
 Charge =  1 Multiplicity = 1
 C                     2.3617   -2.8939   -2.3784 
 C                     1.9997   -2.1258   -1.0882 
 N                     2.1434   -0.6498   -1.2274 
 O                     1.277    -0.1964   -2.179 
 C                     1.9127    0.075     0.0556 
 C                     2.1843    1.5911   -0.0453 
 H                     2.3088   -3.9661   -2.1898 
 H                     1.6591   -2.6288   -3.1683 
 H                     3.3728   -2.6288   -2.6874 
 H                     0.9379   -2.2961   -0.9102 
 H                     2.7321   -2.4165   -0.335 
 H                     0.45847   0.23192  -1.91793 
 H                     0.8486   -0.038     0.263 
 H                     2.6492   -0.3281    0.7507 
 H                     2.2601    2.0141    0.9564 
 H                     3.1183    1.758    -0.5818 
 H                     1.3663    2.0718   -0.5818 
 H                     1.48595  -0.30572  -3.10958 
 
 ITRead=  0  0  0  0  0  0  0  0  0  0  0  0  0  0  0  0  0  0
 MicOpt= -1 -1 -1 -1 -1 -1 -1 -1 -1 -1 -1 -1 -1 -1 -1 -1 -1 -1
 NAtoms=     18 NQM=       18 NQMF=       0 NMMI=      0 NMMIF=      0
                NMic=       0 NMicF=      0.
                    Isotopes and Nuclear Properties:
 (Nuclear quadrupole moments (NQMom) in fm**2, nuclear magnetic moments (NMagM)
  in nuclear magnetons)

  Atom         1           2           3           4           5           6           7           8           9          10
 IAtWgt=          12          12          14          16          12          12           1           1           1           1
 AtmWgt=  12.0000000  12.0000000  14.0030740  15.9949146  12.0000000  12.0000000   1.0078250   1.0078250   1.0078250   1.0078250
 NucSpn=           0           0           2           0           0           0           1           1           1           1
 AtZEff=  -0.0000000  -0.0000000  -0.0000000  -0.0000000  -0.0000000  -0.0000000  -0.0000000  -0.0000000  -0.0000000  -0.0000000
 NQMom=    0.0000000   0.0000000   2.0440000   0.0000000   0.0000000   0.0000000   0.0000000   0.0000000   0.0000000   0.0000000
 NMagM=    0.0000000   0.0000000   0.4037610   0.0000000   0.0000000   0.0000000   2.7928460   2.7928460   2.7928460   2.7928460
 AtZNuc=   6.0000000   6.0000000   7.0000000   8.0000000   6.0000000   6.0000000   1.0000000   1.0000000   1.0000000   1.0000000

  Atom        11          12          13          14          15          16          17          18
 IAtWgt=           1           1           1           1           1           1           1           1
 AtmWgt=   1.0078250   1.0078250   1.0078250   1.0078250   1.0078250   1.0078250   1.0078250   1.0078250
 NucSpn=           1           1           1           1           1           1           1           1
 AtZEff=  -0.0000000  -0.0000000  -0.0000000  -0.0000000  -0.0000000  -0.0000000  -0.0000000  -0.0000000
 NQMom=    0.0000000   0.0000000   0.0000000   0.0000000   0.0000000   0.0000000   0.0000000   0.0000000
 NMagM=    2.7928460   2.7928460   2.7928460   2.7928460   2.7928460   2.7928460   2.7928460   2.7928460
 AtZNuc=   1.0000000   1.0000000   1.0000000   1.0000000   1.0000000   1.0000000   1.0000000   1.0000000
 Leave Link  101 at Mon Dec 30 16:56:09 2019, MaxMem= 10737418240 cpu:              14.6 elap:               0.6
 (Enter /apps/cent7/gaussian/g16-A.03/g16-haswell/g16/l103.exe)

 GradGradGradGradGradGradGradGradGradGradGradGradGradGradGradGradGradGrad
 Berny optimization.
 Initialization pass.
                           ----------------------------
                           !    Initial Parameters    !
                           ! (Angstroms and Degrees)  !
 --------------------------                            --------------------------
 ! Name  Definition              Value          Derivative Info.                !
 --------------------------------------------------------------------------------
 ! R1    R(1,2)                  1.5446         estimate D2E/DX2                !
 ! R2    R(1,7)                  1.0899         estimate D2E/DX2                !
 ! R3    R(1,8)                  1.0899         estimate D2E/DX2                !
 ! R4    R(1,9)                  1.09           estimate D2E/DX2                !
 ! R5    R(2,3)                  1.4895         estimate D2E/DX2                !
 ! R6    R(2,10)                 1.09           estimate D2E/DX2                !
 ! R7    R(2,11)                 1.0901         estimate D2E/DX2                !
 ! R8    R(3,4)                  1.3645         estimate D2E/DX2                !
 ! R9    R(3,5)                  1.4915         estimate D2E/DX2                !
 ! R10   R(4,12)                 0.96           estimate D2E/DX2                !
 ! R11   R(4,18)                 0.96           estimate D2E/DX2                !
 ! R12   R(5,6)                  1.5435         estimate D2E/DX2                !
 ! R13   R(5,13)                 1.09           estimate D2E/DX2                !
 ! R14   R(5,14)                 1.09           estimate D2E/DX2                !
 ! R15   R(6,15)                 1.09           estimate D2E/DX2                !
 ! R16   R(6,16)                 1.09           estimate D2E/DX2                !
 ! R17   R(6,17)                 1.09           estimate D2E/DX2                !
 ! A1    A(2,1,7)              109.4682         estimate D2E/DX2                !
 ! A2    A(2,1,8)              109.4724         estimate D2E/DX2                !
 ! A3    A(2,1,9)              109.467          estimate D2E/DX2                !
 ! A4    A(7,1,8)              109.475          estimate D2E/DX2                !
 ! A5    A(7,1,9)              109.4709         estimate D2E/DX2                !
 ! A6    A(8,1,9)              109.4738         estimate D2E/DX2                !
 ! A7    A(1,2,3)              113.0861         estimate D2E/DX2                !
 ! A8    A(1,2,10)             106.6797         estimate D2E/DX2                !
 ! A9    A(1,2,11)             106.684          estimate D2E/DX2                !
 ! A10   A(3,2,10)             105.3113         estimate D2E/DX2                !
 ! A11   A(3,2,11)             105.3087         estimate D2E/DX2                !
 ! A12   A(10,2,11)            120.0002         estimate D2E/DX2                !
 ! A13   A(2,3,4)              109.463          estimate D2E/DX2                !
 ! A14   A(2,3,5)              112.7202         estimate D2E/DX2                !
 ! A15   A(4,3,5)              109.8905         estimate D2E/DX2                !
 ! A16   A(3,4,12)             120.0            estimate D2E/DX2                !
 ! A17   A(3,4,18)             120.0            estimate D2E/DX2                !
 ! A18   A(12,4,18)            120.0            estimate D2E/DX2                !
 ! A19   A(3,5,6)              113.195          estimate D2E/DX2                !
 ! A20   A(3,5,13)             105.3251         estimate D2E/DX2                !
 ! A21   A(3,5,14)             105.3272         estimate D2E/DX2                !
 ! A22   A(6,5,13)             106.6213         estimate D2E/DX2                !
 ! A23   A(6,5,14)             106.6209         estimate D2E/DX2                !
 ! A24   A(13,5,14)            119.9973         estimate D2E/DX2                !
 ! A25   A(5,6,15)             109.4717         estimate D2E/DX2                !
 ! A26   A(5,6,16)             109.4726         estimate D2E/DX2                !
 ! A27   A(5,6,17)             109.4695         estimate D2E/DX2                !
 ! A28   A(15,6,16)            109.471          estimate D2E/DX2                !
 ! A29   A(15,6,17)            109.4744         estimate D2E/DX2                !
 ! A30   A(16,6,17)            109.4681         estimate D2E/DX2                !
 ! D1    D(7,1,2,3)            175.7823         estimate D2E/DX2                !
 ! D2    D(7,1,2,10)           -68.9165         estimate D2E/DX2                !
 ! D3    D(7,1,2,11)            60.4816         estimate D2E/DX2                !
 ! D4    D(8,1,2,3)            -64.2143         estimate D2E/DX2                !
 ! D5    D(8,1,2,10)            51.0869         estimate D2E/DX2                !
 ! D6    D(8,1,2,11)          -179.5149         estimate D2E/DX2                !
 ! D7    D(9,1,2,3)             55.7871         estimate D2E/DX2                !
 ! D8    D(9,1,2,10)           171.0882         estimate D2E/DX2                !
 ! D9    D(9,1,2,11)           -59.5136         estimate D2E/DX2                !
 ! D10   D(1,2,3,4)             62.6001         estimate D2E/DX2                !
 ! D11   D(1,2,3,5)           -174.7725         estimate D2E/DX2                !
 ! D12   D(10,2,3,4)           -53.5159         estimate D2E/DX2                !
 ! D13   D(10,2,3,5)            69.1115         estimate D2E/DX2                !
 ! D14   D(11,2,3,4)           178.7196         estimate D2E/DX2                !
 ! D15   D(11,2,3,5)           -58.653          estimate D2E/DX2                !
 ! D16   D(2,3,4,12)           101.8628         estimate D2E/DX2                !
 ! D17   D(2,3,4,18)           -78.1372         estimate D2E/DX2                !
 ! D18   D(5,3,4,12)           -22.4345         estimate D2E/DX2                !
 ! D19   D(5,3,4,18)           157.5655         estimate D2E/DX2                !
 ! D20   D(2,3,5,6)            174.7499         estimate D2E/DX2                !
 ! D21   D(2,3,5,13)           -69.14           estimate D2E/DX2                !
 ! D22   D(2,3,5,14)            58.6391         estimate D2E/DX2                !
 ! D23   D(4,3,5,6)            -62.8626         estimate D2E/DX2                !
 ! D24   D(4,3,5,13)            53.2474         estimate D2E/DX2                !
 ! D25   D(4,3,5,14)          -178.9735         estimate D2E/DX2                !
 ! D26   D(3,5,6,15)          -164.9961         estimate D2E/DX2                !
 ! D27   D(3,5,6,16)           -44.9952         estimate D2E/DX2                !
 ! D28   D(3,5,6,17)            75.0008         estimate D2E/DX2                !
 ! D29   D(13,5,6,15)           79.6639         estimate D2E/DX2                !
 ! D30   D(13,5,6,16)         -160.3352         estimate D2E/DX2                !
 ! D31   D(13,5,6,17)          -40.3392         estimate D2E/DX2                !
 ! D32   D(14,5,6,15)          -49.6538         estimate D2E/DX2                !
 ! D33   D(14,5,6,16)           70.3471         estimate D2E/DX2                !
 ! D34   D(14,5,6,17)         -169.657          estimate D2E/DX2                !
 --------------------------------------------------------------------------------
 Trust Radius=3.00D-01 FncErr=1.00D-07 GrdErr=1.00D-06 EigMax=2.50D+02 EigMin=1.00D-04
 Number of steps in this run=     91 maximum allowed number of steps=    108.
 GradGradGradGradGradGradGradGradGradGradGradGradGradGradGradGradGradGrad

 Leave Link  103 at Mon Dec 30 16:56:10 2019, MaxMem= 10737418240 cpu:               0.5 elap:               0.0
 (Enter /apps/cent7/gaussian/g16-A.03/g16-haswell/g16/l202.exe)
                          Input orientation:                          
 ---------------------------------------------------------------------
 Center     Atomic      Atomic             Coordinates (Angstroms)
 Number     Number       Type             X           Y           Z
 ---------------------------------------------------------------------
      1          6           0        2.361700   -2.893900   -2.378400
      2          6           0        1.999700   -2.125800   -1.088200
      3          7           0        2.143400   -0.649800   -1.227400
      4          8           0        1.277000   -0.196400   -2.179000
      5          6           0        1.912700    0.075000    0.055600
      6          6           0        2.184300    1.591100   -0.045300
      7          1           0        2.308800   -3.966100   -2.189800
      8          1           0        1.659100   -2.628800   -3.168300
      9          1           0        3.372800   -2.628800   -2.687400
     10          1           0        0.937900   -2.296100   -0.910200
     11          1           0        2.732100   -2.416500   -0.335000
     12          1           0        0.458474    0.231922   -1.917935
     13          1           0        0.848600   -0.038000    0.263000
     14          1           0        2.649200   -0.328100    0.750700
     15          1           0        2.260100    2.014100    0.956400
     16          1           0        3.118300    1.758000   -0.581800
     17          1           0        1.366300    2.071800   -0.581800
     18          1           0        1.485951   -0.305722   -3.109585
 ---------------------------------------------------------------------
                    Distance matrix (angstroms):
                    1          2          3          4          5
     1  C    0.000000
     2  C    1.544551   0.000000
     3  N    2.531490   1.489497   0.000000
     4  O    2.914248   2.331250   1.364464   0.000000
     5  C    3.865272   2.481807   1.491525   2.339062   0.000000
     6  C    5.058661   3.864850   2.533903   2.927631   1.543537
     7  H    1.089946   2.166972   3.457082   3.908371   4.639957
     8  H    1.089893   2.166987   2.813908   2.653542   4.215255
     9  H    1.089992   2.166992   2.749448   3.250757   4.119038
    10  H    2.130770   1.090002   2.064982   2.476607   2.739547
    11  H    2.130866   1.090058   2.064988   3.232104   2.651708
    12  H    3.688504   2.936442   2.023178   0.960000   2.456469
    13  H    4.174042   2.740380   2.066906   2.484347   1.089997
    14  H    4.056754   2.652382   2.066931   3.237811   1.089994
    15  H    5.934617   4.624605   3.446587   3.960244   2.166157
    16  H    5.043847   4.073280   2.676701   3.124278   2.166158
    17  H    5.373711   4.275217   2.903066   2.775564   2.166112
    18  H    2.828468   2.768144   2.023178   0.960000   3.216436
                    6          7          8          9         10
     6  C    0.000000
     7  H    5.957923   0.000000
     8  H    5.276033   1.779872   0.000000
     9  H    5.118670   1.779908   1.779897   0.000000
    10  H    4.172756   2.511104   2.393707   3.032799   0.000000
    11  H    4.055227   2.453717   3.037102   2.447316   1.887990
    12  H    2.886625   4.595759   3.344943   4.155611   2.763381
    13  H    2.129110   4.855758   4.375269   4.667836   2.546250
    14  H    2.129102   4.690145   4.651030   4.199684   3.091951
    15  H    1.089990   6.757495   6.239461   6.005989   4.879573
    16  H    1.089974   6.000523   5.297477   4.872611   4.614945
    17  H    1.089967   6.319035   5.373207   5.527679   4.401128
    18  H    3.670894   3.862830   2.330262   3.022438   3.016498
                   11         12         13         14         15
    11  H    0.000000
    12  H    3.832649   0.000000
    13  H    3.092319   2.231935   0.000000
    14  H    2.355214   3.497788   1.887901   0.000000
    15  H    4.639042   3.831947   2.585392   2.383194   0.000000
    16  H    4.199585   3.344974   3.015102   2.519410   1.779931
    17  H    4.697995   2.448379   2.330870   3.030001   1.779963
    18  H    3.702242   1.662769   3.442705   4.031805   4.744799
                   16         17         18
    16  H    0.000000
    17  H    1.779880   0.000000
    18  H    3.648727   3.472265   0.000000
 Stoichiometry    C4H12NO(1+)
 Framework group  C1[X(C4H12NO)]
 Deg. of freedom    48
 Full point group                 C1      NOp   1
 Largest Abelian subgroup         C1      NOp   1
 Largest concise Abelian subgroup C1      NOp   1
                         Standard orientation:                         
 ---------------------------------------------------------------------
 Center     Atomic      Atomic             Coordinates (Angstroms)
 Number     Number       Type             X           Y           Z
 ---------------------------------------------------------------------
      1          6           0       -2.528893   -0.098506   -0.306730
      2          6           0       -1.235870   -0.696790    0.289749
      3          7           0       -0.000453   -0.027587   -0.204734
      4          8           0       -0.008596    1.282102    0.177903
      5          6           0        1.245899   -0.689553    0.278022
      6          6           0        2.529699   -0.085488   -0.329817
      7          1           0       -3.387632   -0.676684    0.034236
      8          1           0       -2.634700    0.936022    0.019498
      9          1           0       -2.476704   -0.132839   -1.394930
     10          1           0       -1.263157   -0.495721    1.360698
     11          1           0       -1.170907   -1.723525   -0.070557
     12          1           0        0.522945    1.567295    0.924716
     13          1           0        1.283052   -0.487971    1.348572
     14          1           0        1.184272   -1.716783   -0.081264
     15          1           0        3.366605   -0.762192   -0.157370
     16          1           0        2.392220    0.056544   -1.401717
     17          1           0        2.736809    0.875785    0.140384
     18          1           0       -0.545867    1.918372   -0.299697
 ---------------------------------------------------------------------
 Rotational constants (GHZ):           7.4865223           1.9383627           1.6845383
 Leave Link  202 at Mon Dec 30 16:56:10 2019, MaxMem= 10737418240 cpu:               0.5 elap:               0.0
 (Enter /apps/cent7/gaussian/g16-A.03/g16-haswell/g16/l301.exe)
 Standard basis: 6-311++G(d,p) (5D, 7F)
 Ernie: Thresh=  0.10000D-02 Tol=  0.10000D-05 Strict=F.
 There are   222 symmetry adapted cartesian basis functions of A   symmetry.
 There are   216 symmetry adapted basis functions of A   symmetry.
   216 basis functions,   324 primitive gaussians,   222 cartesian basis functions
    25 alpha electrons       25 beta electrons
       nuclear repulsion energy       274.6303523764 Hartrees.
 IExCor= 4336 DFT=T Ex+Corr=M062X ExCW=0 ScaHFX=  0.540000
 ScaDFX=  1.000000  1.000000  1.000000  1.000000 ScalE2=  1.000000  1.000000
 IRadAn=      5 IRanWt=     -1 IRanGd=            0 ICorTp=0 IEmpDi=  4
 NAtoms=   18 NActive=   18 NUniq=   18 SFac= 1.00D+00 NAtFMM=   60 NAOKFM=F Big=F
 Integral buffers will be    131072 words long.
 Raffenetti 2 integral format.
 Two-electron integral symmetry is turned on.
 Leave Link  301 at Mon Dec 30 16:56:10 2019, MaxMem= 10737418240 cpu:               1.3 elap:               0.1
 (Enter /apps/cent7/gaussian/g16-A.03/g16-haswell/g16/l302.exe)
 NPDir=0 NMtPBC=     1 NCelOv=     1 NCel=       1 NClECP=     1 NCelD=      1
         NCelK=      1 NCelE2=     1 NClLst=     1 CellRange=     0.0.
 One-electron integrals computed using PRISM.
 One-electron integral symmetry used in STVInt
 NBasis=   216 RedAO= T EigKep=  3.18D-05  NBF=   216
 NBsUse=   216 1.00D-06 EigRej= -1.00D+00 NBFU=   216
 Precomputing XC quadrature grid using
 IXCGrd= 4 IRadAn=           5 IRanWt=          -1 IRanGd=           0 AccXCQ= 0.00D+00.
 Generated NRdTot=       0 NPtTot=           0 NUsed=           0 NTot=          32
 NSgBfM=   222   222   222   222   222 MxSgAt=    18 MxSgA2=    18.
 Leave Link  302 at Mon Dec 30 16:56:10 2019, MaxMem= 10737418240 cpu:               4.0 elap:               0.2
 (Enter /apps/cent7/gaussian/g16-A.03/g16-haswell/g16/l303.exe)
 DipDrv:  MaxL=1.
 Leave Link  303 at Mon Dec 30 16:56:10 2019, MaxMem= 10737418240 cpu:               1.0 elap:               0.1
 (Enter /apps/cent7/gaussian/g16-A.03/g16-haswell/g16/l401.exe)
 ExpMin= 3.60D-02 ExpMax= 8.59D+03 ExpMxC= 1.30D+03 IAcc=3 IRadAn=         5 AccDes= 0.00D+00
 Harris functional with IExCor= 1009 and IRadAn=       5 diagonalized for initial guess.
 HarFok:  IExCor= 1009 AccDes= 0.00D+00 IRadAn=         5 IDoV= 1 UseB2=F ITyADJ=14
 ICtDFT=  3500011 ScaDFX=  1.000000  1.000000  1.000000  1.000000
 FoFCou: FMM=F IPFlag=           0 FMFlag=      100000 FMFlg1=           0
         NFxFlg=           0 DoJE=T BraDBF=F KetDBF=T FulRan=T
         wScrn=  0.000000 ICntrl=       500 IOpCl=  0 I1Cent=   200000004 NGrid=           0
         NMat0=    1 NMatS0=      1 NMatT0=    0 NMatD0=    1 NMtDS0=    0 NMtDT0=    0
 Petite list used in FoFCou.
 Harris En= -289.170840713832    
 JPrj=0 DoOrth=F DoCkMO=F.
 Leave Link  401 at Mon Dec 30 16:56:10 2019, MaxMem= 10737418240 cpu:               8.8 elap:               0.4
 (Enter /apps/cent7/gaussian/g16-A.03/g16-haswell/g16/l502.exe)
 Integral symmetry usage will be decided dynamically.
 Closed shell SCF:
 Using DIIS extrapolation, IDIIS=  1040.
 NGot= 10737418240 LenX= 10737311970 LenY= 10737262245
 Requested convergence on RMS density matrix=1.00D-08 within 128 cycles.
 Requested convergence on MAX density matrix=1.00D-06.
 Requested convergence on             energy=1.00D-06.
 No special actions if energy rises.
 Fock matrices will be formed incrementally for  20 cycles.

 Cycle   1  Pass 1  IDiag  1:
 FoFJK:  IHMeth= 1 ICntrl=       0 DoSepK=F KAlg= 0 I1Cent=           0 FoldK=F
 IRaf= 980000000 NMat=       1 IRICut=       1 DoRegI=T DoRafI=F ISym2E= 0 IDoP0=0 IntGTp=1.
 FoFCou: FMM=F IPFlag=           0 FMFlag=      100000 FMFlg1=           0
         NFxFlg=           0 DoJE=F BraDBF=F KetDBF=F FulRan=T
         wScrn=  0.000000 ICntrl=         0 IOpCl=  0 I1Cent=           0 NGrid=           0
         NMat0=    1 NMatS0=      1 NMatT0=    0 NMatD0=    1 NMtDS0=    0 NMtDT0=    0
 Symmetry not used in FoFCou.
 E= -288.982132513434    
 DIIS: error= 3.39D-02 at cycle   1 NSaved=   1.
 NSaved= 1 IEnMin= 1 EnMin= -288.982132513434     IErMin= 1 ErrMin= 3.39D-02
 ErrMax= 3.39D-02  0.00D+00 EMaxC= 1.00D-01 BMatC= 2.47D-01 BMatP= 2.47D-01
 IDIUse=3 WtCom= 6.61D-01 WtEn= 3.39D-01
 Coeff-Com:  0.100D+01
 Coeff-En:   0.100D+01
 Coeff:      0.100D+01
 Gap=     0.333 Goal=   None    Shift=    0.000
 GapD=    0.333 DampG=1.000 DampE=0.500 DampFc=0.5000 IDamp=-1.
 Damping current iteration by 5.00D-01
 RMSDP=7.85D-03 MaxDP=7.57D-01              OVMax= 1.46D-01

 Cycle   2  Pass 1  IDiag  1:
 RMSU=  3.92D-03    CP:  1.02D+00
 E= -289.091271639490     Delta-E=       -0.109139126056 Rises=F Damp=T
 DIIS: error= 5.62D-03 at cycle   2 NSaved=   2.
 NSaved= 2 IEnMin= 2 EnMin= -289.091271639490     IErMin= 2 ErrMin= 5.62D-03
 ErrMax= 5.62D-03  0.00D+00 EMaxC= 1.00D-01 BMatC= 1.90D-02 BMatP= 2.47D-01
 IDIUse=3 WtCom= 9.44D-01 WtEn= 5.62D-02
 Coeff-Com: -0.155D+00 0.115D+01
 Coeff-En:   0.000D+00 0.100D+01
 Coeff:     -0.146D+00 0.115D+01
 Gap=     0.385 Goal=   None    Shift=    0.000
 RMSDP=1.51D-03 MaxDP=3.35D-02 DE=-1.09D-01 OVMax= 7.07D-02

 Cycle   3  Pass 1  IDiag  1:
 RMSU=  1.47D-03    CP:  1.01D+00  1.09D+00
 E= -289.188934190989     Delta-E=       -0.097662551499 Rises=F Damp=F
 DIIS: error= 2.85D-03 at cycle   3 NSaved=   3.
 NSaved= 3 IEnMin= 3 EnMin= -289.188934190989     IErMin= 3 ErrMin= 2.85D-03
 ErrMax= 2.85D-03  0.00D+00 EMaxC= 1.00D-01 BMatC= 2.64D-03 BMatP= 1.90D-02
 IDIUse=3 WtCom= 9.72D-01 WtEn= 2.85D-02
 Coeff-Com: -0.868D-01 0.304D+00 0.783D+00
 Coeff-En:   0.000D+00 0.000D+00 0.100D+01
 Coeff:     -0.843D-01 0.295D+00 0.789D+00
 Gap=     0.321 Goal=   None    Shift=    0.000
 RMSDP=3.21D-04 MaxDP=1.32D-02 DE=-9.77D-02 OVMax= 1.56D-02

 Cycle   4  Pass 1  IDiag  1:
 RMSU=  3.13D-04    CP:  1.01D+00  1.10D+00  9.75D-01
 E= -289.190680986842     Delta-E=       -0.001746795853 Rises=F Damp=F
 DIIS: error= 1.08D-03 at cycle   4 NSaved=   4.
 NSaved= 4 IEnMin= 4 EnMin= -289.190680986842     IErMin= 4 ErrMin= 1.08D-03
 ErrMax= 1.08D-03  0.00D+00 EMaxC= 1.00D-01 BMatC= 5.12D-04 BMatP= 2.64D-03
 IDIUse=3 WtCom= 9.89D-01 WtEn= 1.08D-02
 Coeff-Com: -0.291D-01 0.682D-01 0.362D+00 0.599D+00
 Coeff-En:   0.000D+00 0.000D+00 0.477D-01 0.952D+00
 Coeff:     -0.287D-01 0.675D-01 0.358D+00 0.603D+00
 Gap=     0.313 Goal=   None    Shift=    0.000
 RMSDP=1.50D-04 MaxDP=8.84D-03 DE=-1.75D-03 OVMax= 5.76D-03

 Cycle   5  Pass 1  IDiag  1:
 RMSU=  9.98D-05    CP:  1.01D+00  1.08D+00  9.94D-01  7.25D-01
 E= -289.191081295974     Delta-E=       -0.000400309132 Rises=F Damp=F
 DIIS: error= 2.11D-04 at cycle   5 NSaved=   5.
 NSaved= 5 IEnMin= 5 EnMin= -289.191081295974     IErMin= 5 ErrMin= 2.11D-04
 ErrMax= 2.11D-04  0.00D+00 EMaxC= 1.00D-01 BMatC= 1.18D-05 BMatP= 5.12D-04
 IDIUse=3 WtCom= 9.98D-01 WtEn= 2.11D-03
 Coeff-Com: -0.274D-02 0.253D-02 0.546D-01 0.173D+00 0.772D+00
 Coeff-En:   0.000D+00 0.000D+00 0.000D+00 0.000D+00 0.100D+01
 Coeff:     -0.274D-02 0.252D-02 0.544D-01 0.173D+00 0.773D+00
 Gap=     0.314 Goal=   None    Shift=    0.000
 RMSDP=2.87D-05 MaxDP=6.18D-04 DE=-4.00D-04 OVMax= 1.04D-03

 Cycle   6  Pass 1  IDiag  1:
 RMSU=  2.36D-05    CP:  1.01D+00  1.08D+00  9.97D-01  7.59D-01  9.06D-01
 E= -289.191092881612     Delta-E=       -0.000011585638 Rises=F Damp=F
 DIIS: error= 5.00D-05 at cycle   6 NSaved=   6.
 NSaved= 6 IEnMin= 6 EnMin= -289.191092881612     IErMin= 6 ErrMin= 5.00D-05
 ErrMax= 5.00D-05  0.00D+00 EMaxC= 1.00D-01 BMatC= 6.97D-07 BMatP= 1.18D-05
 IDIUse=1 WtCom= 1.00D+00 WtEn= 0.00D+00
 Coeff-Com:  0.175D-02-0.439D-02-0.159D-01-0.129D-01 0.153D+00 0.879D+00
 Coeff:      0.175D-02-0.439D-02-0.159D-01-0.129D-01 0.153D+00 0.879D+00
 Gap=     0.314 Goal=   None    Shift=    0.000
 RMSDP=1.10D-05 MaxDP=9.24D-04 DE=-1.16D-05 OVMax= 3.24D-04

 Cycle   7  Pass 1  IDiag  1:
 RMSU=  4.65D-06    CP:  1.01D+00  1.08D+00  9.99D-01  7.68D-01  9.52D-01
                    CP:  1.10D+00
 E= -289.191093518564     Delta-E=       -0.000000636952 Rises=F Damp=F
 DIIS: error= 1.99D-05 at cycle   7 NSaved=   7.
 NSaved= 7 IEnMin= 7 EnMin= -289.191093518564     IErMin= 7 ErrMin= 1.99D-05
 ErrMax= 1.99D-05  0.00D+00 EMaxC= 1.00D-01 BMatC= 1.57D-07 BMatP= 6.97D-07
 IDIUse=1 WtCom= 1.00D+00 WtEn= 0.00D+00
 Coeff-Com:  0.968D-03-0.215D-02-0.113D-01-0.211D-01-0.108D-03 0.386D+00
 Coeff-Com:  0.648D+00
 Coeff:      0.968D-03-0.215D-02-0.113D-01-0.211D-01-0.108D-03 0.386D+00
 Coeff:      0.648D+00
 Gap=     0.314 Goal=   None    Shift=    0.000
 RMSDP=3.70D-06 MaxDP=3.70D-04 DE=-6.37D-07 OVMax= 8.73D-05

 Cycle   8  Pass 1  IDiag  1:
 RMSU=  1.57D-06    CP:  1.01D+00  1.08D+00  1.00D+00  7.70D-01  9.63D-01
                    CP:  1.12D+00  9.55D-01
 E= -289.191093631855     Delta-E=       -0.000000113291 Rises=F Damp=F
 DIIS: error= 4.47D-06 at cycle   8 NSaved=   8.
 NSaved= 8 IEnMin= 8 EnMin= -289.191093631855     IErMin= 8 ErrMin= 4.47D-06
 ErrMax= 4.47D-06  0.00D+00 EMaxC= 1.00D-01 BMatC= 5.56D-09 BMatP= 1.57D-07
 IDIUse=1 WtCom= 1.00D+00 WtEn= 0.00D+00
 Coeff-Com:  0.174D-03-0.343D-03-0.236D-02-0.563D-02-0.105D-01 0.455D-01
 Coeff-Com:  0.184D+00 0.789D+00
 Coeff:      0.174D-03-0.343D-03-0.236D-02-0.563D-02-0.105D-01 0.455D-01
 Coeff:      0.184D+00 0.789D+00
 Gap=     0.314 Goal=   None    Shift=    0.000
 RMSDP=7.99D-07 MaxDP=2.79D-05 DE=-1.13D-07 OVMax= 3.92D-05

 Cycle   9  Pass 1  IDiag  1:
 RMSU=  6.48D-07    CP:  1.01D+00  1.08D+00  1.00D+00  7.70D-01  9.63D-01
                    CP:  1.14D+00  9.34D-01  1.10D+00
 E= -289.191093637663     Delta-E=       -0.000000005808 Rises=F Damp=F
 DIIS: error= 1.39D-06 at cycle   9 NSaved=   9.
 NSaved= 9 IEnMin= 9 EnMin= -289.191093637663     IErMin= 9 ErrMin= 1.39D-06
 ErrMax= 1.39D-06  0.00D+00 EMaxC= 1.00D-01 BMatC= 4.76D-10 BMatP= 5.56D-09
 IDIUse=1 WtCom= 1.00D+00 WtEn= 0.00D+00
 Coeff-Com: -0.247D-04 0.621D-04 0.193D-03 0.144D-03-0.209D-02-0.155D-01
 Coeff-Com: -0.633D-02 0.205D+00 0.819D+00
 Coeff:     -0.247D-04 0.621D-04 0.193D-03 0.144D-03-0.209D-02-0.155D-01
 Coeff:     -0.633D-02 0.205D+00 0.819D+00
 Gap=     0.314 Goal=   None    Shift=    0.000
 RMSDP=2.72D-07 MaxDP=1.10D-05 DE=-5.81D-09 OVMax= 1.12D-05

 Cycle  10  Pass 1  IDiag  1:
 RMSU=  1.64D-07    CP:  1.01D+00  1.08D+00  1.00D+00  7.70D-01  9.62D-01
                    CP:  1.14D+00  9.49D-01  1.19D+00  1.02D+00
 E= -289.191093638208     Delta-E=       -0.000000000545 Rises=F Damp=F
 DIIS: error= 4.53D-07 at cycle  10 NSaved=  10.
 NSaved=10 IEnMin=10 EnMin= -289.191093638208     IErMin=10 ErrMin= 4.53D-07
 ErrMax= 4.53D-07  0.00D+00 EMaxC= 1.00D-01 BMatC= 6.73D-11 BMatP= 4.76D-10
 IDIUse=1 WtCom= 1.00D+00 WtEn= 0.00D+00
 Coeff-Com: -0.262D-04 0.572D-04 0.317D-03 0.683D-03 0.448D-03-0.106D-01
 Coeff-Com: -0.221D-01-0.582D-02 0.303D+00 0.734D+00
 Coeff:     -0.262D-04 0.572D-04 0.317D-03 0.683D-03 0.448D-03-0.106D-01
 Coeff:     -0.221D-01-0.582D-02 0.303D+00 0.734D+00
 Gap=     0.314 Goal=   None    Shift=    0.000
 RMSDP=8.46D-08 MaxDP=5.63D-06 DE=-5.45D-10 OVMax= 5.41D-06

 Cycle  11  Pass 1  IDiag  1:
 RMSU=  4.65D-08    CP:  1.01D+00  1.08D+00  1.00D+00  7.70D-01  9.62D-01
                    CP:  1.14D+00  9.48D-01  1.22D+00  1.07D+00  1.10D+00
 E= -289.191093638295     Delta-E=       -0.000000000087 Rises=F Damp=F
 DIIS: error= 1.16D-07 at cycle  11 NSaved=  11.
 NSaved=11 IEnMin=11 EnMin= -289.191093638295     IErMin=11 ErrMin= 1.16D-07
 ErrMax= 1.16D-07  0.00D+00 EMaxC= 1.00D-01 BMatC= 2.93D-12 BMatP= 6.73D-11
 IDIUse=1 WtCom= 1.00D+00 WtEn= 0.00D+00
 Coeff-Com: -0.341D-06 0.751D-06 0.184D-04 0.743D-04 0.156D-03-0.144D-03
 Coeff-Com: -0.167D-02-0.156D-01-0.300D-01 0.101D+00 0.946D+00
 Coeff:     -0.341D-06 0.751D-06 0.184D-04 0.743D-04 0.156D-03-0.144D-03
 Coeff:     -0.167D-02-0.156D-01-0.300D-01 0.101D+00 0.946D+00
 Gap=     0.314 Goal=   None    Shift=    0.000
 RMSDP=2.88D-08 MaxDP=1.21D-06 DE=-8.73D-11 OVMax= 2.03D-06

 Cycle  12  Pass 1  IDiag  1:
 RMSU=  1.61D-08    CP:  1.01D+00  1.08D+00  1.00D+00  7.70D-01  9.62D-01
                    CP:  1.14D+00  9.48D-01  1.22D+00  1.08D+00  1.17D+00
                    CP:  1.20D+00
 E= -289.191093638301     Delta-E=       -0.000000000006 Rises=F Damp=F
 DIIS: error= 2.57D-08 at cycle  12 NSaved=  12.
 NSaved=12 IEnMin=12 EnMin= -289.191093638301     IErMin=12 ErrMin= 2.57D-08
 ErrMax= 2.57D-08  0.00D+00 EMaxC= 1.00D-01 BMatC= 1.85D-13 BMatP= 2.93D-12
 IDIUse=1 WtCom= 1.00D+00 WtEn= 0.00D+00
 Coeff-Com:  0.138D-05-0.294D-05-0.146D-04-0.273D-04-0.163D-04 0.563D-03
 Coeff-Com:  0.102D-02-0.115D-02-0.275D-01-0.401D-01 0.960D-01 0.971D+00
 Coeff:      0.138D-05-0.294D-05-0.146D-04-0.273D-04-0.163D-04 0.563D-03
 Coeff:      0.102D-02-0.115D-02-0.275D-01-0.401D-01 0.960D-01 0.971D+00
 Gap=     0.314 Goal=   None    Shift=    0.000
 RMSDP=1.39D-08 MaxDP=9.97D-07 DE=-6.03D-12 OVMax= 7.15D-07

 Cycle  13  Pass 1  IDiag  1:
 RMSU=  5.16D-09    CP:  1.01D+00  1.08D+00  1.00D+00  7.70D-01  9.62D-01
                    CP:  1.14D+00  9.48D-01  1.23D+00  1.09D+00  1.21D+00
                    CP:  1.34D+00  1.12D+00
 E= -289.191093638303     Delta-E=       -0.000000000002 Rises=F Damp=F
 DIIS: error= 8.34D-09 at cycle  13 NSaved=  13.
 NSaved=13 IEnMin=13 EnMin= -289.191093638303     IErMin=13 ErrMin= 8.34D-09
 ErrMax= 8.34D-09  0.00D+00 EMaxC= 1.00D-01 BMatC= 1.97D-14 BMatP= 1.85D-13
 IDIUse=1 WtCom= 1.00D+00 WtEn= 0.00D+00
 Coeff-Com:  0.128D-06-0.311D-06-0.304D-05-0.918D-05-0.160D-04 0.816D-04
 Coeff-Com:  0.285D-03 0.152D-02-0.206D-02-0.138D-01-0.635D-01 0.161D+00
 Coeff-Com:  0.917D+00
 Coeff:      0.128D-06-0.311D-06-0.304D-05-0.918D-05-0.160D-04 0.816D-04
 Coeff:      0.285D-03 0.152D-02-0.206D-02-0.138D-01-0.635D-01 0.161D+00
 Coeff:      0.917D+00
 Gap=     0.314 Goal=   None    Shift=    0.000
 RMSDP=2.70D-09 MaxDP=2.32D-07 DE=-2.16D-12 OVMax= 1.54D-07

 SCF Done:  E(RM062X) =  -289.191093638     A.U. after   13 cycles
            NFock= 13  Conv=0.27D-08     -V/T= 2.0034
 KE= 2.882080001380D+02 PE=-1.212829233146D+03 EE= 3.607997869930D+02
 Leave Link  502 at Mon Dec 30 16:56:20 2019, MaxMem= 10737418240 cpu:             219.4 elap:               9.2
 (Enter /apps/cent7/gaussian/g16-A.03/g16-haswell/g16/l601.exe)
 Copying SCF densities to generalized density rwf, IOpCl= 0 IROHF=0.

 **********************************************************************

            Population analysis using the SCF density.

 **********************************************************************

 Orbital symmetries:
       Occupied  (A) (A) (A) (A) (A) (A) (A) (A) (A) (A) (A) (A)
                 (A) (A) (A) (A) (A) (A) (A) (A) (A) (A) (A) (A)
                 (A)
       Virtual   (A) (A) (A) (A) (A) (A) (A) (A) (A) (A) (A) (A)
                 (A) (A) (A) (A) (A) (A) (A) (A) (A) (A) (A) (A)
                 (A) (A) (A) (A) (A) (A) (A) (A) (A) (A) (A) (A)
                 (A) (A) (A) (A) (A) (A) (A) (A) (A) (A) (A) (A)
                 (A) (A) (A) (A) (A) (A) (A) (A) (A) (A) (A) (A)
                 (A) (A) (A) (A) (A) (A) (A) (A) (A) (A) (A) (A)
                 (A) (A) (A) (A) (A) (A) (A) (A) (A) (A) (A) (A)
                 (A) (A) (A) (A) (A) (A) (A) (A) (A) (A) (A) (A)
                 (A) (A) (A) (A) (A) (A) (A) (A) (A) (A) (A) (A)
                 (A) (A) (A) (A) (A) (A) (A) (A) (A) (A) (A) (A)
                 (A) (A) (A) (A) (A) (A) (A) (A) (A) (A) (A) (A)
                 (A) (A) (A) (A) (A) (A) (A) (A) (A) (A) (A) (A)
                 (A) (A) (A) (A) (A) (A) (A) (A) (A) (A) (A) (A)
                 (A) (A) (A) (A) (A) (A) (A) (A) (A) (A) (A) (A)
                 (A) (A) (A) (A) (A) (A) (A) (A) (A) (A) (A) (A)
                 (A) (A) (A) (A) (A) (A) (A) (A) (A) (A) (A)
 The electronic state is 1-A.
 Alpha  occ. eigenvalues --  -20.00144 -15.01270 -10.75470 -10.74462 -10.68756
 Alpha  occ. eigenvalues --  -10.68728  -1.55353  -1.21645  -1.05368  -1.01053
 Alpha  occ. eigenvalues --   -0.99164  -0.92500  -0.87574  -0.80915  -0.77738
 Alpha  occ. eigenvalues --   -0.71992  -0.70029  -0.67992  -0.64205  -0.60835
 Alpha  occ. eigenvalues --   -0.59781  -0.59315  -0.58409  -0.57463  -0.50429
 Alpha virt. eigenvalues --   -0.19038  -0.13622  -0.11266  -0.10826  -0.08950
 Alpha virt. eigenvalues --   -0.08726  -0.08433  -0.07624  -0.07390  -0.06276
 Alpha virt. eigenvalues --   -0.05168  -0.04517  -0.03931  -0.03665  -0.03064
 Alpha virt. eigenvalues --   -0.02966  -0.01775  -0.00807  -0.00516   0.01039
 Alpha virt. eigenvalues --    0.01175   0.01647   0.02742   0.02782   0.03395
 Alpha virt. eigenvalues --    0.04141   0.04525   0.04853   0.05553   0.05841
 Alpha virt. eigenvalues --    0.06421   0.07014   0.08027   0.08369   0.08451
 Alpha virt. eigenvalues --    0.08681   0.09354   0.09949   0.10487   0.11588
 Alpha virt. eigenvalues --    0.12810   0.12962   0.13692   0.13996   0.15204
 Alpha virt. eigenvalues --    0.17025   0.17639   0.18611   0.20625   0.21704
 Alpha virt. eigenvalues --    0.23689   0.24883   0.27059   0.32392   0.33683
 Alpha virt. eigenvalues --    0.34316   0.35130   0.35732   0.36454   0.38970
 Alpha virt. eigenvalues --    0.44101   0.46043   0.46700   0.48714   0.50348
 Alpha virt. eigenvalues --    0.52261   0.54872   0.56090   0.56316   0.56995
 Alpha virt. eigenvalues --    0.57499   0.58083   0.59225   0.59583   0.59841
 Alpha virt. eigenvalues --    0.61181   0.64500   0.69016   0.71356   0.73445
 Alpha virt. eigenvalues --    0.76423   0.78086   0.79609   0.81066   0.84409
 Alpha virt. eigenvalues --    0.88856   0.92188   0.99872   1.02636   1.03284
 Alpha virt. eigenvalues --    1.06319   1.15261   1.15832   1.18517   1.23381
 Alpha virt. eigenvalues --    1.28253   1.32645   1.33877   1.36046   1.37487
 Alpha virt. eigenvalues --    1.38277   1.41531   1.42361   1.43781   1.45450
 Alpha virt. eigenvalues --    1.46262   1.47416   1.50636   1.51638   1.52694
 Alpha virt. eigenvalues --    1.53695   1.53894   1.59140   1.59945   1.63648
 Alpha virt. eigenvalues --    1.65057   1.66764   1.67862   1.69333   1.72009
 Alpha virt. eigenvalues --    1.73982   1.79476   1.82042   1.84835   1.88211
 Alpha virt. eigenvalues --    1.90495   1.92589   1.97165   1.97955   2.03028
 Alpha virt. eigenvalues --    2.04900   2.08524   2.11267   2.13306   2.18177
 Alpha virt. eigenvalues --    2.25911   2.27452   2.28814   2.33986   2.35914
 Alpha virt. eigenvalues --    2.37922   2.38162   2.40531   2.42258   2.45068
 Alpha virt. eigenvalues --    2.46590   2.47937   2.48569   2.49223   2.50900
 Alpha virt. eigenvalues --    2.52497   2.53470   2.54303   2.56531   2.61232
 Alpha virt. eigenvalues --    2.62192   2.63905   2.70086   2.74776   2.77677
 Alpha virt. eigenvalues --    2.82552   2.86098   2.91637   2.98312   3.01591
 Alpha virt. eigenvalues --    3.14389   3.26220   3.28617   3.45474   3.58965
 Alpha virt. eigenvalues --    3.60563   3.64377   3.67283   3.71072   3.71976
 Alpha virt. eigenvalues --    3.77067   3.80894   3.91728   4.01536   4.12363
 Alpha virt. eigenvalues --    4.43228   4.66514   4.88810   5.51985   5.65943
 Alpha virt. eigenvalues --   23.74734  23.76829  23.88796  23.90117  35.32524
 Alpha virt. eigenvalues --   49.73337
          Condensed to atoms (all electrons):
               1          2          3          4          5          6
     1  C    5.577119   0.100463  -0.204559   0.051593   0.015012  -0.061228
     2  C    0.100463   5.583342   0.130682  -0.032683  -0.193983   0.014020
     3  N   -0.204559   0.130682   8.257052  -0.591244  -0.141406  -0.142721
     4  O    0.051593  -0.032683  -0.591244   7.779256   0.094759   0.028051
     5  C    0.015012  -0.193983  -0.141406   0.094759   5.787624   0.058452
     6  C   -0.061228   0.014020  -0.142721   0.028051   0.058452   5.555546
     7  H    0.403758  -0.014184   0.003573   0.003506  -0.002596   0.000644
     8  H    0.329753   0.009847  -0.088906   0.060368   0.010849   0.004623
     9  H    0.411789  -0.067333   0.049479  -0.022613  -0.002040   0.000110
    10  H   -0.050362   0.300864   0.019920  -0.019144   0.015627  -0.000218
    11  H   -0.051511   0.428568  -0.124811   0.041325   0.024556   0.004619
    12  H   -0.001982   0.007440  -0.041222   0.323359   0.013512  -0.006951
    13  H    0.002061  -0.021829   0.085803  -0.043697   0.299633  -0.059657
    14  H    0.006232   0.015051  -0.129180   0.035624   0.447806  -0.056897
    15  H    0.001403  -0.004207  -0.003764   0.003969   0.007642   0.384771
    16  H   -0.001138   0.000015   0.046476  -0.019105  -0.079986   0.430414
    17  H    0.003630   0.011992  -0.103515   0.055228   0.043770   0.321901
    18  H   -0.001085   0.004406   0.027834   0.286880  -0.007099  -0.001189
               7          8          9         10         11         12
     1  C    0.403758   0.329753   0.411789  -0.050362  -0.051511  -0.001982
     2  C   -0.014184   0.009847  -0.067333   0.300864   0.428568   0.007440
     3  N    0.003573  -0.088906   0.049479   0.019920  -0.124811  -0.041222
     4  O    0.003506   0.060368  -0.022613  -0.019144   0.041325   0.323359
     5  C   -0.002596   0.010849  -0.002040   0.015627   0.024556   0.013512
     6  C    0.000644   0.004623   0.000110  -0.000218   0.004619  -0.006951
     7  H    0.446048  -0.015414  -0.027006  -0.008644  -0.000913   0.000557
     8  H   -0.015414   0.615442  -0.049229  -0.015430   0.005878  -0.000108
     9  H   -0.027006  -0.049229   0.488232   0.008012  -0.008238   0.000657
    10  H   -0.008644  -0.015430   0.008012   0.535932  -0.009367   0.004422
    11  H   -0.000913   0.005878  -0.008238  -0.009367   0.476815  -0.002923
    12  H    0.000557  -0.000108   0.000657   0.004422  -0.002923   0.365842
    13  H    0.000010  -0.005392   0.002937   0.027155  -0.009918   0.010348
    14  H    0.000755   0.003479  -0.003505  -0.011532   0.015091  -0.000783
    15  H   -0.000160   0.000358  -0.000132   0.001517   0.000382   0.001191
    16  H    0.000091  -0.000707   0.000477   0.001557  -0.003001   0.002642
    17  H    0.000266   0.000323  -0.000824  -0.004518   0.003580  -0.010124
    18  H   -0.000588  -0.006074   0.001695   0.001274   0.000729  -0.030744
              13         14         15         16         17         18
     1  C    0.002061   0.006232   0.001403  -0.001138   0.003630  -0.001085
     2  C   -0.021829   0.015051  -0.004207   0.000015   0.011992   0.004406
     3  N    0.085803  -0.129180  -0.003764   0.046476  -0.103515   0.027834
     4  O   -0.043697   0.035624   0.003969  -0.019105   0.055228   0.286880
     5  C    0.299633   0.447806   0.007642  -0.079986   0.043770  -0.007099
     6  C   -0.059657  -0.056897   0.384771   0.430414   0.321901  -0.001189
     7  H    0.000010   0.000755  -0.000160   0.000091   0.000266  -0.000588
     8  H   -0.005392   0.003479   0.000358  -0.000707   0.000323  -0.006074
     9  H    0.002937  -0.003505  -0.000132   0.000477  -0.000824   0.001695
    10  H    0.027155  -0.011532   0.001517   0.001557  -0.004518   0.001274
    11  H   -0.009918   0.015091   0.000382  -0.003001   0.003580   0.000729
    12  H    0.010348  -0.000783   0.001191   0.002642  -0.010124  -0.030744
    13  H    0.537943  -0.019304  -0.000270   0.010902  -0.034561   0.001866
    14  H   -0.019304   0.477997  -0.007316  -0.008404   0.014645  -0.000248
    15  H   -0.000270  -0.007316   0.465223  -0.031202  -0.021489  -0.000605
    16  H    0.010902  -0.008404  -0.031202   0.489780  -0.052286  -0.000596
    17  H   -0.034561   0.014645  -0.021489  -0.052286   0.631547   0.003168
    18  H    0.001866  -0.000248  -0.000605  -0.000596   0.003168   0.301211
 Mulliken charges:
               1
     1  C   -0.530948
     2  C   -0.272470
     3  N   -0.049492
     4  O   -0.035432
     5  C   -0.392132
     6  C   -0.474290
     7  H    0.210298
     8  H    0.140341
     9  H    0.217533
    10  H    0.202936
    11  H    0.209137
    12  H    0.364866
    13  H    0.215971
    14  H    0.220489
    15  H    0.202689
    16  H    0.214072
    17  H    0.137268
    18  H    0.419166
 Sum of Mulliken charges =   1.00000
 Mulliken charges with hydrogens summed into heavy atoms:
               1
     1  C    0.037222
     2  C    0.139602
     3  N   -0.049492
     4  O    0.748600
     5  C    0.044328
     6  C    0.079740
 Electronic spatial extent (au):  <R**2>=            765.9872
 Charge=              1.0000 electrons
 Dipole moment (field-independent basis, Debye):
    X=              0.0108    Y=              3.2918    Z=              1.5146  Tot=              3.6236
 Quadrupole moment (field-independent basis, Debye-Ang):
   XX=            -26.0788   YY=            -23.9888   ZZ=            -36.3277
   XY=             -0.7287   XZ=              1.4307   YZ=              2.0867
 Traceless Quadrupole moment (field-independent basis, Debye-Ang):
   XX=              2.7196   YY=              4.8096   ZZ=             -7.5293
   XY=             -0.7287   XZ=              1.4307   YZ=              2.0867
 Octapole moment (field-independent basis, Debye-Ang**2):
  XXX=             -0.2223  YYY=             24.1273  ZZZ=              2.8797  XYY=             -1.6815
  XXY=             -4.9641  XXZ=             -1.0145  XZZ=              1.1285  YZZ=              6.3424
  YYZ=              0.8856  XYZ=              3.1138
 Hexadecapole moment (field-independent basis, Debye-Ang**3):
 XXXX=           -664.1225 YYYY=           -112.9633 ZZZZ=            -81.0543 XXXY=             -0.2299
 XXXZ=             -2.6868 YYYX=             -7.2009 YYYZ=              7.8595 ZZZX=              1.9843
 ZZZY=              5.1488 XXYY=           -138.7039 XXZZ=           -136.9030 YYZZ=            -38.7466
 XXYZ=              2.4392 YYXZ=              5.2931 ZZXY=              2.3217
 N-N= 2.746303523764D+02 E-N=-1.212829233064D+03  KE= 2.882080001380D+02
 No NMR shielding tensors so no spin-rotation constants.
 Leave Link  601 at Mon Dec 30 16:56:20 2019, MaxMem= 10737418240 cpu:               2.5 elap:               0.1
 (Enter /apps/cent7/gaussian/g16-A.03/g16-haswell/g16/l701.exe)
 ... and contract with generalized density number  0.
 Compute integral first derivatives.
 Leave Link  701 at Mon Dec 30 16:56:20 2019, MaxMem= 10737418240 cpu:               4.0 elap:               0.2
 (Enter /apps/cent7/gaussian/g16-A.03/g16-haswell/g16/l702.exe)
 L702 exits ... SP integral derivatives will be done elsewhere.
 Leave Link  702 at Mon Dec 30 16:56:20 2019, MaxMem= 10737418240 cpu:               0.4 elap:               0.0
 (Enter /apps/cent7/gaussian/g16-A.03/g16-haswell/g16/l703.exe)
 Integral derivatives from FoFJK, PRISM(SPDF).
 Compute integral first derivatives, UseDBF=F ICtDFT=           0.
 Calling FoFJK, ICntrl=      2127 FMM=F ISym2X=0 I1Cent= 0 IOpClX= 0 NMat=1 NMatS=1 NMatT=0.
 FoFJK:  IHMeth= 1 ICntrl=    2127 DoSepK=F KAlg= 0 I1Cent=           0 FoldK=F
 IRaf=         0 NMat=       1 IRICut=       1 DoRegI=T DoRafI=F ISym2E= 0 IDoP0=0 IntGTp=1.
 FoFCou: FMM=F IPFlag=           0 FMFlag=      100000 FMFlg1=         800
         NFxFlg=           0 DoJE=F BraDBF=F KetDBF=F FulRan=T
         wScrn=  0.000000 ICntrl=      2127 IOpCl=  0 I1Cent=           0 NGrid=           0
         NMat0=    1 NMatS0=      1 NMatT0=    0 NMatD0=    1 NMtDS0=    0 NMtDT0=    0
 Symmetry not used in FoFCou.
 Leave Link  703 at Mon Dec 30 16:56:22 2019, MaxMem= 10737418240 cpu:              34.0 elap:               1.4
 (Enter /apps/cent7/gaussian/g16-A.03/g16-haswell/g16/l716.exe)
 Dipole        = 4.24024273D-03 1.29509799D+00 5.95885902D-01
 ***** Axes restored to original set *****
 -------------------------------------------------------------------
 Center     Atomic                   Forces (Hartrees/Bohr)
 Number     Number              X              Y              Z
 -------------------------------------------------------------------
      1        6           0.001481069    0.017775390    0.008459707
      2        6          -0.003197167    0.003399253   -0.026514558
      3        7           0.070469395   -0.027680110    0.044074562
      4        8          -0.032317602    0.017001641   -0.021188903
      5        6           0.002582060    0.023510704   -0.026790178
      6        6           0.000089242   -0.013424587   -0.009461549
      7        1          -0.001546581    0.001175977   -0.001369571
      8        1          -0.000703050   -0.005260698   -0.004312154
      9        1           0.001036342   -0.002219861   -0.001685684
     10        1          -0.000244116   -0.010381100    0.018176144
     11        1          -0.011374031    0.001808712    0.008245982
     12        1          -0.019693455    0.005032452    0.001341199
     13        1          -0.002051398   -0.010791144    0.019950272
     14        1          -0.011798568   -0.009958686    0.001783728
     15        1          -0.002075117    0.000383712   -0.001355373
     16        1           0.000838086    0.002333492    0.001234765
     17        1           0.001150017    0.006246857    0.001010091
     18        1           0.007354874    0.001047996   -0.011598480
 -------------------------------------------------------------------
 Cartesian Forces:  Max     0.070469395 RMS     0.016238317
 Leave Link  716 at Mon Dec 30 16:56:22 2019, MaxMem= 10737418240 cpu:               0.6 elap:               0.0
 (Enter /apps/cent7/gaussian/g16-A.03/g16-haswell/g16/l103.exe)

 GradGradGradGradGradGradGradGradGradGradGradGradGradGradGradGradGradGrad
 Berny optimization.
 FormGI is forming the generalized inverse of G from B-inverse, IUseBI=4.
 Internal  Forces:  Max     0.057956468 RMS     0.008885654
 Search for a local minimum.
 Step number   1 out of a maximum of   91
 All quantities printed in internal units (Hartrees-Bohrs-Radians)
 RMS Force = .88857D-02 SwitMx=.10000D-02 MixMth= 1
 Mixed Optimization -- RFO/linear search
 Second derivative matrix not updated -- first step.
 ITU=  0
     Eigenvalues ---    0.00230   0.00230   0.00481   0.00508   0.01765
     Eigenvalues ---    0.01765   0.03066   0.04469   0.04488   0.05611
     Eigenvalues ---    0.05611   0.05715   0.05715   0.05715   0.05716
     Eigenvalues ---    0.09065   0.09066   0.12571   0.12579   0.16000
     Eigenvalues ---    0.16000   0.16000   0.16000   0.16000   0.16000
     Eigenvalues ---    0.16000   0.16000   0.17137   0.18306   0.22554
     Eigenvalues ---    0.22556   0.28120   0.28208   0.33283   0.33505
     Eigenvalues ---    0.34806   0.34812   0.34813   0.34813   0.34814
     Eigenvalues ---    0.34814   0.34816   0.34816   0.34819   0.34825
     Eigenvalues ---    0.52055   0.55473   0.55473
 RFO step:  Lambda=-2.53628673D-02 EMin= 2.30000000D-03
 Linear search not attempted -- first point.
 Iteration  1 RMS(Cart)=  0.05872290 RMS(Int)=  0.00200573
 Iteration  2 RMS(Cart)=  0.00280484 RMS(Int)=  0.00043893
 Iteration  3 RMS(Cart)=  0.00000481 RMS(Int)=  0.00043892
 Iteration  4 RMS(Cart)=  0.00000000 RMS(Int)=  0.00043892
 ITry= 1 IFail=0 DXMaxC= 1.57D-01 DCOld= 1.00D+10 DXMaxT= 3.00D-01 DXLimC= 3.00D+00 Rises=F
 Variable       Old X    -DE/DX   Delta X   Delta X   Delta X     New X
                                 (Linear)    (Quad)   (Total)
    R1        2.91878  -0.00655   0.00000  -0.02138  -0.02138   2.89740
    R2        2.05970  -0.00132   0.00000  -0.00353  -0.00353   2.05617
    R3        2.05960   0.00230   0.00000   0.00615   0.00615   2.06575
    R4        2.05979   0.00090   0.00000   0.00241   0.00241   2.06219
    R5        2.81474  -0.00474   0.00000  -0.01316  -0.01316   2.80158
    R6        2.05981   0.00483   0.00000   0.01293   0.01293   2.07273
    R7        2.05991  -0.00243   0.00000  -0.00650  -0.00650   2.05341
    R8        2.57846   0.05796   0.00000   0.10616   0.10616   2.68463
    R9        2.81857  -0.01081   0.00000  -0.03017  -0.03017   2.78840
   R10        1.81414   0.01940   0.00000   0.03344   0.03344   1.84758
   R11        1.81414   0.01272   0.00000   0.02194   0.02194   1.83607
   R12        2.91686  -0.00382   0.00000  -0.01243  -0.01243   2.90444
   R13        2.05980   0.00692   0.00000   0.01852   0.01852   2.07832
   R14        2.05979  -0.00315   0.00000  -0.00844  -0.00844   2.05135
   R15        2.05978  -0.00124   0.00000  -0.00332  -0.00332   2.05646
   R16        2.05975   0.00047   0.00000   0.00125   0.00125   2.06100
   R17        2.05974   0.00139   0.00000   0.00373   0.00373   2.06347
    A1        1.91058  -0.00164   0.00000  -0.01501  -0.01481   1.89577
    A2        1.91065   0.00769   0.00000   0.04334   0.04289   1.95354
    A3        1.91056   0.00310   0.00000   0.02105   0.02052   1.93108
    A4        1.91070  -0.00463   0.00000  -0.03360  -0.03333   1.87737
    A5        1.91063  -0.00143   0.00000  -0.01142  -0.01130   1.89933
    A6        1.91068  -0.00310   0.00000  -0.00435  -0.00542   1.90526
    A7        1.97373  -0.01499   0.00000  -0.04284  -0.04277   1.93096
    A8        1.86191   0.00668   0.00000   0.05519   0.05501   1.91692
    A9        1.86199   0.00993   0.00000   0.04818   0.04771   1.90969
   A10        1.83803   0.00951   0.00000   0.07459   0.07480   1.91283
   A11        1.83798  -0.00090   0.00000  -0.02826  -0.02741   1.81057
   A12        2.09440  -0.01241   0.00000  -0.11409  -0.11372   1.98068
   A13        1.91049  -0.00105   0.00000  -0.02337  -0.02400   1.88649
   A14        1.96734   0.00605   0.00000   0.01360   0.01195   1.97928
   A15        1.91795  -0.00829   0.00000  -0.06018  -0.06045   1.85751
   A16        2.09440   0.00676   0.00000   0.03646   0.03645   2.13085
   A17        2.09440  -0.00610   0.00000  -0.03290  -0.03290   2.06149
   A18        2.09440  -0.00066   0.00000  -0.00356  -0.00357   2.09083
   A19        1.97562  -0.01365   0.00000  -0.03641  -0.03640   1.93922
   A20        1.83827   0.00816   0.00000   0.06446   0.06433   1.90260
   A21        1.83831  -0.00192   0.00000  -0.03473  -0.03384   1.80446
   A22        1.86089   0.00754   0.00000   0.06347   0.06297   1.92387
   A23        1.86089   0.01081   0.00000   0.05774   0.05731   1.91819
   A24        2.09435  -0.01301   0.00000  -0.12155  -0.12159   1.97276
   A25        1.91064  -0.00168   0.00000  -0.01388  -0.01372   1.89692
   A26        1.91066   0.00235   0.00000   0.01511   0.01465   1.92531
   A27        1.91060   0.00864   0.00000   0.04900   0.04864   1.95924
   A28        1.91063  -0.00122   0.00000  -0.01135  -0.01128   1.89935
   A29        1.91069  -0.00439   0.00000  -0.02852  -0.02830   1.88239
   A30        1.91058  -0.00371   0.00000  -0.01036  -0.01124   1.89934
    D1        3.06798  -0.00321   0.00000  -0.03990  -0.04012   3.02786
    D2       -1.20282   0.00441   0.00000   0.06142   0.06141  -1.14142
    D3        1.05560  -0.00021   0.00000  -0.01239  -0.01204   1.04357
    D4       -1.12075  -0.00517   0.00000  -0.06371  -0.06432  -1.18507
    D5        0.89164   0.00245   0.00000   0.03761   0.03720   0.92884
    D6       -3.13313  -0.00218   0.00000  -0.03620  -0.03624   3.11382
    D7        0.97367  -0.00236   0.00000  -0.02961  -0.02957   0.94410
    D8        2.98605   0.00526   0.00000   0.07170   0.07196   3.05801
    D9       -1.03871   0.00064   0.00000  -0.00211  -0.00148  -1.04019
   D10        1.09258   0.00394   0.00000   0.04977   0.04965   1.14223
   D11       -3.05036  -0.00331   0.00000  -0.03504  -0.03556  -3.08591
   D12       -0.93403  -0.00219   0.00000  -0.04000  -0.04007  -0.97410
   D13        1.20622  -0.00943   0.00000  -0.12481  -0.12528   1.08094
   D14        3.11925   0.00762   0.00000   0.06848   0.06926  -3.09468
   D15       -1.02369   0.00038   0.00000  -0.01634  -0.01594  -1.03963
   D16        1.77784  -0.00301   0.00000  -0.10499  -0.10417   1.67367
   D17       -1.36375  -0.00275   0.00000  -0.09890  -0.09808  -1.46183
   D18       -0.39156  -0.00433   0.00000  -0.06566  -0.06648  -0.45803
   D19        2.75004  -0.00406   0.00000  -0.05957  -0.06039   2.68965
   D20        3.04996   0.00126   0.00000   0.02349   0.02370   3.07366
   D21       -1.20672   0.00829   0.00000   0.12056   0.12076  -1.08596
   D22        1.02344  -0.00355   0.00000  -0.00601  -0.00650   1.01694
   D23       -1.09716  -0.00191   0.00000  -0.04081  -0.04055  -1.13771
   D24        0.92934   0.00513   0.00000   0.05626   0.05651   0.98586
   D25       -3.12368  -0.00671   0.00000  -0.07031  -0.07074   3.08876
   D26       -2.87973   0.00290   0.00000   0.02316   0.02346  -2.85627
   D27       -0.78531   0.00181   0.00000   0.01001   0.01010  -0.77522
   D28        1.30901   0.00401   0.00000   0.03658   0.03721   1.34622
   D29        1.39040  -0.00435   0.00000  -0.07459  -0.07458   1.31582
   D30       -2.79838  -0.00544   0.00000  -0.08774  -0.08794  -2.88632
   D31       -0.70405  -0.00325   0.00000  -0.06117  -0.06082  -0.76488
   D32       -0.86662  -0.00006   0.00000  -0.00280  -0.00323  -0.86986
   D33        1.22779  -0.00114   0.00000  -0.01595  -0.01659   1.21119
   D34       -2.96107   0.00105   0.00000   0.01063   0.01052  -2.95055
         Item               Value     Threshold  Converged?
 Maximum Force            0.057956     0.000450     NO 
 RMS     Force            0.008886     0.000300     NO 
 Maximum Displacement     0.156683     0.001800     NO 
 RMS     Displacement     0.059100     0.001200     NO 
 Predicted change in Energy=-1.527804D-02
 Lowest energy point so far.  Saving SCF results.
 GradGradGradGradGradGradGradGradGradGradGradGradGradGradGradGradGradGrad

 Leave Link  103 at Mon Dec 30 16:56:22 2019, MaxMem= 10737418240 cpu:               1.3 elap:               0.1
 (Enter /apps/cent7/gaussian/g16-A.03/g16-haswell/g16/l202.exe)
                          Input orientation:                          
 ---------------------------------------------------------------------
 Center     Atomic      Atomic             Coordinates (Angstroms)
 Number     Number       Type             X           Y           Z
 ---------------------------------------------------------------------
      1          6           0        2.371713   -2.837548   -2.380294
      2          6           0        1.988409   -2.132776   -1.073700
      3          7           0        2.177657   -0.667422   -1.195472
      4          8           0        1.255760   -0.182384   -2.161428
      5          6           0        1.897167    0.065633    0.054021
      6          6           0        2.201721    1.563919   -0.102943
      7          1           0        2.332417   -3.912950   -2.219421
      8          1           0        1.678190   -2.599704   -3.191114
      9          1           0        3.383814   -2.563507   -2.682643
     10          1           0        0.941770   -2.349322   -0.827287
     11          1           0        2.685673   -2.418857   -0.290935
     12          1           0        0.389940    0.195342   -1.909294
     13          1           0        0.841843   -0.081416    0.326460
     14          1           0        2.585500   -0.378790    0.766099
     15          1           0        2.266104    2.012137    0.886603
     16          1           0        3.153842    1.705025   -0.615820
     17          1           0        1.421383    2.088639   -0.657994
     18          1           0        1.503523   -0.238120   -3.099260
 ---------------------------------------------------------------------
                    Distance matrix (angstroms):
                    1          2          3          4          5
     1  C    0.000000
     2  C    1.533237   0.000000
     3  N    2.480102   1.482533   0.000000
     4  O    2.888451   2.350310   1.420644   0.000000
     5  C    3.818317   2.472465   1.475560   2.319726   0.000000
     6  C    4.958642   3.827979   2.484568   2.860381   1.536962
     7  H    1.088078   2.144770   3.406739   3.883255   4.602945
     8  H    1.093149   2.190366   2.822370   2.661228   4.205101
     9  H    1.091266   2.172874   2.694741   3.235741   4.075761
    10  H    2.166780   1.096843   2.119378   2.564009   2.742534
    11  H    2.153902   1.086619   2.035630   3.247339   2.629340
    12  H    3.653449   2.945073   2.109464   0.977698   2.478540
    13  H    4.154911   2.735533   2.108098   2.524106   1.099798
    14  H    3.998873   2.611100   2.024204   3.221366   1.085528
    15  H    5.848351   4.593496   3.394539   3.889372   2.148996
    16  H    4.935591   4.036905   2.630102   3.090944   2.171526
    17  H    5.304410   4.279565   2.908042   2.728606   2.196791
    18  H    2.833318   2.815623   2.064744   0.971608   3.192241
                    6          7          8          9         10
     6  C    0.000000
     7  H    5.873044   0.000000
     8  H    5.210244   1.759777   0.000000
     9  H    5.008776   1.772288   1.780170   0.000000
    10  H    4.174398   2.513339   2.488511   3.074378   0.000000
    11  H    4.016473   2.464987   3.075511   2.495715   1.825845
    12  H    2.901457   4.554938   3.333907   4.143983   2.819675
    13  H    2.177334   4.835698   4.406198   4.655866   2.546471
    14  H    2.162554   4.633321   4.627657   4.159821   3.020550
    15  H    1.088231   6.690174   6.184052   5.909764   4.869661
    16  H    1.090637   5.899823   5.228803   4.748158   4.623387
    17  H    1.091944   6.267943   5.335092   5.439926   4.467011
    18  H    3.565493   3.868534   2.369815   3.019352   3.151920
                   11         12         13         14         15
    11  H    0.000000
    12  H    3.837123   0.000000
    13  H    3.040480   2.297695   0.000000
    14  H    2.299832   3.508253   1.822650   0.000000
    15  H    4.603948   3.825935   2.593307   2.415175   0.000000
    16  H    4.163068   3.404610   3.069952   2.564176   1.771912
    17  H    4.695816   2.492829   2.452377   3.077567   1.762155
    18  H    3.746970   1.686410   3.492554   4.016400   4.640291
                   16         17         18
    16  H    0.000000
    17  H    1.774924   0.000000
    18  H    3.559051   3.373475   0.000000
 Stoichiometry    C4H12NO(1+)
 Framework group  C1[X(C4H12NO)]
 Deg. of freedom    48
 Full point group                 C1      NOp   1
 RotChk:  IX=0 Diff= 2.72D-02
 Largest Abelian subgroup         C1      NOp   1
 Largest concise Abelian subgroup C1      NOp   1
                         Standard orientation:                         
 ---------------------------------------------------------------------
 Center     Atomic      Atomic             Coordinates (Angstroms)
 Number     Number       Type             X           Y           Z
 ---------------------------------------------------------------------
      1          6           0       -2.481980   -0.055139   -0.332099
      2          6           0       -1.241197   -0.703770    0.292841
      3          7           0       -0.004347   -0.069186   -0.222339
      4          8           0        0.018623    1.279189    0.224410
      5          6           0        1.231242   -0.697474    0.283478
      6          6           0        2.476596   -0.063503   -0.356385
      7          1           0       -3.360762   -0.617644   -0.023486
      8          1           0       -2.616089    0.976582    0.003372
      9          1           0       -2.417650   -0.072151   -1.421335
     10          1           0       -1.278845   -0.603632    1.384454
     11          1           0       -1.162928   -1.733537   -0.045086
     12          1           0        0.503790    1.551806    1.028268
     13          1           0        1.267561   -0.586972    1.377107
     14          1           0        1.136885   -1.730602   -0.036077
     15          1           0        3.326406   -0.723532   -0.193801
     16          1           0        2.328611    0.061816   -1.429644
     17          1           0        2.717977    0.907143    0.081704
     18          1           0       -0.471478    1.940836   -0.291386
 ---------------------------------------------------------------------
 Rotational constants (GHZ):           7.2955176           1.9871070           1.7268748
 Leave Link  202 at Mon Dec 30 16:56:22 2019, MaxMem= 10737418240 cpu:               0.2 elap:               0.0
 (Enter /apps/cent7/gaussian/g16-A.03/g16-haswell/g16/l301.exe)
 Standard basis: 6-311++G(d,p) (5D, 7F)
 Ernie: Thresh=  0.10000D-02 Tol=  0.10000D-05 Strict=F.
 There are   222 symmetry adapted cartesian basis functions of A   symmetry.
 There are   216 symmetry adapted basis functions of A   symmetry.
   216 basis functions,   324 primitive gaussians,   222 cartesian basis functions
    25 alpha electrons       25 beta electrons
       nuclear repulsion energy       274.7806161447 Hartrees.
 IExCor= 4336 DFT=T Ex+Corr=M062X ExCW=0 ScaHFX=  0.540000
 ScaDFX=  1.000000  1.000000  1.000000  1.000000 ScalE2=  1.000000  1.000000
 IRadAn=      5 IRanWt=     -1 IRanGd=            0 ICorTp=0 IEmpDi=  4
 NAtoms=   18 NActive=   18 NUniq=   18 SFac= 1.00D+00 NAtFMM=   60 NAOKFM=F Big=F
 Integral buffers will be    131072 words long.
 Raffenetti 2 integral format.
 Two-electron integral symmetry is turned on.
 Leave Link  301 at Mon Dec 30 16:56:22 2019, MaxMem= 10737418240 cpu:               1.3 elap:               0.1
 (Enter /apps/cent7/gaussian/g16-A.03/g16-haswell/g16/l302.exe)
 NPDir=0 NMtPBC=     1 NCelOv=     1 NCel=       1 NClECP=     1 NCelD=      1
         NCelK=      1 NCelE2=     1 NClLst=     1 CellRange=     0.0.
 One-electron integrals computed using PRISM.
 One-electron integral symmetry used in STVInt
 NBasis=   216 RedAO= T EigKep=  3.26D-05  NBF=   216
 NBsUse=   216 1.00D-06 EigRej= -1.00D+00 NBFU=   216
 Precomputing XC quadrature grid using
 IXCGrd= 4 IRadAn=           5 IRanWt=          -1 IRanGd=           0 AccXCQ= 0.00D+00.
 Generated NRdTot=       0 NPtTot=           0 NUsed=           0 NTot=          32
 NSgBfM=   222   222   222   222   222 MxSgAt=    18 MxSgA2=    18.
 Leave Link  302 at Mon Dec 30 16:56:22 2019, MaxMem= 10737418240 cpu:               3.7 elap:               0.2
 (Enter /apps/cent7/gaussian/g16-A.03/g16-haswell/g16/l303.exe)
 DipDrv:  MaxL=1.
 Leave Link  303 at Mon Dec 30 16:56:22 2019, MaxMem= 10737418240 cpu:               1.0 elap:               0.1
 (Enter /apps/cent7/gaussian/g16-A.03/g16-haswell/g16/l401.exe)
 Initial guess from the checkpoint file:  "1_p_b.chk"
 B after Tr=    -0.000000    0.000000    0.000000
         Rot=    0.999938   -0.010726    0.000211    0.003103 Ang=  -1.28 deg.
 Guess basis will be translated and rotated to current coordinates.
 JPrj=2 DoOrth=T DoCkMO=T.
 Generating alternative initial guess.
 ExpMin= 3.60D-02 ExpMax= 8.59D+03 ExpMxC= 1.30D+03 IAcc=3 IRadAn=         5 AccDes= 0.00D+00
 Harris functional with IExCor= 1009 and IRadAn=       5 diagonalized for initial guess.
 HarFok:  IExCor= 1009 AccDes= 0.00D+00 IRadAn=         5 IDoV= 1 UseB2=F ITyADJ=14
 ICtDFT=  3500011 ScaDFX=  1.000000  1.000000  1.000000  1.000000
 FoFCou: FMM=F IPFlag=           0 FMFlag=      100000 FMFlg1=           0
         NFxFlg=           0 DoJE=T BraDBF=F KetDBF=T FulRan=T
         wScrn=  0.000000 ICntrl=       500 IOpCl=  0 I1Cent=   200000004 NGrid=           0
         NMat0=    1 NMatS0=      1 NMatT0=    0 NMatD0=    1 NMtDS0=    0 NMtDT0=    0
 Petite list used in FoFCou.
 Harris En= -289.186360549052    
 Leave Link  401 at Mon Dec 30 16:56:23 2019, MaxMem= 10737418240 cpu:              10.5 elap:               0.5
 (Enter /apps/cent7/gaussian/g16-A.03/g16-haswell/g16/l502.exe)
 Integral symmetry usage will be decided dynamically.
 Closed shell SCF:
 Using DIIS extrapolation, IDIIS=  1040.
 NGot= 10737418240 LenX= 10737311970 LenY= 10737262245
 Requested convergence on RMS density matrix=1.00D-08 within 128 cycles.
 Requested convergence on MAX density matrix=1.00D-06.
 Requested convergence on             energy=1.00D-06.
 No special actions if energy rises.
 Fock matrices will be formed incrementally for  20 cycles.

 Cycle   1  Pass 1  IDiag  1:
 FoFJK:  IHMeth= 1 ICntrl=       0 DoSepK=F KAlg= 0 I1Cent=           0 FoldK=F
 IRaf= 980000000 NMat=       1 IRICut=       1 DoRegI=T DoRafI=F ISym2E= 0 IDoP0=0 IntGTp=1.
 FoFCou: FMM=F IPFlag=           0 FMFlag=      100000 FMFlg1=           0
         NFxFlg=           0 DoJE=F BraDBF=F KetDBF=F FulRan=T
         wScrn=  0.000000 ICntrl=         0 IOpCl=  0 I1Cent=           0 NGrid=           0
         NMat0=    1 NMatS0=      1 NMatT0=    0 NMatD0=    1 NMtDS0=    0 NMtDT0=    0
 Symmetry not used in FoFCou.
 E= -289.201577301522    
 DIIS: error= 3.93D-03 at cycle   1 NSaved=   1.
 NSaved= 1 IEnMin= 1 EnMin= -289.201577301522     IErMin= 1 ErrMin= 3.93D-03
 ErrMax= 3.93D-03  0.00D+00 EMaxC= 1.00D-01 BMatC= 4.87D-03 BMatP= 4.87D-03
 IDIUse=3 WtCom= 9.61D-01 WtEn= 3.93D-02
 Coeff-Com:  0.100D+01
 Coeff-En:   0.100D+01
 Coeff:      0.100D+01
 Gap=     0.488 Goal=   None    Shift=    0.000
 GapD=    0.488 DampG=2.000 DampE=1.000 DampFc=2.0000 IDamp=-1.
 RMSDP=1.14D-03 MaxDP=6.06D-02              OVMax= 1.95D-02

 Cycle   2  Pass 1  IDiag  1:
 RMSU=  1.12D-03    CP:  9.84D-01
 E= -289.207731489719     Delta-E=       -0.006154188197 Rises=F Damp=F
 DIIS: error= 8.81D-04 at cycle   2 NSaved=   2.
 NSaved= 2 IEnMin= 2 EnMin= -289.207731489719     IErMin= 2 ErrMin= 8.81D-04
 ErrMax= 8.81D-04  0.00D+00 EMaxC= 1.00D-01 BMatC= 2.98D-04 BMatP= 4.87D-03
 IDIUse=3 WtCom= 9.91D-01 WtEn= 8.81D-03
 Coeff-Com:  0.857D-03 0.999D+00
 Coeff-En:   0.000D+00 0.100D+01
 Coeff:      0.850D-03 0.999D+00
 Gap=     0.327 Goal=   None    Shift=    0.000
 RMSDP=2.02D-04 MaxDP=1.33D-02 DE=-6.15D-03 OVMax= 7.28D-03

 Cycle   3  Pass 1  IDiag  1:
 RMSU=  1.79D-04    CP:  9.87D-01  1.07D+00
 E= -289.207939068160     Delta-E=       -0.000207578441 Rises=F Damp=F
 DIIS: error= 9.13D-04 at cycle   3 NSaved=   3.
 NSaved= 3 IEnMin= 3 EnMin= -289.207939068160     IErMin= 2 ErrMin= 8.81D-04
 ErrMax= 9.13D-04  0.00D+00 EMaxC= 1.00D-01 BMatC= 2.80D-04 BMatP= 2.98D-04
 IDIUse=3 WtCom= 9.91D-01 WtEn= 9.13D-03
 Coeff-Com: -0.700D-01 0.519D+00 0.551D+00
 Coeff-En:   0.000D+00 0.137D+00 0.863D+00
 Coeff:     -0.693D-01 0.516D+00 0.554D+00
 Gap=     0.327 Goal=   None    Shift=    0.000
 RMSDP=1.06D-04 MaxDP=9.89D-03 DE=-2.08D-04 OVMax= 3.01D-03

 Cycle   4  Pass 1  IDiag  1:
 RMSU=  6.82D-05    CP:  9.84D-01  1.11D+00  6.92D-01
 E= -289.208130094952     Delta-E=       -0.000191026792 Rises=F Damp=F
 DIIS: error= 8.69D-05 at cycle   4 NSaved=   4.
 NSaved= 4 IEnMin= 4 EnMin= -289.208130094952     IErMin= 4 ErrMin= 8.69D-05
 ErrMax= 8.69D-05  0.00D+00 EMaxC= 1.00D-01 BMatC= 2.64D-06 BMatP= 2.80D-04
 IDIUse=1 WtCom= 1.00D+00 WtEn= 0.00D+00
 Coeff-Com: -0.514D-02-0.185D-01 0.465D-01 0.977D+00
 Coeff:     -0.514D-02-0.185D-01 0.465D-01 0.977D+00
 Gap=     0.326 Goal=   None    Shift=    0.000
 RMSDP=2.95D-05 MaxDP=1.99D-03 DE=-1.91D-04 OVMax= 1.38D-03

 Cycle   5  Pass 1  IDiag  1:
 RMSU=  1.96D-05    CP:  9.84D-01  1.11D+00  6.90D-01  1.28D+00
 E= -289.208134594263     Delta-E=       -0.000004499311 Rises=F Damp=F
 DIIS: error= 3.77D-05 at cycle   5 NSaved=   5.
 NSaved= 5 IEnMin= 5 EnMin= -289.208134594263     IErMin= 5 ErrMin= 3.77D-05
 ErrMax= 3.77D-05  0.00D+00 EMaxC= 1.00D-01 BMatC= 6.30D-07 BMatP= 2.64D-06
 IDIUse=1 WtCom= 1.00D+00 WtEn= 0.00D+00
 Coeff-Com:  0.397D-02-0.504D-01-0.347D-01 0.340D+00 0.741D+00
 Coeff:      0.397D-02-0.504D-01-0.347D-01 0.340D+00 0.741D+00
 Gap=     0.327 Goal=   None    Shift=    0.000
 RMSDP=8.73D-06 MaxDP=7.18D-04 DE=-4.50D-06 OVMax= 3.78D-04

 Cycle   6  Pass 1  IDiag  1:
 RMSU=  5.57D-06    CP:  9.84D-01  1.11D+00  7.22D-01  1.31D+00  9.60D-01
 E= -289.208135240541     Delta-E=       -0.000000646278 Rises=F Damp=F
 DIIS: error= 1.38D-05 at cycle   6 NSaved=   6.
 NSaved= 6 IEnMin= 6 EnMin= -289.208135240541     IErMin= 6 ErrMin= 1.38D-05
 ErrMax= 1.38D-05  0.00D+00 EMaxC= 1.00D-01 BMatC= 6.90D-08 BMatP= 6.30D-07
 IDIUse=1 WtCom= 1.00D+00 WtEn= 0.00D+00
 Coeff-Com:  0.198D-02-0.168D-01-0.186D-01 0.376D-01 0.264D+00 0.731D+00
 Coeff:      0.198D-02-0.168D-01-0.186D-01 0.376D-01 0.264D+00 0.731D+00
 Gap=     0.327 Goal=   None    Shift=    0.000
 RMSDP=2.51D-06 MaxDP=1.06D-04 DE=-6.46D-07 OVMax= 1.84D-04

 Cycle   7  Pass 1  IDiag  1:
 RMSU=  1.94D-06    CP:  9.84D-01  1.11D+00  7.21D-01  1.33D+00  9.84D-01
                    CP:  1.04D+00
 E= -289.208135329571     Delta-E=       -0.000000089030 Rises=F Damp=F
 DIIS: error= 5.14D-06 at cycle   7 NSaved=   7.
 NSaved= 7 IEnMin= 7 EnMin= -289.208135329571     IErMin= 7 ErrMin= 5.14D-06
 ErrMax= 5.14D-06  0.00D+00 EMaxC= 1.00D-01 BMatC= 9.18D-09 BMatP= 6.90D-08
 IDIUse=1 WtCom= 1.00D+00 WtEn= 0.00D+00
 Coeff-Com: -0.917D-04 0.352D-02 0.412D-03-0.393D-01-0.694D-01 0.197D+00
 Coeff-Com:  0.908D+00
 Coeff:     -0.917D-04 0.352D-02 0.412D-03-0.393D-01-0.694D-01 0.197D+00
 Coeff:      0.908D+00
 Gap=     0.327 Goal=   None    Shift=    0.000
 RMSDP=1.51D-06 MaxDP=6.17D-05 DE=-8.90D-08 OVMax= 9.37D-05

 Cycle   8  Pass 1  IDiag  1:
 RMSU=  6.43D-07    CP:  9.84D-01  1.12D+00  7.21D-01  1.34D+00  1.03D+00
                    CP:  1.18D+00  1.05D+00
 E= -289.208135344211     Delta-E=       -0.000000014640 Rises=F Damp=F
 DIIS: error= 1.52D-06 at cycle   8 NSaved=   8.
 NSaved= 8 IEnMin= 8 EnMin= -289.208135344211     IErMin= 8 ErrMin= 1.52D-06
 ErrMax= 1.52D-06  0.00D+00 EMaxC= 1.00D-01 BMatC= 9.58D-10 BMatP= 9.18D-09
 IDIUse=1 WtCom= 1.00D+00 WtEn= 0.00D+00
 Coeff-Com: -0.220D-03 0.278D-02 0.197D-02-0.171D-01-0.507D-01 0.268D-02
 Coeff-Com:  0.320D+00 0.740D+00
 Coeff:     -0.220D-03 0.278D-02 0.197D-02-0.171D-01-0.507D-01 0.268D-02
 Coeff:      0.320D+00 0.740D+00
 Gap=     0.327 Goal=   None    Shift=    0.000
 RMSDP=3.35D-07 MaxDP=2.52D-05 DE=-1.46D-08 OVMax= 2.38D-05

 Cycle   9  Pass 1  IDiag  1:
 RMSU=  1.66D-07    CP:  9.84D-01  1.12D+00  7.21D-01  1.34D+00  1.03D+00
                    CP:  1.21D+00  1.12D+00  1.05D+00
 E= -289.208135345530     Delta-E=       -0.000000001319 Rises=F Damp=F
 DIIS: error= 4.65D-07 at cycle   9 NSaved=   9.
 NSaved= 9 IEnMin= 9 EnMin= -289.208135345530     IErMin= 9 ErrMin= 4.65D-07
 ErrMax= 4.65D-07  0.00D+00 EMaxC= 1.00D-01 BMatC= 7.19D-11 BMatP= 9.58D-10
 IDIUse=1 WtCom= 1.00D+00 WtEn= 0.00D+00
 Coeff-Com: -0.410D-04 0.257D-03 0.489D-03 0.419D-03-0.516D-02-0.243D-01
 Coeff-Com: -0.225D-01 0.173D+00 0.878D+00
 Coeff:     -0.410D-04 0.257D-03 0.489D-03 0.419D-03-0.516D-02-0.243D-01
 Coeff:     -0.225D-01 0.173D+00 0.878D+00
 Gap=     0.327 Goal=   None    Shift=    0.000
 RMSDP=1.04D-07 MaxDP=3.36D-06 DE=-1.32D-09 OVMax= 8.76D-06

 Cycle  10  Pass 1  IDiag  1:
 RMSU=  5.57D-08    CP:  9.84D-01  1.12D+00  7.21D-01  1.34D+00  1.03D+00
                    CP:  1.21D+00  1.15D+00  1.12D+00  1.13D+00
 E= -289.208135345657     Delta-E=       -0.000000000126 Rises=F Damp=F
 DIIS: error= 1.42D-07 at cycle  10 NSaved=  10.
 NSaved=10 IEnMin=10 EnMin= -289.208135345657     IErMin=10 ErrMin= 1.42D-07
 ErrMax= 1.42D-07  0.00D+00 EMaxC= 1.00D-01 BMatC= 6.16D-12 BMatP= 7.19D-11
 IDIUse=1 WtCom= 1.00D+00 WtEn= 0.00D+00
 Coeff-Com:  0.996D-05-0.192D-03-0.651D-04 0.167D-02 0.338D-02-0.626D-02
 Coeff-Com: -0.356D-01-0.341D-01 0.225D+00 0.846D+00
 Coeff:      0.996D-05-0.192D-03-0.651D-04 0.167D-02 0.338D-02-0.626D-02
 Coeff:     -0.356D-01-0.341D-01 0.225D+00 0.846D+00
 Gap=     0.327 Goal=   None    Shift=    0.000
 RMSDP=3.42D-08 MaxDP=2.03D-06 DE=-1.26D-10 OVMax= 2.03D-06

 Cycle  11  Pass 1  IDiag  1:
 RMSU=  1.60D-08    CP:  9.84D-01  1.12D+00  7.21D-01  1.34D+00  1.03D+00
                    CP:  1.21D+00  1.15D+00  1.15D+00  1.19D+00  9.76D-01
 E= -289.208135345666     Delta-E=       -0.000000000010 Rises=F Damp=F
 DIIS: error= 2.46D-08 at cycle  11 NSaved=  11.
 NSaved=11 IEnMin=11 EnMin= -289.208135345666     IErMin=11 ErrMin= 2.46D-08
 ErrMax= 2.46D-08  0.00D+00 EMaxC= 1.00D-01 BMatC= 1.47D-13 BMatP= 6.16D-12
 IDIUse=1 WtCom= 1.00D+00 WtEn= 0.00D+00
 Coeff-Com:  0.260D-05-0.305D-04-0.282D-04 0.186D-03 0.600D-03 0.285D-03
 Coeff-Com: -0.288D-02-0.113D-01-0.933D-02 0.759D-01 0.947D+00
 Coeff:      0.260D-05-0.305D-04-0.282D-04 0.186D-03 0.600D-03 0.285D-03
 Coeff:     -0.288D-02-0.113D-01-0.933D-02 0.759D-01 0.947D+00
 Gap=     0.327 Goal=   None    Shift=    0.000
 RMSDP=5.09D-09 MaxDP=1.61D-07 DE=-9.55D-12 OVMax= 3.43D-07

 SCF Done:  E(RM062X) =  -289.208135346     A.U. after   11 cycles
            NFock= 11  Conv=0.51D-08     -V/T= 2.0037
 KE= 2.881307108986D+02 PE=-1.213228476955D+03 EE= 3.611090145666D+02
 Leave Link  502 at Mon Dec 30 16:56:30 2019, MaxMem= 10737418240 cpu:             181.2 elap:               7.6
 (Enter /apps/cent7/gaussian/g16-A.03/g16-haswell/g16/l701.exe)
 ... and contract with generalized density number  0.
 Compute integral first derivatives.
 Leave Link  701 at Mon Dec 30 16:56:30 2019, MaxMem= 10737418240 cpu:               2.8 elap:               0.1
 (Enter /apps/cent7/gaussian/g16-A.03/g16-haswell/g16/l702.exe)
 L702 exits ... SP integral derivatives will be done elsewhere.
 Leave Link  702 at Mon Dec 30 16:56:30 2019, MaxMem= 10737418240 cpu:               0.5 elap:               0.0
 (Enter /apps/cent7/gaussian/g16-A.03/g16-haswell/g16/l703.exe)
 Integral derivatives from FoFJK, PRISM(SPDF).
 Compute integral first derivatives, UseDBF=F ICtDFT=           0.
 Calling FoFJK, ICntrl=      2127 FMM=F ISym2X=0 I1Cent= 0 IOpClX= 0 NMat=1 NMatS=1 NMatT=0.
 FoFJK:  IHMeth= 1 ICntrl=    2127 DoSepK=F KAlg= 0 I1Cent=           0 FoldK=F
 IRaf=         0 NMat=       1 IRICut=       1 DoRegI=T DoRafI=F ISym2E= 0 IDoP0=0 IntGTp=1.
 FoFCou: FMM=F IPFlag=           0 FMFlag=      100000 FMFlg1=         800
         NFxFlg=           0 DoJE=F BraDBF=F KetDBF=F FulRan=T
         wScrn=  0.000000 ICntrl=      2127 IOpCl=  0 I1Cent=           0 NGrid=           0
[...]
 0296758,0.036059,0.0757764,-0.0452839,-0.0447875,-0.0133906,0.0602868,
 -0.027753,-0.0214802,-0.0410528,0.0437116,0.4177278,-0.0238167,0.01240
 54,-0.028586,0.3588167,0.0565721,-0.0005135,0.0440197,0.2241979,-0.076
 38,-0.0535844,0.061881,-0.0907969,-0.0217341,-0.0291588,-0.009772,-0.0
 477891,0.0412669,0.065709,0.0775061,0.0122537,0.0335929,0.0009743,-0.0
 108568,-0.0036457,0.0019085,0.0804063,0.1039274,-0.0033649,0.0195569,-
 0.0052013,0.040456,-0.0225215,0.0178563,-0.0372598,-0.006655,-0.024425
 9,-0.0148167,0.0459138,0.0191062,0.048627,0.000173,0.0516037,0.0314988
 ,0.0779207,0.0056904,0.0209531,-0.0796225,-0.0029708,0.0353824,0.01222
 83,-0.0674236,0.0650408,0.0244197,0.2721194,0.0245652,-0.1222343,-0.01
 02126,0.4260565,-0.0828691,-0.0485447,-0.0706176,0.5023602\Polar=53.15
 24349,-0.7567907,66.4238355,2.1983833,5.1613648,61.3340574\Quadrupole=
 -3.0628177,0.3966502,2.6661675,-0.5214781,2.8726597,1.2916203\PG=C01 [
 X(C4H12N1O1)]\NImag=0\\0.58269215,0.01908196,0.56272186,0.01323150,-0.
 03690144,0.51737864,-0.09075612,0.00903245,0.02215043,0.60857117,0.008
 77300,-0.09471263,-0.05189759,-0.00893847,0.44596783,0.02421621,-0.042
 00204,-0.18767675,0.02868621,-0.00409781,0.56779321,0.00206285,0.00542
 408,-0.00096189,-0.08074370,-0.01613907,-0.00201817,0.24225158,0.00267
 899,-0.03387292,-0.00121109,-0.07902932,-0.17581864,-0.00753907,0.0236
 8826,0.43294116,-0.00798885,-0.03546408,0.00687105,0.00979617,-0.00535
 767,-0.08583075,-0.04392524,0.07888769,0.33283355,0.00018955,0.0000904
 1,-0.00091001,-0.01440449,0.00050375,-0.00351696,-0.06039407,0.0140837
 4,-0.00076291,0.55280348,-0.00214157,-0.00028017,-0.00017140,0.0395194
 7,-0.02056658,0.03542343,-0.02477502,-0.06019270,-0.01242266,0.1991291
 8,0.23561519,0.00089499,-0.00453024,-0.00036335,-0.02523567,0.01161486
 ,-0.02219195,0.03336131,0.01033489,-0.04316406,-0.15308813,-0.02775663
 ,0.58102093,-0.00022172,-0.00024849,0.00005473,-0.00146899,-0.00981109
 ,-0.00329905,-0.08463115,0.03897120,0.07423595,-0.00485617,-0.00643832
 ,-0.04288608,0.61207367,-0.00129296,-0.00409537,0.00235501,0.00817441,
 -0.02298615,-0.03416464,0.01118988,-0.11590199,-0.04378215,0.00122550,
 0.00529333,0.02142467,-0.01445135,0.52729473,0.00032728,0.00376271,-0.
 00077615,0.00605055,-0.00985162,0.00781629,0.01875794,-0.04395799,-0.1
 3316744,-0.00419067,-0.00110488,-0.04478897,0.02178175,-0.05945590,0.4
 8279910,0.00088359,0.00049404,0.00000657,-0.00019605,0.00054239,0.0016
 3271,0.00201736,0.00678754,-0.00668434,0.00089116,-0.00015833,0.001910
 31,-0.08978533,-0.02586922,0.00616306,0.58948719,-0.00022749,-0.000299
 66,0.00033095,0.00016234,0.00085262,-0.00077935,-0.00151181,-0.0230040
 9,-0.00930111,-0.00002218,-0.00191736,0.00055591,-0.02400048,-0.204011
 77,0.02000239,-0.02121973,0.49692743,-0.00026577,-0.00232854,0.0010071
 3,0.00014957,-0.00026147,-0.00601869,-0.00379855,-0.04231075,-0.004879
 95,-0.00061510,-0.00208823,0.00176185,0.00441705,0.03109871,-0.0790086
 5,-0.00242080,0.00369583,0.59064887,-0.04533101,-0.01354393,0.00318038
 ,-0.00133140,0.00592890,-0.00145887,-0.00052931,0.00026372,-0.00000465
 ,0.00050070,0.00085118,0.00087585,0.00047162,0.00035961,-0.00012400,-0
 .00006205,0.00004867,0.00015681,0.04604115,-0.01316920,-0.31978654,0.0
 4143495,-0.00135141,-0.01327236,0.00289313,0.00085779,-0.00026689,-0.0
 0283589,-0.00023417,0.00037582,-0.00027283,0.00009836,-0.00032275,0.00
 062933,0.00006105,-0.00001838,-0.00024912,0.01412209,0.34331162,0.0034
 3341,0.04465207,-0.05297088,-0.00273970,-0.02839979,0.00625797,0.00049
 305,-0.00458416,-0.00771254,0.00029462,0.00087910,0.00080325,-0.000170
 58,-0.00147058,0.00108640,0.00013042,-0.00010952,-0.00068683,-0.002296
 58,-0.04363487,0.05797618,-0.17178016,0.04109401,-0.12551778,0.0064539
 1,-0.00313870,0.00758929,-0.00068166,-0.00062008,-0.00149592,0.0001918
 4,0.00173955,0.00153675,0.00010784,-0.00019321,0.00003510,-0.00007242,
 0.00004660,-0.00008369,-0.00007441,-0.00036938,0.00132868,0.18083436,0
 .03965512,-0.05856465,0.04038959,-0.01288316,0.00201050,-0.01201345,-0
 .00116654,0.00221398,-0.00056040,0.00049128,-0.00144413,0.00032280,0.0
 0014614,-0.00020294,-0.00002877,0.00005848,-0.00001753,0.00012993,0.02
 322965,-0.00588573,0.02298888,-0.04638105,0.06390077,-0.12409523,0.040
 75415,-0.17783192,-0.01956251,0.00709717,-0.01901043,-0.00144823,0.002
 77973,-0.00202347,0.00124175,0.00086362,0.00283296,-0.00002085,-0.0003
 2046,-0.00010862,0.00010735,0.00001668,0.00006382,-0.00347725,0.001149
 16,-0.00391218,0.13733843,-0.04286522,0.19374466,-0.28064208,-0.057530
 37,0.08242019,-0.00408936,-0.00047935,0.00233846,0.00047845,-0.0004232
 5,-0.00074726,-0.00017995,0.00042531,-0.00033930,0.00041808,0.00016778
 ,-0.00007395,-0.00000771,-0.00000013,-0.00000439,0.00014990,0.00024910
 ,-0.00076324,-0.01704197,-0.00486457,0.00713118,0.29987110,-0.05839033
 ,-0.06065527,0.02194084,0.01704532,0.00167509,-0.00710511,0.00080195,0
 .00206839,0.00088519,-0.00006471,-0.00023424,0.00035786,-0.00001073,-0
 .00012585,-0.00039671,-0.00010867,0.00004685,0.00014227,-0.02988892,-0
 .00484343,0.01025828,0.00840579,0.00059930,-0.00343307,0.06213020,0.06
 237646,0.07987127,0.02005397,-0.07837023,0.02883655,0.00769477,-0.0114
 0127,-0.00041932,0.00096959,0.00217273,-0.00009162,-0.00012068,0.00010
 570,-0.00018904,-0.00004856,-0.00012141,-0.00013235,0.00002060,0.00007
 067,0.00381814,0.00076824,-0.00235667,-0.02130983,-0.00629489,0.008968
 77,-0.09069861,-0.02021746,0.08470099,-0.00309170,0.00011325,0.0004125
 0,-0.26332024,-0.03398901,0.07603651,-0.00685706,-0.00464209,0.0000793
 1,0.00684914,0.00079686,0.00084218,0.00079282,0.00102792,0.00004543,0.
 00051724,0.00000009,-0.00026697,-0.00013834,0.00021699,0.00046576,0.00
 073433,0.00007299,0.00033114,0.00142823,0.00034140,0.00042231,0.282638
 74,0.01591868,0.00459164,-0.00445568,-0.03000103,-0.05542726,0.0129533
 9,-0.03637059,-0.02549854,0.01165885,-0.00231534,0.00279557,-0.0032128
 5,-0.00227694,0.00247016,0.00449817,0.00045163,-0.00038728,-0.00051578
 ,-0.00012906,0.00014739,0.00057259,-0.00089032,0.00039657,0.00022209,-
 0.00006647,-0.00127812,-0.00347322,0.04324310,0.06856361,0.02612105,0.
 00470655,-0.00806904,0.07840587,0.00992832,-0.08039739,0.00108061,0.00
 698712,-0.00135315,0.00287665,-0.00125654,0.00124099,-0.00186999,-0.00
 039076,0.00036567,-0.00000104,-0.00021980,-0.00014202,-0.00020616,-0.0
 0015493,0.00060979,-0.00062097,0.00114517,0.00083886,0.00048425,-0.003
 08628,-0.00419577,-0.08715120,-0.01361703,0.08371243,0.00499338,-0.002
 87034,0.00531418,-0.16368976,0.05351445,-0.12527541,-0.00114406,0.0043
 5513,0.00147622,0.00471483,-0.00362487,0.00350555,-0.00012010,-0.00066
 013,-0.00117038,0.00031604,0.00011512,0.00044721,0.00031337,-0.0002554
 4,-0.00063886,0.00077226,0.00067526,0.00163628,0.00050931,-0.00047638,
 0.00006748,-0.01839474,0.00940649,-0.01928435,0.17056215,-0.01169624,0
 .00513283,-0.01333213,0.04798269,-0.07126375,0.05531452,0.02175161,-0.
 01067188,0.02371903,0.00242931,-0.00924703,0.00568172,0.00036075,0.000
 34937,-0.00129279,-0.00023940,0.00000924,0.00006720,-0.00042302,0.0005
 5583,0.00014556,0.00144777,-0.00114475,-0.00348998,0.00033317,0.000280
 39,0.00069509,-0.00360962,0.00303602,-0.00465449,-0.05827361,0.0862674
 7,-0.01722861,0.00647478,-0.02063084,-0.12438560,0.05881018,-0.1739788
 2,-0.00421274,0.00671326,-0.00513147,0.00215408,-0.00115574,0.00240225
 ,-0.00097137,-0.00117191,-0.00208880,0.00050135,0.00012399,0.00030140,
 -0.00020455,0.00026532,0.00132749,0.00184288,-0.00256234,-0.00343564,0
 .00012984,0.00067204,0.00065134,0.00775921,-0.00433468,0.00801498,0.13
 328763,-0.06117017,0.19258922,-0.00110533,-0.00047841,0.00012816,0.005
 54203,0.00249168,-0.00050080,-0.02161628,-0.00068045,-0.01199264,-0.34
 340777,-0.18963333,0.00518238,0.00241025,-0.00111596,-0.00172997,-0.00
 064202,0.00035677,0.00025922,0.00045668,-0.00019249,0.00020706,0.00051
 395,0.00065446,0.00073162,-0.00004170,0.00001199,0.00003420,-0.0012371
 8,0.00140263,0.00001594,-0.00019174,-0.00131041,0.00044909,0.36836326,
 0.00053054,-0.00089245,0.00055014,0.00606969,0.00418512,-0.00093481,0.
 00858617,0.00883573,-0.00599517,-0.21147342,-0.13893677,0.01697704,0.0
 0000040,-0.00126866,-0.00086651,-0.00009130,0.00002459,-0.00021893,-0.
 00039562,-0.00006313,-0.00030892,0.00019158,-0.00060028,-0.00144262,-0
 .00035164,0.00033056,-0.00005445,-0.00308495,0.00030408,0.00086847,-0.
 00132863,-0.00089931,0.00004995,0.19766689,0.13016815,0.00120335,0.000
 87516,0.00105795,-0.00210290,-0.00247265,0.00320626,-0.01026247,-0.014
 06218,0.00399862,-0.03009247,0.00059323,-0.07090074,-0.00488197,0.0008
 5558,0.00139128,0.00049451,-0.00000685,-0.00038346,-0.00027078,0.00005
 822,-0.00018761,-0.00027736,-0.00030456,-0.00059964,-0.00008820,-0.000
 07739,-0.00046866,0.00219000,0.00080305,-0.00064888,0.00077129,-0.0001
 2985,-0.00028377,0.00959815,-0.00502346,0.05543468,0.00056751,0.000258
 78,-0.00012930,0.00075622,-0.00052871,-0.00077490,-0.00618327,0.001466
 77,0.00387338,0.00455785,0.00078794,0.00082462,-0.27196892,-0.04747860
 ,0.06815097,-0.00302306,-0.00075854,0.00009322,-0.00003312,0.00005044,
 0.00008058,-0.00002550,-0.00000527,0.00000274,-0.00001357,-0.00021284,
 -0.00020372,0.00022063,0.00131516,0.00010592,-0.00000290,0.00005289,0.
 00016637,-0.00063625,-0.00070528,0.00174036,0.29161542,-0.00025813,-0.
 00052973,-0.00010845,0.00286045,0.00289918,-0.00075016,0.01979429,-0.0
 0022103,-0.00852573,-0.00177244,-0.00002666,0.00065774,-0.05127602,-0.
 06308917,0.01330279,-0.03093444,-0.00443377,0.00955156,-0.00002639,-0.
 00005870,-0.00003375,0.00000836,0.00005462,0.00004394,-0.00017908,-0.0
 0001962,0.00015533,-0.00073468,0.00009090,-0.00009298,0.00007799,-0.00
 015118,-0.00001325,-0.00056097,0.00046405,0.00001241,0.05136080,0.0675
 7293,-0.00034033,-0.00042370,0.00003920,0.00077435,0.00442085,-0.00030
 715,0.03273995,-0.00553666,-0.02577709,0.00130038,-0.00008056,0.003920
 66,0.06380222,0.01666596,-0.06960967,0.00147228,0.00120119,0.00060222,
 -0.00010125,-0.00007418,-0.00006909,-0.00000711,0.00001134,-0.00002593
 ,-0.00015189,0.00012447,0.00018987,-0.00106467,-0.00059652,0.00059582,
 -0.00016822,-0.00004336,0.00013422,-0.00023730,-0.00046474,-0.00069514
 ,-0.07993182,-0.01095266,0.08115518,0.00030903,-0.00043841,0.00015579,
 -0.00007337,0.00140365,-0.00006854,-0.00112692,-0.00388801,-0.00293639
 ,0.00442337,-0.00019508,0.00528268,-0.15846443,0.07150162,-0.11270057,
 0.00458536,-0.00263515,0.00517267,-0.00001135,-0.00002255,-0.00005641,
 -0.00005122,0.00003297,0.00015708,-0.00002507,0.00001992,0.00005819,-0
 .00000374,0.00009512,-0.00016424,0.00115777,0.00030140,0.00069667,-0.0
 0032108,-0.00011067,0.00115640,-0.01787452,0.01081387,-0.01933835,0.16
 527913,-0.00029565,0.00032187,-0.00001956,0.00077762,-0.00253533,0.000
 58564,-0.00817132,0.00661050,-0.00506702,-0.00244808,-0.00023214,-0.00
 775499,0.07417631,-0.08814702,0.07109891,0.02058942,-0.01543212,0.0214
 4638,-0.00000567,0.00001881,0.00005880,0.00002464,0.00003412,-0.000057
 54,-0.00000122,0.00002442,0.00002481,-0.00017667,0.00001707,-0.0000895
 7,-0.00065506,-0.00192146,-0.00230154,0.00004798,0.00021263,-0.0004825
 4,-0.00433765,0.00217676,-0.00397934,-0.07608540,0.10199439,0.00050322
 ,-0.00014483,0.00007455,-0.00096838,0.00058765,0.00067547,-0.02010785,
 0.01147674,-0.02363292,0.00091852,-0.00221789,-0.00740301,-0.10788213,
 0.06721801,-0.15918519,0.00014136,0.00083586,0.00046601,0.00001463,0.0
 0001960,0.00004914,0.00003193,0.00012178,0.00022117,0.00000010,-0.0000
 0473,-0.00005966,0.00005065,-0.00018774,-0.00005837,0.00017164,-0.0009
 7309,0.00024614,0.00070937,0.00020684,-0.00077354,0.00642351,-0.003876
 29,0.00847579,0.12176580,-0.07260232,0.18021361,-0.00005226,-0.0001798
 0,0.00004507,0.00048033,-0.00009226,-0.00038365,-0.00038381,-0.0004632
 6,-0.00024598,0.00026907,-0.00068220,-0.00009717,-0.00120924,-0.001823
 96,-0.00571564,-0.04829777,0.01162796,0.02614162,0.00002276,-0.0000206
 7,-0.00003399,0.00001037,0.00001054,0.00001203,0.00000174,-0.00000177,
 0.00000819,-0.00002361,0.00008977,-0.00002426,-0.00001445,-0.00000487,
 0.00001774,0.00014249,-0.00000148,0.00000799,-0.00009081,0.00027663,-0
 .00003441,0.00022755,0.00028791,0.00021499,0.04854917,-0.00012347,-0.0
 0066295,0.00029248,0.00006106,0.00012277,-0.00189953,-0.00076463,-0.00
 859324,0.00096130,-0.00004748,0.00043844,0.00034851,0.00480447,-0.0116
 9789,-0.02945350,0.01087241,-0.09727124,-0.10474804,0.00003557,-0.0000
 6667,-0.00021741,-0.00002848,0.00002215,-0.00001467,0.00000347,0.00003
 762,0.00001820,-0.00010973,-0.00010758,-0.00001493,0.00005039,0.000085
 11,0.00000810,0.00001891,0.00003640,-0.00011020,-0.00053469,0.00079342
 ,0.00015904,0.00066839,0.00125854,-0.00024112,-0.01258188,0.10709526,0
 .00001262,0.00016781,-0.00005505,-0.00016642,0.00029356,0.00049377,-0.
 00057616,0.00287110,0.00098168,0.00036395,-0.00045598,0.00024523,-0.00
 070065,0.00180384,0.00391279,0.02599049,-0.10806259,-0.27314061,-0.000
 00038,0.00003031,0.00006007,0.00001672,-0.00000038,0.00000993,-0.00000
 191,0.00000159,-0.00000612,0.00000394,-0.00004198,-0.00000755,-0.00001
 658,-0.00001906,-0.00000825,0.00014061,-0.00000902,0.00002771,0.000031
 84,-0.00052216,0.00015328,-0.00016063,-0.00031373,0.00052157,-0.027682
 99,0.11551309,0.29154275,-0.00001705,-0.00001220,-0.00000154,0.0004114
 8,-0.00001979,-0.00017315,0.00035551,0.00071026,-0.00017023,-0.0001125
 8,-0.00014260,-0.00043224,-0.00387053,-0.00117235,0.00131140,-0.290023
 69,-0.03938765,0.08319503,0.00000504,-0.00000380,-0.00000647,-0.000005
 29,-0.00000895,-0.00000351,0.00001055,-0.00002194,0.00000094,-0.000011
 27,0.00022419,0.00006276,-0.00002891,-0.00000873,-0.00000027,-0.000096
 54,0.00014973,0.00007724,0.00139415,-0.00029242,0.00032934,0.00055600,
 -0.00036139,-0.00016184,-0.00143059,0.00026668,-0.00022113,0.30989820,
 0.00017441,0.00013298,-0.00004441,0.00018326,-0.00027662,0.00011859,-0
 .00024921,0.00282662,0.00030377,0.00017031,0.00014150,-0.00017565,-0.0
 3419836,-0.00776804,0.01208451,-0.03616333,-0.05399326,0.01361461,-0.0
 0000680,0.00001301,0.00002994,-0.00000253,-0.00000188,-0.00000018,0.00
 001022,-0.00005987,-0.00007201,0.00027821,0.00026597,-0.00001694,-0.00
 005541,-0.00002893,0.00005806,-0.00005396,-0.00011232,0.00023687,-0.00
 052228,-0.00639107,-0.00002818,0.00020268,0.00122571,0.00008252,0.0140
 0509,0.00213223,-0.00316028,0.04370015,0.06004171,0.00000501,0.0000812
 3,-0.00002003,-0.00005944,-0.00027901,0.00008046,-0.00102902,0.0002456
 4,0.00127712,0.00019234,0.00018022,-0.00030011,0.00218910,-0.00101823,
 -0.00286763,0.08257003,0.01572491,-0.07645293,0.00000757,0.00001241,0.
 00001444,-0.00000917,-0.00001280,-0.00000484,0.00002205,-0.00002231,0.
 00000265,0.00006126,-0.00004351,-0.00008360,0.00001232,0.00002533,-0.0
 0000805,-0.00009189,0.00012556,0.00001256,-0.00011178,0.00040081,0.000
 87677,0.00046168,0.00002426,-0.00021841,0.02711067,0.00594223,-0.00792
 606,-0.09119341,-0.01654523,0.07792409,-0.00006383,0.00001220,-0.00007
 250,0.00003356,0.00005869,0.00012805,-0.00034671,0.00107768,0.00003412
 ,-0.00031368,-0.00133217,-0.00071134,0.00566663,-0.00368175,0.00661565
 ,-0.16722033,0.07719723,-0.11284248,0.00000637,0.00000387,0.00002543,0
 .00004468,-0.00001062,0.00000478,-0.00000947,0.00001027,-0.00000475,-0
 .00001629,-0.00002459,0.00000105,-0.00006208,-0.00002125,-0.00001853,0
 .00032301,-0.00024425,-0.00011846,0.00063226,0.00075117,0.00046796,0.0
 0082489,-0.00231055,-0.00017245,0.00192565,-0.00249003,0.00288559,-0.0
 1676964,0.01263080,-0.01994378,0.17526592,-0.00011012,0.00013085,-0.00
 008351,-0.00007062,-0.00024532,-0.00024190,0.00183467,0.00077706,0.004
 03647,-0.00156591,0.00045714,-0.00201089,0.02268590,-0.01570752,0.0202
 6643,0.07522010,-0.09770380,0.07334444,-0.00002041,0.00000836,0.000003
 61,-0.00000973,-0.00004471,-0.00009690,0.00001022,-0.00001460,0.000000
 73,-0.00000507,0.00004913,0.00006962,-0.00015581,0.00017857,-0.0001503
 5,-0.00019501,-0.00035323,-0.00025953,-0.00017499,0.00126001,-0.000312
 53,-0.00154903,-0.00567716,-0.00045095,-0.01042316,0.00668234,-0.00829
 287,-0.00328331,0.00191303,-0.00464180,-0.08208608,0.10839583,0.000005
 18,0.00003620,-0.00006306,-0.00013216,-0.00000014,-0.00003695,0.000430
 55,0.00051487,0.00041139,-0.00036638,-0.00182508,-0.00102996,-0.000102
 98,-0.00055640,-0.00193888,-0.11173452,0.07550941,-0.15439763,-0.00000
 065,0.00000948,0.00001967,0.00001142,-0.00002314,0.00001480,0.00000961
 ,-0.00001112,0.00000340,0.00001456,0.00003713,0.00001067,0.00003843,0.
 00002598,0.00003010,-0.00007486,-0.00009095,0.00008302,0.00002057,0.00
 037662,-0.00008921,0.00031597,-0.00000427,0.00086400,-0.01942829,0.013
 43397,-0.01689835,0.00744574,-0.00636357,0.00775548,0.12351500,-0.0808
 1406,0.16524353,0.00136319,-0.00029923,0.00049353,-0.00217523,-0.00008
 006,-0.00315795,0.01747223,-0.00433684,-0.01254075,-0.15172227,-0.0141
 2600,0.16857330,-0.00534432,0.00409279,-0.00353393,0.00063247,0.000208
 39,0.00026536,-0.00045661,-0.00004058,0.00024682,0.00006909,0.00029328
 ,-0.00008678,-0.00081647,0.00040945,-0.00006802,-0.00008695,-0.0000724
 2,0.00016811,0.00030962,0.00092756,0.00001682,-0.00845577,0.00459226,0
 .03085531,0.00010787,0.00009100,0.00048887,0.00058857,-0.00105524,-0.0
 0165308,-0.00012657,-0.00010095,0.00008108,-0.00026484,-0.00010325,-0.
 00019354,0.00007907,-0.00010165,0.00003281,0.14882693,0.00089245,0.001
 32032,0.00093129,0.00040525,-0.00060849,0.00423915,-0.00478051,-0.0022
 3153,0.00885959,0.00182024,-0.01203919,-0.02256191,0.00146825,-0.00008
 247,0.00076343,-0.00029264,0.00062952,-0.00037007,-0.00039955,0.000153
 76,-0.00082983,-0.00132482,-0.00132542,-0.00120590,0.00056661,-0.00020
 807,-0.00012006,0.00026103,-0.00002933,-0.00011101,0.00016083,-0.00056
 654,-0.00031573,-0.00843032,-0.00143518,0.01949467,-0.00003390,-0.0003
 9094,-0.00009042,-0.00011531,0.00005041,0.00014998,-0.00002261,-0.0003
 0472,0.00019675,-0.00033587,-0.00006077,-0.00019970,0.00045939,-0.0001
 0599,-0.00025494,0.00970148,0.01723462,0.00009371,0.00023023,0.0003987
 9,0.00050310,0.00217041,0.00052672,0.00189623,-0.00257874,-0.01587329,
 0.18429195,0.01271666,-0.40419167,-0.00350612,0.00095780,-0.00371011,-
 0.00014739,0.00046153,0.00018881,0.00009174,-0.00004834,-0.00030860,-0
 .00040937,-0.00044354,0.00025772,0.00033307,-0.00002836,0.00011366,-0.
 00023194,-0.00026629,-0.00043344,-0.00017443,-0.00056950,-0.00013148,-
 0.00282834,-0.00336843,0.00972936,-0.00036256,0.00037422,0.00043027,0.
 00020221,-0.00056639,-0.00047634,0.00008811,0.00002248,0.00009321,-0.0
 0005867,-0.00012242,-0.00006190,0.00020666,-0.00036602,0.00001798,-0.1
 7998795,-0.00857530,0.41343030\\0.00000786,0.00001234,0.00001261,-0.00
 001243,0.00001222,-0.00004785,0.00006665,-0.00000931,0.00009301,-0.000
 04467,-0.00008010,-0.00008064,-0.00001564,-0.00000733,-0.00002015,-0.0
 0001112,0.00000390,-0.00000086,-0.00000239,-0.00000248,-0.00000201,-0.
 00000348,-0.00000263,-0.00000122,-0.00000236,-0.00000025,-0.00000076,0
 .00000203,0.00000242,0.00001007,0.00000179,0.00000810,0.00001442,-0.00
 000849,0.00003619,0.00001688,-0.00000013,-0.00000374,0.00000391,0.0000
 0623,0.00000088,-0.00000392,0.00000740,0.00000063,-0.00000130,0.000008
 02,0.00000025,0.00000182,0.00000365,-0.00000254,0.00000510,-0.00000293
 ,0.00003144,0.00000088\\\@


 IT IS UNWORTHY OF EXCELLENT MEN TO LOSE HOURS LIKE SLAVES IN THE LABOR
 OF CALCULATION WHICH COULD BE SAFELY RELEGATED TO ANYONE ELSE
 IF A MACHINE WERE USED.
    -- G.W. VON LEIBNIZ
 Job cpu time:       0 days  0 hours 28 minutes 43.3 seconds.
 Elapsed time:       0 days  0 hours  1 minutes 12.5 seconds.
 File lengths (MBytes):  RWF=     78 Int=      0 D2E=      0 Chk=      5 Scr=      1
 Normal termination of Gaussian 16 at Mon Dec 30 17:00:52 2019.
real 282.94
user 6513.23
sys 34.39
Machine:
brown-a116
brown-a116
brown-a116
brown-a116
brown-a116
brown-a116
brown-a116
brown-a116
brown-a116
brown-a116
brown-a116
brown-a116
brown-a116
brown-a116
brown-a116
brown-a116
brown-a116
brown-a116
brown-a116
brown-a116
brown-a116
brown-a116
brown-a116
brown-a116
