Title Card Required                                                     
Freq      RM062X                                                      6-311++G(d,p)       
Number of atoms                            I               18
Info1-9                                    I   N=           9
          46          46        1002           0           0         100
           6          18        -502
Full Title                                 C   N=           2
Title Card Required     
Route                                      C   N=           6
#P opt freq m062x/6-311++g(d,p) geom=connectivity temperatur
e=0.001     
Charge                                     I                1
Multiplicity                               I                1
Number of electrons                        I               50
Number of alpha electrons                  I               25
Number of beta electrons                   I               25
Number of basis functions                  I              216
Number of independent functions            I              216
Number of point charges in /Mol/           I                0
Number of translation vectors              I                0
Atomic numbers                             I   N=          18
           6           6           7           8           6           6
           1           1           1           1           1           1
           1           1           1           1           1           1
Nuclear charges                            R   N=          18
  6.00000000E+00  6.00000000E+00  7.00000000E+00  8.00000000E+00  6.00000000E+00
  6.00000000E+00  1.00000000E+00  1.00000000E+00  1.00000000E+00  1.00000000E+00
  1.00000000E+00  1.00000000E+00  1.00000000E+00  1.00000000E+00  1.00000000E+00
  1.00000000E+00  1.00000000E+00  1.00000000E+00
Current cartesian coordinates              R   N=          54
  4.71225132E+00 -2.73213850E-02  5.78212294E-01  2.39187534E+00 -1.29393236E+00
 -5.20122922E-01  1.48103932E-06  1.11780908E-02  3.07724664E-01  2.19248683E-04
  2.56248351E+00 -3.77763212E-01 -2.39196618E+00 -1.29372759E+00 -5.20286964E-01
 -4.71237216E+00 -2.72678682E-02  5.78248959E-01  6.37815118E+00 -1.06408081E+00
 -4.91598866E-02  4.88799112E+00  1.92455486E+00 -4.83044792E-02  4.68599795E+00
 -7.48077430E-02  2.64141585E+00  2.35892957E+00 -1.26436715E+00 -2.58482943E+00
  2.19609331E+00 -3.24792920E+00  1.09653466E-01  2.22598000E-04  2.61182646E+00
 -2.21160186E+00 -2.35900876E+00 -1.26387293E+00 -2.58499345E+00 -2.19623613E+00
 -3.24782323E+00  1.09190935E-01 -6.37826663E+00 -1.06398891E+00 -4.92052108E-02
 -4.68610969E+00 -7.50024465E-02  2.64144750E+00 -4.88819902E+00  1.92467041E+00
 -4.80285255E-02 -5.98218899E-05  1.16201181E-01  2.24613994E+00
Number of symbols in /Mol/                 I                0
Force Field                                I                0
Atom Types                                 C   N=          18
                                                            
                                                            
                                                            
                                    
Int Atom Types                             I   N=          18
           0           0           0           0           0           0
           0           0           0           0           0           0
           0           0           0           0           0           0
MM charges                                 R   N=          18
  0.00000000E+00  0.00000000E+00  0.00000000E+00  0.00000000E+00  0.00000000E+00
  0.00000000E+00  0.00000000E+00  0.00000000E+00  0.00000000E+00  0.00000000E+00
  0.00000000E+00  0.00000000E+00  0.00000000E+00  0.00000000E+00  0.00000000E+00
  0.00000000E+00  0.00000000E+00  0.00000000E+00
Integer atomic weights                     I   N=          18
          12          12          14          16          12          12
           1           1           1           1           1           1
           1           1           1           1           1           1
Real atomic weights                        R   N=          18
  1.20000000E+01  1.20000000E+01  1.40030740E+01  1.59949146E+01  1.20000000E+01
  1.20000000E+01  1.00782504E+00  1.00782504E+00  1.00782504E+00  1.00782504E+00
  1.00782504E+00  1.00782504E+00  1.00782504E+00  1.00782504E+00  1.00782504E+00
  1.00782504E+00  1.00782504E+00  1.00782504E+00
Atom fragment info                         I   N=          18
           0           0           0           0           0           0
           0           0           0           0           0           0
           0           0           0           0           0           0
Atom residue num                           I   N=          18
           0           0           0           0           0           0
           0           0           0           0           0           0
           0           0           0           0           0           0
Nuclear spins                              I   N=          18
           0           0           2           0           0           0
           1           1           1           1           1           1
           1           1           1           1           1           1
Nuclear ZEff                               R   N=          18
 -3.60000000E+00 -3.60000000E+00 -4.55000000E+00 -5.60000000E+00 -3.60000000E+00
 -3.60000000E+00 -1.00000000E+00 -1.00000000E+00 -1.00000000E+00 -1.00000000E+00
 -1.00000000E+00 -1.00000000E+00 -1.00000000E+00 -1.00000000E+00 -1.00000000E+00
 -1.00000000E+00 -1.00000000E+00 -1.00000000E+00
Nuclear ZNuc                               R   N=          18
  6.00000000E+00  6.00000000E+00  7.00000000E+00  8.00000000E+00  6.00000000E+00
  6.00000000E+00  1.00000000E+00  1.00000000E+00  1.00000000E+00  1.00000000E+00
  1.00000000E+00  1.00000000E+00  1.00000000E+00  1.00000000E+00  1.00000000E+00
  1.00000000E+00  1.00000000E+00  1.00000000E+00
Nuclear QMom                               R   N=          18
  0.00000000E+00  0.00000000E+00  2.04400000E+00  0.00000000E+00  0.00000000E+00
  0.00000000E+00  0.00000000E+00  0.00000000E+00  0.00000000E+00  0.00000000E+00
  0.00000000E+00  0.00000000E+00  0.00000000E+00  0.00000000E+00  0.00000000E+00
  0.00000000E+00  0.00000000E+00  0.00000000E+00
Nuclear GFac                               R   N=          18
  0.00000000E+00  0.00000000E+00  4.03761000E-01  0.00000000E+00  0.00000000E+00
  0.00000000E+00  2.79284600E+00  2.79284600E+00  2.79284600E+00  2.79284600E+00
  2.79284600E+00  2.79284600E+00  2.79284600E+00  2.79284600E+00  2.79284600E+00
  2.79284600E+00  2.79284600E+00  2.79284600E+00
MicOpt                                     I   N=          18
          -1          -1          -1          -1          -1          -1
          -1          -1          -1          -1          -1          -1
          -1          -1          -1          -1          -1          -1
Number of residues                         I                0
Number of secondary structures             I                0
Redundant internal dimensions              I   N=           4
          87          17          31          39
Redundant internal coordinate indices      I   N=         348
           1           2           0           0           1           7
           0           0           1           8           0           0
           1           9           0           0           2           3
           0           0           2          10           0           0
           2          11           0           0           3           4
           0           0           3           5           0           0
           3          18           0           0           4          12
           0           0           5           6           0           0
           5          13           0           0           5          14
           0           0           6          15           0           0
           6          16           0           0           6          17
           0           0           2           1           7           0
           2           1           8           0           2           1
           9           0           7           1           8           0
           7           1           9           0           8           1
           9           0           1           2           3           0
           1           2          10           0           1           2
          11           0           3           2          10           0
           3           2          11           0          10           2
          11           0           2           3           4           0
           2           3           5           0           2           3
          18           0           4           3           5           0
           4           3          18           0           5           3
          18           0           3           4          12           0
           3           5           6           0           3           5
          13           0           3           5          14           0
           6           5          13           0           6           5
          14           0          13           5          14           0
           5           6          15           0           5           6
          16           0           5           6          17           0
          15           6          16           0          15           6
          17           0          16           6          17           0
           7           1           2           3           7           1
           2          10           7           1           2          11
           8           1           2           3           8           1
           2          10           8           1           2          11
           9           1           2           3           9           1
           2          10           9           1           2          11
           1           2           3           4           1           2
           3           5           1           2           3          18
          10           2           3           4          10           2
           3           5          10           2           3          18
          11           2           3           4          11           2
           3           5          11           2           3          18
           2           3           4          12           5           3
           4          12          18           3           4          12
           2           3           5           6           2           3
           5          13           2           3           5          14
           4           3           5           6           4           3
           5          13           4           3           5          14
          18           3           5           6          18           3
           5          13          18           3           5          14
           3           5           6          15           3           5
           6          16           3           5           6          17
          13           5           6          15          13           5
           6          16          13           5           6          17
          14           5           6          15          14           5
           6          16          14           5           6          17
Redundant internal coordinates             R   N=          87
  2.86265406E+00  2.06002143E+00  2.05748114E+00  2.06391693E+00  2.84775447E+00
  2.06518098E+00  2.06229302E+00  2.64178974E+00  2.84778710E+00  1.94125826E+00
  1.83450236E+00  2.86268848E+00  2.06518531E+00  2.06229059E+00  2.06002272E+00
  2.06391776E+00  2.05747458E+00  1.89226847E+00  1.95212334E+00  1.94233976E+00
  1.89192141E+00  1.87879113E+00  1.90425685E+00  1.94603651E+00  1.97162968E+00
  1.95952272E+00  1.84489044E+00  1.83974504E+00  1.89373680E+00  1.94668287E+00
  1.99429894E+00  1.89135482E+00  1.94673649E+00  1.77915164E+00  1.89135162E+00
  1.86017902E+00  1.94607997E+00  1.84487534E+00  1.83973844E+00  1.97163845E+00
  1.95950297E+00  1.89372452E+00  1.89226907E+00  1.94234936E+00  1.95214316E+00
  1.87877242E+00  1.89190836E+00  1.90425645E+00  3.12314776E+00 -1.08529100E+00
  1.06312353E+00 -1.07491480E+00  9.99831749E-01 -3.13493903E+00  1.06002877E+00
  3.13477532E+00 -9.99995463E-01  1.00719788E+00 -3.04805167E+00 -9.37597127E-01
 -1.14163594E+00  1.08629982E+00 -3.08643095E+00  3.13790965E+00 -9.17339899E-01
  1.19311464E+00  1.12670225E+00 -1.12660834E+00 -3.14155517E+00  3.04786592E+00
 -1.08645892E+00  9.17157545E-01 -1.00741106E+00  1.14144941E+00 -3.13811944E+00
  9.37409608E-01  3.08627008E+00 -1.19329877E+00 -3.12309002E+00 -1.05998791E+00
  1.07497622E+00  1.08533164E+00 -3.13475155E+00 -9.99787419E-01 -1.06305801E+00
  1.00004410E+00  3.13500823E+00
ZRed-IntVec                                I   N=          87
           0           0           0           0           0           0
           0           0           0           0           0           0
           0           0           0           0           0           0
           0           0           0           0           0           0
           0           0           0           0           0           0
           0           0           0           0           0           0
           0           0           0           0           0           0
           0           0           0           0           0           0
           0           0           0           0           0           0
           0           0           0           0           0           0
           0           0           0           0           0           0
           0           0           0           0           0           0
           0           0           0           0           0           0
           0           0           0           0           0           0
           0           0           0
ZRed-FPVec                                 R   N=          87
  0.00000000E+00  0.00000000E+00  0.00000000E+00  0.00000000E+00  0.00000000E+00
  0.00000000E+00  0.00000000E+00  0.00000000E+00  0.00000000E+00  0.00000000E+00
  0.00000000E+00  0.00000000E+00  0.00000000E+00  0.00000000E+00  0.00000000E+00
  0.00000000E+00  0.00000000E+00  0.00000000E+00  0.00000000E+00  0.00000000E+00
  0.00000000E+00  0.00000000E+00  0.00000000E+00  0.00000000E+00  0.00000000E+00
  0.00000000E+00  0.00000000E+00  0.00000000E+00  0.00000000E+00  0.00000000E+00
  0.00000000E+00  0.00000000E+00  0.00000000E+00  0.00000000E+00  0.00000000E+00
  0.00000000E+00  0.00000000E+00  0.00000000E+00  0.00000000E+00  0.00000000E+00
  0.00000000E+00  0.00000000E+00  0.00000000E+00  0.00000000E+00  0.00000000E+00
  0.00000000E+00  0.00000000E+00  0.00000000E+00  0.00000000E+00  0.00000000E+00
  0.00000000E+00  0.00000000E+00  0.00000000E+00  0.00000000E+00  0.00000000E+00
  0.00000000E+00  0.00000000E+00  0.00000000E+00  0.00000000E+00  0.00000000E+00
  0.00000000E+00  0.00000000E+00  0.00000000E+00  0.00000000E+00  0.00000000E+00
  0.00000000E+00  0.00000000E+00  0.00000000E+00  0.00000000E+00  0.00000000E+00
  0.00000000E+00  0.00000000E+00  0.00000000E+00  0.00000000E+00  0.00000000E+00
  0.00000000E+00  0.00000000E+00  0.00000000E+00  0.00000000E+00  0.00000000E+00
  0.00000000E+00  0.00000000E+00  0.00000000E+00  0.00000000E+00  0.00000000E+00
  0.00000000E+00  0.00000000E+00
ZRed-Constraint1                           R   N=          87
  2.86265406E+00  2.06002143E+00  2.05748114E+00  2.06391693E+00  2.84775447E+00
  2.06518098E+00  2.06229302E+00  2.64178974E+00  2.84778710E+00  1.94125826E+00
  1.83450236E+00  2.86268848E+00  2.06518531E+00  2.06229059E+00  2.06002272E+00
  2.06391776E+00  2.05747458E+00  1.89226847E+00  1.95212334E+00  1.94233976E+00
  1.89192141E+00  1.87879113E+00  1.90425685E+00  1.94603651E+00  1.97162968E+00
  1.95952272E+00  1.84489044E+00  1.83974504E+00  1.89373680E+00  1.94668287E+00
  1.99429894E+00  1.89135482E+00  1.94673649E+00  1.77915164E+00  1.89135162E+00
  1.86017902E+00  1.94607997E+00  1.84487534E+00  1.83973844E+00  1.97163845E+00
  1.95950297E+00  1.89372452E+00  1.89226907E+00  1.94234936E+00  1.95214316E+00
  1.87877242E+00  1.89190836E+00  1.90425645E+00  3.12314776E+00 -1.08529100E+00
  1.06312353E+00 -1.07491480E+00  9.99831749E-01 -3.13493903E+00  1.06002877E+00
  3.13477532E+00 -9.99995463E-01  1.00719788E+00 -3.04805167E+00 -9.37597127E-01
 -1.14163594E+00  1.08629982E+00 -3.08643095E+00  3.13790965E+00 -9.17339899E-01
  1.19311464E+00  1.12670225E+00 -1.12660834E+00 -3.14155517E+00  3.04786592E+00
 -1.08645892E+00  9.17157545E-01 -1.00741106E+00  1.14144941E+00 -3.13811944E+00
  9.37409608E-01  3.08627008E+00 -1.19329877E+00 -3.12309002E+00 -1.05998791E+00
  1.07497622E+00  1.08533164E+00 -3.13475155E+00 -9.99787419E-01 -1.06305801E+00
  1.00004410E+00  3.13500823E+00
ZRed-Constraint2                           R   N=          87
  2.91877829E+00  2.05969850E+00  2.05959930E+00  2.05978606E+00  2.81474204E+00
  2.05980610E+00  2.05991112E+00  2.57846401E+00  2.81857357E+00  1.88972613E+00
  1.81419367E+00  2.91686226E+00  2.05979504E+00  2.05978923E+00  2.05978200E+00
  2.05975281E+00  2.05973970E+00  1.91058063E+00  1.91065384E+00  1.91056018E+00
  1.91069856E+00  1.91062809E+00  1.91067810E+00  1.97372536E+00  1.86191276E+00
  1.86198640E+00  1.83802868E+00  1.83798387E+00  2.09439856E+00  1.91048924E+00
  1.96733842E+00  1.88850889E+00  1.91795092E+00  1.88927029E+00  1.88840132E+00
  1.91062398E+00  1.97562480E+00  1.83826932E+00  1.83830593E+00  1.86089257E+00
  1.86088509E+00  2.09434748E+00  1.91064137E+00  1.91065791E+00  1.91060277E+00
  1.91062959E+00  1.91068916E+00  1.91057862E+00  3.06797960E+00 -1.20282047E+00
  1.05560345E+00 -1.12075020E+00  8.91635037E-01 -3.13312635E+00  9.73667731E-01
  2.98605297E+00 -1.03870842E+00  1.09257860E+00 -3.05035600E+00 -9.62761107E-01
 -9.34027867E-01  1.20622284E+00 -2.98936757E+00  3.11924632E+00 -1.02368828E+00
  1.06390662E+00  1.77784068E+00 -3.91555270E-01 -2.45048147E+00  3.04996156E+00
 -1.20672047E+00  1.02344490E+00 -1.09716018E+00  9.29343093E-01 -3.12367684E+00
  9.62304434E-01  2.98880771E+00 -1.06421222E+00 -2.87972531E+00 -7.85314583E-01
  1.30901008E+00  1.39039748E+00 -2.79837710E+00 -7.04052435E-01 -8.66623038E-01
  1.22778769E+00 -2.96107296E+00
SymInf integers                            I   N=          26
           1           1           1           1           1           0
           0           0           0           0           0           0
           0           0           0           0           0           0
           0           0           0           0           0           0
           0           0
RotTr to input orientation                 R   N=          12
  1.94767534E-02 -8.83453114E-01 -4.68114572E-01 -3.62170010E-01  4.30171367E-01
 -8.26913223E-01  9.31908547E-01  1.85642644E-01 -3.11581881E-01  3.74749318E+00
 -1.24305411E+00 -2.17271397E+00
Number of contracted shells                I               96
Number of primitive shells                 I              162
Pure/Cartesian d shells                    I                0
Pure/Cartesian f shells                    I                0
Highest angular momentum                   I                2
Largest degree of contraction              I                6
Shell types                                I   N=          96
           0          -1          -1          -1          -1          -2
           0          -1          -1          -1          -1          -2
           0          -1          -1          -1          -1          -2
           0          -1          -1          -1          -1          -2
           0          -1          -1          -1          -1          -2
           0          -1          -1          -1          -1          -2
           0           0           0           0           1           0
           0           0           0           1           0           0
           0           0           1           0           0           0
           0           1           0           0           0           0
           1           0           0           0           0           1
           0           0           0           0           1           0
           0           0           0           1           0           0
           0           0           1           0           0           0
           0           1           0           0           0           0
           1           0           0           0           0           1
Number of primitives per shell             I   N=          96
           6           3           1           1           1           1
           6           3           1           1           1           1
           6           3           1           1           1           1
           6           3           1           1           1           1
           6           3           1           1           1           1
           6           3           1           1           1           1
           3           1           1           1           1           3
           1           1           1           1           3           1
           1           1           1           3           1           1
           1           1           3           1           1           1
           1           3           1           1           1           1
           3           1           1           1           1           3
           1           1           1           1           3           1
           1           1           1           3           1           1
           1           1           3           1           1           1
           1           3           1           1           1           1
Shell to atom map                          I   N=          96
           1           1           1           1           1           1
           2           2           2           2           2           2
           3           3           3           3           3           3
           4           4           4           4           4           4
           5           5           5           5           5           5
           6           6           6           6           6           6
           7           7           7           7           7           8
           8           8           8           8           9           9
           9           9           9          10          10          10
          10          10          11          11          11          11
          11          12          12          12          12          12
          13          13          13          13          13          14
          14          14          14          14          15          15
          15          15          15          16          16          16
          16          16          17          17          17          17
          17          18          18          18          18          18
Primitive exponents                        R   N=         162
  4.56324000E+03  6.82024000E+02  1.54973000E+02  4.44553000E+01  1.30290000E+01
  1.82773000E+00  2.09642000E+01  4.80331000E+00  1.45933000E+00  4.83456000E-01
  1.45585000E-01  4.38000000E-02  6.26000000E-01  4.56324000E+03  6.82024000E+02
  1.54973000E+02  4.44553000E+01  1.30290000E+01  1.82773000E+00  2.09642000E+01
  4.80331000E+00  1.45933000E+00  4.83456000E-01  1.45585000E-01  4.38000000E-02
  6.26000000E-01  6.29348000E+03  9.49044000E+02  2.18776000E+02  6.36916000E+01
  1.88282000E+01  2.72023000E+00  3.06331000E+01  7.02614000E+00  2.11205000E+00
  6.84009000E-01  2.00878000E-01  6.39000000E-02  9.13000000E-01  8.58850000E+03
  1.29723000E+03  2.99296000E+02  8.73771000E+01  2.56789000E+01  3.74004000E+00
  4.21175000E+01  9.62837000E+00  2.85332000E+00  9.05661000E-01  2.55611000E-01
  8.45000000E-02  1.29200000E+00  4.56324000E+03  6.82024000E+02  1.54973000E+02
  4.44553000E+01  1.30290000E+01  1.82773000E+00  2.09642000E+01  4.80331000E+00
  1.45933000E+00  4.83456000E-01  1.45585000E-01  4.38000000E-02  6.26000000E-01
  4.56324000E+03  6.82024000E+02  1.54973000E+02  4.44553000E+01  1.30290000E+01
  1.82773000E+00  2.09642000E+01  4.80331000E+00  1.45933000E+00  4.83456000E-01
  1.45585000E-01  4.38000000E-02  6.26000000E-01  3.38650000E+01  5.09479000E+00
  1.15879000E+00  3.25840000E-01  1.02741000E-01  3.60000000E-02  7.50000000E-01
  3.38650000E+01  5.09479000E+00  1.15879000E+00  3.25840000E-01  1.02741000E-01
  3.60000000E-02  7.50000000E-01  3.38650000E+01  5.09479000E+00  1.15879000E+00
  3.25840000E-01  1.02741000E-01  3.60000000E-02  7.50000000E-01  3.38650000E+01
  5.09479000E+00  1.15879000E+00  3.25840000E-01  1.02741000E-01  3.60000000E-02
  7.50000000E-01  3.38650000E+01  5.09479000E+00  1.15879000E+00  3.25840000E-01
  1.02741000E-01  3.60000000E-02  7.50000000E-01  3.38650000E+01  5.09479000E+00
  1.15879000E+00  3.25840000E-01  1.02741000E-01  3.60000000E-02  7.50000000E-01
  3.38650000E+01  5.09479000E+00  1.15879000E+00  3.25840000E-01  1.02741000E-01
  3.60000000E-02  7.50000000E-01  3.38650000E+01  5.09479000E+00  1.15879000E+00
  3.25840000E-01  1.02741000E-01  3.60000000E-02  7.50000000E-01  3.38650000E+01
  5.09479000E+00  1.15879000E+00  3.25840000E-01  1.02741000E-01  3.60000000E-02
  7.50000000E-01  3.38650000E+01  5.09479000E+00  1.15879000E+00  3.25840000E-01
  1.02741000E-01  3.60000000E-02  7.50000000E-01  3.38650000E+01  5.09479000E+00
  1.15879000E+00  3.25840000E-01  1.02741000E-01  3.60000000E-02  7.50000000E-01
  3.38650000E+01  5.09479000E+00  1.15879000E+00  3.25840000E-01  1.02741000E-01
  3.60000000E-02  7.50000000E-01
Contraction coefficients                   R   N=         162
  1.96665025E-03  1.52306019E-02  7.61269097E-02  2.60801033E-01  6.16462078E-01
  2.21006028E-01  1.14660081E-01  9.19999648E-01 -3.03068213E-03  1.00000000E+00
  1.00000000E+00  1.00000000E+00  1.00000000E+00  1.96665025E-03  1.52306019E-02
  7.61269097E-02  2.60801033E-01  6.16462078E-01  2.21006028E-01  1.14660081E-01
  9.19999648E-01 -3.03068213E-03  1.00000000E+00  1.00000000E+00  1.00000000E+00
  1.00000000E+00  1.96978815E-03  1.49612859E-02  7.35005308E-02  2.48936766E-01
  6.02459433E-01  2.56201759E-01  1.11906080E-01  9.21666655E-01 -2.56919183E-03
  1.00000000E+00  1.00000000E+00  1.00000000E+00  1.00000000E+00  1.89515008E-03
  1.43859006E-02  7.07320031E-02  2.40001011E-01  5.94797026E-01  2.80802012E-01
  1.13889012E-01  9.20811101E-01 -3.27447036E-03  1.00000000E+00  1.00000000E+00
  1.00000000E+00  1.00000000E+00  1.96665025E-03  1.52306019E-02  7.61269097E-02
  2.60801033E-01  6.16462078E-01  2.21006028E-01  1.14660081E-01  9.19999648E-01
 -3.03068213E-03  1.00000000E+00  1.00000000E+00  1.00000000E+00  1.00000000E+00
  1.96665025E-03  1.52306019E-02  7.61269097E-02  2.60801033E-01  6.16462078E-01
  2.21006028E-01  1.14660081E-01  9.19999648E-01 -3.03068213E-03  1.00000000E+00
  1.00000000E+00  1.00000000E+00  1.00000000E+00  2.54938145E-02  1.90373109E-01
  8.52161486E-01  1.00000000E+00  1.00000000E+00  1.00000000E+00  1.00000000E+00
  2.54938145E-02  1.90373109E-01  8.52161486E-01  1.00000000E+00  1.00000000E+00
  1.00000000E+00  1.00000000E+00  2.54938145E-02  1.90373109E-01  8.52161486E-01
  1.00000000E+00  1.00000000E+00  1.00000000E+00  1.00000000E+00  2.54938145E-02
  1.90373109E-01  8.52161486E-01  1.00000000E+00  1.00000000E+00  1.00000000E+00
  1.00000000E+00  2.54938145E-02  1.90373109E-01  8.52161486E-01  1.00000000E+00
  1.00000000E+00  1.00000000E+00  1.00000000E+00  2.54938145E-02  1.90373109E-01
  8.52161486E-01  1.00000000E+00  1.00000000E+00  1.00000000E+00  1.00000000E+00
  2.54938145E-02  1.90373109E-01  8.52161486E-01  1.00000000E+00  1.00000000E+00
  1.00000000E+00  1.00000000E+00  2.54938145E-02  1.90373109E-01  8.52161486E-01
  1.00000000E+00  1.00000000E+00  1.00000000E+00  1.00000000E+00  2.54938145E-02
  1.90373109E-01  8.52161486E-01  1.00000000E+00  1.00000000E+00  1.00000000E+00
  1.00000000E+00  2.54938145E-02  1.90373109E-01  8.52161486E-01  1.00000000E+00
  1.00000000E+00  1.00000000E+00  1.00000000E+00  2.54938145E-02  1.90373109E-01
  8.52161486E-01  1.00000000E+00  1.00000000E+00  1.00000000E+00  1.00000000E+00
  2.54938145E-02  1.90373109E-01  8.52161486E-01  1.00000000E+00  1.00000000E+00
  1.00000000E+00  1.00000000E+00
P(S=P) Contraction coefficients            R   N=         162
  0.00000000E+00  0.00000000E+00  0.00000000E+00  0.00000000E+00  0.00000000E+00
  0.00000000E+00  4.02486927E-02  2.37593957E-01  8.15853851E-01  1.00000000E+00
  1.00000000E+00  1.00000000E+00  0.00000000E+00  0.00000000E+00  0.00000000E+00
  0.00000000E+00  0.00000000E+00  0.00000000E+00  0.00000000E+00  4.02486927E-02
  2.37593957E-01  8.15853851E-01  1.00000000E+00  1.00000000E+00  1.00000000E+00
  0.00000000E+00  0.00000000E+00  0.00000000E+00  0.00000000E+00  0.00000000E+00
  0.00000000E+00  0.00000000E+00  3.83119186E-02  2.37403116E-01  8.17592398E-01
  1.00000000E+00  1.00000000E+00  1.00000000E+00  0.00000000E+00  0.00000000E+00
  0.00000000E+00  0.00000000E+00  0.00000000E+00  0.00000000E+00  0.00000000E+00
  3.65113974E-02  2.37152983E-01  8.19701941E-01  1.00000000E+00  1.00000000E+00
  1.00000000E+00  0.00000000E+00  0.00000000E+00  0.00000000E+00  0.00000000E+00
  0.00000000E+00  0.00000000E+00  0.00000000E+00  4.02486927E-02  2.37593957E-01
  8.15853851E-01  1.00000000E+00  1.00000000E+00  1.00000000E+00  0.00000000E+00
  0.00000000E+00  0.00000000E+00  0.00000000E+00  0.00000000E+00  0.00000000E+00
  0.00000000E+00  4.02486927E-02  2.37593957E-01  8.15853851E-01  1.00000000E+00
  1.00000000E+00  1.00000000E+00  0.00000000E+00  0.00000000E+00  0.00000000E+00