 Entering Gaussian System, Link 0=/apps/cent7/gaussian/g16-A.03/g16-haswell/g16/g16
 Initial command:
 /apps/cent7/gaussian/g16-A.03/g16-haswell/g16/l1.exe "/scratch/brown/finej/gaussian/Gau-237324.inp" -scrdir="/scratch/brown/finej/gaussian/"
 Entering Link 1 = /apps/cent7/gaussian/g16-A.03/g16-haswell/g16/l1.exe PID=    237326.
  
 Copyright (c) 1988,1990,1992,1993,1995,1998,2003,2009,2016,
            Gaussian, Inc.  All Rights Reserved.
  
 This is part of the Gaussian(R) 16 program.  It is based on
 the Gaussian(R) 09 system (copyright 2009, Gaussian, Inc.),
 the Gaussian(R) 03 system (copyright 2003, Gaussian, Inc.),
 the Gaussian(R) 98 system (copyright 1998, Gaussian, Inc.),
 the Gaussian(R) 94 system (copyright 1995, Gaussian, Inc.),
 the Gaussian 92(TM) system (copyright 1992, Gaussian, Inc.),
 the Gaussian 90(TM) system (copyright 1990, Gaussian, Inc.),
 the Gaussian 88(TM) system (copyright 1988, Gaussian, Inc.),
 the Gaussian 86(TM) system (copyright 1986, Carnegie Mellon
 University), and the Gaussian 82(TM) system (copyright 1983,
 Carnegie Mellon University). Gaussian is a federally registered
 trademark of Gaussian, Inc.
  
 This software contains proprietary and confidential information,
 including trade secrets, belonging to Gaussian, Inc.
  
 This software is provided under written license and may be
 used, copied, transmitted, or stored only in accord with that
 written license.
  
 The following legend is applicable only to US Government
 contracts under FAR:
  
                    RESTRICTED RIGHTS LEGEND
  
 Use, reproduction and disclosure by the US Government is
 subject to restrictions as set forth in subparagraphs (a)
 and (c) of the Commercial Computer Software - Restricted
 Rights clause in FAR 52.227-19.
  
 Gaussian, Inc.
 340 Quinnipiac St., Bldg. 40, Wallingford CT 06492
  
  
 ---------------------------------------------------------------
 Warning -- This program may not be used in any manner that
 competes with the business of Gaussian, Inc. or will provide
 assistance to any competitor of Gaussian, Inc.  The licensee
 of this program is prohibited from giving any competitor of
 Gaussian, Inc. access to this program.  By using this program,
 the user acknowledges that Gaussian, Inc. is engaged in the
 business of creating and licensing software in the field of
 computational chemistry and represents and warrants to the
 licensee that it is not a competitor of Gaussian, Inc. and that
 it will not use this program in any manner prohibited above.
 ---------------------------------------------------------------
  

 Cite this work as:
 Gaussian 16, Revision A.03,
 M. J. Frisch, G. W. Trucks, H. B. Schlegel, G. E. Scuseria, 
 M. A. Robb, J. R. Cheeseman, G. Scalmani, V. Barone, 
 G. A. Petersson, H. Nakatsuji, X. Li, M. Caricato, A. V. Marenich, 
 J. Bloino, B. G. Janesko, R. Gomperts, B. Mennucci, H. P. Hratchian, 
 J. V. Ortiz, A. F. Izmaylov, J. L. Sonnenberg, D. Williams-Young, 
 F. Ding, F. Lipparini, F. Egidi, J. Goings, B. Peng, A. Petrone, 
 T. Henderson, D. Ranasinghe, V. G. Zakrzewski, J. Gao, N. Rega, 
 G. Zheng, W. Liang, M. Hada, M. Ehara, K. Toyota, R. Fukuda, 
 J. Hasegawa, M. Ishida, T. Nakajima, Y. Honda, O. Kitao, H. Nakai, 
 T. Vreven, K. Throssell, J. A. Montgomery, Jr., J. E. Peralta, 
 F. Ogliaro, M. J. Bearpark, J. J. Heyd, E. N. Brothers, K. N. Kudin, 
 V. N. Staroverov, T. A. Keith, R. Kobayashi, J. Normand, 
 K. Raghavachari, A. P. Rendell, J. C. Burant, S. S. Iyengar, 
 J. Tomasi, M. Cossi, J. M. Millam, M. Klene, C. Adamo, R. Cammi, 
 J. W. Ochterski, R. L. Martin, K. Morokuma, O. Farkas, 
 J. B. Foresman, and D. J. Fox, Gaussian, Inc., Wallingford CT, 2016.
 
 ******************************************
 Gaussian 16:  ES64L-G16RevA.03 25-Dec-2016
                13-Oct-2019 
 ******************************************
 %chk=1_p.chk
 %nprocshared=24
 Will use up to   24 processors via shared memory.
 %mem=80GB
 -------------------------------------------------------------------
 #P opt freq m062x/6-311++g(d,p) geom=connectivity temperature=0.001
 -------------------------------------------------------------------
 1/18=20,19=15,26=3,38=1,57=2,112=-1000/1,3;
 2/9=110,12=2,17=6,18=5,40=1/2;
 3/5=4,6=6,7=1111,11=2,25=1,30=1,71=1,74=-55/1,2,3;
 4//1;
 5/5=2,38=5/2;
 6/7=2,8=2,9=2,10=2,28=1/1;
 7//1,2,3,16;
 1/18=20,19=15,26=3/3(2);
 2/9=110/2;
 99//99;
 2/9=110/2;
 3/5=4,6=6,7=1111,11=2,25=1,30=1,71=1,74=-55/1,2,3;
 4/5=5,16=3,69=1/1;
 5/5=2,38=5/2;
 7//1,2,3,16;
 1/18=20,19=15,26=3/3(-5);
 2/9=110/2;
 6/7=2,8=2,9=2,10=2,19=2,28=1/1;
 99/9=1/99;
 Leave Link    1 at Sun Oct 13 21:36:48 2019, MaxMem= 10737418240 cpu:               0.8 elap:               0.0
 (Enter /apps/cent7/gaussian/g16-A.03/g16-haswell/g16/l101.exe)
 -------------------
 Title Card Required
 -------------------
 Symbolic Z-matrix:
 Charge =  1 Multiplicity = 1
 C                     2.3617   -2.8939   -2.3784 
 C                     1.9997   -2.1258   -1.0882 
 N                     2.1434   -0.6498   -1.2274 
 O                     1.277    -0.1964   -2.179 
 C                     1.9127    0.075     0.0556 
 C                     2.1843    1.5911   -0.0453 
 H                     2.3088   -3.9661   -2.1898 
 H                     1.6591   -2.6288   -3.1683 
 H                     3.3728   -2.6288   -2.6874 
 H                     0.9379   -2.2961   -0.9102 
 H                     2.7321   -2.4165   -0.335 
 H                     0.5145    0.2026   -1.7535 
 H                     0.8486   -0.038     0.263 
 H                     2.6492   -0.3281    0.7507 
 H                     2.2601    2.0141    0.9564 
 H                     3.1183    1.758    -0.5818 
 H                     1.3663    2.0718   -0.5818 
 H                     3.07508  -0.45412  -1.53346 
 
 ITRead=  0  0  0  0  0  0  0  0  0  0  0  0  0  0  0  0  0  0
 MicOpt= -1 -1 -1 -1 -1 -1 -1 -1 -1 -1 -1 -1 -1 -1 -1 -1 -1 -1
 NAtoms=     18 NQM=       18 NQMF=       0 NMMI=      0 NMMIF=      0
                NMic=       0 NMicF=      0.
                    Isotopes and Nuclear Properties:
 (Nuclear quadrupole moments (NQMom) in fm**2, nuclear magnetic moments (NMagM)
  in nuclear magnetons)

  Atom         1           2           3           4           5           6           7           8           9          10
 IAtWgt=          12          12          14          16          12          12           1           1           1           1
 AtmWgt=  12.0000000  12.0000000  14.0030740  15.9949146  12.0000000  12.0000000   1.0078250   1.0078250   1.0078250   1.0078250
 NucSpn=           0           0           2           0           0           0           1           1           1           1
 AtZEff=  -0.0000000  -0.0000000  -0.0000000  -0.0000000  -0.0000000  -0.0000000  -0.0000000  -0.0000000  -0.0000000  -0.0000000
 NQMom=    0.0000000   0.0000000   2.0440000   0.0000000   0.0000000   0.0000000   0.0000000   0.0000000   0.0000000   0.0000000
 NMagM=    0.0000000   0.0000000   0.4037610   0.0000000   0.0000000   0.0000000   2.7928460   2.7928460   2.7928460   2.7928460
 AtZNuc=   6.0000000   6.0000000   7.0000000   8.0000000   6.0000000   6.0000000   1.0000000   1.0000000   1.0000000   1.0000000

  Atom        11          12          13          14          15          16          17          18
 IAtWgt=           1           1           1           1           1           1           1           1
 AtmWgt=   1.0078250   1.0078250   1.0078250   1.0078250   1.0078250   1.0078250   1.0078250   1.0078250
 NucSpn=           1           1           1           1           1           1           1           1
 AtZEff=  -0.0000000  -0.0000000  -0.0000000  -0.0000000  -0.0000000  -0.0000000  -0.0000000  -0.0000000
 NQMom=    0.0000000   0.0000000   0.0000000   0.0000000   0.0000000   0.0000000   0.0000000   0.0000000
 NMagM=    2.7928460   2.7928460   2.7928460   2.7928460   2.7928460   2.7928460   2.7928460   2.7928460
 AtZNuc=   1.0000000   1.0000000   1.0000000   1.0000000   1.0000000   1.0000000   1.0000000   1.0000000
 Leave Link  101 at Sun Oct 13 21:36:49 2019, MaxMem= 10737418240 cpu:               8.5 elap:               0.4
 (Enter /apps/cent7/gaussian/g16-A.03/g16-haswell/g16/l103.exe)

 GradGradGradGradGradGradGradGradGradGradGradGradGradGradGradGradGradGrad
 Berny optimization.
 Initialization pass.
                           ----------------------------
                           !    Initial Parameters    !
                           ! (Angstroms and Degrees)  !
 --------------------------                            --------------------------
 ! Name  Definition              Value          Derivative Info.                !
 --------------------------------------------------------------------------------
 ! R1    R(1,2)                  1.5446         estimate D2E/DX2                !
 ! R2    R(1,7)                  1.0899         estimate D2E/DX2                !
 ! R3    R(1,8)                  1.0899         estimate D2E/DX2                !
 ! R4    R(1,9)                  1.09           estimate D2E/DX2                !
 ! R5    R(2,3)                  1.4895         estimate D2E/DX2                !
 ! R6    R(2,10)                 1.09           estimate D2E/DX2                !
 ! R7    R(2,11)                 1.0901         estimate D2E/DX2                !
 ! R8    R(3,4)                  1.3645         estimate D2E/DX2                !
 ! R9    R(3,5)                  1.4915         estimate D2E/DX2                !
 ! R10   R(3,18)                 1.0            estimate D2E/DX2                !
 ! R11   R(4,12)                 0.96           estimate D2E/DX2                !
 ! R12   R(5,6)                  1.5435         estimate D2E/DX2                !
 ! R13   R(5,13)                 1.09           estimate D2E/DX2                !
 ! R14   R(5,14)                 1.09           estimate D2E/DX2                !
 ! R15   R(6,15)                 1.09           estimate D2E/DX2                !
 ! R16   R(6,16)                 1.09           estimate D2E/DX2                !
 ! R17   R(6,17)                 1.09           estimate D2E/DX2                !
 ! A1    A(2,1,7)              109.4682         estimate D2E/DX2                !
 ! A2    A(2,1,8)              109.4724         estimate D2E/DX2                !
 ! A3    A(2,1,9)              109.467          estimate D2E/DX2                !
 ! A4    A(7,1,8)              109.475          estimate D2E/DX2                !
 ! A5    A(7,1,9)              109.4709         estimate D2E/DX2                !
 ! A6    A(8,1,9)              109.4738         estimate D2E/DX2                !
 ! A7    A(1,2,3)              113.0861         estimate D2E/DX2                !
 ! A8    A(1,2,10)             106.6797         estimate D2E/DX2                !
 ! A9    A(1,2,11)             106.684          estimate D2E/DX2                !
 ! A10   A(3,2,10)             105.3113         estimate D2E/DX2                !
 ! A11   A(3,2,11)             105.3087         estimate D2E/DX2                !
 ! A12   A(10,2,11)            120.0002         estimate D2E/DX2                !
 ! A13   A(2,3,4)              109.463          estimate D2E/DX2                !
 ! A14   A(2,3,5)              112.7202         estimate D2E/DX2                !
 ! A15   A(2,3,18)             108.2036         estimate D2E/DX2                !
 ! A16   A(4,3,5)              109.8905         estimate D2E/DX2                !
 ! A17   A(4,3,18)             108.2472         estimate D2E/DX2                !
 ! A18   A(5,3,18)             108.1974         estimate D2E/DX2                !
 ! A19   A(3,4,12)             109.4707         estimate D2E/DX2                !
 ! A20   A(3,5,6)              113.195          estimate D2E/DX2                !
 ! A21   A(3,5,13)             105.3251         estimate D2E/DX2                !
 ! A22   A(3,5,14)             105.3272         estimate D2E/DX2                !
 ! A23   A(6,5,13)             106.6213         estimate D2E/DX2                !
 ! A24   A(6,5,14)             106.6209         estimate D2E/DX2                !
 ! A25   A(13,5,14)            119.9973         estimate D2E/DX2                !
 ! A26   A(5,6,15)             109.4717         estimate D2E/DX2                !
 ! A27   A(5,6,16)             109.4726         estimate D2E/DX2                !
 ! A28   A(5,6,17)             109.4695         estimate D2E/DX2                !
 ! A29   A(15,6,16)            109.471          estimate D2E/DX2                !
 ! A30   A(15,6,17)            109.4744         estimate D2E/DX2                !
 ! A31   A(16,6,17)            109.4681         estimate D2E/DX2                !
 ! D1    D(7,1,2,3)            175.7823         estimate D2E/DX2                !
 ! D2    D(7,1,2,10)           -68.9165         estimate D2E/DX2                !
 ! D3    D(7,1,2,11)            60.4816         estimate D2E/DX2                !
 ! D4    D(8,1,2,3)            -64.2143         estimate D2E/DX2                !
 ! D5    D(8,1,2,10)            51.0869         estimate D2E/DX2                !
 ! D6    D(8,1,2,11)          -179.5149         estimate D2E/DX2                !
 ! D7    D(9,1,2,3)             55.7871         estimate D2E/DX2                !
 ! D8    D(9,1,2,10)           171.0882         estimate D2E/DX2                !
 ! D9    D(9,1,2,11)           -59.5136         estimate D2E/DX2                !
 ! D10   D(1,2,3,4)             62.6001         estimate D2E/DX2                !
 ! D11   D(1,2,3,5)           -174.7725         estimate D2E/DX2                !
 ! D12   D(1,2,3,18)           -55.1621         estimate D2E/DX2                !
 ! D13   D(10,2,3,4)           -53.5159         estimate D2E/DX2                !
 ! D14   D(10,2,3,5)            69.1115         estimate D2E/DX2                !
 ! D15   D(10,2,3,18)         -171.2781         estimate D2E/DX2                !
 ! D16   D(11,2,3,4)           178.7196         estimate D2E/DX2                !
 ! D17   D(11,2,3,5)           -58.653          estimate D2E/DX2                !
 ! D18   D(11,2,3,18)           60.9574         estimate D2E/DX2                !
 ! D19   D(2,3,4,12)           101.8628         estimate D2E/DX2                !
 ! D20   D(5,3,4,12)           -22.4345         estimate D2E/DX2                !
 ! D21   D(18,3,4,12)         -140.4022         estimate D2E/DX2                !
 ! D22   D(2,3,5,6)            174.7499         estimate D2E/DX2                !
 ! D23   D(2,3,5,13)           -69.14           estimate D2E/DX2                !
 ! D24   D(2,3,5,14)            58.6391         estimate D2E/DX2                !
 ! D25   D(4,3,5,6)            -62.8626         estimate D2E/DX2                !
 ! D26   D(4,3,5,13)            53.2474         estimate D2E/DX2                !
 ! D27   D(4,3,5,14)          -178.9735         estimate D2E/DX2                !
 ! D28   D(18,3,5,6)            55.136          estimate D2E/DX2                !
 ! D29   D(18,3,5,13)          171.2461         estimate D2E/DX2                !
 ! D30   D(18,3,5,14)          -60.9749         estimate D2E/DX2                !
 ! D31   D(3,5,6,15)          -164.9961         estimate D2E/DX2                !
 ! D32   D(3,5,6,16)           -44.9952         estimate D2E/DX2                !
 ! D33   D(3,5,6,17)            75.0008         estimate D2E/DX2                !
 ! D34   D(13,5,6,15)           79.6639         estimate D2E/DX2                !
 ! D35   D(13,5,6,16)         -160.3352         estimate D2E/DX2                !
 ! D36   D(13,5,6,17)          -40.3392         estimate D2E/DX2                !
 ! D37   D(14,5,6,15)          -49.6538         estimate D2E/DX2                !
 ! D38   D(14,5,6,16)           70.3471         estimate D2E/DX2                !
 ! D39   D(14,5,6,17)         -169.657          estimate D2E/DX2                !
 --------------------------------------------------------------------------------
 Trust Radius=3.00D-01 FncErr=1.00D-07 GrdErr=1.00D-06 EigMax=2.50D+02 EigMin=1.00D-04
 Number of steps in this run=     97 maximum allowed number of steps=    108.
 GradGradGradGradGradGradGradGradGradGradGradGradGradGradGradGradGradGrad

 Leave Link  103 at Sun Oct 13 21:36:49 2019, MaxMem= 10737418240 cpu:               0.2 elap:               0.0
 (Enter /apps/cent7/gaussian/g16-A.03/g16-haswell/g16/l202.exe)
                          Input orientation:                          
 ---------------------------------------------------------------------
 Center     Atomic      Atomic             Coordinates (Angstroms)
 Number     Number       Type             X           Y           Z
 ---------------------------------------------------------------------
      1          6           0        2.361700   -2.893900   -2.378400
      2          6           0        1.999700   -2.125800   -1.088200
      3          7           0        2.143400   -0.649800   -1.227400
      4          8           0        1.277000   -0.196400   -2.179000
      5          6           0        1.912700    0.075000    0.055600
      6          6           0        2.184300    1.591100   -0.045300
      7          1           0        2.308800   -3.966100   -2.189800
      8          1           0        1.659100   -2.628800   -3.168300
      9          1           0        3.372800   -2.628800   -2.687400
     10          1           0        0.937900   -2.296100   -0.910200
     11          1           0        2.732100   -2.416500   -0.335000
     12          1           0        0.514500    0.202600   -1.753500
     13          1           0        0.848600   -0.038000    0.263000
     14          1           0        2.649200   -0.328100    0.750700
     15          1           0        2.260100    2.014100    0.956400
     16          1           0        3.118300    1.758000   -0.581800
     17          1           0        1.366300    2.071800   -0.581800
     18          1           0        3.075083   -0.454120   -1.533465
 ---------------------------------------------------------------------
                    Distance matrix (angstroms):
                    1          2          3          4          5
     1  C    0.000000
     2  C    1.544551   0.000000
     3  N    2.531490   1.489497   0.000000
     4  O    2.914248   2.331250   1.364464   0.000000
     5  C    3.865272   2.481807   1.491525   2.339062   0.000000
     6  C    5.058661   3.864850   2.533903   2.927631   1.543537
     7  H    1.089946   2.166972   3.457082   3.908371   4.639957
     8  H    1.089893   2.166987   2.813908   2.653542   4.215255
     9  H    1.089992   2.166992   2.749448   3.250757   4.119038
    10  H    2.130770   1.090002   2.064982   2.476607   2.739547
    11  H    2.130866   1.090058   2.064988   3.232104   2.651708
    12  H    3.659366   2.840755   1.912245   0.960030   2.289997
    13  H    4.174042   2.740380   2.066906   2.484347   1.089997
    14  H    4.056754   2.652382   2.066931   3.237811   1.089994
    15  H    5.934617   4.624605   3.446587   3.960244   2.166157
    16  H    5.043847   4.073280   2.676701   3.124278   2.166158
    17  H    5.373711   4.275217   2.903066   2.775564   2.166112
    18  H    2.678686   2.036964   1.000000   1.927755   2.038683
                    6          7          8          9         10
     6  C    0.000000
     7  H    5.957923   0.000000
     8  H    5.276033   1.779872   0.000000
     9  H    5.118670   1.779908   1.779897   0.000000
    10  H    4.172756   2.511104   2.393707   3.032799   0.000000
    11  H    4.055227   2.453717   3.037102   2.447316   1.887990
    12  H    2.762990   4.559378   3.365798   4.130239   2.670941
    13  H    2.129110   4.855758   4.375269   4.667836   2.546250
    14  H    2.129102   4.690145   4.651030   4.199684   3.091951
    15  H    1.089990   6.757495   6.239461   6.005989   4.879573
    16  H    1.089974   6.000523   5.297477   4.872611   4.614945
    17  H    1.089967   6.319035   5.373207   5.527679   4.401128
    18  H    2.681614   3.654035   3.067071   2.479805   2.889447
                   11         12         13         14         15
    11  H    0.000000
    12  H    3.713432   0.000000
    13  H    3.092319   2.058102   0.000000
    14  H    2.355214   3.333107   1.887901   0.000000
    15  H    4.639042   3.697595   2.585392   2.383194   0.000000
    16  H    4.199585   3.251450   3.015102   2.519410   1.779931
    17  H    4.697995   2.364816   2.330870   3.030001   1.779963
    18  H    2.324842   2.652599   2.890963   2.326944   3.599408
                   16         17         18
    16  H    0.000000
    17  H    1.779880   0.000000
    18  H    2.408528   3.194664   0.000000
 Stoichiometry    C4H12NO(1+)
 Framework group  C1[X(C4H12NO)]
 Deg. of freedom    48
 Full point group                 C1      NOp   1
 Largest Abelian subgroup         C1      NOp   1
 Largest concise Abelian subgroup C1      NOp   1
                         Standard orientation:                         
 ---------------------------------------------------------------------
 Center     Atomic      Atomic             Coordinates (Angstroms)
 Number     Number       Type             X           Y           Z
 ---------------------------------------------------------------------
      1          6           0        2.540641   -0.042099    0.289854
      2          6           0        1.253279   -0.635222   -0.323777
      3          7           0        0.011748    0.009587    0.187521
      4          8           0        0.008742    1.329179   -0.159511
      5          6           0       -1.228467   -0.649867   -0.314110
      6          6           0       -2.517887   -0.073659    0.308695
      7          1           0        3.404612   -0.603350   -0.065861
      8          1           0        2.637653    1.001764   -0.008151
      9          1           0        2.488022   -0.106340    1.376678
     10          1           0        1.279533   -0.404996   -1.388865
     11          1           0        1.197018   -1.671863    0.008541
     12          1           0       -0.571636    1.460620   -0.912865
     13          1           0       -1.266655   -0.419698   -1.378843
     14          1           0       -1.158138   -1.685875    0.017290
     15          1           0       -3.348752   -0.752690    0.117232
     16          1           0       -2.382370    0.040483    1.384172
     17          1           0       -2.733045    0.898159   -0.135497
     18          1           0        0.016191   -0.051680    1.185633
 ---------------------------------------------------------------------
 Rotational constants (GHZ):           7.8187808           1.9300419           1.7100732
 Leave Link  202 at Sun Oct 13 21:36:49 2019, MaxMem= 10737418240 cpu:               1.1 elap:               0.1
 (Enter /apps/cent7/gaussian/g16-A.03/g16-haswell/g16/l301.exe)
 Standard basis: 6-311++G(d,p) (5D, 7F)
 Ernie: Thresh=  0.10000D-02 Tol=  0.10000D-05 Strict=F.
 There are   222 symmetry adapted cartesian basis functions of A   symmetry.
 There are   216 symmetry adapted basis functions of A   symmetry.
   216 basis functions,   324 primitive gaussians,   222 cartesian basis functions
    25 alpha electrons       25 beta electrons
       nuclear repulsion energy       276.2169145627 Hartrees.
 IExCor= 4336 DFT=T Ex+Corr=M062X ExCW=0 ScaHFX=  0.540000
 ScaDFX=  1.000000  1.000000  1.000000  1.000000 ScalE2=  1.000000  1.000000
 IRadAn=      5 IRanWt=     -1 IRanGd=            0 ICorTp=0 IEmpDi=  4
 NAtoms=   18 NActive=   18 NUniq=   18 SFac= 1.00D+00 NAtFMM=   60 NAOKFM=F Big=F
 Integral buffers will be    131072 words long.
 Raffenetti 2 integral format.
 Two-electron integral symmetry is turned on.
 Leave Link  301 at Sun Oct 13 21:36:49 2019, MaxMem= 10737418240 cpu:               1.4 elap:               0.1
 (Enter /apps/cent7/gaussian/g16-A.03/g16-haswell/g16/l302.exe)
 NPDir=0 NMtPBC=     1 NCelOv=     1 NCel=       1 NClECP=     1 NCelD=      1
         NCelK=      1 NCelE2=     1 NClLst=     1 CellRange=     0.0.
 One-electron integrals computed using PRISM.
 One-electron integral symmetry used in STVInt
 NBasis=   216 RedAO= T EigKep=  3.21D-05  NBF=   216
 NBsUse=   216 1.00D-06 EigRej= -1.00D+00 NBFU=   216
 Precomputing XC quadrature grid using
 IXCGrd= 4 IRadAn=           5 IRanWt=          -1 IRanGd=           0 AccXCQ= 0.00D+00.
 Generated NRdTot=       0 NPtTot=           0 NUsed=           0 NTot=          32
 NSgBfM=   222   222   222   222   222 MxSgAt=    18 MxSgA2=    18.
 Leave Link  302 at Sun Oct 13 21:36:49 2019, MaxMem= 10737418240 cpu:               4.1 elap:               0.2
 (Enter /apps/cent7/gaussian/g16-A.03/g16-haswell/g16/l303.exe)
 DipDrv:  MaxL=1.
 Leave Link  303 at Sun Oct 13 21:36:49 2019, MaxMem= 10737418240 cpu:               0.8 elap:               0.1
 (Enter /apps/cent7/gaussian/g16-A.03/g16-haswell/g16/l401.exe)
 ExpMin= 3.60D-02 ExpMax= 8.59D+03 ExpMxC= 1.30D+03 IAcc=3 IRadAn=         5 AccDes= 0.00D+00
 Harris functional with IExCor= 1009 and IRadAn=       5 diagonalized for initial guess.
 HarFok:  IExCor= 1009 AccDes= 0.00D+00 IRadAn=         5 IDoV= 1 UseB2=F ITyADJ=14
 ICtDFT=  3500011 ScaDFX=  1.000000  1.000000  1.000000  1.000000
 FoFCou: FMM=F IPFlag=           0 FMFlag=      100000 FMFlg1=           0
         NFxFlg=           0 DoJE=T BraDBF=F KetDBF=T FulRan=T
         wScrn=  0.000000 ICntrl=       500 IOpCl=  0 I1Cent=   200000004 NGrid=           0
         NMat0=    1 NMatS0=      1 NMatT0=    0 NMatD0=    1 NMtDS0=    0 NMtDT0=    0
 Petite list used in FoFCou.
 Harris En= -289.218786495506    
 JPrj=0 DoOrth=F DoCkMO=F.
 Leave Link  401 at Sun Oct 13 21:36:50 2019, MaxMem= 10737418240 cpu:               9.3 elap:               0.4
 (Enter /apps/cent7/gaussian/g16-A.03/g16-haswell/g16/l502.exe)
 Integral symmetry usage will be decided dynamically.
 Closed shell SCF:
 Using DIIS extrapolation, IDIIS=  1040.
 NGot= 10737418240 LenX= 10737311970 LenY= 10737262245
 Requested convergence on RMS density matrix=1.00D-08 within 128 cycles.
 Requested convergence on MAX density matrix=1.00D-06.
 Requested convergence on             energy=1.00D-06.
 No special actions if energy rises.
 Fock matrices will be formed incrementally for  20 cycles.

 Cycle   1  Pass 1  IDiag  1:
 FoFJK:  IHMeth= 1 ICntrl=       0 DoSepK=F KAlg= 0 I1Cent=           0 FoldK=F
 IRaf= 980000000 NMat=       1 IRICut=       1 DoRegI=T DoRafI=F ISym2E= 0 IDoP0=0 IntGTp=1.
 FoFCou: FMM=F IPFlag=           0 FMFlag=      100000 FMFlg1=           0
         NFxFlg=           0 DoJE=F BraDBF=F KetDBF=F FulRan=T
         wScrn=  0.000000 ICntrl=         0 IOpCl=  0 I1Cent=           0 NGrid=           0
         NMat0=    1 NMatS0=      1 NMatT0=    0 NMatD0=    1 NMtDS0=    0 NMtDT0=    0
 Symmetry not used in FoFCou.
 E= -289.049057917380    
 DIIS: error= 3.05D-02 at cycle   1 NSaved=   1.
 NSaved= 1 IEnMin= 1 EnMin= -289.049057917380     IErMin= 1 ErrMin= 3.05D-02
 ErrMax= 3.05D-02  0.00D+00 EMaxC= 1.00D-01 BMatC= 2.72D-01 BMatP= 2.72D-01
 IDIUse=3 WtCom= 6.95D-01 WtEn= 3.05D-01
 Coeff-Com:  0.100D+01
 Coeff-En:   0.100D+01
 Coeff:      0.100D+01
 Gap=     0.440 Goal=   None    Shift=    0.000
 GapD=    0.440 DampG=2.000 DampE=0.500 DampFc=1.0000 IDamp=-1.
 RMSDP=6.29D-03 MaxDP=4.95D-01              OVMax= 1.40D-01

 Cycle   2  Pass 1  IDiag  1:
 RMSU=  6.27D-03    CP:  1.04D+00
 E= -289.088022686912     Delta-E=       -0.038964769532 Rises=F Damp=F
 DIIS: error= 2.73D-02 at cycle   2 NSaved=   2.
 NSaved= 2 IEnMin= 2 EnMin= -289.088022686912     IErMin= 2 ErrMin= 2.73D-02
 ErrMax= 2.73D-02  0.00D+00 EMaxC= 1.00D-01 BMatC= 2.05D-01 BMatP= 2.72D-01
 IDIUse=3 WtCom= 7.27D-01 WtEn= 2.73D-01
 Coeff-Com:  0.461D+00 0.539D+00
 Coeff-En:   0.443D+00 0.557D+00
 Coeff:      0.456D+00 0.544D+00
 Gap=     0.449 Goal=   None    Shift=    0.000
 RMSDP=2.92D-03 MaxDP=2.38D-01 DE=-3.90D-02 OVMax= 6.91D-02

 Cycle   3  Pass 1  IDiag  1:
 RMSU=  1.30D-03    CP:  1.01D+00  5.88D-01
 E= -289.253717134194     Delta-E=       -0.165694447282 Rises=F Damp=F
 DIIS: error= 5.77D-03 at cycle   3 NSaved=   3.
 NSaved= 3 IEnMin= 3 EnMin= -289.253717134194     IErMin= 3 ErrMin= 5.77D-03
 ErrMax= 5.77D-03  0.00D+00 EMaxC= 1.00D-01 BMatC= 7.29D-03 BMatP= 2.05D-01
 IDIUse=3 WtCom= 9.42D-01 WtEn= 5.77D-02
 Coeff-Com:  0.929D-01 0.194D+00 0.713D+00
 Coeff-En:   0.000D+00 0.000D+00 0.100D+01
 Coeff:      0.875D-01 0.183D+00 0.730D+00
 Gap=     0.446 Goal=   None    Shift=    0.000
 RMSDP=4.65D-04 MaxDP=2.97D-02 DE=-1.66D-01 OVMax= 2.08D-02

 Cycle   4  Pass 1  IDiag  1:
 RMSU=  3.77D-04    CP:  1.01D+00  6.28D-01  9.31D-01
 E= -289.258060236376     Delta-E=       -0.004343102181 Rises=F Damp=F
 DIIS: error= 2.08D-03 at cycle   4 NSaved=   4.
 NSaved= 4 IEnMin= 4 EnMin= -289.258060236376     IErMin= 4 ErrMin= 2.08D-03
 ErrMax= 2.08D-03  0.00D+00 EMaxC= 1.00D-01 BMatC= 1.11D-03 BMatP= 7.29D-03
 IDIUse=3 WtCom= 9.79D-01 WtEn= 2.08D-02
 Coeff-Com:  0.407D-02 0.393D-01 0.342D+00 0.615D+00
 Coeff-En:   0.000D+00 0.000D+00 0.677D-01 0.932D+00
 Coeff:      0.398D-02 0.385D-01 0.336D+00 0.621D+00
 Gap=     0.442 Goal=   None    Shift=    0.000
 RMSDP=1.74D-04 MaxDP=9.02D-03 DE=-4.34D-03 OVMax= 6.33D-03

 Cycle   5  Pass 1  IDiag  1:
 RMSU=  9.68D-05    CP:  1.01D+00  6.19D-01  9.78D-01  7.19D-01
 E= -289.258919203628     Delta-E=       -0.000858967252 Rises=F Damp=F
 DIIS: error= 2.07D-04 at cycle   5 NSaved=   5.
 NSaved= 5 IEnMin= 5 EnMin= -289.258919203628     IErMin= 5 ErrMin= 2.07D-04
 ErrMax= 2.07D-04  0.00D+00 EMaxC= 1.00D-01 BMatC= 1.71D-05 BMatP= 1.11D-03
 IDIUse=3 WtCom= 9.98D-01 WtEn= 2.07D-03
 Coeff-Com: -0.288D-02 0.344D-02 0.712D-01 0.187D+00 0.741D+00
 Coeff-En:   0.000D+00 0.000D+00 0.000D+00 0.000D+00 0.100D+01
 Coeff:     -0.288D-02 0.343D-02 0.710D-01 0.186D+00 0.742D+00
 Gap=     0.441 Goal=   None    Shift=    0.000
 RMSDP=3.25D-05 MaxDP=1.91D-03 DE=-8.59D-04 OVMax= 7.34D-04

 Cycle   6  Pass 1  IDiag  1:
 RMSU=  2.24D-05    CP:  1.01D+00  6.21D-01  9.83D-01  7.54D-01  9.08D-01
 E= -289.258931174083     Delta-E=       -0.000011970455 Rises=F Damp=F
 DIIS: error= 7.86D-05 at cycle   6 NSaved=   6.
 NSaved= 6 IEnMin= 6 EnMin= -289.258931174083     IErMin= 6 ErrMin= 7.86D-05
 ErrMax= 7.86D-05  0.00D+00 EMaxC= 1.00D-01 BMatC= 1.63D-06 BMatP= 1.71D-05
 IDIUse=1 WtCom= 1.00D+00 WtEn= 0.00D+00
 Coeff-Com: -0.105D-02-0.613D-03 0.878D-02 0.366D-01 0.275D+00 0.681D+00
 Coeff:     -0.105D-02-0.613D-03 0.878D-02 0.366D-01 0.275D+00 0.681D+00
 Gap=     0.441 Goal=   None    Shift=    0.000
 RMSDP=8.47D-06 MaxDP=4.37D-04 DE=-1.20D-05 OVMax= 2.57D-04

 Cycle   7  Pass 1  IDiag  1:
 RMSU=  7.61D-06    CP:  1.01D+00  6.21D-01  9.85D-01  7.53D-01  9.24D-01
                    CP:  9.54D-01
 E= -289.258932374791     Delta-E=       -0.000001200708 Rises=F Damp=F
 DIIS: error= 2.19D-05 at cycle   7 NSaved=   7.
 NSaved= 7 IEnMin= 7 EnMin= -289.258932374791     IErMin= 7 ErrMin= 2.19D-05
 ErrMax= 2.19D-05  0.00D+00 EMaxC= 1.00D-01 BMatC= 1.35D-07 BMatP= 1.63D-06
 IDIUse=1 WtCom= 1.00D+00 WtEn= 0.00D+00
 Coeff-Com: -0.131D-04-0.753D-03-0.632D-02-0.130D-01-0.147D-01 0.212D+00
 Coeff-Com:  0.823D+00
 Coeff:     -0.131D-04-0.753D-03-0.632D-02-0.130D-01-0.147D-01 0.212D+00
 Coeff:      0.823D+00
 Gap=     0.441 Goal=   None    Shift=    0.000
 RMSDP=3.46D-06 MaxDP=8.71D-05 DE=-1.20D-06 OVMax= 8.80D-05

 Cycle   8  Pass 1  IDiag  1:
 RMSU=  1.93D-06    CP:  1.01D+00  6.21D-01  9.85D-01  7.56D-01  9.37D-01
                    CP:  1.03D+00  9.40D-01
 E= -289.258932501632     Delta-E=       -0.000000126841 Rises=F Damp=F
 DIIS: error= 4.26D-06 at cycle   8 NSaved=   8.
 NSaved= 8 IEnMin= 8 EnMin= -289.258932501632     IErMin= 8 ErrMin= 4.26D-06
 ErrMax= 4.26D-06  0.00D+00 EMaxC= 1.00D-01 BMatC= 4.08D-09 BMatP= 1.35D-07
 IDIUse=1 WtCom= 1.00D+00 WtEn= 0.00D+00
 Coeff-Com:  0.369D-04-0.173D-03-0.177D-02-0.434D-02-0.135D-01 0.249D-01
 Coeff-Com:  0.194D+00 0.800D+00
 Coeff:      0.369D-04-0.173D-03-0.177D-02-0.434D-02-0.135D-01 0.249D-01
 Coeff:      0.194D+00 0.800D+00
 Gap=     0.441 Goal=   None    Shift=    0.000
 RMSDP=9.08D-07 MaxDP=2.93D-05 DE=-1.27D-07 OVMax= 1.82D-05

 Cycle   9  Pass 1  IDiag  1:
 RMSU=  5.86D-07    CP:  1.01D+00  6.21D-01  9.86D-01  7.56D-01  9.38D-01
                    CP:  1.04D+00  9.87D-01  9.49D-01
 E= -289.258932505814     Delta-E=       -0.000000004182 Rises=F Damp=F
 DIIS: error= 1.53D-06 at cycle   9 NSaved=   9.
 NSaved= 9 IEnMin= 9 EnMin= -289.258932505814     IErMin= 9 ErrMin= 1.53D-06
 ErrMax= 1.53D-06  0.00D+00 EMaxC= 1.00D-01 BMatC= 5.78D-10 BMatP= 4.08D-09
 IDIUse=1 WtCom= 1.00D+00 WtEn= 0.00D+00
 Coeff-Com:  0.117D-04-0.677D-05-0.139D-03-0.482D-03-0.376D-02-0.980D-02
 Coeff-Com: -0.751D-02 0.271D+00 0.750D+00
 Coeff:      0.117D-04-0.677D-05-0.139D-03-0.482D-03-0.376D-02-0.980D-02
 Coeff:     -0.751D-02 0.271D+00 0.750D+00
 Gap=     0.441 Goal=   None    Shift=    0.000
 RMSDP=1.99D-07 MaxDP=5.90D-06 DE=-4.18D-09 OVMax= 5.47D-06

 Cycle  10  Pass 1  IDiag  1:
 RMSU=  1.08D-07    CP:  1.01D+00  6.21D-01  9.86D-01  7.56D-01  9.38D-01
                    CP:  1.04D+00  9.97D-01  1.01D+00  9.80D-01
 E= -289.258932506404     Delta-E=       -0.000000000590 Rises=F Damp=F
 DIIS: error= 3.51D-07 at cycle  10 NSaved=  10.
 NSaved=10 IEnMin=10 EnMin= -289.258932506404     IErMin=10 ErrMin= 3.51D-07
 ErrMax= 3.51D-07  0.00D+00 EMaxC= 1.00D-01 BMatC= 3.39D-11 BMatP= 5.78D-10
 IDIUse=1 WtCom= 1.00D+00 WtEn= 0.00D+00
 Coeff-Com:  0.686D-06 0.117D-04 0.993D-04 0.215D-03 0.711D-04-0.441D-02
 Coeff-Com: -0.173D-01 0.174D-01 0.230D+00 0.774D+00
 Coeff:      0.686D-06 0.117D-04 0.993D-04 0.215D-03 0.711D-04-0.441D-02
 Coeff:     -0.173D-01 0.174D-01 0.230D+00 0.774D+00
 Gap=     0.441 Goal=   None    Shift=    0.000
 RMSDP=5.31D-08 MaxDP=2.60D-06 DE=-5.90D-10 OVMax= 1.34D-06

 Cycle  11  Pass 1  IDiag  1:
 RMSU=  3.09D-08    CP:  1.01D+00  6.21D-01  9.86D-01  7.56D-01  9.38D-01
                    CP:  1.04D+00  9.97D-01  1.03D+00  1.01D+00  9.61D-01
 E= -289.258932506440     Delta-E=       -0.000000000036 Rises=F Damp=F
 DIIS: error= 5.85D-08 at cycle  11 NSaved=  11.
 NSaved=11 IEnMin=11 EnMin= -289.258932506440     IErMin=11 ErrMin= 5.85D-08
 ErrMax= 5.85D-08  0.00D+00 EMaxC= 1.00D-01 BMatC= 5.69D-13 BMatP= 3.39D-11
 IDIUse=1 WtCom= 1.00D+00 WtEn= 0.00D+00
 Coeff-Com: -0.462D-06-0.499D-06-0.470D-05-0.229D-05 0.151D-03 0.682D-03
 Coeff-Com:  0.170D-02-0.136D-01-0.441D-01-0.527D-01 0.111D+01
 Coeff:     -0.462D-06-0.499D-06-0.470D-05-0.229D-05 0.151D-03 0.682D-03
 Coeff:      0.170D-02-0.136D-01-0.441D-01-0.527D-01 0.111D+01
 Gap=     0.441 Goal=   None    Shift=    0.000
 RMSDP=1.20D-08 MaxDP=2.95D-07 DE=-3.64D-11 OVMax= 4.77D-07

 Cycle  12  Pass 1  IDiag  1:
 RMSU=  7.42D-09    CP:  1.01D+00  6.21D-01  9.86D-01  7.56D-01  9.38D-01
                    CP:  1.04D+00  9.97D-01  1.03D+00  1.02D+00  1.00D+00
                    CP:  1.15D+00
 E= -289.258932506443     Delta-E=       -0.000000000003 Rises=F Damp=F
 DIIS: error= 1.52D-08 at cycle  12 NSaved=  12.
 NSaved=12 IEnMin=12 EnMin= -289.258932506443     IErMin=12 ErrMin= 1.52D-08
 ErrMax= 1.52D-08  0.00D+00 EMaxC= 1.00D-01 BMatC= 2.96D-14 BMatP= 5.69D-13
 IDIUse=1 WtCom= 1.00D+00 WtEn= 0.00D+00
 Coeff-Com: -0.515D-07-0.596D-06-0.491D-05-0.101D-04 0.645D-05 0.282D-03
 Coeff-Com:  0.957D-03-0.183D-02-0.141D-01-0.405D-01 0.506D-01 0.100D+01
 Coeff:     -0.515D-07-0.596D-06-0.491D-05-0.101D-04 0.645D-05 0.282D-03
 Coeff:      0.957D-03-0.183D-02-0.141D-01-0.405D-01 0.506D-01 0.100D+01
 Gap=     0.441 Goal=   None    Shift=    0.000
 RMSDP=3.34D-09 MaxDP=1.95D-07 DE=-2.96D-12 OVMax= 1.32D-07

 SCF Done:  E(RM062X) =  -289.258932506     A.U. after   12 cycles
            NFock= 12  Conv=0.33D-08     -V/T= 2.0035
 KE= 2.882635219910D+02 PE=-1.215722965525D+03 EE= 3.619835964652D+02
 Leave Link  502 at Sun Oct 13 21:36:58 2019, MaxMem= 10737418240 cpu:             201.9 elap:               8.5
 (Enter /apps/cent7/gaussian/g16-A.03/g16-haswell/g16/l601.exe)
 Copying SCF densities to generalized density rwf, IOpCl= 0 IROHF=0.

 **********************************************************************

            Population analysis using the SCF density.

 **********************************************************************

 Orbital symmetries:
       Occupied  (A) (A) (A) (A) (A) (A) (A) (A) (A) (A) (A) (A)
                 (A) (A) (A) (A) (A) (A) (A) (A) (A) (A) (A) (A)
                 (A)
       Virtual   (A) (A) (A) (A) (A) (A) (A) (A) (A) (A) (A) (A)
                 (A) (A) (A) (A) (A) (A) (A) (A) (A) (A) (A) (A)
                 (A) (A) (A) (A) (A) (A) (A) (A) (A) (A) (A) (A)
                 (A) (A) (A) (A) (A) (A) (A) (A) (A) (A) (A) (A)
                 (A) (A) (A) (A) (A) (A) (A) (A) (A) (A) (A) (A)
                 (A) (A) (A) (A) (A) (A) (A) (A) (A) (A) (A) (A)
                 (A) (A) (A) (A) (A) (A) (A) (A) (A) (A) (A) (A)
                 (A) (A) (A) (A) (A) (A) (A) (A) (A) (A) (A) (A)
                 (A) (A) (A) (A) (A) (A) (A) (A) (A) (A) (A) (A)
                 (A) (A) (A) (A) (A) (A) (A) (A) (A) (A) (A) (A)
                 (A) (A) (A) (A) (A) (A) (A) (A) (A) (A) (A) (A)
                 (A) (A) (A) (A) (A) (A) (A) (A) (A) (A) (A) (A)
                 (A) (A) (A) (A) (A) (A) (A) (A) (A) (A) (A) (A)
                 (A) (A) (A) (A) (A) (A) (A) (A) (A) (A) (A) (A)
                 (A) (A) (A) (A) (A) (A) (A) (A) (A) (A) (A) (A)
                 (A) (A) (A) (A) (A) (A) (A) (A) (A) (A) (A)
 The electronic state is 1-A.
 Alpha  occ. eigenvalues --  -19.88377 -15.11361 -10.78786 -10.77418 -10.71244
 Alpha  occ. eigenvalues --  -10.69737  -1.48210  -1.23346  -1.08129  -1.02308
 Alpha  occ. eigenvalues --   -0.94910  -0.90520  -0.87775  -0.80553  -0.77573
 Alpha  occ. eigenvalues --   -0.73786  -0.71385  -0.67982  -0.65406  -0.62631
 Alpha  occ. eigenvalues --   -0.61683  -0.61312  -0.59992  -0.59802  -0.59364
 Alpha virt. eigenvalues --   -0.15298  -0.14002  -0.11445  -0.10860  -0.09907
 Alpha virt. eigenvalues --   -0.09108  -0.08113  -0.07758  -0.07473  -0.06092
 Alpha virt. eigenvalues --   -0.05470  -0.04903  -0.04683  -0.04202  -0.03541
 Alpha virt. eigenvalues --   -0.01798  -0.01296  -0.00560  -0.00330   0.00405
 Alpha virt. eigenvalues --    0.00731   0.01242   0.01596   0.02230   0.02747
 Alpha virt. eigenvalues --    0.03226   0.03890   0.04245   0.05193   0.05519
 Alpha virt. eigenvalues --    0.05999   0.06217   0.07080   0.07900   0.08081
 Alpha virt. eigenvalues --    0.08230   0.09308   0.09466   0.09828   0.11138
 Alpha virt. eigenvalues --    0.11677   0.12096   0.13383   0.13909   0.15432
 Alpha virt. eigenvalues --    0.16028   0.17165   0.19158   0.20783   0.20985
 Alpha virt. eigenvalues --    0.22769   0.24112   0.27389   0.31452   0.31894
 Alpha virt. eigenvalues --    0.33420   0.34372   0.36837   0.37696   0.40013
 Alpha virt. eigenvalues --    0.44375   0.46152   0.46829   0.48234   0.49028
 Alpha virt. eigenvalues --    0.51504   0.53479   0.54568   0.55096   0.55718
 Alpha virt. eigenvalues --    0.55971   0.56140   0.57524   0.58281   0.58454
 Alpha virt. eigenvalues --    0.59781   0.62933   0.64549   0.66374   0.71107
 Alpha virt. eigenvalues --    0.74539   0.77577   0.79492   0.81455   0.86108
 Alpha virt. eigenvalues --    0.88793   0.98821   0.99287   1.03086   1.04755
 Alpha virt. eigenvalues --    1.12436   1.14043   1.15885   1.19615   1.24272
 Alpha virt. eigenvalues --    1.27761   1.29314   1.34290   1.34538   1.35769
 Alpha virt. eigenvalues --    1.38542   1.39435   1.42820   1.43540   1.44420
 Alpha virt. eigenvalues --    1.44732   1.45659   1.48525   1.49763   1.51378
 Alpha virt. eigenvalues --    1.52424   1.58059   1.59790   1.60947   1.62587
 Alpha virt. eigenvalues --    1.64523   1.65325   1.67024   1.71896   1.72696
 Alpha virt. eigenvalues --    1.73388   1.80378   1.82060   1.82969   1.88643
 Alpha virt. eigenvalues --    1.90682   1.92273   1.96628   1.97931   2.00843
 Alpha virt. eigenvalues --    2.04621   2.08847   2.11804   2.13788   2.20684
 Alpha virt. eigenvalues --    2.24800   2.27451   2.28322   2.34181   2.35229
 Alpha virt. eigenvalues --    2.36351   2.38841   2.40641   2.43195   2.44819
 Alpha virt. eigenvalues --    2.45660   2.46174   2.47275   2.47633   2.49528
 Alpha virt. eigenvalues --    2.50347   2.51531   2.53554   2.57872   2.59268
 Alpha virt. eigenvalues --    2.61101   2.69476   2.73426   2.76189   2.79738
 Alpha virt. eigenvalues --    2.84596   2.93408   2.99056   3.00750   3.04421
 Alpha virt. eigenvalues --    3.13866   3.16753   3.25851   3.29625   3.44551
 Alpha virt. eigenvalues --    3.62540   3.67050   3.68911   3.69676   3.70566
 Alpha virt. eigenvalues --    3.77359   3.79574   3.94509   3.98909   4.31695
 Alpha virt. eigenvalues --    4.58477   4.63143   5.00150   5.34345   5.68622
 Alpha virt. eigenvalues --   23.72347  23.74201  23.86841  23.88638  35.31012
 Alpha virt. eigenvalues --   49.82565
          Condensed to atoms (all electrons):
               1          2          3          4          5          6
     1  C    5.544815   0.071427  -0.181664   0.027177   0.026717  -0.075385
     2  C    0.071427   5.780952  -0.132344  -0.009038  -0.102258   0.050167
     3  N   -0.181664  -0.132344   7.842359  -0.236354  -0.113740  -0.217381
     4  O    0.027177  -0.009038  -0.236354   7.901483   0.048531   0.036594
     5  C    0.026717  -0.102258  -0.113740   0.048531   5.791296   0.068150
     6  C   -0.075385   0.050167  -0.217381   0.036594   0.068150   5.554146
     7  H    0.392782  -0.010908   0.004025   0.003089   0.000849   0.001721
     8  H    0.397855  -0.028547  -0.058274   0.031803   0.007353   0.003007
     9  H    0.371911  -0.038058   0.050110  -0.023774   0.005163  -0.003010
    10  H   -0.047197   0.361551   0.112271  -0.065575  -0.020137  -0.008385
    11  H   -0.052130   0.352580  -0.070732   0.039934   0.004079   0.012829
    12  H   -0.006336  -0.002210   0.013307   0.267450  -0.027038   0.001850
    13  H   -0.001498  -0.029082   0.145952  -0.058153   0.354739  -0.070505
    14  H    0.011213   0.012894  -0.086319   0.029210   0.365770  -0.057094
    15  H    0.001446   0.002073  -0.008607   0.007146  -0.004581   0.390123
    16  H   -0.002213  -0.001350   0.064005  -0.027187  -0.052245   0.388784
    17  H    0.003417   0.006459  -0.057444   0.030995   0.004438   0.357217
    18  H    0.000943  -0.045176   0.405695  -0.119890  -0.049016  -0.006909
               7          8          9         10         11         12
     1  C    0.392782   0.397855   0.371911  -0.047197  -0.052130  -0.006336
     2  C   -0.010908  -0.028547  -0.038058   0.361551   0.352580  -0.002210
     3  N    0.004025  -0.058274   0.050110   0.112271  -0.070732   0.013307
     4  O    0.003089   0.031803  -0.023774  -0.065575   0.039934   0.267450
     5  C    0.000849   0.007353   0.005163  -0.020137   0.004079  -0.027038
     6  C    0.001721   0.003007  -0.003010  -0.008385   0.012829   0.001850
     7  H    0.460938  -0.022912  -0.033486  -0.005908  -0.003215  -0.000343
     8  H   -0.022912   0.503478  -0.041858  -0.016735   0.014028  -0.002268
     9  H   -0.033486  -0.041858   0.557408   0.013000  -0.022953   0.000475
    10  H   -0.005908  -0.016735   0.013000   0.465654  -0.032628  -0.000784
    11  H   -0.003215   0.014028  -0.022953  -0.032628   0.544421  -0.002308
    12  H   -0.000343  -0.002268   0.000475  -0.000784  -0.002308   0.430823
    13  H   -0.000565  -0.002745   0.003784   0.017349  -0.007366  -0.012858
    14  H    0.000874   0.002468  -0.004012  -0.003124   0.013599   0.001790
    15  H   -0.000202   0.000285   0.000027  -0.000583   0.000184   0.000262
    16  H    0.000138  -0.001248   0.002323   0.003721  -0.004269   0.001174
    17  H    0.000156   0.000625  -0.000933  -0.001835   0.002717  -0.001206
    18  H   -0.002789  -0.000822  -0.004558  -0.003470  -0.002389   0.017958
              13         14         15         16         17         18
     1  C   -0.001498   0.011213   0.001446  -0.002213   0.003417   0.000943
     2  C   -0.029082   0.012894   0.002073  -0.001350   0.006459  -0.045176
     3  N    0.145952  -0.086319  -0.008607   0.064005  -0.057444   0.405695
     4  O   -0.058153   0.029210   0.007146  -0.027187   0.030995  -0.119890
     5  C    0.354739   0.365770  -0.004581  -0.052245   0.004438  -0.049016
     6  C   -0.070505  -0.057094   0.390123   0.388784   0.357217  -0.006909
     7  H   -0.000565   0.000874  -0.000202   0.000138   0.000156  -0.002789
     8  H   -0.002745   0.002468   0.000285  -0.001248   0.000625  -0.000822
     9  H    0.003784  -0.004012   0.000027   0.002323  -0.000933  -0.004558
    10  H    0.017349  -0.003124  -0.000583   0.003721  -0.001835  -0.003470
    11  H   -0.007366   0.013599   0.000184  -0.004269   0.002717  -0.002389
    12  H   -0.012858   0.001790   0.000262   0.001174  -0.001206   0.017958
    13  H    0.452411  -0.021103  -0.006215   0.013140  -0.026494  -0.003022
    14  H   -0.021103   0.528298  -0.000564  -0.017565   0.019409  -0.009468
    15  H   -0.006215  -0.000564   0.465117  -0.041683  -0.021928  -0.002277
    16  H    0.013140  -0.017565  -0.041683   0.545649  -0.047024  -0.003162
    17  H   -0.026494   0.019409  -0.021928  -0.047024   0.565169  -0.000583
    18  H   -0.003022  -0.009468  -0.002277  -0.003162  -0.000583   0.411420
 Mulliken charges:
               1
     1  C   -0.483281
     2  C   -0.239133
     3  N   -0.474864
     4  O    0.116560
     5  C   -0.308068
     6  C   -0.425921
     7  H    0.215756
     8  H    0.214508
     9  H    0.168440
    10  H    0.232814
    11  H    0.213619
    12  H    0.320262
    13  H    0.252230
    14  H    0.213726
    15  H    0.219978
    16  H    0.179014
    17  H    0.166845
    18  H    0.417515
 Sum of Mulliken charges =   1.00000
 Mulliken charges with hydrogens summed into heavy atoms:
               1
     1  C    0.115423
     2  C    0.207300
     3  N   -0.057349
     4  O    0.436822
     5  C    0.157887
     6  C    0.139916
 Electronic spatial extent (au):  <R**2>=            757.2930
 Charge=              1.0000 electrons
 Dipole moment (field-independent basis, Debye):
    X=             -1.0795    Y=             -1.5399    Z=             -0.4294  Tot=              1.9290
 Quadrupole moment (field-independent basis, Debye-Ang):
   XX=            -22.9083   YY=            -34.7632   ZZ=            -32.2001
   XY=             -1.3116   XZ=              0.9407   YZ=             -2.8216
 Traceless Quadrupole moment (field-independent basis, Debye-Ang):
   XX=              7.0489   YY=             -4.8060   ZZ=             -2.2429
   XY=             -1.3116   XZ=              0.9407   YZ=             -2.8216
 Octapole moment (field-independent basis, Debye-Ang**2):
  XXX=             -1.0007  YYY=              1.8299  ZZZ=              0.0390  XYY=             -3.3989
  XXY=             -4.4059  XXZ=             -1.3001  XZZ=             -1.3430  YZZ=              4.0052
  YYZ=             -3.8996  XYZ=              2.1826
 Hexadecapole moment (field-independent basis, Debye-Ang**3):
 XXXX=           -620.0567 YYYY=           -145.6028 ZZZZ=            -73.3795 XXXY=              1.9353
 XXXZ=             -3.1380 YYYX=             -3.1299 YYYZ=            -12.0349 ZZZX=              1.4557
 ZZZY=             -4.6531 XXYY=           -136.8675 XXZZ=           -132.9040 YYZZ=            -39.4253
 XXYZ=             -1.1425 YYXZ=              3.1939 ZZXY=             -2.6348
 N-N= 2.762169145627D+02 E-N=-1.215722965173D+03  KE= 2.882635219910D+02
 No NMR shielding tensors so no spin-rotation constants.
 Leave Link  601 at Sun Oct 13 21:36:58 2019, MaxMem= 10737418240 cpu:               3.1 elap:               0.2
 (Enter /apps/cent7/gaussian/g16-A.03/g16-haswell/g16/l701.exe)
 ... and contract with generalized density number  0.
 Compute integral first derivatives.
 Leave Link  701 at Sun Oct 13 21:36:59 2019, MaxMem= 10737418240 cpu:               2.8 elap:               0.2
 (Enter /apps/cent7/gaussian/g16-A.03/g16-haswell/g16/l702.exe)
 L702 exits ... SP integral derivatives will be done elsewhere.
 Leave Link  702 at Sun Oct 13 21:36:59 2019, MaxMem= 10737418240 cpu:               0.5 elap:               0.0
 (Enter /apps/cent7/gaussian/g16-A.03/g16-haswell/g16/l703.exe)
 Integral derivatives from FoFJK, PRISM(SPDF).
 Compute integral first derivatives, UseDBF=F ICtDFT=           0.
 Calling FoFJK, ICntrl=      2127 FMM=F ISym2X=0 I1Cent= 0 IOpClX= 0 NMat=1 NMatS=1 NMatT=0.
 FoFJK:  IHMeth= 1 ICntrl=    2127 DoSepK=F KAlg= 0 I1Cent=           0 FoldK=F
 IRaf=         0 NMat=       1 IRICut=       1 DoRegI=T DoRafI=F ISym2E= 0 IDoP0=0 IntGTp=1.
 FoFCou: FMM=F IPFlag=           0 FMFlag=      100000 FMFlg1=         800
         NFxFlg=           0 DoJE=F BraDBF=F KetDBF=F FulRan=T
         wScrn=  0.000000 ICntrl=      2127 IOpCl=  0 I1Cent=           0 NGrid=           0
         NMat0=    1 NMatS0=      1 NMatT0=    0 NMatD0=    1 NMtDS0=    0 NMtDT0=    0
 Symmetry not used in FoFCou.
 Leave Link  703 at Sun Oct 13 21:37:00 2019, MaxMem= 10737418240 cpu:              34.2 elap:               1.5
 (Enter /apps/cent7/gaussian/g16-A.03/g16-haswell/g16/l716.exe)
 Dipole        =-4.24703320D-01-6.05827923D-01-1.68939449D-01
 ***** Axes restored to original set *****
 -------------------------------------------------------------------
 Center     Atomic                   Forces (Hartrees/Bohr)
 Number     Number              X              Y              Z
 -------------------------------------------------------------------
      1        6          -0.003243158    0.018812569    0.003505090
      2        6           0.006962052   -0.021565592   -0.020148408
      3        7          -0.020423309   -0.006432258    0.023496796
      4        8           0.001208605    0.005534502   -0.034306917
      5        6           0.012446033    0.025935970    0.005696738
      6        6          -0.002999398   -0.012800829   -0.012383474
      7        1           0.000157819    0.001574786    0.001565076
      8        1           0.001636912   -0.002219727   -0.001680363
      9        1           0.001900090   -0.003310823   -0.002698097
     10        1           0.003707950   -0.001248743    0.015860087
     11        1          -0.011122653   -0.000922934    0.010159153
     12        1          -0.005197932    0.002286804    0.005757863
     13        1           0.003719383   -0.014247793    0.012669138
     14        1          -0.012132190   -0.008536345    0.006333248
     15        1          -0.000831047   -0.001437293   -0.000937029
     16        1           0.001659155    0.004613540    0.001089423
     17        1           0.002882674    0.005045450    0.000581732
     18        1           0.019669011    0.008918715   -0.014560056
 -------------------------------------------------------------------
 Cartesian Forces:  Max     0.034306917 RMS     0.011120754
 Leave Link  716 at Sun Oct 13 21:37:00 2019, MaxMem= 10737418240 cpu:               1.3 elap:               0.1
 (Enter /apps/cent7/gaussian/g16-A.03/g16-haswell/g16/l103.exe)

 GradGradGradGradGradGradGradGradGradGradGradGradGradGradGradGradGradGrad
 Berny optimization.
 FormGI is forming the generalized inverse of G from B-inverse, IUseBI=4.
 Internal  Forces:  Max     0.025042108 RMS     0.006506883
 Search for a local minimum.
 Step number   1 out of a maximum of   97
 All quantities printed in internal units (Hartrees-Bohrs-Radians)
 RMS Force = .65069D-02 SwitMx=.10000D-02 MixMth= 1
 Mixed Optimization -- RFO/linear search
 Second derivative matrix not updated -- first step.
 ITU=  0
     Eigenvalues ---    0.00230   0.00230   0.00481   0.00508   0.01765
     Eigenvalues ---    0.03979   0.04000   0.04362   0.04928   0.05189
     Eigenvalues ---    0.05199   0.05715   0.05715   0.05715   0.05716
     Eigenvalues ---    0.07513   0.07962   0.07970   0.11909   0.11919
     Eigenvalues ---    0.16000   0.16000   0.16000   0.16000   0.16000
     Eigenvalues ---    0.16000   0.16000   0.16991   0.20003   0.22524
     Eigenvalues ---    0.22526   0.28120   0.28208   0.33283   0.33505
     Eigenvalues ---    0.34806   0.34812   0.34813   0.34813   0.34814
     Eigenvalues ---    0.34814   0.34816   0.34816   0.34819   0.34825
     Eigenvalues ---    0.47688   0.52055   0.55467
 RFO step:  Lambda=-1.92650419D-02 EMin= 2.30000000D-03
 Linear search not attempted -- first point.
 Iteration  1 RMS(Cart)=  0.05521160 RMS(Int)=  0.00181910
 Iteration  2 RMS(Cart)=  0.00243321 RMS(Int)=  0.00059910
 Iteration  3 RMS(Cart)=  0.00000451 RMS(Int)=  0.00059910
 Iteration  4 RMS(Cart)=  0.00000001 RMS(Int)=  0.00059910
 ITry= 1 IFail=0 DXMaxC= 1.95D-01 DCOld= 1.00D+10 DXMaxT= 3.00D-01 DXLimC= 3.00D+00 Rises=F
 Variable       Old X    -DE/DX   Delta X   Delta X   Delta X     New X
                                 (Linear)    (Quad)   (Total)
    R1        2.91878  -0.00786   0.00000  -0.02616  -0.02616   2.89262
    R2        2.05970  -0.00129   0.00000  -0.00350  -0.00350   2.05620
    R3        2.05960  -0.00038   0.00000  -0.00103  -0.00103   2.05857
    R4        2.05979   0.00172   0.00000   0.00469   0.00469   2.06447
    R5        2.81474   0.00941   0.00000   0.02656   0.02656   2.84131
    R6        2.05981  -0.00083   0.00000  -0.00225  -0.00225   2.05755
    R7        2.05991  -0.00021   0.00000  -0.00056  -0.00056   2.05935
    R8        2.57846   0.02504   0.00000   0.04639   0.04639   2.62485
    R9        2.81857   0.00980   0.00000   0.02783   0.02783   2.84640
   R10        1.88973   0.02453   0.00000   0.04943   0.04943   1.93916
   R11        1.81419   0.00763   0.00000   0.01330   0.01330   1.82749
   R12        2.91686  -0.00361   0.00000  -0.01198  -0.01198   2.90488
   R13        2.05980   0.00026   0.00000   0.00070   0.00070   2.06049
   R14        2.05979  -0.00100   0.00000  -0.00272  -0.00272   2.05706
   R15        2.05978  -0.00148   0.00000  -0.00402  -0.00402   2.05576
   R16        2.05975   0.00159   0.00000   0.00433   0.00433   2.06408
   R17        2.05974  -0.00022   0.00000  -0.00061  -0.00061   2.05913
    A1        1.91058  -0.00474   0.00000  -0.03224  -0.03194   1.87864
    A2        1.91065   0.00465   0.00000   0.02978   0.02935   1.94000
    A3        1.91056   0.00573   0.00000   0.03393   0.03351   1.94407
    A4        1.91070  -0.00061   0.00000  -0.00737  -0.00709   1.90360
    A5        1.91063  -0.00177   0.00000  -0.01752  -0.01721   1.89341
    A6        1.91068  -0.00326   0.00000  -0.00658  -0.00760   1.90307
    A7        1.97373  -0.01791   0.00000  -0.05717  -0.05599   1.91773
    A8        1.86191   0.00963   0.00000   0.06792   0.06772   1.92963
    A9        1.86199   0.00897   0.00000   0.06447   0.06437   1.92635
   A10        1.83803   0.00327   0.00000   0.00579   0.00695   1.84498
   A11        1.83798   0.00420   0.00000   0.01391   0.01500   1.85298
   A12        2.09440  -0.01076   0.00000  -0.10481  -0.10626   1.98814
   A13        1.91049  -0.00001   0.00000   0.01519   0.01364   1.92413
   A14        1.96734  -0.00499   0.00000  -0.00043  -0.00179   1.96554
   A15        1.88851   0.00301   0.00000   0.00513   0.00503   1.89354
   A16        1.91795   0.00929   0.00000   0.06566   0.06525   1.98320
   A17        1.88927  -0.00748   0.00000  -0.08445  -0.08387   1.80540
   A18        1.88840  -0.00014   0.00000  -0.00671  -0.00581   1.88259
   A19        1.91062  -0.00481   0.00000  -0.02684  -0.02684   1.88378
   A20        1.97562  -0.01605   0.00000  -0.04619  -0.04527   1.93035
   A21        1.83827   0.00255   0.00000   0.00487   0.00565   1.84392
   A22        1.83831   0.00401   0.00000   0.01321   0.01391   1.85221
   A23        1.86089   0.01034   0.00000   0.07811   0.07801   1.93890
   A24        1.86089   0.00842   0.00000   0.06210   0.06201   1.92289
   A25        2.09435  -0.01164   0.00000  -0.12083  -0.12223   1.97212
   A26        1.91064  -0.00446   0.00000  -0.03083  -0.03041   1.88023
   A27        1.91066   0.00573   0.00000   0.03390   0.03318   1.94383
   A28        1.91060   0.00825   0.00000   0.05005   0.04942   1.96002
   A29        1.91063  -0.00199   0.00000  -0.01920  -0.01888   1.89175
   A30        1.91069  -0.00254   0.00000  -0.01798  -0.01751   1.89318
   A31        1.91058  -0.00500   0.00000  -0.01593  -0.01749   1.89309
    D1        3.06798   0.00018   0.00000   0.00826   0.00829   3.07627
    D2       -1.20282   0.00050   0.00000   0.02645   0.02577  -1.17705
    D3        1.05560  -0.00085   0.00000  -0.01764  -0.01702   1.03858
    D4       -1.12075  -0.00062   0.00000  -0.00227  -0.00257  -1.12332
    D5        0.89164  -0.00031   0.00000   0.01592   0.01490   0.90654
    D6       -3.13313  -0.00166   0.00000  -0.02817  -0.02789   3.12217
    D7        0.97367   0.00174   0.00000   0.02869   0.02908   1.00275
    D8        2.98605   0.00206   0.00000   0.04688   0.04656   3.03261
    D9       -1.03871   0.00071   0.00000   0.00278   0.00377  -1.03494
   D10        1.09258  -0.00544   0.00000  -0.07307  -0.07294   1.01964
   D11       -3.05036   0.00305   0.00000   0.02192   0.02182  -3.02853
   D12       -0.96276   0.00180   0.00000   0.01672   0.01683  -0.94593
   D13       -0.93403  -0.00980   0.00000  -0.12888  -0.12878  -1.06281
   D14        1.20622  -0.00132   0.00000  -0.03390  -0.03401   1.17221
   D15       -2.98937  -0.00256   0.00000  -0.03910  -0.03901  -3.02838
   D16        3.11925  -0.00130   0.00000  -0.01646  -0.01645   3.10279
   D17       -1.02369   0.00718   0.00000   0.07853   0.07831  -0.94538
   D18        1.06391   0.00594   0.00000   0.07333   0.07332   1.13723
   D19        1.77784  -0.00000   0.00000   0.02330   0.02374   1.80158
   D20       -0.39156   0.00003   0.00000  -0.03077  -0.03216  -0.42371
   D21       -2.45048  -0.00068   0.00000  -0.01043  -0.00948  -2.45997
   D22        3.04996  -0.00095   0.00000  -0.00903  -0.00940   3.04057
   D23       -1.20672   0.00479   0.00000   0.06418   0.06373  -1.14299
   D24        1.02344  -0.00526   0.00000  -0.06806  -0.06827   0.95518
   D25       -1.09716   0.00231   0.00000   0.05785   0.05816  -1.03900
   D26        0.92934   0.00805   0.00000   0.13106   0.13129   1.06063
   D27       -3.12368  -0.00200   0.00000  -0.00118  -0.00071  -3.12439
   D28        0.96230  -0.00153   0.00000  -0.01068  -0.01069   0.95161
   D29        2.98881   0.00421   0.00000   0.06253   0.06243   3.05124
   D30       -1.06421  -0.00584   0.00000  -0.06971  -0.06956  -1.13378
   D31       -2.87973  -0.00041   0.00000  -0.01976  -0.01984  -2.89956
   D32       -0.78531  -0.00206   0.00000  -0.04139  -0.04191  -0.82723
   D33        1.30901   0.00037   0.00000  -0.00951  -0.00902   1.30000
   D34        1.39040  -0.00130   0.00000  -0.04910  -0.04863   1.34176
   D35       -2.79838  -0.00296   0.00000  -0.07074  -0.07071  -2.86908
   D36       -0.70405  -0.00052   0.00000  -0.03885  -0.03781  -0.74186
   D37       -0.86662   0.00107   0.00000   0.00984   0.00931  -0.85731
   D38        1.22779  -0.00059   0.00000  -0.01180  -0.01276   1.21503
   D39       -2.96107   0.00185   0.00000   0.02009   0.02014  -2.94094
         Item               Value     Threshold  Converged?
 Maximum Force            0.025042     0.000450     NO 
 RMS     Force            0.006507     0.000300     NO 
 Maximum Displacement     0.194693     0.001800     NO 
 RMS     Displacement     0.054463     0.001200     NO 
 Predicted change in Energy=-1.129676D-02
 Lowest energy point so far.  Saving SCF results.
 GradGradGradGradGradGradGradGradGradGradGradGradGradGradGradGradGradGrad

 Leave Link  103 at Sun Oct 13 21:37:00 2019, MaxMem= 10737418240 cpu:               1.0 elap:               0.1
 (Enter /apps/cent7/gaussian/g16-A.03/g16-haswell/g16/l202.exe)
                          Input orientation:                          
 ---------------------------------------------------------------------
 Center     Atomic      Atomic             Coordinates (Angstroms)
 Number     Number       Type             X           Y           Z
 ---------------------------------------------------------------------
      1          6           0        2.363641   -2.836242   -2.381833
      2          6           0        1.989228   -2.150030   -1.065779
      3          7           0        2.114930   -0.658975   -1.212858
      4          8           0        1.294904   -0.206353   -2.238552
      5          6           0        1.911799    0.070698    0.089103
      6          6           0        2.191149    1.572446   -0.083210
      7          1           0        2.325311   -3.910918   -2.215855
      8          1           0        1.664641   -2.573472   -3.174949
      9          1           0        3.375555   -2.570171   -2.696051
     10          1           0        0.944386   -2.335150   -0.821770
     11          1           0        2.684518   -2.436853   -0.277182
     12          1           0        0.515027    0.201904   -1.838131
     13          1           0        0.872051   -0.105743    0.366027
     14          1           0        2.619035   -0.364358    0.793012
     15          1           0        2.276143    2.009610    0.909316
     16          1           0        3.128556    1.744311   -0.616855
     17          1           0        1.390885    2.083195   -0.618036
     18          1           0        3.059824   -0.443718   -1.550263
 ---------------------------------------------------------------------
                    Distance matrix (angstroms):
                    1          2          3          4          5
     1  C    0.000000
     2  C    1.530709   0.000000
     3  N    2.483717   1.503554   0.000000
     4  O    2.842366   2.373892   1.389013   0.000000
     5  C    3.841873   2.504272   1.506250   2.423901   0.000000
     6  C    4.974932   3.855261   2.502230   2.934772   1.537196
     7  H    1.088093   2.129872   3.409603   3.845264   4.619209
     8  H    1.089350   2.175606   2.778103   2.572313   4.207940
     9  H    1.092473   2.180873   2.727949   3.182145   4.107779
    10  H    2.167758   1.088809   2.081510   2.581068   2.748397
    11  H    2.166108   1.089761   2.088245   3.279196   2.649353
    12  H    3.597682   2.881213   1.921398   0.967068   2.383783
    13  H    4.151048   2.734458   2.084153   2.640599   1.090365
    14  H    4.031758   2.653372   2.089123   3.311898   1.088552
    15  H    5.858464   4.613667   3.413351   3.972707   2.136557
    16  H    4.968068   4.082338   2.675526   3.130059   2.186287
    17  H    5.315834   4.298683   2.897853   2.806656   2.195800
    18  H    2.626852   2.071811   1.026159   1.909195   2.066423
                    6          7          8          9         10
     6  C    0.000000
     7  H    5.885020   0.000000
     8  H    5.198529   1.773446   0.000000
     9  H    5.038951   1.769521   1.776678   0.000000
    10  H    4.167637   2.516639   2.472452   3.078758   0.000000
    11  H    4.044195   2.461778   3.075039   2.519173   1.826192
    12  H    2.787027   4.509447   3.288070   4.074684   2.766584
    13  H    2.181319   4.822597   4.388211   4.660178   2.527123
    14  H    2.168423   4.660219   4.640665   4.196604   3.048933
    15  H    1.087862   6.694906   6.169263   5.931423   4.862837
    16  H    1.092266   5.931578   5.227824   4.795708   4.631910
    17  H    1.089645   6.273401   5.319520   5.469083   4.445519
    18  H    2.640409   3.606106   3.020264   2.436045   2.929726
                   11         12         13         14         15
    11  H    0.000000
    12  H    3.755834   0.000000
    13  H    3.022057   2.253980   0.000000
    14  H    2.333418   3.416199   1.816908   0.000000
    15  H    4.620128   3.730657   2.596412   2.401422   0.000000
    16  H    4.218373   3.271249   3.079053   2.587241   1.768104
    17  H    4.713862   2.407284   2.455406   3.080572   1.766890
    18  H    2.394614   2.641153   2.927925   2.385693   3.561251
                   16         17         18
    16  H    0.000000
    17  H    1.770407   0.000000
    18  H    2.379799   3.168547   0.000000
 Stoichiometry    C4H12NO(1+)
 Framework group  C1[X(C4H12NO)]
 Deg. of freedom    48
 Full point group                 C1      NOp   1
 RotChk:  IX=0 Diff= 9.50D-02
 Largest Abelian subgroup         C1      NOp   1
 Largest concise Abelian subgroup C1      NOp   1
                         Standard orientation:                         
 ---------------------------------------------------------------------
 Center     Atomic      Atomic             Coordinates (Angstroms)
 Number     Number       Type             X           Y           Z
 ---------------------------------------------------------------------
      1          6           0        2.486825   -0.012620    0.311720
      2          6           0        1.257939   -0.690722   -0.299089
      3          7           0        0.008272    0.012201    0.153580
      4          8           0        0.049098    1.350625   -0.215622
      5          6           0       -1.246283   -0.696941   -0.284594
      6          6           0       -2.488087   -0.023205    0.321194
      7          1           0        3.361830   -0.587955    0.016250
      8          1           0        2.593315    1.008891   -0.051405
      9          1           0        2.433354    0.000783    1.402801
     10          1           0        1.270761   -0.599835   -1.384023
     11          1           0        1.174722   -1.717215    0.057232
     12          1           0       -0.526453    1.465163   -0.984285
     13          1           0       -1.256137   -0.631720   -1.372962
     14          1           0       -1.158590   -1.719088    0.079370
     15          1           0       -3.329953   -0.699165    0.187838
     16          1           0       -2.359676    0.160512    1.390214
     17          1           0       -2.724278    0.922601   -0.165623
     18          1           0        0.008050    0.047550    1.179130
 ---------------------------------------------------------------------
 Rotational constants (GHZ):           7.4268560           1.9699430           1.7241353
 Leave Link  202 at Sun Oct 13 21:37:00 2019, MaxMem= 10737418240 cpu:               1.5 elap:               0.1
 (Enter /apps/cent7/gaussian/g16-A.03/g16-haswell/g16/l301.exe)
 Standard basis: 6-311++G(d,p) (5D, 7F)
 Ernie: Thresh=  0.10000D-02 Tol=  0.10000D-05 Strict=F.
 There are   222 symmetry adapted cartesian basis functions of A   symmetry.
 There are   216 symmetry adapted basis functions of A   symmetry.
   216 basis functions,   324 primitive gaussians,   222 cartesian basis functions
    25 alpha electrons       25 beta electrons
       nuclear repulsion energy       275.2307373285 Hartrees.
 IExCor= 4336 DFT=T Ex+Corr=M062X ExCW=0 ScaHFX=  0.540000
 ScaDFX=  1.000000  1.000000  1.000000  1.000000 ScalE2=  1.000000  1.000000
 IRadAn=      5 IRanWt=     -1 IRanGd=            0 ICorTp=0 IEmpDi=  4
 NAtoms=   18 NActive=   18 NUniq=   18 SFac= 1.00D+00 NAtFMM=   60 NAOKFM=F Big=F
 Integral buffers will be    131072 words long.
 Raffenetti 2 integral format.
 Two-electron integral symmetry is turned on.
 Leave Link  301 at Sun Oct 13 21:37:00 2019, MaxMem= 10737418240 cpu:               1.2 elap:               0.1
 (Enter /apps/cent7/gaussian/g16-A.03/g16-haswell/g16/l302.exe)
 NPDir=0 NMtPBC=     1 NCelOv=     1 NCel=       1 NClECP=     1 NCelD=      1
         NCelK=      1 NCelE2=     1 NClLst=     1 CellRange=     0.0.
 One-electron integrals computed using PRISM.
 One-electron integral symmetry used in STVInt
 NBasis=   216 RedAO= T EigKep=  3.35D-05  NBF=   216
 NBsUse=   216 1.00D-06 EigRej= -1.00D+00 NBFU=   216
 Precomputing XC quadrature grid using
 IXCGrd= 4 IRadAn=           5 IRanWt=          -1 IRanGd=           0 AccXCQ= 0.00D+00.
 Generated NRdTot=       0 NPtTot=           0 NUsed=           0 NTot=          32
 NSgBfM=   222   222   222   222   222 MxSgAt=    18 MxSgA2=    18.
 Leave Link  302 at Sun Oct 13 21:37:01 2019, MaxMem= 10737418240 cpu:               3.6 elap:               0.2
 (Enter /apps/cent7/gaussian/g16-A.03/g16-haswell/g16/l303.exe)
 DipDrv:  MaxL=1.
 Leave Link  303 at Sun Oct 13 21:37:01 2019, MaxMem= 10737418240 cpu:               1.4 elap:               0.1
 (Enter /apps/cent7/gaussian/g16-A.03/g16-haswell/g16/l401.exe)
 Initial guess from the checkpoint file:  "1_p.chk"
 B after Tr=    -0.000000    0.000000   -0.000000
         Rot=    0.999552    0.029740    0.001102    0.003169 Ang=   3.43 deg.
 Guess basis will be translated and rotated to current coordinates.
 JPrj=2 DoOrth=T DoCkMO=T.
 Generating alternative initial guess.
 ExpMin= 3.60D-02 ExpMax= 8.59D+03 ExpMxC= 1.30D+03 IAcc=3 IRadAn=         5 AccDes= 0.00D+00
 Harris functional with IExCor= 1009 and IRadAn=       5 diagonalized for initial guess.
 HarFok:  IExCor= 1009 AccDes= 0.00D+00 IRadAn=         5 IDoV= 1 UseB2=F ITyADJ=14
 ICtDFT=  3500011 ScaDFX=  1.000000  1.000000  1.000000  1.000000
 FoFCou: FMM=F IPFlag=           0 FMFlag=      100000 FMFlg1=           0
         NFxFlg=           0 DoJE=T BraDBF=F KetDBF=T FulRan=T
         wScrn=  0.000000 ICntrl=       500 IOpCl=  0 I1Cent=   200000004 NGrid=           0
         NMat0=    1 NMatS0=      1 NMatT0=    0 NMatD0=    1 NMtDS0=    0 NMtDT0=    0
 Petite list used in FoFCou.
 Harris En= -289.230740519298    
 Leave Link  401 at Sun Oct 13 21:37:01 2019, MaxMem= 10737418240 cpu:              11.7 elap:               0.5
 (Enter /apps/cent7/gaussian/g16-A.03/g16-haswell/g16/l502.exe)
 Integral symmetry usage will be decided dynamically.
 Closed shell SCF:
 Using DIIS extrapolation, IDIIS=  1040.
 NGot= 10737418240 LenX= 10737311970 LenY= 10737262245
 Requested convergence on RMS density matrix=1.00D-08 within 128 cycles.
 Requested convergence on MAX density matrix=1.00D-06.
 Requested convergence on             energy=1.00D-06.
 No special actions if energy rises.
 Fock matrices will be formed incrementally for  20 cycles.

 Cycle   1  Pass 1  IDiag  1:
 FoFJK:  IHMeth= 1 ICntrl=       0 DoSepK=F KAlg= 0 I1Cent=           0 FoldK=F
 IRaf= 980000000 NMat=       1 IRICut=       1 DoRegI=T DoRafI=F ISym2E= 0 IDoP0=0 IntGTp=1.
 FoFCou: FMM=F IPFlag=           0 FMFlag=      100000 FMFlg1=           0
         NFxFlg=           0 DoJE=F BraDBF=F KetDBF=F FulRan=T
         wScrn=  0.000000 ICntrl=         0 IOpCl=  0 I1Cent=           0 NGrid=           0
         NMat0=    1 NMatS0=      1 NMatT0=    0 NMatD0=    1 NMtDS0=    0 NMtDT0=    0
 Symmetry not used in FoFCou.
 E= -289.265081898336    
 DIIS: error= 2.52D-03 at cycle   1 NSaved=   1.
 NSaved= 1 IEnMin= 1 EnMin= -289.265081898336     IErMin= 1 ErrMin= 2.52D-03
 ErrMax= 2.52D-03  0.00D+00 EMaxC= 1.00D-01 BMatC= 3.52D-03 BMatP= 3.52D-03
 IDIUse=3 WtCom= 9.75D-01 WtEn= 2.52D-02
 Coeff-Com:  0.100D+01
 Coeff-En:   0.100D+01
 Coeff:      0.100D+01
 Gap=     0.572 Goal=   None    Shift=    0.000
 GapD=    0.572 DampG=2.000 DampE=1.000 DampFc=2.0000 IDamp=-1.
 RMSDP=1.21D-03 MaxDP=3.24D-02              OVMax= 1.47D-02

 Cycle   2  Pass 1  IDiag  1:
 RMSU=  1.21D-03    CP:  9.92D-01
 E= -289.269743692247     Delta-E=       -0.004661793910 Rises=F Damp=F
 DIIS: error= 1.20D-03 at cycle   2 NSaved=   2.
 NSaved= 2 IEnMin= 2 EnMin= -289.269743692247     IErMin= 2 ErrMin= 1.20D-03
 ErrMax= 1.20D-03  0.00D+00 EMaxC= 1.00D-01 BMatC= 2.84D-04 BMatP= 3.52D-03
 IDIUse=3 WtCom= 9.88D-01 WtEn= 1.20D-02
 Coeff-Com:  0.322D-01 0.968D+00
 Coeff-En:   0.000D+00 0.100D+01
 Coeff:      0.319D-01 0.968D+00
 Gap=     0.442 Goal=   None    Shift=    0.000
 RMSDP=1.85D-04 MaxDP=6.13D-03 DE=-4.66D-03 OVMax= 5.91D-03

 Cycle   3  Pass 1  IDiag  1:
 RMSU=  1.63D-04    CP:  9.92D-01  1.07D+00
 E= -289.269895559687     Delta-E=       -0.000151867440 Rises=F Damp=F
 DIIS: error= 1.27D-03 at cycle   3 NSaved=   3.
 NSaved= 3 IEnMin= 3 EnMin= -289.269895559687     IErMin= 2 ErrMin= 1.20D-03
 ErrMax= 1.27D-03  0.00D+00 EMaxC= 1.00D-01 BMatC= 2.43D-04 BMatP= 2.84D-04
 IDIUse=3 WtCom= 9.87D-01 WtEn= 1.27D-02
 Coeff-Com: -0.659D-01 0.500D+00 0.565D+00
 Coeff-En:   0.000D+00 0.264D+00 0.736D+00
 Coeff:     -0.651D-01 0.497D+00 0.568D+00
 Gap=     0.441 Goal=   None    Shift=    0.000
 RMSDP=8.94D-05 MaxDP=8.92D-03 DE=-1.52D-04 OVMax= 2.78D-03

 Cycle   4  Pass 1  IDiag  1:
 RMSU=  7.49D-05    CP:  9.89D-01  1.08D+00  8.45D-01
 E= -289.270082099041     Delta-E=       -0.000186539355 Rises=F Damp=F
 DIIS: error= 1.63D-04 at cycle   4 NSaved=   4.
 NSaved= 4 IEnMin= 4 EnMin= -289.270082099041     IErMin= 4 ErrMin= 1.63D-04
 ErrMax= 1.63D-04  0.00D+00 EMaxC= 1.00D-01 BMatC= 3.63D-06 BMatP= 2.43D-04
 IDIUse=3 WtCom= 9.98D-01 WtEn= 1.63D-03
 Coeff-Com: -0.140D-01 0.446D-01 0.117D+00 0.852D+00
 Coeff-En:   0.000D+00 0.000D+00 0.000D+00 0.100D+01
 Coeff:     -0.140D-01 0.445D-01 0.117D+00 0.853D+00
 Gap=     0.441 Goal=   None    Shift=    0.000
 RMSDP=1.78D-05 MaxDP=1.07D-03 DE=-1.87D-04 OVMax= 8.95D-04

 Cycle   5  Pass 1  IDiag  1:
 RMSU=  1.68D-05    CP:  9.89D-01  1.09D+00  8.54D-01  1.05D+00
 E= -289.270085728925     Delta-E=       -0.000003629883 Rises=F Damp=F
 DIIS: error= 8.42D-05 at cycle   5 NSaved=   5.
 NSaved= 5 IEnMin= 5 EnMin= -289.270085728925     IErMin= 5 ErrMin= 8.42D-05
 ErrMax= 8.42D-05  0.00D+00 EMaxC= 1.00D-01 BMatC= 1.24D-06 BMatP= 3.63D-06
 IDIUse=1 WtCom= 1.00D+00 WtEn= 0.00D+00
 Coeff-Com:  0.913D-03-0.363D-01-0.124D-01 0.398D+00 0.650D+00
 Coeff:      0.913D-03-0.363D-01-0.124D-01 0.398D+00 0.650D+00
 Gap=     0.441 Goal=   None    Shift=    0.000
 RMSDP=7.69D-06 MaxDP=2.95D-04 DE=-3.63D-06 OVMax= 2.22D-04

 Cycle   6  Pass 1  IDiag  1:
 RMSU=  5.06D-06    CP:  9.89D-01  1.09D+00  8.79D-01  1.10D+00  9.06D-01
 E= -289.270086659830     Delta-E=       -0.000000930905 Rises=F Damp=F
 DIIS: error= 2.44D-05 at cycle   6 NSaved=   6.
 NSaved= 6 IEnMin= 6 EnMin= -289.270086659830     IErMin= 6 ErrMin= 2.44D-05
 ErrMax= 2.44D-05  0.00D+00 EMaxC= 1.00D-01 BMatC= 8.99D-08 BMatP= 1.24D-06
 IDIUse=1 WtCom= 1.00D+00 WtEn= 0.00D+00
 Coeff-Com:  0.190D-02-0.219D-01-0.201D-01 0.844D-01 0.266D+00 0.690D+00
 Coeff:      0.190D-02-0.219D-01-0.201D-01 0.844D-01 0.266D+00 0.690D+00
 Gap=     0.441 Goal=   None    Shift=    0.000
 RMSDP=2.67D-06 MaxDP=6.86D-05 DE=-9.31D-07 OVMax= 9.78D-05

 Cycle   7  Pass 1  IDiag  1:
 RMSU=  2.07D-06    CP:  9.89D-01  1.09D+00  8.85D-01  1.10D+00  9.01D-01
                    CP:  8.65D-01
 E= -289.270086738750     Delta-E=       -0.000000078920 Rises=F Damp=F
 DIIS: error= 3.06D-06 at cycle   7 NSaved=   7.
 NSaved= 7 IEnMin= 7 EnMin= -289.270086738750     IErMin= 7 ErrMin= 3.06D-06
 ErrMax= 3.06D-06  0.00D+00 EMaxC= 1.00D-01 BMatC= 2.73D-09 BMatP= 8.99D-08
 IDIUse=1 WtCom= 1.00D+00 WtEn= 0.00D+00
 Coeff-Com:  0.250D-03-0.456D-03-0.190D-02-0.163D-01-0.214D-01 0.766D-01
 Coeff-Com:  0.963D+00
 Coeff:      0.250D-03-0.456D-03-0.190D-02-0.163D-01-0.214D-01 0.766D-01
 Coeff:      0.963D+00
 Gap=     0.441 Goal=   None    Shift=    0.000
 RMSDP=6.49D-07 MaxDP=1.32D-05 DE=-7.89D-08 OVMax= 2.88D-05

 Cycle   8  Pass 1  IDiag  1:
 RMSU=  4.08D-07    CP:  9.89D-01  1.09D+00  8.85D-01  1.10D+00  9.18D-01
                    CP:  9.28D-01  1.11D+00
 E= -289.270086743224     Delta-E=       -0.000000004474 Rises=F Damp=F
 DIIS: error= 1.39D-06 at cycle   8 NSaved=   8.
 NSaved= 8 IEnMin= 8 EnMin= -289.270086743224     IErMin= 8 ErrMin= 1.39D-06
 ErrMax= 1.39D-06  0.00D+00 EMaxC= 1.00D-01 BMatC= 3.99D-10 BMatP= 2.73D-09
 IDIUse=1 WtCom= 1.00D+00 WtEn= 0.00D+00
 Coeff-Com: -0.809D-04 0.158D-02 0.111D-02-0.990D-02-0.278D-01-0.340D-01
 Coeff-Com:  0.265D+00 0.804D+00
 Coeff:     -0.809D-04 0.158D-02 0.111D-02-0.990D-02-0.278D-01-0.340D-01
 Coeff:      0.265D+00 0.804D+00
 Gap=     0.441 Goal=   None    Shift=    0.000
 RMSDP=2.31D-07 MaxDP=1.55D-05 DE=-4.47D-09 OVMax= 6.82D-06

 Cycle   9  Pass 1  IDiag  1:
 RMSU=  1.24D-07    CP:  9.89D-01  1.09D+00  8.85D-01  1.10D+00  9.15D-01
                    CP:  9.33D-01  1.19D+00  1.02D+00
 E= -289.270086743736     Delta-E=       -0.000000000512 Rises=F Damp=F
 DIIS: error= 5.21D-07 at cycle   9 NSaved=   9.
 NSaved= 9 IEnMin= 9 EnMin= -289.270086743736     IErMin= 9 ErrMin= 5.21D-07
 ErrMax= 5.21D-07  0.00D+00 EMaxC= 1.00D-01 BMatC= 4.18D-11 BMatP= 3.99D-10
 IDIUse=1 WtCom= 1.00D+00 WtEn= 0.00D+00
 Coeff-Com: -0.440D-04 0.521D-03 0.489D-03-0.175D-02-0.706D-02-0.160D-01
 Coeff-Com: -0.169D-02 0.251D+00 0.774D+00
 Coeff:     -0.440D-04 0.521D-03 0.489D-03-0.175D-02-0.706D-02-0.160D-01
 Coeff:     -0.169D-02 0.251D+00 0.774D+00
 Gap=     0.441 Goal=   None    Shift=    0.000
 RMSDP=5.70D-08 MaxDP=2.97D-06 DE=-5.12D-10 OVMax= 2.04D-06

 Cycle  10  Pass 1  IDiag  1:
 RMSU=  3.88D-08    CP:  9.89D-01  1.09D+00  8.85D-01  1.10D+00  9.15D-01
                    CP:  9.34D-01  1.21D+00  1.08D+00  1.04D+00
 E= -289.270086743791     Delta-E=       -0.000000000056 Rises=F Damp=F
 DIIS: error= 1.12D-07 at cycle  10 NSaved=  10.
 NSaved=10 IEnMin=10 EnMin= -289.270086743791     IErMin=10 ErrMin= 1.12D-07
 ErrMax= 1.12D-07  0.00D+00 EMaxC= 1.00D-01 BMatC= 2.54D-12 BMatP= 4.18D-11
 IDIUse=1 WtCom= 1.00D+00 WtEn= 0.00D+00
 Coeff-Com:  0.106D-05-0.761D-04-0.308D-04 0.676D-03 0.171D-02 0.943D-03
 Coeff-Com: -0.309D-01-0.396D-01 0.150D+00 0.917D+00
 Coeff:      0.106D-05-0.761D-04-0.308D-04 0.676D-03 0.171D-02 0.943D-03
 Coeff:     -0.309D-01-0.396D-01 0.150D+00 0.917D+00
 Gap=     0.441 Goal=   None    Shift=    0.000
 RMSDP=1.97D-08 MaxDP=4.76D-07 DE=-5.59D-11 OVMax= 8.42D-07

 Cycle  11  Pass 1  IDiag  1:
 RMSU=  1.14D-08    CP:  9.89D-01  1.09D+00  8.85D-01  1.10D+00  9.15D-01
                    CP:  9.34D-01  1.21D+00  1.10D+00  1.14D+00  1.02D+00
 E= -289.270086743796     Delta-E=       -0.000000000005 Rises=F Damp=F
 DIIS: error= 2.36D-08 at cycle  11 NSaved=  11.
 NSaved=11 IEnMin=11 EnMin= -289.270086743796     IErMin=11 ErrMin= 2.36D-08
 ErrMax= 2.36D-08  0.00D+00 EMaxC= 1.00D-01 BMatC= 1.81D-13 BMatP= 2.54D-12
 IDIUse=1 WtCom= 1.00D+00 WtEn= 0.00D+00
 Coeff-Com:  0.269D-05-0.476D-04-0.336D-04 0.249D-03 0.827D-03 0.109D-02
 Coeff-Com: -0.697D-02-0.232D-01-0.907D-02 0.201D+00 0.836D+00
 Coeff:      0.269D-05-0.476D-04-0.336D-04 0.249D-03 0.827D-03 0.109D-02
 Coeff:     -0.697D-02-0.232D-01-0.907D-02 0.201D+00 0.836D+00
 Gap=     0.441 Goal=   None    Shift=    0.000
 RMSDP=3.95D-09 MaxDP=1.69D-07 DE=-4.77D-12 OVMax= 1.76D-07

 SCF Done:  E(RM062X) =  -289.270086744     A.U. after   11 cycles
            NFock= 11  Conv=0.40D-08     -V/T= 2.0039
 KE= 2.881373093203D+02 PE=-1.213791299172D+03 EE= 3.611531657797D+02
 Leave Link  502 at Sun Oct 13 21:37:09 2019, MaxMem= 10737418240 cpu:             183.1 elap:               7.7
 (Enter /apps/cent7/gaussian/g16-A.03/g16-haswell/g16/l701.exe)
 ... and contract with generalized density number  0.
 Compute integral first derivatives.
 Leave Link  701 at Sun Oct 13 21:37:09 2019, MaxMem= 10737418240 cpu:               2.7 elap:               0.1
 (Enter /apps/cent7/gaussian/g16-A.03/g16-haswell/g16/l702.exe)
 L702 exits ... SP integral derivatives will be done elsewhere.
 Leave Link  702 at Sun Oct 13 21:37:09 2019, MaxMem= 10737418240 cpu:               0.5 elap:               0.0
 (Enter /apps/cent7/gaussian/g16-A.03/g16-haswell/g16/l703.exe)
 Integral derivatives from FoFJK, PRISM(SPDF).
 Compute integral first derivatives, UseDBF=F ICtDFT=           0.
 Calling FoFJK, ICntrl=      2127 FMM=F ISym2X=0 I1Cent= 0 IOpClX= 0 NMat=1 NMatS=1 NMatT=0.
 FoFJK:  IHMeth= 1 ICntrl=    2127 DoSepK=F KAlg= 0 I1Cent=           0 FoldK=F
 IRaf=         0 NMat=       1 IRICut=       1 DoRegI=T DoRafI=F ISym2E= 0 IDoP0=0 IntGTp=1.
 FoFCou: FMM=F IPFlag=           0 FMFlag=      100000 FMFlg1=         800
         NFxFlg=           0 DoJE=F BraDBF=F KetDBF=F FulRan=T
         wScrn=  0.000000 ICntrl=      2127 IOpCl=  0 I1Cent=           0 NGrid=           0
[...]
 81653,0.0726915,0.0003366,0.0038343,-0.029242,0.0497876,-0.0184533,0.0
 336009,0.0547643,0.0729227,0.0313951,-0.039529,0.0365193,-0.0219287,0.
 0621313,0.0529991,-0.0199005,-0.0603069,-0.0170375,0.0359503,-0.039003
 9,-0.0360232,-0.0218883,0.0136298,0.3702138,-0.0447101,0.0828813,-0.04
 6352,0.3592875,0.0869938,0.0859676,0.0870626,0.2456463,-0.0130793,-0.0
 648115,0.0019914,-0.0721383,0.0191871,-0.0180677,-0.0401631,-0.0369981
 ,0.0689568,0.0499117,0.0632082,-0.0177673,0.0411991,-0.0041072,0.00782
 08,-0.0059294,-0.0084956,0.0567763,0.1085828,-0.0086852,0.0213888,-0.0
 082002,0.0555247,-0.021109,0.0180278,-0.0154388,0.022861,-0.0345909,0.
 0054845,0.0568221,0.0326036,0.0449809,-0.00688,0.0557592,0.0221899,0.0
 810114,0.0301808,0.0023847,-0.0574629,-0.0114744,0.0637995,0.0101394,-
 0.0474885,0.0489317,0.0578954,0.2358438,0.0234892,-0.0441803,0.01819,0
 .2171015,0.0295622,-0.034179,0.0297853,0.1747229\Polar=52.0610147,-0.8
 80727,64.2004104,1.0354163,5.5037862,56.792522\Quadrupole=-0.042591,2.
 5158356,-2.4732446,-0.2105589,0.2097527,3.6851656\PG=C01 [X(C4H12N1O1)
 ]\NImag=0\\0.58573287,0.00906012,0.56511140,0.02221493,-0.04494143,0.5
 2538487,-0.09322713,0.00970455,0.02504496,0.64762398,0.01424376,-0.092
 30990,-0.04929499,-0.00626000,0.40822475,0.02735170,-0.03686468,-0.191
 26904,0.02277137,-0.01732449,0.58372591,0.00050695,0.00890632,-0.00038
 177,-0.10205584,-0.01390453,0.00258056,0.74739966,-0.00176130,-0.03627
 509,-0.00253487,-0.02359599,-0.14111768,-0.00180011,0.04467576,0.50072
 687,-0.00436053,-0.03719512,0.00748748,0.01057604,0.00907369,-0.092561
 51,-0.07330663,-0.03074940,0.53841238,0.00081057,-0.00059714,-0.000494
 79,-0.00454232,0.00325671,-0.00566047,-0.17386991,0.04148721,-0.082775
 51,0.64267971,-0.00109250,0.00081855,-0.00074402,0.03121460,-0.0161214
 2,0.03477360,0.01495435,-0.09448218,0.05309525,0.03158101,0.13680698,0
 .00010793,-0.00322274,0.00008800,-0.01378499,0.01073007,-0.01316326,-0
 .03269330,0.05420533,-0.17035888,-0.03575270,-0.12498417,0.30431609,-0
 .00064875,-0.00052041,0.00038987,0.00264594,-0.00160487,-0.00412778,-0
 .10314679,0.00484509,0.02684188,-0.00369653,-0.00641611,-0.03360641,0.
 64768138,-0.00118584,-0.00365496,0.00235438,0.00561692,-0.01977852,-0.
 02877156,0.00621346,-0.10412962,-0.02563763,0.00213260,0.00691976,0.01
 793470,-0.00904635,0.51141351,0.00064972,0.00512042,-0.00146414,-0.000
 63293,-0.01372937,0.00892467,0.01396463,-0.01522646,-0.12844005,-0.005
 09675,-0.00530154,-0.03704281,0.02406590,-0.08745069,0.48042236,0.0008
 0336,0.00050729,-0.00000961,-0.00068800,0.00002782,0.00148674,0.000600
 18,0.00629496,-0.00054903,0.00074246,0.00063217,0.00090392,-0.09153870
 ,-0.02755582,0.00259525,0.58706013,-0.00024006,-0.00043479,0.00031641,
 -0.00008039,0.00131871,-0.00097309,-0.00362309,-0.02472617,-0.01043888
 ,0.00080658,-0.00147482,0.00089351,-0.02286931,-0.20191783,0.02351405,
 -0.02038248,0.49461775,-0.00034040,-0.00261912,0.00111780,0.00069380,0
 .00176966,-0.00639868,-0.00594800,-0.04513013,-0.00414776,0.00024207,-
 0.00161028,0.00245394,0.00462892,0.03593492,-0.08332997,0.00477622,0.0
 0161845,0.59452022,-0.04642769,-0.02477882,0.00390529,-0.00133059,0.00
 657744,-0.00209480,-0.00033254,0.00154366,0.00089349,0.00025945,0.0005
 8201,0.00066474,0.00042527,0.00033284,-0.00025531,-0.00007161,0.000040
 44,0.00020573,0.04744770,-0.02400871,-0.31901774,0.03723168,-0.0013156
 3,-0.01480391,0.00216311,0.00083979,0.00082167,-0.00225351,-0.00015574
 ,0.00015420,-0.00035803,-0.00006762,-0.00028142,0.00057878,0.00005888,
 -0.00001794,-0.00023407,0.02560288,0.34298540,0.00413565,0.04019321,-0
 .05189542,-0.00363393,-0.02850038,0.00546520,0.00110257,-0.00537630,-0
 .00812307,-0.00005490,0.00114343,0.00051407,-0.00026157,-0.00133388,0.
 00140050,0.00014982,-0.00014167,-0.00074848,-0.00489007,-0.03868776,0.
 05590726,-0.16230123,0.05012488,-0.12809494,0.00685543,-0.00507171,0.0
 0769752,-0.00021260,0.00026181,-0.00126512,-0.00034880,0.00132344,0.00
 082416,0.00000874,-0.00010267,-0.00007449,-0.00005674,0.00003373,-0.00
 003729,0.00169312,-0.00101103,0.00381203,0.16977191,0.05101319,-0.0683
 6975,0.05885318,-0.01205733,0.00323071,-0.01387950,-0.00119128,0.00177
 449,-0.00004975,0.00067627,-0.00154422,-0.00005111,0.00021204,-0.00024
 663,-0.00020967,0.00004267,-0.00000056,0.00016467,0.02088217,-0.006651
 88,0.02311003,-0.05604701,0.07229005,-0.12595668,0.05540412,-0.1942315
 0,-0.01800375,0.00819783,-0.02157513,-0.00109899,0.00127202,-0.0005297
 5,0.00056118,0.00117313,0.00153616,-0.00005360,-0.00017876,-0.00024350
 ,0.00007929,0.00002378,0.00014025,-0.00129237,0.00070242,-0.00220705,0
 .13706603,-0.05940622,0.21116563,-0.28973886,-0.04985011,0.07017070,-0
 .00431090,-0.00068240,0.00156098,0.00070653,-0.00015241,-0.00056082,0.
 00005697,0.00062792,0.00005522,0.00034721,0.00023682,0.00003823,-0.000
 03488,-0.00001726,-0.00001131,-0.00198937,-0.00002433,-0.00024636,-0.0
 1649999,-0.00485105,0.00639046,0.30990800,-0.04964305,-0.05642924,0.01
 491088,0.01737741,0.00004914,-0.00612456,0.00161732,0.00270188,0.00026
 251,-0.00043507,-0.00020105,0.00035451,0.00001234,-0.00008812,-0.00043
 365,-0.00009196,0.00006953,0.00015225,-0.03090132,-0.00413866,0.008815
 84,0.00904512,0.00096104,-0.00352934,0.05353580,0.05819008,0.06787444,
 0.01306331,-0.06973462,0.02968052,0.00684663,-0.00999539,-0.00009386,0
 .00143674,0.00149405,0.00010738,-0.00003195,0.00005616,-0.00009178,-0.
 00005141,-0.00016289,-0.00012262,0.00003644,0.00007157,0.00315207,0.00
 077529,-0.00190138,-0.02182655,-0.00614189,0.00851510,-0.07875286,-0.0
 1207788,0.07499267,-0.00360520,0.00054185,0.00155157,-0.29161098,-0.04
 283822,0.07435756,-0.00387346,-0.00029135,-0.00035138,0.00290799,0.000
 55415,-0.00010007,-0.00005647,0.00031643,0.00006489,0.00043233,-0.0000
 8500,-0.00019546,0.00007122,0.00015134,0.00032373,0.00066357,0.0001418
 3,0.00005624,0.00148848,0.00050566,0.00045454,0.30855962,0.01640294,0.
 00407935,-0.00418807,-0.02975512,-0.05505355,0.01271330,-0.04026398,-0
 .01916804,0.01220949,-0.00080868,0.00300896,-0.00246371,-0.00090655,0.
 00153552,0.00245165,0.00018516,-0.00034238,-0.00036039,-0.00006572,0.0
 0034163,0.00047449,-0.00079351,0.00038225,0.00028579,-0.00011567,-0.00
 104404,-0.00353246,0.04484402,0.06990473,0.02675437,0.00484365,-0.0072
 8559,0.07437960,0.01283845,-0.07322064,0.00307109,0.00346202,-0.002316
 21,0.00041897,-0.00080995,-0.00004377,-0.00058258,-0.00033440,0.000140
 09,-0.00006993,-0.00012813,-0.00013574,-0.00034747,0.00004000,0.001024
 92,-0.00027979,0.00094393,0.00087202,0.00045092,-0.00302813,-0.0041930
 2,-0.08264430,-0.01332429,0.07678764,0.00647307,-0.00343151,0.00666601
 ,-0.16377177,0.04787782,-0.12795925,0.00158196,-0.00227628,0.00385771,
 0.00209527,-0.00119083,0.00078768,-0.00013356,-0.00036866,-0.00043023,
 0.00024279,0.00012617,0.00036902,0.00025541,-0.00015166,-0.00073567,0.
 00058808,0.00098279,0.00192887,0.00059657,-0.00056132,-0.00014082,-0.0
 1657776,0.00882934,-0.02123071,0.16761537,-0.01160786,0.00590434,-0.01
 293571,0.03704846,-0.06710984,0.04723642,0.02498079,-0.01493345,0.0254
 8352,0.00105919,-0.00829195,0.00260931,0.00042551,0.00067872,0.0012667
 2,-0.00028179,0.00005783,-0.00022176,-0.00020037,0.00044417,0.00042376
 ,0.00183637,-0.00145846,-0.00309941,0.00045143,0.00027351,0.00065415,-
 0.00344445,0.00322764,-0.00546751,-0.04930830,0.08198653,-0.01717924,0
 .00646981,-0.01946537,-0.12743634,0.05535206,-0.19280833,-0.00154754,0
 .00215117,-0.00366162,0.00047218,-0.00033294,0.00121941,-0.00024385,-0
 .00119280,-0.00050855,0.00029511,0.00015477,0.00012087,-0.00011893,-0.
 00001049,0.00094281,0.00209655,-0.00297393,-0.00315816,0.00029557,0.00
 079668,0.00089499,0.00645400,-0.00397798,0.00794843,0.13638155,-0.0553
 0878,0.20849956,-0.00042782,-0.00009640,0.00027028,0.00228809,0.001960
 54,0.00100983,-0.02773613,-0.00504533,0.00845152,-0.44070074,-0.069240
 72,0.11235095,0.00250633,-0.00186751,-0.00103916,-0.00041770,-0.000179
 58,0.00025105,0.00013689,-0.00008815,-0.00002357,0.00004743,0.00035419
 ,0.00017058,-0.00001802,0.00000395,-0.00001312,0.00002501,0.00063661,0
 .00001028,0.00020356,-0.00087216,0.00007221,0.46416568,-0.00006530,-0.
 00073008,0.00020345,0.00442802,0.00184223,-0.00077461,0.02453327,0.000
 24772,-0.00324270,-0.10002314,-0.02902579,0.04977798,-0.00156054,0.000
 24756,-0.00064543,-0.00045947,0.00003278,-0.00051828,-0.00014480,-0.00
 004293,-0.00015420,0.00027942,-0.00041667,-0.00066014,-0.00029220,0.00
 020495,0.00003215,-0.00097513,-0.00034336,0.00109494,-0.00095483,-0.00
 049122,0.00005229,0.07282657,0.03045628,0.00059186,0.00001409,0.000268
 44,-0.00101911,-0.00158061,0.00128833,-0.04738396,-0.00447514,0.004460
 49,0.17045895,0.05106060,-0.08972697,-0.00424651,0.00004450,0.00266599
 ,0.00039936,-0.00031896,-0.00050460,-0.00012892,0.00004241,0.00000474,
 0.00026915,-0.00038853,-0.00032515,-0.00018130,0.00002092,-0.00030530,
 0.00088326,0.00055069,-0.00001526,0.00025984,0.00005086,-0.00020761,-0
 .11827006,-0.04782589,0.08886141,0.00042964,0.00024441,-0.00002820,-0.
 00008326,-0.00033249,-0.00021632,-0.00522982,0.00029652,0.00065561,0.0
 0290244,-0.00010774,-0.00058379,-0.29104744,-0.04577204,0.07267694,-0.
 00250021,-0.00157301,0.00003194,-0.00003023,0.00002872,0.00006593,-0.0
 0000031,-0.00000564,0.00000241,-0.00002174,-0.00013433,-0.00017082,0.0
 0047096,0.00043422,-0.00004529,-0.00004327,0.00000062,0.00015578,0.000
 03039,-0.00020158,0.00130667,0.30827813,-0.00001558,-0.00042122,-0.000
 07195,0.00094112,0.00158753,-0.00034355,0.02008076,0.00035469,-0.00892
 965,0.00019869,-0.00060241,0.00162517,-0.05314249,-0.05873259,0.014896
 10,-0.03149334,-0.00453048,0.00934807,-0.00002130,-0.00002858,-0.00002
 547,-0.00000180,0.00005875,0.00005427,-0.00014508,-0.00003693,0.000093
 81,-0.00016555,-0.00040619,-0.00057522,0.00011783,-0.00006100,0.000016
 23,-0.00039513,0.00062630,0.00046121,0.05177203,0.06549762,-0.00017310
 ,-0.00030455,-0.00005408,0.00033525,0.00244021,0.00011395,0.03533615,0
 .00065251,-0.02048414,0.00089286,0.00001570,0.00357428,0.06187250,0.01
 453584,-0.07009870,0.00136191,0.00090499,0.00022069,-0.00007227,-0.000
 02264,-0.00003519,0.00001561,-0.00000037,-0.00001368,-0.00013864,0.000
 05669,0.00011520,-0.00036477,-0.00049291,0.00030753,-0.00014847,-0.000
 17525,0.00005407,-0.00049784,-0.00014214,-0.00099010,-0.07905937,-0.01
 003861,0.08147030,0.00024904,-0.00036576,0.00010007,-0.00014260,0.0005
 2864,0.00007926,0.00240210,-0.00223424,0.00494129,0.00210194,0.0001613
 6,0.00176946,-0.16529491,0.07553535,-0.11438310,0.00575167,-0.00290786
 ,0.00596977,-0.00000985,-0.00001297,-0.00004263,-0.00004293,0.00004944
 ,0.00012934,-0.00003355,0.00001090,0.00003566,-0.00003937,0.00006043,-
 0.00018295,0.00077313,-0.00008493,0.00032429,0.00014578,0.00033732,0.0
 0095013,-0.01663421,0.01204317,-0.01957654,0.16899375,-0.00008245,0.00
 005428,0.00014869,-0.00002623,-0.00008215,-0.00066315,-0.01264742,0.00
 511671,-0.01188104,-0.00078799,-0.00075086,-0.00543248,0.08103847,-0.0
 9999343,0.07904887,0.02105149,-0.01386327,0.02089640,-0.00001562,-0.00
 001549,-0.00000519,-0.00004557,0.00008830,0.00001326,-0.00001363,0.000
 02138,0.00003635,-0.00012902,-0.00005848,0.00000459,-0.00012282,-0.001
 25780,-0.00151381,0.00044605,-0.00022258,-0.00007144,-0.00398747,0.002
 36723,-0.00392729,-0.08186515,0.11146065,0.00040924,-0.00022278,0.0001
 1797,-0.00055868,0.00178718,0.00026204,-0.02143676,0.01075230,-0.02453
 136,-0.00036867,-0.00254398,-0.00632884,-0.10485494,0.07115397,-0.1584
 0175,0.00002158,0.00083211,0.00102281,0.00002790,-0.00000193,0.0000209
 9,-0.00002517,0.00018589,0.00018318,-0.00000743,0.00000802,-0.00004344
 ,0.00009136,-0.00017451,0.00004743,0.00029123,-0.00091920,0.00040859,0
 .00077676,-0.00008086,-0.00041813,0.00615750,-0.00423864,0.00886508,0.
 11993762,-0.07666571,0.17764793,-0.00006210,-0.00017533,0.00007133,0.0
 0042398,0.00002033,-0.00035738,-0.00022029,-0.00138882,-0.00084788,0.0
 0028560,-0.00087829,-0.00012603,-0.00128347,-0.00157321,-0.00569212,-0
 .04823688,0.01451573,0.03048514,0.00002269,-0.00002419,-0.00004185,0.0
 0000444,0.00000888,0.00001354,0.00000924,0.00000310,0.00000814,-0.0000
 3012,0.00007267,-0.00002306,-0.00001111,-0.00001459,0.00002907,0.00012
 573,0.00019336,0.00005410,0.00007463,0.00029891,-0.00014476,0.00022859
 ,0.00019207,0.00009353,0.04933779,-0.00014094,-0.00070417,0.00031621,0
 .00028531,0.00052926,-0.00188566,-0.00110871,-0.00894149,0.00113566,0.
 00010278,0.00073907,0.00072611,0.00469592,-0.01307990,-0.02974631,0.01
 383840,-0.09931208,-0.10720994,0.00005504,-0.00005686,-0.00022457,-0.0
 0001116,0.00002922,0.00001046,0.00000579,0.00003313,0.00001995,-0.0000
 6965,-0.00005534,-0.00000930,0.00004231,0.00000710,-0.00001811,0.00007
 809,-0.00005314,-0.00013798,-0.00038618,0.00104643,-0.00001692,0.00066
 684,0.00100797,0.00007743,-0.01462475,0.10962557,0.00002783,0.00022157
 ,-0.00007176,-0.00009526,0.00003261,0.00059095,-0.00025630,0.00427545,
 0.00152835,0.00013170,-0.00078440,-0.00009684,-0.00107988,0.00098303,0
 .00369441,0.03007983,-0.11017462,-0.26978903,-0.00000543,0.00002899,0.
 00007455,0.00000796,-0.00000304,0.00000394,0.00000106,-0.00000572,-0.0
 0000925,0.00001299,-0.00000264,-0.00000848,-0.00001280,-0.00001732,-0.
 00000038,0.00005957,0.00006104,0.00002604,0.00006709,-0.00043196,0.000
 31650,-0.00027779,-0.00037848,0.00040608,-0.03239312,0.11790769,0.2873
 7506,-0.00004078,0.00001051,0.00000833,0.00035378,-0.00013540,-0.00017
 475,0.00074874,0.00047835,-0.00025324,0.00006647,-0.00040273,-0.000473
 19,-0.00316598,-0.00076246,0.00105737,-0.29029734,-0.03843428,0.076261
 38,0.00000974,-0.00000434,-0.00000546,-0.00000523,-0.00001120,-0.00000
 230,0.00002518,-0.00002131,0.00000117,-0.00003685,0.00019129,0.0000434
 5,-0.00003306,0.00001227,0.00000508,-0.00003130,0.00031257,0.00013035,
 0.00150923,-0.00005052,0.00035784,0.00059608,-0.00052573,-0.00018968,-
 0.00299839,-0.00003622,0.00008474,0.31035067,0.00014668,0.00016427,-0.
 00002102,0.00009113,-0.00036706,0.00013189,-0.00092373,0.00265229,0.00
 143840,0.00015834,0.00011649,-0.00026691,-0.03440223,-0.00770151,0.010
 69829,-0.03661855,-0.05483177,0.01252498,-0.00000915,0.00001028,0.0000
 3483,-0.00000306,-0.00000921,-0.00000557,0.00001451,-0.00004508,-0.000
 06067,0.00021120,0.00015118,-0.00001902,-0.00003757,-0.00000324,0.0000
 5199,0.00000707,-0.00010860,0.00025737,-0.00039323,-0.00627265,0.00000
 231,0.00040687,0.00136990,-0.00009138,0.01464441,0.00235791,-0.0030199
 7,0.04394755,0.06118447,0.00000367,0.00009228,-0.00001726,-0.00004873,
 -0.00025063,0.00010950,-0.00141465,0.00024928,0.00150162,0.00042141,0.
 00014028,-0.00027102,0.00233928,-0.00162160,-0.00338859,0.07473869,0.0
 1428841,-0.07077120,0.00000162,0.00000948,0.00001310,-0.00001307,-0.00
 001804,-0.00000342,0.00001921,-0.00001738,0.00000839,0.00001780,-0.000
 05732,-0.00005779,0.00000990,0.00002475,-0.00001938,-0.00001987,0.0002
 4636,0.00002150,-0.00017142,0.00049480,0.00101460,0.00039822,0.0000545
 1,-0.00020113,0.02725448,0.00569099,-0.00738986,-0.08371310,-0.0145012
 3,0.07155314,-0.00005310,0.00000303,-0.00004551,0.00000950,0.00013583,
 0.00004645,-0.00028421,0.00085142,-0.00100693,-0.00025497,-0.00143586,
 -0.00059489,0.00606241,-0.00273677,0.00792153,-0.16324874,0.07418168,-
 0.11603287,0.00000478,-0.00000079,0.00001277,0.00003003,-0.00000265,-0
 .00000013,-0.00000602,0.00001313,-0.00000495,-0.00000011,-0.00001340,0
 .00000761,-0.00004059,0.00003511,0.00002554,0.00007590,-0.00034599,-0.
 00006767,0.00063751,0.00064879,0.00052293,0.00075046,-0.00254808,-0.00
 033040,0.00242626,-0.00300562,0.00362260,-0.01661219,0.01246634,-0.020
 03682,0.17070171,-0.00009585,0.00018046,-0.00010432,-0.00005860,-0.000
 42283,-0.00005747,0.00150600,0.00084800,0.00195179,-0.00087869,0.00100
 735,-0.00064880,0.02204031,-0.01574836,0.02219863,0.07197896,-0.096310
 13,0.07527158,-0.00001692,0.00001477,0.00002000,0.00000644,-0.00006709
 ,-0.00008331,0.00000857,-0.00001549,-0.00000084,-0.00000125,0.00003383
 ,0.00007127,-0.00014294,0.00024234,-0.00009529,-0.00030144,-0.00086447
 ,-0.00037999,-0.00014251,0.00130724,-0.00031459,-0.00192739,-0.0056054
 1,-0.00044306,-0.01067101,0.00699338,-0.00895434,-0.00311473,0.0019790
 3,-0.00472486,-0.07829393,0.10666325,0.00000762,0.00004022,-0.00004444
 ,-0.00020084,-0.00009329,-0.00006793,0.00033296,0.00066344,0.00046885,
 -0.00016583,-0.00186703,-0.00110758,0.00004052,-0.00062141,-0.00180145
 ,-0.11568516,0.07877352,-0.16534987,-0.00000020,0.00000636,0.00001804,
 0.00000340,-0.00002426,0.00000594,0.00000826,-0.00001277,0.00000364,0.
 00000526,0.00001627,0.00001113,0.00002771,0.00008070,0.00002664,-0.000
 19411,-0.00011349,0.00009457,-0.00008474,0.00033785,-0.00002699,0.0002
 7691,-0.00030821,0.00082661,-0.01811924,0.01286409,-0.01658614,0.00737
 560,-0.00611172,0.00760961,0.12620846,-0.08365490,0.17586504,0.0015271
 6,0.00071254,-0.00133851,0.00156270,-0.00379924,0.00164879,-0.33698452
 ,-0.06398905,0.10905953,-0.03149560,-0.00086624,0.00025129,0.00033531,
 0.00058691,0.00456964,0.00145790,0.00068799,-0.00134972,-0.00013440,0.
 00018356,0.00033351,-0.00019490,-0.00019731,0.00000987,-0.00048482,-0.
 00033635,-0.00009653,0.00121113,0.00106592,0.00026979,0.00018591,-0.00
 003530,-0.00008103,-0.00041909,0.00211245,-0.00400612,0.00125756,-0.00
 067051,-0.00051928,0.00020490,0.00006911,-0.00003501,-0.00009658,-0.00
 038726,0.00002523,-0.00043875,0.00029342,0.00021337,-0.00019863,0.0001
 0499,0.00016344,0.36270474,-0.00092726,0.00203428,0.00050151,-0.033558
 21,-0.00961546,0.01244410,-0.07464506,-0.07147060,0.02572737,0.0222270
 6,0.00292335,-0.00142875,0.01726682,0.00455783,-0.00703039,0.00226561,
 0.00166563,0.00022300,0.00053754,0.00028327,0.00023383,0.00017630,-0.0
 0005034,-0.00017430,0.00126331,-0.00050604,-0.00109770,0.00073314,-0.0
 0619373,0.00039709,0.00057046,0.00078479,0.00037914,0.00177334,-0.0013
 5898,0.00267589,0.00025970,-0.00175374,-0.00317299,-0.00040200,0.00036
 305,0.00058516,-0.00059926,-0.00016609,0.00026210,-0.00145363,-0.00064
 672,-0.00010007,0.00004776,-0.00023586,0.00002461,0.06446435,0.0793853
 6,-0.00211902,-0.00009226,0.00106865,0.00193303,0.00170538,0.00057936,
 0.12917380,0.02617215,-0.10019887,-0.04333706,-0.00239173,0.00438184,0
 .02897001,0.00425280,-0.01236563,-0.00045138,0.00081892,0.00150718,0.0
 0035493,-0.00001010,-0.00047561,-0.00017598,-0.00011139,-0.00013487,0.
 00090812,-0.00014889,0.00019355,-0.00061721,-0.00012739,0.00013732,0.0
 0007843,0.00031475,-0.00028599,-0.00336530,0.00268952,-0.00519840,-0.0
 0075991,-0.00267245,-0.00434932,-0.00044901,0.00064414,0.00011594,-0.0
 0026389,0.00050019,-0.00006416,-0.00051358,-0.00104257,0.00028817,-0.0
 0024772,-0.00005149,0.00005434,-0.10911827,-0.03044958,0.11474651\\-0.
 00000203,0.00000153,0.00000016,-0.00000298,0.00000076,-0.00000447,-0.0
 0000939,-0.00000705,0.00000348,0.00000789,-0.00000602,-0.00000566,-0.0
 0000092,-0.00000216,0.00000265,-0.00000163,0.00000800,0.00000061,0.000
 00047,-0.00000042,-0.00000038,-0.00000034,0.00000039,-0.00000069,0.000
 00007,0.00000020,-0.00000139,0.00000139,0.00000186,0.00000054,0.000002
 50,0.00000410,0.00000075,0.00000204,-0.00000414,0.00000708,0.00000004,
 -0.00000328,-0.00000087,0.00000133,-0.00000161,-0.00000204,0.00000163,
 0.00000231,-0.00000034,0.00000021,0.00000304,-0.00000054,0.00000237,0.
 00000164,0.00000294,-0.00000267,0.00000085,-0.00000184\\\@


 THE MORE POWERFUL THE METHOD, THE MORE CATASTROPHIC THE ERRORS.
     -- M.D. KAMEN
 Job cpu time:       0 days  0 hours 28 minutes 49.8 seconds.
 Elapsed time:       0 days  0 hours  1 minutes 12.8 seconds.
 File lengths (MBytes):  RWF=     78 Int=      0 D2E=      0 Chk=      5 Scr=      1
 Normal termination of Gaussian 16 at Sun Oct 13 21:40:08 2019.
real 199.66
user 4568.52
sys 18.32
Machine:
brown-a248
brown-a248
brown-a248
brown-a248
brown-a248
brown-a248
brown-a248
brown-a248
brown-a248
brown-a248
brown-a248
brown-a248
brown-a248
brown-a248
brown-a248
brown-a248
brown-a248
brown-a248
brown-a248
brown-a248
brown-a248
brown-a248
brown-a248
brown-a248
