 Entering Gaussian System, Link 0=/apps/cent7/gaussian/g16-A.03/g16-haswell/g16/g16
 Initial command:
 /apps/cent7/gaussian/g16-A.03/g16-haswell/g16/l1.exe "/scratch/brown/finej/gaussian/Gau-189456.inp" -scrdir="/scratch/brown/finej/gaussian/"
 Entering Link 1 = /apps/cent7/gaussian/g16-A.03/g16-haswell/g16/l1.exe PID=    189457.
  
 Copyright (c) 1988,1990,1992,1993,1995,1998,2003,2009,2016,
            Gaussian, Inc.  All Rights Reserved.
  
 This is part of the Gaussian(R) 16 program.  It is based on
 the Gaussian(R) 09 system (copyright 2009, Gaussian, Inc.),
 the Gaussian(R) 03 system (copyright 2003, Gaussian, Inc.),
 the Gaussian(R) 98 system (copyright 1998, Gaussian, Inc.),
 the Gaussian(R) 94 system (copyright 1995, Gaussian, Inc.),
 the Gaussian 92(TM) system (copyright 1992, Gaussian, Inc.),
 the Gaussian 90(TM) system (copyright 1990, Gaussian, Inc.),
 the Gaussian 88(TM) system (copyright 1988, Gaussian, Inc.),
 the Gaussian 86(TM) system (copyright 1986, Carnegie Mellon
 University), and the Gaussian 82(TM) system (copyright 1983,
 Carnegie Mellon University). Gaussian is a federally registered
 trademark of Gaussian, Inc.
  
 This software contains proprietary and confidential information,
 including trade secrets, belonging to Gaussian, Inc.
  
 This software is provided under written license and may be
 used, copied, transmitted, or stored only in accord with that
 written license.
  
 The following legend is applicable only to US Government
 contracts under FAR:
  
                    RESTRICTED RIGHTS LEGEND
  
 Use, reproduction and disclosure by the US Government is
 subject to restrictions as set forth in subparagraphs (a)
 and (c) of the Commercial Computer Software - Restricted
 Rights clause in FAR 52.227-19.
  
 Gaussian, Inc.
 340 Quinnipiac St., Bldg. 40, Wallingford CT 06492
  
  
 ---------------------------------------------------------------
 Warning -- This program may not be used in any manner that
 competes with the business of Gaussian, Inc. or will provide
 assistance to any competitor of Gaussian, Inc.  The licensee
 of this program is prohibited from giving any competitor of
 Gaussian, Inc. access to this program.  By using this program,
 the user acknowledges that Gaussian, Inc. is engaged in the
 business of creating and licensing software in the field of
 computational chemistry and represents and warrants to the
 licensee that it is not a competitor of Gaussian, Inc. and that
 it will not use this program in any manner prohibited above.
 ---------------------------------------------------------------
  

 Cite this work as:
 Gaussian 16, Revision A.03,
 M. J. Frisch, G. W. Trucks, H. B. Schlegel, G. E. Scuseria, 
 M. A. Robb, J. R. Cheeseman, G. Scalmani, V. Barone, 
 G. A. Petersson, H. Nakatsuji, X. Li, M. Caricato, A. V. Marenich, 
 J. Bloino, B. G. Janesko, R. Gomperts, B. Mennucci, H. P. Hratchian, 
 J. V. Ortiz, A. F. Izmaylov, J. L. Sonnenberg, D. Williams-Young, 
 F. Ding, F. Lipparini, F. Egidi, J. Goings, B. Peng, A. Petrone, 
 T. Henderson, D. Ranasinghe, V. G. Zakrzewski, J. Gao, N. Rega, 
 G. Zheng, W. Liang, M. Hada, M. Ehara, K. Toyota, R. Fukuda, 
 J. Hasegawa, M. Ishida, T. Nakajima, Y. Honda, O. Kitao, H. Nakai, 
 T. Vreven, K. Throssell, J. A. Montgomery, Jr., J. E. Peralta, 
 F. Ogliaro, M. J. Bearpark, J. J. Heyd, E. N. Brothers, K. N. Kudin, 
 V. N. Staroverov, T. A. Keith, R. Kobayashi, J. Normand, 
 K. Raghavachari, A. P. Rendell, J. C. Burant, S. S. Iyengar, 
 J. Tomasi, M. Cossi, J. M. Millam, M. Klene, C. Adamo, R. Cammi, 
 J. W. Ochterski, R. L. Martin, K. Morokuma, O. Farkas, 
 J. B. Foresman, and D. J. Fox, Gaussian, Inc., Wallingford CT, 2016.
 
 ******************************************
 Gaussian 16:  ES64L-G16RevA.03 25-Dec-2016
                13-Oct-2019 
 ******************************************
 %chk=2.chk
 %nprocshared=24
 Will use up to   24 processors via shared memory.
 %mem=80GB
 -------------------------------------------------------------------
 #P opt freq m062x/6-311++g(d,p) geom=connectivity temperature=0.001
 -------------------------------------------------------------------
 1/18=20,19=15,26=3,38=1,57=2,112=-1000/1,3;
 2/9=110,12=2,17=6,18=5,40=1/2;
 3/5=4,6=6,7=1111,11=2,25=1,30=1,71=1,74=-55/1,2,3;
 4//1;
 5/5=2,38=5/2;
 6/7=2,8=2,9=2,10=2,28=1/1;
 7//1,2,3,16;
 1/18=20,19=15,26=3/3(2);
 2/9=110/2;
 99//99;
 2/9=110/2;
 3/5=4,6=6,7=1111,11=2,25=1,30=1,71=1,74=-55/1,2,3;
 4/5=5,16=3,69=1/1;
 5/5=2,38=5/2;
 7//1,2,3,16;
 1/18=20,19=15,26=3/3(-5);
 2/9=110/2;
 6/7=2,8=2,9=2,10=2,19=2,28=1/1;
 99/9=1/99;
 Leave Link    1 at Sun Oct 13 23:10:02 2019, MaxMem= 10737418240 cpu:               0.9 elap:               0.0
 (Enter /apps/cent7/gaussian/g16-A.03/g16-haswell/g16/l101.exe)
 -------------------
 Title Card Required
 -------------------
 Symbolic Z-matrix:
 Charge =  0 Multiplicity = 1
 O                     1.2297   -0.118    -0.0218 
 N                    -0.0286    0.0421   -0.007 
 C                    -0.6307    1.1748   -0.0132 
 C                    -1.9705    1.3227    0.0019 
 O                    -2.8586    0.3182    0.0307 
 C                    -3.2781   -0.0096    1.3699 
 N                    -2.3119    2.5611   -0.0253 
 C                    -1.2233    3.2866   -0.0347 
 C                    -1.0742    4.6849   -0.023 
 C                     0.2311    5.221    -0.0064 
 C                     1.3565    4.365    -0.0046 
 C                     1.1911    2.9621   -0.0148 
 C                    -0.1183    2.4411   -0.0282 
 H                     1.5576   -0.1597    0.8795 
 H                    -3.314    -1.093     1.4844 
 H                    -2.5695    0.4081    2.0851 
 H                    -4.2681    0.4081    1.553 
 H                    -1.948     5.3365   -0.0266 
 H                     0.3708    6.3019    0.005 
 H                     2.3601    4.7902    0.0046 
 H                     2.0544    2.2967   -0.0123 
 
 ITRead=  0  0  0  0  0  0  0  0  0  0  0  0  0  0  0  0  0  0  0  0
 ITRead=  0
 MicOpt= -1 -1 -1 -1 -1 -1 -1 -1 -1 -1 -1 -1 -1 -1 -1 -1 -1 -1 -1 -1
 MicOpt= -1
 NAtoms=     21 NQM=       21 NQMF=       0 NMMI=      0 NMMIF=      0
                NMic=       0 NMicF=      0.
                    Isotopes and Nuclear Properties:
 (Nuclear quadrupole moments (NQMom) in fm**2, nuclear magnetic moments (NMagM)
  in nuclear magnetons)

  Atom         1           2           3           4           5           6           7           8           9          10
 IAtWgt=          16          14          12          12          16          12          14          12          12          12
 AtmWgt=  15.9949146  14.0030740  12.0000000  12.0000000  15.9949146  12.0000000  14.0030740  12.0000000  12.0000000  12.0000000
 NucSpn=           0           2           0           0           0           0           2           0           0           0
 AtZEff=  -0.0000000  -0.0000000  -0.0000000  -0.0000000  -0.0000000  -0.0000000  -0.0000000  -0.0000000  -0.0000000  -0.0000000
 NQMom=    0.0000000   2.0440000   0.0000000   0.0000000   0.0000000   0.0000000   2.0440000   0.0000000   0.0000000   0.0000000
 NMagM=    0.0000000   0.4037610   0.0000000   0.0000000   0.0000000   0.0000000   0.4037610   0.0000000   0.0000000   0.0000000
 AtZNuc=   8.0000000   7.0000000   6.0000000   6.0000000   8.0000000   6.0000000   7.0000000   6.0000000   6.0000000   6.0000000

  Atom        11          12          13          14          15          16          17          18          19          20
 IAtWgt=          12          12          12           1           1           1           1           1           1           1
 AtmWgt=  12.0000000  12.0000000  12.0000000   1.0078250   1.0078250   1.0078250   1.0078250   1.0078250   1.0078250   1.0078250
 NucSpn=           0           0           0           1           1           1           1           1           1           1
 AtZEff=  -0.0000000  -0.0000000  -0.0000000  -0.0000000  -0.0000000  -0.0000000  -0.0000000  -0.0000000  -0.0000000  -0.0000000
 NQMom=    0.0000000   0.0000000   0.0000000   0.0000000   0.0000000   0.0000000   0.0000000   0.0000000   0.0000000   0.0000000
 NMagM=    0.0000000   0.0000000   0.0000000   2.7928460   2.7928460   2.7928460   2.7928460   2.7928460   2.7928460   2.7928460
 AtZNuc=   6.0000000   6.0000000   6.0000000   1.0000000   1.0000000   1.0000000   1.0000000   1.0000000   1.0000000   1.0000000

  Atom        21
 IAtWgt=           1
 AtmWgt=   1.0078250
 NucSpn=           1
 AtZEff=  -0.0000000
 NQMom=    0.0000000
 NMagM=    2.7928460
 AtZNuc=   1.0000000
 Leave Link  101 at Sun Oct 13 23:10:03 2019, MaxMem= 10737418240 cpu:               8.5 elap:               0.4
 (Enter /apps/cent7/gaussian/g16-A.03/g16-haswell/g16/l103.exe)

 GradGradGradGradGradGradGradGradGradGradGradGradGradGradGradGradGradGrad
 Berny optimization.
 Initialization pass.
                           ----------------------------
                           !    Initial Parameters    !
                           ! (Angstroms and Degrees)  !
 --------------------------                            --------------------------
 ! Name  Definition              Value          Derivative Info.                !
 --------------------------------------------------------------------------------
 ! R1    R(1,2)                  1.2685         estimate D2E/DX2                !
 ! R2    R(1,14)                 0.96           estimate D2E/DX2                !
 ! R3    R(2,3)                  1.2828         estimate D2E/DX2                !
 ! R4    R(3,4)                  1.348          estimate D2E/DX2                !
 ! R5    R(3,13)                 1.3661         estimate D2E/DX2                !
 ! R6    R(4,5)                  1.3411         estimate D2E/DX2                !
 ! R7    R(4,7)                  1.2849         estimate D2E/DX2                !
 ! R8    R(5,6)                  1.4411         estimate D2E/DX2                !
 ! R9    R(6,15)                 1.09           estimate D2E/DX2                !
 ! R10   R(6,16)                 1.09           estimate D2E/DX2                !
 ! R11   R(6,17)                 1.09           estimate D2E/DX2                !
 ! R12   R(7,8)                  1.3082         estimate D2E/DX2                !
 ! R13   R(8,9)                  1.4063         estimate D2E/DX2                !
 ! R14   R(8,13)                 1.3914         estimate D2E/DX2                !
 ! R15   R(9,10)                 1.4112         estimate D2E/DX2                !
 ! R16   R(9,18)                 1.09           estimate D2E/DX2                !
 ! R17   R(10,11)                1.414          estimate D2E/DX2                !
 ! R18   R(10,19)                1.0899         estimate D2E/DX2                !
 ! R19   R(11,12)                1.4127         estimate D2E/DX2                !
 ! R20   R(11,20)                1.09           estimate D2E/DX2                !
 ! R21   R(12,13)                1.4093         estimate D2E/DX2                !
 ! R22   R(12,21)                1.09           estimate D2E/DX2                !
 ! A1    A(2,1,14)             109.4714         estimate D2E/DX2                !
 ! A2    A(1,2,3)              125.2373         estimate D2E/DX2                !
 ! A3    A(2,3,4)              124.2861         estimate D2E/DX2                !
 ! A4    A(2,3,13)             129.9767         estimate D2E/DX2                !
 ! A5    A(4,3,13)             105.7364         estimate D2E/DX2                !
 ! A6    A(3,4,5)              125.1862         estimate D2E/DX2                !
 ! A7    A(3,4,7)              111.6906         estimate D2E/DX2                !
 ! A8    A(5,4,7)              123.1211         estimate D2E/DX2                !
 ! A9    A(4,5,6)              112.525          estimate D2E/DX2                !
 ! A10   A(5,6,15)             109.4677         estimate D2E/DX2                !
 ! A11   A(5,6,16)             109.4713         estimate D2E/DX2                !
 ! A12   A(5,6,17)             109.4703         estimate D2E/DX2                !
 ! A13   A(15,6,16)            109.4734         estimate D2E/DX2                !
 ! A14   A(15,6,17)            109.4706         estimate D2E/DX2                !
 ! A15   A(16,6,17)            109.474          estimate D2E/DX2                !
 ! A16   A(4,7,8)              108.2736         estimate D2E/DX2                !
 ! A17   A(7,8,9)              129.7606         estimate D2E/DX2                !
 ! A18   A(7,8,13)             108.894          estimate D2E/DX2                !
 ! A19   A(9,8,13)             121.3311         estimate D2E/DX2                !
 ! A20   A(8,9,10)             118.418          estimate D2E/DX2                !
 ! A21   A(8,9,18)             120.6226         estimate D2E/DX2                !
 ! A22   A(10,9,18)            120.9594         estimate D2E/DX2                !
 ! A23   A(9,10,11)            120.4129         estimate D2E/DX2                !
 ! A24   A(9,10,19)            119.6968         estimate D2E/DX2                !
 ! A25   A(11,10,19)           119.8903         estimate D2E/DX2                !
 ! A26   A(10,11,12)           120.5317         estimate D2E/DX2                !
 ! A27   A(10,11,20)           119.7811         estimate D2E/DX2                !
 ! A28   A(12,11,20)           119.6872         estimate D2E/DX2                !
 ! A29   A(11,12,13)           118.4235         estimate D2E/DX2                !
 ! A30   A(11,12,21)           120.8976         estimate D2E/DX2                !
 ! A31   A(13,12,21)           120.6789         estimate D2E/DX2                !
 ! A32   A(3,13,8)             105.3932         estimate D2E/DX2                !
 ! A33   A(3,13,12)            133.7136         estimate D2E/DX2                !
 ! A34   A(8,13,12)            120.8821         estimate D2E/DX2                !
 ! D1    D(14,1,2,3)            90.8101         estimate D2E/DX2                !
 ! D2    D(1,2,3,4)            179.9515         estimate D2E/DX2                !
 ! D3    D(1,2,3,13)            -0.4253         estimate D2E/DX2                !
 ! D4    D(2,3,4,5)              0.2803         estimate D2E/DX2                !
 ! D5    D(2,3,4,7)           -179.2119         estimate D2E/DX2                !
 ! D6    D(13,3,4,5)          -179.4197         estimate D2E/DX2                !
 ! D7    D(13,3,4,7)             1.0881         estimate D2E/DX2                !
 ! D8    D(2,3,13,8)           179.7295         estimate D2E/DX2                !
 ! D9    D(2,3,13,12)           -1.5215         estimate D2E/DX2                !
 ! D10   D(4,3,13,8)            -0.594          estimate D2E/DX2                !
 ! D11   D(4,3,13,12)          178.155          estimate D2E/DX2                !
 ! D12   D(3,4,5,6)             94.1032         estimate D2E/DX2                !
 ! D13   D(7,4,5,6)            -86.4602         estimate D2E/DX2                !
 ! D14   D(3,4,7,8)             -1.1405         estimate D2E/DX2                !
 ! D15   D(5,4,7,8)            179.3551         estimate D2E/DX2                !
 ! D16   D(4,5,6,15)          -137.3784         estimate D2E/DX2                !
 ! D17   D(4,5,6,16)           -17.3779         estimate D2E/DX2                !
 ! D18   D(4,5,6,17)           102.625          estimate D2E/DX2                !
 ! D19   D(4,7,8,9)           -177.8958         estimate D2E/DX2                !
 ! D20   D(4,7,8,13)             0.7177         estimate D2E/DX2                !
 ! D21   D(7,8,9,10)           178.5594         estimate D2E/DX2                !
 ! D22   D(7,8,9,18)            -1.4343         estimate D2E/DX2                !
 ! D23   D(13,8,9,10)            0.0952         estimate D2E/DX2                !
 ! D24   D(13,8,9,18)         -179.8985         estimate D2E/DX2                !
 ! D25   D(7,8,13,3)            -0.0521         estimate D2E/DX2                !
 ! D26   D(7,8,13,12)         -178.9985         estimate D2E/DX2                !
 ! D27   D(9,8,13,3)           178.7001         estimate D2E/DX2                !
 ! D28   D(9,8,13,12)           -0.2463         estimate D2E/DX2                !
 ! D29   D(8,9,10,11)            0.1337         estimate D2E/DX2                !
 ! D30   D(8,9,10,19)         -179.8718         estimate D2E/DX2                !
 ! D31   D(18,9,10,11)        -179.8726         estimate D2E/DX2                !
 ! D32   D(18,9,10,19)           0.1219         estimate D2E/DX2                !
 ! D33   D(9,10,11,12)          -0.2154         estimate D2E/DX2                !
 ! D34   D(9,10,11,20)         179.7767         estimate D2E/DX2                !
 ! D35   D(19,10,11,12)        179.7902         estimate D2E/DX2                !
 ! D36   D(19,10,11,20)         -0.2177         estimate D2E/DX2                !
 ! D37   D(10,11,12,13)          0.0669         estimate D2E/DX2                !
 ! D38   D(10,11,12,21)       -179.928          estimate D2E/DX2                !
 ! D39   D(20,11,12,13)       -179.9253         estimate D2E/DX2                !
 ! D40   D(20,11,12,21)          0.0799         estimate D2E/DX2                !
 ! D41   D(11,12,13,3)        -178.433          estimate D2E/DX2                !
 ! D42   D(11,12,13,8)           0.1616         estimate D2E/DX2                !
 ! D43   D(21,12,13,3)           1.5618         estimate D2E/DX2                !
 ! D44   D(21,12,13,8)        -179.8435         estimate D2E/DX2                !
 --------------------------------------------------------------------------------
 Trust Radius=3.00D-01 FncErr=1.00D-07 GrdErr=1.00D-06 EigMax=2.50D+02 EigMin=1.00D-04
 Number of steps in this run=    110 maximum allowed number of steps=    126.
 GradGradGradGradGradGradGradGradGradGradGradGradGradGradGradGradGradGrad

 Leave Link  103 at Sun Oct 13 23:10:03 2019, MaxMem= 10737418240 cpu:               0.3 elap:               0.0
 (Enter /apps/cent7/gaussian/g16-A.03/g16-haswell/g16/l202.exe)
                          Input orientation:                          
 ---------------------------------------------------------------------
 Center     Atomic      Atomic             Coordinates (Angstroms)
 Number     Number       Type             X           Y           Z
 ---------------------------------------------------------------------
      1          8           0        1.229700   -0.118000   -0.021800
      2          7           0       -0.028600    0.042100   -0.007000
      3          6           0       -0.630700    1.174800   -0.013200
      4          6           0       -1.970500    1.322700    0.001900
      5          8           0       -2.858600    0.318200    0.030700
      6          6           0       -3.278100   -0.009600    1.369900
      7          7           0       -2.311900    2.561100   -0.025300
      8          6           0       -1.223300    3.286600   -0.034700
      9          6           0       -1.074200    4.684900   -0.023000
     10          6           0        0.231100    5.221000   -0.006400
     11          6           0        1.356500    4.365000   -0.004600
     12          6           0        1.191100    2.962100   -0.014800
     13          6           0       -0.118300    2.441100   -0.028200
     14          1           0        1.557600   -0.159700    0.879500
     15          1           0       -3.314000   -1.093000    1.484400
     16          1           0       -2.569500    0.408100    2.085100
     17          1           0       -4.268100    0.408100    1.553000
     18          1           0       -1.948000    5.336500   -0.026600
     19          1           0        0.370800    6.301900    0.005000
     20          1           0        2.360100    4.790200    0.004600
     21          1           0        2.054400    2.296700   -0.012300
 ---------------------------------------------------------------------
                    Distance matrix (angstroms):
                    1          2          3          4          5
     1  O    0.000000
     2  N    1.268531   0.000000
     3  C    2.265501   1.282799   0.000000
     4  C    3.509624   2.326154   1.348023   0.000000
     5  O    4.111839   2.843686   2.387306   1.341108   0.000000
     6  C    4.718987   3.529558   3.213175   2.314361   1.441142
     7  N    4.440779   3.399876   2.179084   1.284885   2.309246
     8  C    4.196269   3.457579   2.193476   2.101559   3.389673
     9  C    5.326895   4.759110   3.538021   3.479707   4.717524
    10  C    5.431608   5.185407   4.136965   4.477036   5.795263
    11  C    4.484826   4.539380   3.758512   4.508277   5.843364
    12  C    3.080350   3.164511   2.552136   3.561408   4.836564
    13  C    2.892428   2.400770   1.366124   2.163878   3.466903
    14  H    0.959999   1.828288   2.714122   3.926217   4.522353
    15  H    4.885128   3.782404   3.819139   3.136623   2.076564
    16  H    4.376040   3.311648   2.957979   2.352662   2.076589
    17  H    5.743046   4.532209   4.033794   2.919139   2.076576
    18  H    6.312636   5.631621   4.365227   4.013964   5.100570
    19  H    6.477156   6.272540   5.224030   5.502193   6.799585
    20  H    5.036758   5.315118   4.692155   5.547762   6.872721
    21  H    2.551665   3.069550   2.910055   4.141099   5.296591
                    6          7          8          9         10
     6  C    0.000000
     7  N    3.080361   0.000000
     8  C    4.130380   1.308239   0.000000
     9  C    5.369886   2.458136   1.406275   0.000000
    10  C    6.447314   3.679983   2.420327   1.411201   0.000000
    11  C    6.519654   4.087988   2.796287   2.451729   1.413953
    12  C    5.542756   3.525893   2.436190   2.845996   2.454445
    13  C    4.236148   2.196882   1.391380   2.438936   2.801856
    14  H    4.862820   4.816061   4.521742   5.586683   5.612161
    15  H    1.090025   4.078706   5.085232   6.377546   7.393025
    16  H    1.089999   3.025815   3.819891   4.997102   5.948255
    17  H    1.089999   3.309556   4.480777   5.565590   6.770416
    18  H    5.683323   2.799155   2.174246   1.090010   2.182252
    19  H    7.417038   4.603410   3.410977   2.168755   1.089950
    20  H    7.529371   5.176617   3.886272   3.436025   2.172176
    21  H    5.972023   4.374317   3.423992   3.935956   3.446156
                   11         12         13         14         15
    11  C    0.000000
    12  C    1.412653   0.000000
    13  C    2.424249   1.409308   0.000000
    14  H    4.614649   3.267986   3.224395   0.000000
    15  H    7.336243   6.243986   4.999032   4.996943   0.000000
    16  H    5.952930   5.007455   3.821977   4.336914   1.780006
    17  H    7.051191   6.227662   4.884068   5.891925   1.779976
    18  H    3.444418   3.935970   3.425076   6.581676   6.744446
    19  H    2.173310   3.439120   3.891799   6.627633   8.393505
    20  H    1.089997   2.169997   3.414940   5.090282   8.306459
    21  H    2.182885   1.089977   2.177551   2.660079   6.523028
                   16         17         18         19         20
    16  H    0.000000
    17  H    1.779992   0.000000
    18  H    5.397654   5.671607   0.000000
    19  H    6.907174   7.658497   2.511937   0.000000
    20  H    6.916085   8.095269   4.342711   2.498510   0.000000
    21  H    5.417227   6.781665   5.025912   4.344702   2.512226
                   21
    21  H    0.000000
 Stoichiometry    C9H8N2O2
 Framework group  C1[X(C9H8N2O2)]
 Deg. of freedom    57
 Full point group                 C1      NOp   1
 Largest Abelian subgroup         C1      NOp   1
 Largest concise Abelian subgroup C1      NOp   1
                         Standard orientation:                         
 ---------------------------------------------------------------------
 Center     Atomic      Atomic             Coordinates (Angstroms)
 Number     Number       Type             X           Y           Z
 ---------------------------------------------------------------------
      1          8           0        0.785245    2.845752   -0.072833
      2          7           0        1.315944    1.700135   -0.195680
      3          6           0        0.679578    0.586318   -0.200459
      4          6           0        1.263567   -0.621350   -0.333351
      5          8           0        2.580705   -0.831675   -0.472937
      6          6           0        3.233824   -1.096179    0.784188
      7          7           0        0.398294   -1.571136   -0.321619
      8          6           0       -0.787547   -1.043711   -0.157016
      9          6           0       -2.041575   -1.669085   -0.038989
     10          6           0       -3.179298   -0.859421    0.164772
     11          6           0       -3.052325    0.546577    0.244212
     12          6           0       -1.785653    1.160606    0.125466
     13          6           0       -0.658103    0.339184   -0.074644
     14          1           0        0.752363    3.085230    0.856236
     15          1           0        4.177837   -0.552704    0.824546
     16          1           0        2.591850   -0.770657    1.602725
     17          1           0        3.425823   -2.165199    0.876010
     18          1           0       -2.129454   -2.753619   -0.103680
     19          1           0       -4.161293   -1.322428    0.261211
     20          1           0       -3.938446    1.162353    0.398172
     21          1           0       -1.680751    2.243779    0.186957
 ---------------------------------------------------------------------
 Rotational constants (GHZ):           1.3750627           0.6962916           0.4809499
 Leave Link  202 at Sun Oct 13 23:10:03 2019, MaxMem= 10737418240 cpu:               0.5 elap:               0.0
 (Enter /apps/cent7/gaussian/g16-A.03/g16-haswell/g16/l301.exe)
 Standard basis: 6-311++G(d,p) (5D, 7F)
 Ernie: Thresh=  0.10000D-02 Tol=  0.10000D-05 Strict=F.
 There are   355 symmetry adapted cartesian basis functions of A   symmetry.
 There are   342 symmetry adapted basis functions of A   symmetry.
   342 basis functions,   540 primitive gaussians,   355 cartesian basis functions
    46 alpha electrons       46 beta electrons
       nuclear repulsion energy       766.2738240373 Hartrees.
 IExCor= 4336 DFT=T Ex+Corr=M062X ExCW=0 ScaHFX=  0.540000
 ScaDFX=  1.000000  1.000000  1.000000  1.000000 ScalE2=  1.000000  1.000000
 IRadAn=      5 IRanWt=     -1 IRanGd=            0 ICorTp=0 IEmpDi=  4
 NAtoms=   21 NActive=   21 NUniq=   21 SFac= 1.00D+00 NAtFMM=   60 NAOKFM=F Big=F
 Integral buffers will be    131072 words long.
 Raffenetti 2 integral format.
 Two-electron integral symmetry is turned on.
 Leave Link  301 at Sun Oct 13 23:10:03 2019, MaxMem= 10737418240 cpu:               1.3 elap:               0.1
 (Enter /apps/cent7/gaussian/g16-A.03/g16-haswell/g16/l302.exe)
 NPDir=0 NMtPBC=     1 NCelOv=     1 NCel=       1 NClECP=     1 NCelD=      1
         NCelK=      1 NCelE2=     1 NClLst=     1 CellRange=     0.0.
 One-electron integrals computed using PRISM.
 One-electron integral symmetry used in STVInt
 NBasis=   342 RedAO= T EigKep=  2.07D-06  NBF=   342
 NBsUse=   340 1.00D-06 EigRej=  6.63D-07 NBFU=   340
 Precomputing XC quadrature grid using
 IXCGrd= 4 IRadAn=           5 IRanWt=          -1 IRanGd=           0 AccXCQ= 0.00D+00.
 Generated NRdTot=       0 NPtTot=           0 NUsed=           0 NTot=          32
 NSgBfM=   355   355   355   355   355 MxSgAt=    21 MxSgA2=    21.
 Leave Link  302 at Sun Oct 13 23:10:03 2019, MaxMem= 10737418240 cpu:               5.4 elap:               0.2
 (Enter /apps/cent7/gaussian/g16-A.03/g16-haswell/g16/l303.exe)
 DipDrv:  MaxL=1.
 Leave Link  303 at Sun Oct 13 23:10:03 2019, MaxMem= 10737418240 cpu:               1.7 elap:               0.1
 (Enter /apps/cent7/gaussian/g16-A.03/g16-haswell/g16/l401.exe)
 ExpMin= 3.60D-02 ExpMax= 8.59D+03 ExpMxC= 1.30D+03 IAcc=3 IRadAn=         5 AccDes= 0.00D+00
 Harris functional with IExCor= 1009 and IRadAn=       5 diagonalized for initial guess.
 HarFok:  IExCor= 1009 AccDes= 0.00D+00 IRadAn=         5 IDoV= 1 UseB2=F ITyADJ=14
 ICtDFT=  3500011 ScaDFX=  1.000000  1.000000  1.000000  1.000000
 FoFCou: FMM=F IPFlag=           0 FMFlag=      100000 FMFlg1=           0
         NFxFlg=           0 DoJE=T BraDBF=F KetDBF=T FulRan=T
         wScrn=  0.000000 ICntrl=       500 IOpCl=  0 I1Cent=   200000004 NGrid=           0
         NMat0=    1 NMatS0=      1 NMatT0=    0 NMatD0=    1 NMtDS0=    0 NMtDT0=    0
 Petite list used in FoFCou.
 Harris En= -607.181354306077    
 JPrj=0 DoOrth=F DoCkMO=F.
 Leave Link  401 at Sun Oct 13 23:10:04 2019, MaxMem= 10737418240 cpu:              13.5 elap:               0.6
 (Enter /apps/cent7/gaussian/g16-A.03/g16-haswell/g16/l502.exe)
 Integral symmetry usage will be decided dynamically.
 Closed shell SCF:
 Using DIIS extrapolation, IDIIS=  1040.
 NGot= 10737418240 LenX= 10737154257 LenY= 10737027791
 Requested convergence on RMS density matrix=1.00D-08 within 128 cycles.
 Requested convergence on MAX density matrix=1.00D-06.
 Requested convergence on             energy=1.00D-06.
 No special actions if energy rises.
 Fock matrices will be formed incrementally for  20 cycles.

 Cycle   1  Pass 1  IDiag  1:
 FoFJK:  IHMeth= 1 ICntrl=       0 DoSepK=F KAlg= 0 I1Cent=           0 FoldK=F
 IRaf= 900000000 NMat=       1 IRICut=       1 DoRegI=T DoRafI=F ISym2E= 0 IDoP0=0 IntGTp=1.
 FoFCou: FMM=F IPFlag=           0 FMFlag=      100000 FMFlg1=           0
         NFxFlg=           0 DoJE=F BraDBF=F KetDBF=F FulRan=T
         wScrn=  0.000000 ICntrl=         0 IOpCl=  0 I1Cent=           0 NGrid=           0
         NMat0=    1 NMatS0=      1 NMatT0=    0 NMatD0=    1 NMtDS0=    0 NMtDT0=    0
 Symmetry not used in FoFCou.
 E= -607.198801886745    
 DIIS: error= 1.93D-02 at cycle   1 NSaved=   1.
 NSaved= 1 IEnMin= 1 EnMin= -607.198801886745     IErMin= 1 ErrMin= 1.93D-02
 ErrMax= 1.93D-02  0.00D+00 EMaxC= 1.00D-01 BMatC= 3.84D-01 BMatP= 3.84D-01
 IDIUse=3 WtCom= 8.07D-01 WtEn= 1.93D-01
 Coeff-Com:  0.100D+01
 Coeff-En:   0.100D+01
 Coeff:      0.100D+01
 Gap=     0.287 Goal=   None    Shift=    0.000
 GapD=    0.287 DampG=1.000 DampE=0.500 DampFc=0.5000 IDamp=-1.
 Damping current iteration by 5.00D-01
 RMSDP=2.86D-02 MaxDP=2.04D+00              OVMax= 2.45D-01

 Cycle   2  Pass 1  IDiag  1:
 RMSU=  1.15D-02    CP:  1.16D+00
 E= -607.329336112529     Delta-E=       -0.130534225784 Rises=F Damp=T
 DIIS: error= 6.65D-03 at cycle   2 NSaved=   2.
 NSaved= 2 IEnMin= 2 EnMin= -607.329336112529     IErMin= 2 ErrMin= 6.65D-03
 ErrMax= 6.65D-03  0.00D+00 EMaxC= 1.00D-01 BMatC= 4.70D-02 BMatP= 3.84D-01
 IDIUse=3 WtCom= 9.34D-01 WtEn= 6.65D-02
 Coeff-Com: -0.829D-01 0.108D+01
 Coeff-En:   0.000D+00 0.100D+01
 Coeff:     -0.774D-01 0.108D+01
 Gap=     0.225 Goal=   None    Shift=    0.000
 RMSDP=1.11D-02 MaxDP=8.41D-01 DE=-1.31D-01 OVMax= 2.65D-01

 Cycle   3  Pass 1  IDiag  1:
 RMSU=  1.01D-02    CP:  1.10D+00  6.95D-01
 E= -607.444607381883     Delta-E=       -0.115271269354 Rises=F Damp=F
 DIIS: error= 1.26D-02 at cycle   3 NSaved=   3.
 NSaved= 3 IEnMin= 3 EnMin= -607.444607381883     IErMin= 2 ErrMin= 6.65D-03
 ErrMax= 1.26D-02  0.00D+00 EMaxC= 1.00D-01 BMatC= 4.32D-02 BMatP= 4.70D-02
 IDIUse=3 WtCom= 8.74D-01 WtEn= 1.26D-01
 Coeff-Com: -0.153D+00 0.598D+00 0.555D+00
 Coeff-En:   0.000D+00 0.000D+00 0.100D+01
 Coeff:     -0.133D+00 0.522D+00 0.611D+00
 Gap=     0.247 Goal=   None    Shift=    0.000
 RMSDP=5.63D-03 MaxDP=4.10D-01 DE=-1.15D-01 OVMax= 8.99D-02

 Cycle   4  Pass 1  IDiag  1:
 RMSU=  3.19D-03    CP:  1.06D+00  7.30D-01  6.03D-01
 E= -607.478316824385     Delta-E=       -0.033709442502 Rises=F Damp=F
 DIIS: error= 6.63D-03 at cycle   4 NSaved=   4.
 NSaved= 4 IEnMin= 4 EnMin= -607.478316824385     IErMin= 4 ErrMin= 6.63D-03
 ErrMax= 6.63D-03  0.00D+00 EMaxC= 1.00D-01 BMatC= 8.06D-03 BMatP= 4.32D-02
 IDIUse=3 WtCom= 9.34D-01 WtEn= 6.63D-02
 Coeff-Com: -0.531D-01 0.145D+00 0.345D+00 0.563D+00
 Coeff-En:   0.000D+00 0.000D+00 0.153D+00 0.847D+00
 Coeff:     -0.496D-01 0.135D+00 0.332D+00 0.582D+00
 Gap=     0.196 Goal=   None    Shift=    0.000
 RMSDP=1.65D-03 MaxDP=7.74D-02 DE=-3.37D-02 OVMax= 2.85D-02

 Cycle   5  Pass 1  IDiag  1:
 RMSU=  7.39D-04    CP:  1.06D+00  7.74D-01  6.79D-01  6.39D-01
 E= -607.485127621940     Delta-E=       -0.006810797556 Rises=F Damp=F
 DIIS: error= 1.30D-03 at cycle   5 NSaved=   5.
 NSaved= 5 IEnMin= 5 EnMin= -607.485127621940     IErMin= 5 ErrMin= 1.30D-03
 ErrMax= 1.30D-03  0.00D+00 EMaxC= 1.00D-01 BMatC= 2.97D-04 BMatP= 8.06D-03
 IDIUse=3 WtCom= 9.87D-01 WtEn= 1.30D-02
 Coeff-Com: -0.141D-01 0.282D-01 0.122D+00 0.276D+00 0.589D+00
 Coeff-En:   0.000D+00 0.000D+00 0.000D+00 0.000D+00 0.100D+01
 Coeff:     -0.139D-01 0.278D-01 0.120D+00 0.272D+00 0.594D+00
 Gap=     0.199 Goal=   None    Shift=    0.000
 RMSDP=4.00D-04 MaxDP=2.89D-02 DE=-6.81D-03 OVMax= 8.21D-03

 Cycle   6  Pass 1  IDiag  1:
 RMSU=  2.70D-04    CP:  1.06D+00  7.76D-01  6.85D-01  5.90D-01  8.42D-01
 E= -607.485400962852     Delta-E=       -0.000273340911 Rises=F Damp=F
 DIIS: error= 3.87D-04 at cycle   6 NSaved=   6.
 NSaved= 6 IEnMin= 6 EnMin= -607.485400962852     IErMin= 6 ErrMin= 3.87D-04
 ErrMax= 3.87D-04  0.00D+00 EMaxC= 1.00D-01 BMatC= 3.56D-05 BMatP= 2.97D-04
 IDIUse=3 WtCom= 9.96D-01 WtEn= 3.87D-03
 Coeff-Com:  0.880D-03-0.573D-02 0.897D-02 0.370D-01 0.278D+00 0.681D+00
 Coeff-En:   0.000D+00 0.000D+00 0.000D+00 0.000D+00 0.111D-01 0.989D+00
 Coeff:      0.877D-03-0.571D-02 0.893D-02 0.368D-01 0.277D+00 0.682D+00
 Gap=     0.199 Goal=   None    Shift=    0.000
 RMSDP=1.38D-04 MaxDP=1.08D-02 DE=-2.73D-04 OVMax= 2.74D-03

 Cycle   7  Pass 1  IDiag  1:
 RMSU=  8.55D-05    CP:  1.06D+00  7.72D-01  6.85D-01  6.03D-01  8.35D-01
                    CP:  8.32D-01
 E= -607.485440003639     Delta-E=       -0.000039040787 Rises=F Damp=F
 DIIS: error= 1.45D-04 at cycle   7 NSaved=   7.
 NSaved= 7 IEnMin= 7 EnMin= -607.485440003639     IErMin= 7 ErrMin= 1.45D-04
 ErrMax= 1.45D-04  0.00D+00 EMaxC= 1.00D-01 BMatC= 3.01D-06 BMatP= 3.56D-05
 IDIUse=3 WtCom= 9.99D-01 WtEn= 1.45D-03
 Coeff-Com:  0.207D-02-0.574D-02-0.912D-02-0.167D-01 0.531D-01 0.259D+00
 Coeff-Com:  0.717D+00
 Coeff-En:   0.000D+00 0.000D+00 0.000D+00 0.000D+00 0.000D+00 0.000D+00
 Coeff-En:   0.100D+01
 Coeff:      0.207D-02-0.573D-02-0.911D-02-0.167D-01 0.530D-01 0.259D+00
 Coeff:      0.718D+00
 Gap=     0.199 Goal=   None    Shift=    0.000
 RMSDP=6.23D-05 MaxDP=3.92D-03 DE=-3.90D-05 OVMax= 1.05D-03

 Cycle   8  Pass 1  IDiag  1:
 RMSU=  2.50D-05    CP:  1.06D+00  7.74D-01  6.84D-01  5.91D-01  8.77D-01
                    CP:  8.93D-01  1.06D+00
 E= -607.485444042722     Delta-E=       -0.000004039082 Rises=F Damp=F
 DIIS: error= 5.85D-05 at cycle   8 NSaved=   8.
 NSaved= 8 IEnMin= 8 EnMin= -607.485444042722     IErMin= 8 ErrMin= 5.85D-05
 ErrMax= 5.85D-05  0.00D+00 EMaxC= 1.00D-01 BMatC= 7.70D-07 BMatP= 3.01D-06
 IDIUse=1 WtCom= 1.00D+00 WtEn= 0.00D+00
 Coeff-Com:  0.907D-03-0.184D-02-0.600D-02-0.160D-01-0.267D-01-0.160D-01
 Coeff-Com:  0.354D+00 0.712D+00
 Coeff:      0.907D-03-0.184D-02-0.600D-02-0.160D-01-0.267D-01-0.160D-01
 Coeff:      0.354D+00 0.712D+00
 Gap=     0.199 Goal=   None    Shift=    0.000
 RMSDP=2.28D-05 MaxDP=1.57D-03 DE=-4.04D-06 OVMax= 4.12D-04

 Cycle   9  Pass 1  IDiag  1:
 RMSU=  1.44D-05    CP:  1.06D+00  7.75D-01  6.85D-01  5.91D-01  8.76D-01
                    CP:  9.03D-01  1.13D+00  8.47D-01
 E= -607.485445051252     Delta-E=       -0.000001008530 Rises=F Damp=F
 DIIS: error= 1.50D-05 at cycle   9 NSaved=   9.
 NSaved= 9 IEnMin= 9 EnMin= -607.485445051252     IErMin= 9 ErrMin= 1.50D-05
 ErrMax= 1.50D-05  0.00D+00 EMaxC= 1.00D-01 BMatC= 6.24D-08 BMatP= 7.70D-07
 IDIUse=1 WtCom= 1.00D+00 WtEn= 0.00D+00
 Coeff-Com:  0.167D-03-0.229D-03-0.120D-02-0.422D-02-0.131D-01-0.294D-01
 Coeff-Com:  0.879D-01 0.282D+00 0.678D+00
 Coeff:      0.167D-03-0.229D-03-0.120D-02-0.422D-02-0.131D-01-0.294D-01
 Coeff:      0.879D-01 0.282D+00 0.678D+00
 Gap=     0.199 Goal=   None    Shift=    0.000
 RMSDP=6.48D-06 MaxDP=3.99D-04 DE=-1.01D-06 OVMax= 1.63D-04

 Cycle  10  Pass 1  IDiag  1:
 RMSU=  4.21D-06    CP:  1.06D+00  7.75D-01  6.85D-01  5.90D-01  8.77D-01
                    CP:  9.06D-01  1.13D+00  8.83D-01  1.09D+00
 E= -607.485445144430     Delta-E=       -0.000000093178 Rises=F Damp=F
 DIIS: error= 6.98D-06 at cycle  10 NSaved=  10.
 NSaved=10 IEnMin=10 EnMin= -607.485445144430     IErMin=10 ErrMin= 6.98D-06
 ErrMax= 6.98D-06  0.00D+00 EMaxC= 1.00D-01 BMatC= 1.53D-08 BMatP= 6.24D-08
 IDIUse=1 WtCom= 1.00D+00 WtEn= 0.00D+00
 Coeff-Com: -0.123D-03 0.280D-03 0.858D-03 0.177D-02-0.284D-04-0.121D-01
 Coeff-Com: -0.452D-01-0.499D-01 0.320D+00 0.785D+00
 Coeff:     -0.123D-03 0.280D-03 0.858D-03 0.177D-02-0.284D-04-0.121D-01
 Coeff:     -0.452D-01-0.499D-01 0.320D+00 0.785D+00
 Gap=     0.199 Goal=   None    Shift=    0.000
 RMSDP=5.26D-06 MaxDP=3.47D-04 DE=-9.32D-08 OVMax= 1.56D-04

 Cycle  11  Pass 1  IDiag  1:
 RMSU=  2.04D-06    CP:  1.06D+00  7.75D-01  6.85D-01  5.89D-01  8.77D-01
                    CP:  9.06D-01  1.13D+00  8.88D-01  1.29D+00  1.31D+00
 E= -607.485445179908     Delta-E=       -0.000000035478 Rises=F Damp=F
 DIIS: error= 1.59D-06 at cycle  11 NSaved=  11.
 NSaved=11 IEnMin=11 EnMin= -607.485445179908     IErMin=11 ErrMin= 1.59D-06
 ErrMax= 1.59D-06  0.00D+00 EMaxC= 1.00D-01 BMatC= 1.84D-09 BMatP= 1.53D-08
 IDIUse=1 WtCom= 1.00D+00 WtEn= 0.00D+00
 Coeff-Com: -0.496D-04 0.973D-04 0.442D-03 0.109D-02 0.171D-02 0.122D-03
 Coeff-Com: -0.236D-01-0.502D-01-0.214D-02 0.239D+00 0.834D+00
 Coeff:     -0.496D-04 0.973D-04 0.442D-03 0.109D-02 0.171D-02 0.122D-03
 Coeff:     -0.236D-01-0.502D-01-0.214D-02 0.239D+00 0.834D+00
 Gap=     0.199 Goal=   None    Shift=    0.000
 RMSDP=1.62D-06 MaxDP=8.59D-05 DE=-3.55D-08 OVMax= 7.88D-05

 Cycle  12  Pass 1  IDiag  1:
 RMSU=  6.51D-07    CP:  1.06D+00  7.75D-01  6.85D-01  5.89D-01  8.77D-01
                    CP:  9.07D-01  1.13D+00  8.86D-01  1.36D+00  1.48D+00
                    CP:  1.21D+00
 E= -607.485445186192     Delta-E=       -0.000000006284 Rises=F Damp=F
 DIIS: error= 1.02D-06 at cycle  12 NSaved=  12.
 NSaved=12 IEnMin=12 EnMin= -607.485445186192     IErMin=12 ErrMin= 1.02D-06
 ErrMax= 1.02D-06  0.00D+00 EMaxC= 1.00D-01 BMatC= 4.56D-10 BMatP= 1.84D-09
 IDIUse=1 WtCom= 1.00D+00 WtEn= 0.00D+00
 Coeff-Com:  0.150D-04-0.393D-04-0.573D-04-0.530D-04 0.599D-03 0.339D-02
 Coeff-Com:  0.261D-02-0.629D-02-0.974D-01-0.115D+00 0.316D+00 0.896D+00
 Coeff:      0.150D-04-0.393D-04-0.573D-04-0.530D-04 0.599D-03 0.339D-02
 Coeff:      0.261D-02-0.629D-02-0.974D-01-0.115D+00 0.316D+00 0.896D+00
 Gap=     0.199 Goal=   None    Shift=    0.000
 RMSDP=1.09D-06 MaxDP=5.63D-05 DE=-6.28D-09 OVMax= 5.88D-05

 Cycle  13  Pass 1  IDiag  1:
 RMSU=  3.57D-07    CP:  1.06D+00  7.75D-01  6.85D-01  5.89D-01  8.77D-01
                    CP:  9.07D-01  1.13D+00  8.89D-01  1.40D+00  1.58D+00
                    CP:  1.40D+00  1.27D+00
 E= -607.485445188231     Delta-E=       -0.000000002039 Rises=F Damp=F
 DIIS: error= 3.34D-07 at cycle  13 NSaved=  13.
 NSaved=13 IEnMin=13 EnMin= -607.485445188231     IErMin=13 ErrMin= 3.34D-07
 ErrMax= 3.34D-07  0.00D+00 EMaxC= 1.00D-01 BMatC= 8.85D-11 BMatP= 4.56D-10
 IDIUse=1 WtCom= 1.00D+00 WtEn= 0.00D+00
 Coeff-Com:  0.127D-04-0.281D-04-0.986D-04-0.192D-03-0.933D-04 0.112D-02
 Coeff-Com:  0.505D-02 0.849D-02-0.267D-01-0.709D-01-0.832D-01 0.282D+00
 Coeff-Com:  0.885D+00
 Coeff:      0.127D-04-0.281D-04-0.986D-04-0.192D-03-0.933D-04 0.112D-02
 Coeff:      0.505D-02 0.849D-02-0.267D-01-0.709D-01-0.832D-01 0.282D+00
 Coeff:      0.885D+00
 Gap=     0.199 Goal=   None    Shift=    0.000
 RMSDP=3.10D-07 MaxDP=9.88D-06 DE=-2.04D-09 OVMax= 2.25D-05

 Cycle  14  Pass 1  IDiag  1:
 RMSU=  1.19D-07    CP:  1.06D+00  7.75D-01  6.85D-01  5.89D-01  8.77D-01
                    CP:  9.07D-01  1.13D+00  8.89D-01  1.41D+00  1.61D+00
                    CP:  1.47D+00  1.52D+00  1.07D+00
 E= -607.485445188541     Delta-E=       -0.000000000310 Rises=F Damp=F
 DIIS: error= 1.61D-07 at cycle  14 NSaved=  14.
 NSaved=14 IEnMin=14 EnMin= -607.485445188541     IErMin=14 ErrMin= 1.61D-07
 ErrMax= 1.61D-07  0.00D+00 EMaxC= 1.00D-01 BMatC= 1.68D-11 BMatP= 8.85D-11
 IDIUse=1 WtCom= 1.00D+00 WtEn= 0.00D+00
 Coeff-Com:  0.204D-05-0.370D-05-0.350D-04-0.706D-04-0.157D-03-0.126D-03
 Coeff-Com:  0.141D-02 0.472D-02 0.612D-02-0.856D-02-0.890D-01-0.445D-01
 Coeff-Com:  0.329D+00 0.801D+00
 Coeff:      0.204D-05-0.370D-05-0.350D-04-0.706D-04-0.157D-03-0.126D-03
 Coeff:      0.141D-02 0.472D-02 0.612D-02-0.856D-02-0.890D-01-0.445D-01
 Coeff:      0.329D+00 0.801D+00
 Gap=     0.199 Goal=   None    Shift=    0.000
 RMSDP=1.41D-07 MaxDP=7.87D-06 DE=-3.10D-10 OVMax= 8.50D-06

 Cycle  15  Pass 1  IDiag  1:
 RMSU=  5.00D-08    CP:  1.06D+00  7.75D-01  6.85D-01  5.89D-01  8.77D-01
                    CP:  9.07D-01  1.13D+00  8.90D-01  1.41D+00  1.61D+00
                    CP:  1.48D+00  1.60D+00  1.19D+00  1.20D+00
 E= -607.485445188598     Delta-E=       -0.000000000057 Rises=F Damp=F
 DIIS: error= 7.74D-08 at cycle  15 NSaved=  15.
 NSaved=15 IEnMin=15 EnMin= -607.485445188598     IErMin=15 ErrMin= 7.74D-08
 ErrMax= 7.74D-08  0.00D+00 EMaxC= 1.00D-01 BMatC= 2.12D-12 BMatP= 1.68D-11
 IDIUse=1 WtCom= 1.00D+00 WtEn= 0.00D+00
 Coeff-Com: -0.165D-05 0.380D-05 0.349D-05 0.846D-05-0.338D-04-0.217D-03
 Coeff-Com: -0.441D-03 0.833D-04 0.642D-02 0.700D-02-0.126D-01-0.609D-01
 Coeff-Com: -0.437D-01 0.233D+00 0.872D+00
 Coeff:     -0.165D-05 0.380D-05 0.349D-05 0.846D-05-0.338D-04-0.217D-03
 Coeff:     -0.441D-03 0.833D-04 0.642D-02 0.700D-02-0.126D-01-0.609D-01
 Coeff:     -0.437D-01 0.233D+00 0.872D+00
 Gap=     0.199 Goal=   None    Shift=    0.000
 RMSDP=5.54D-08 MaxDP=3.01D-06 DE=-5.68D-11 OVMax= 3.13D-06

 Cycle  16  Pass 1  IDiag  1:
 RMSU=  1.86D-08    CP:  1.06D+00  7.75D-01  6.85D-01  5.89D-01  8.77D-01
                    CP:  9.07D-01  1.13D+00  8.91D-01  1.42D+00  1.61D+00
                    CP:  1.49D+00  1.63D+00  1.23D+00  1.34D+00  1.12D+00
 E= -607.485445188597     Delta-E=        0.000000000001 Rises=F Damp=F
 DIIS: error= 4.26D-08 at cycle  16 NSaved=  16.
 NSaved=16 IEnMin=15 EnMin= -607.485445188598     IErMin=16 ErrMin= 4.26D-08
 ErrMax= 4.26D-08  0.00D+00 EMaxC= 1.00D-01 BMatC= 6.66D-13 BMatP= 2.12D-12
 IDIUse=1 WtCom= 1.00D+00 WtEn= 0.00D+00
 Coeff-Com: -0.110D-05 0.241D-05 0.694D-05 0.139D-04 0.993D-05-0.884D-04
 Coeff-Com: -0.418D-03-0.697D-03 0.253D-02 0.435D-02 0.990D-02-0.223D-01
 Coeff-Com: -0.739D-01-0.224D-01 0.426D+00 0.677D+00
 Coeff:     -0.110D-05 0.241D-05 0.694D-05 0.139D-04 0.993D-05-0.884D-04
 Coeff:     -0.418D-03-0.697D-03 0.253D-02 0.435D-02 0.990D-02-0.223D-01
 Coeff:     -0.739D-01-0.224D-01 0.426D+00 0.677D+00
 Gap=     0.199 Goal=   None    Shift=    0.000
 RMSDP=1.81D-08 MaxDP=1.01D-06 DE= 9.09D-13 OVMax= 5.73D-07

 Cycle  17  Pass 1  IDiag  1:
 RMSU=  9.89D-09    CP:  1.06D+00  7.75D-01  6.85D-01  5.89D-01  8.77D-01
                    CP:  9.07D-01  1.13D+00  8.91D-01  1.42D+00  1.61D+00
                    CP:  1.49D+00  1.63D+00  1.25D+00  1.37D+00  1.21D+00
                    CP:  1.08D+00
 E= -607.485445188601     Delta-E=       -0.000000000004 Rises=F Damp=F
 DIIS: error= 1.29D-08 at cycle  17 NSaved=  17.
 NSaved=17 IEnMin=17 EnMin= -607.485445188601     IErMin=17 ErrMin= 1.29D-08
 ErrMax= 1.29D-08  0.00D+00 EMaxC= 1.00D-01 BMatC= 6.46D-14 BMatP= 6.66D-13
 IDIUse=1 WtCom= 1.00D+00 WtEn= 0.00D+00
 Coeff-Com:  0.201D-07-0.428D-07 0.124D-05 0.170D-05 0.105D-04 0.157D-04
 Coeff-Com: -0.147D-04-0.196D-03-0.411D-03-0.982D-03 0.511D-02 0.546D-02
 Coeff-Com: -0.724D-02-0.489D-01-0.529D-01 0.144D+00 0.956D+00
 Coeff:      0.201D-07-0.428D-07 0.124D-05 0.170D-05 0.105D-04 0.157D-04
 Coeff:     -0.147D-04-0.196D-03-0.411D-03-0.982D-03 0.511D-02 0.546D-02
 Coeff:     -0.724D-02-0.489D-01-0.529D-01 0.144D+00 0.956D+00
 Gap=     0.199 Goal=   None    Shift=    0.000
 RMSDP=9.10D-09 MaxDP=4.40D-07 DE=-3.64D-12 OVMax= 3.27D-07

 SCF Done:  E(RM062X) =  -607.485445189     A.U. after   17 cycles
            NFock= 17  Conv=0.91D-08     -V/T= 2.0021
 KE= 6.061988532838D+02 PE=-2.950649314269D+03 EE= 9.706911917595D+02
 Leave Link  502 at Sun Oct 13 23:10:31 2019, MaxMem= 10737418240 cpu:             652.3 elap:              27.3
 (Enter /apps/cent7/gaussian/g16-A.03/g16-haswell/g16/l601.exe)
 Copying SCF densities to generalized density rwf, IOpCl= 0 IROHF=0.

 **********************************************************************

            Population analysis using the SCF density.

 **********************************************************************

 Orbital symmetries:
       Occupied  (A) (A) (A) (A) (A) (A) (A) (A) (A) (A) (A) (A)
                 (A) (A) (A) (A) (A) (A) (A) (A) (A) (A) (A) (A)
                 (A) (A) (A) (A) (A) (A) (A) (A) (A) (A) (A) (A)
                 (A) (A) (A) (A) (A) (A) (A) (A) (A) (A)
       Virtual   (A) (A) (A) (A) (A) (A) (A) (A) (A) (A) (A) (A)
                 (A) (A) (A) (A) (A) (A) (A) (A) (A) (A) (A) (A)
                 (A) (A) (A) (A) (A) (A) (A) (A) (A) (A) (A) (A)
                 (A) (A) (A) (A) (A) (A) (A) (A) (A) (A) (A) (A)
                 (A) (A) (A) (A) (A) (A) (A) (A) (A) (A) (A) (A)
                 (A) (A) (A) (A) (A) (A) (A) (A) (A) (A) (A) (A)
                 (A) (A) (A) (A) (A) (A) (A) (A) (A) (A) (A) (A)
                 (A) (A) (A) (A) (A) (A) (A) (A) (A) (A) (A) (A)
                 (A) (A) (A) (A) (A) (A) (A) (A) (A) (A) (A) (A)
                 (A) (A) (A) (A) (A) (A) (A) (A) (A) (A) (A) (A)
                 (A) (A) (A) (A) (A) (A) (A) (A) (A) (A) (A) (A)
                 (A) (A) (A) (A) (A) (A) (A) (A) (A) (A) (A) (A)
                 (A) (A) (A) (A) (A) (A) (A) (A) (A) (A) (A) (A)
                 (A) (A) (A) (A) (A) (A) (A) (A) (A) (A) (A) (A)
                 (A) (A) (A) (A) (A) (A) (A) (A) (A) (A) (A) (A)
                 (A) (A) (A) (A) (A) (A) (A) (A) (A) (A) (A) (A)
                 (A) (A) (A) (A) (A) (A) (A) (A) (A) (A) (A) (A)
                 (A) (A) (A) (A) (A) (A) (A) (A) (A) (A) (A) (A)
                 (A) (A) (A) (A) (A) (A) (A) (A) (A) (A) (A) (A)
                 (A) (A) (A) (A) (A) (A) (A) (A) (A) (A) (A) (A)
                 (A) (A) (A) (A) (A) (A) (A) (A) (A) (A) (A) (A)
                 (A) (A) (A) (A) (A) (A) (A) (A) (A) (A) (A) (A)
                 (A) (A) (A) (A) (A) (A) (A) (A) (A) (A) (A) (A)
                 (A) (A) (A) (A) (A) (A) (A) (A) (A) (A) (A) (A)
                 (A) (A) (A) (A) (A) (A)
 The electronic state is 1-A.
 Alpha  occ. eigenvalues --  -19.69666 -19.65240 -14.83439 -14.74763 -10.63927
 Alpha  occ. eigenvalues --  -10.59699 -10.59223 -10.57737 -10.56930 -10.56501
 Alpha  occ. eigenvalues --  -10.55893 -10.55871 -10.54841  -1.30320  -1.21072
 Alpha  occ. eigenvalues --   -1.12146  -0.99952  -0.95444  -0.87197  -0.84866
 Alpha  occ. eigenvalues --   -0.82215  -0.79446  -0.72499  -0.70630  -0.68523
 Alpha  occ. eigenvalues --   -0.64140  -0.60355  -0.59999  -0.59306  -0.56658
 Alpha  occ. eigenvalues --   -0.53809  -0.52976  -0.52033  -0.51559  -0.50454
 Alpha  occ. eigenvalues --   -0.49404  -0.44384  -0.44114  -0.43351  -0.41180
 Alpha  occ. eigenvalues --   -0.39084  -0.36992  -0.35399  -0.31768  -0.30989
 Alpha  occ. eigenvalues --   -0.28443
 Alpha virt. eigenvalues --   -0.08520  -0.01733  -0.00247   0.00299   0.00602
 Alpha virt. eigenvalues --    0.01869   0.02740   0.03028   0.03737   0.04516
 Alpha virt. eigenvalues --    0.05003   0.05177   0.05994   0.07578   0.07919
 Alpha virt. eigenvalues --    0.08216   0.08521   0.09583   0.09885   0.10316
 Alpha virt. eigenvalues --    0.11223   0.11470   0.12277   0.12654   0.12996
 Alpha virt. eigenvalues --    0.13319   0.13538   0.13878   0.14364   0.14913
 Alpha virt. eigenvalues --    0.15422   0.15937   0.16267   0.16959   0.17151
 Alpha virt. eigenvalues --    0.17868   0.18225   0.18793   0.19206   0.19807
 Alpha virt. eigenvalues --    0.19869   0.20531   0.21113   0.22149   0.22827
 Alpha virt. eigenvalues --    0.23327   0.23753   0.24451   0.24589   0.25273
 Alpha virt. eigenvalues --    0.25858   0.26419   0.27012   0.27511   0.27822
 Alpha virt. eigenvalues --    0.28619   0.28834   0.29285   0.29480   0.30118
 Alpha virt. eigenvalues --    0.31217   0.31575   0.32262   0.32554   0.33464
 Alpha virt. eigenvalues --    0.33720   0.34550   0.35456   0.35844   0.36906
 Alpha virt. eigenvalues --    0.38024   0.38052   0.39188   0.40065   0.41873
 Alpha virt. eigenvalues --    0.42578   0.44748   0.46938   0.48074   0.49253
 Alpha virt. eigenvalues --    0.50812   0.52258   0.53176   0.53976   0.55627
 Alpha virt. eigenvalues --    0.56429   0.57208   0.57456   0.59559   0.59777
 Alpha virt. eigenvalues --    0.61043   0.61606   0.61804   0.63686   0.64169
 Alpha virt. eigenvalues --    0.65185   0.65833   0.68292   0.68473   0.69599
 Alpha virt. eigenvalues --    0.71302   0.71810   0.73094   0.74358   0.75549
 Alpha virt. eigenvalues --    0.76493   0.77046   0.77583   0.78802   0.81290
 Alpha virt. eigenvalues --    0.82820   0.83863   0.85816   0.87122   0.88410
 Alpha virt. eigenvalues --    0.88936   0.89834   0.92029   0.93241   0.93424
 Alpha virt. eigenvalues --    0.94199   0.94810   0.96170   0.97029   0.99686
 Alpha virt. eigenvalues --    0.99767   1.01277   1.02457   1.03710   1.04568
 Alpha virt. eigenvalues --    1.05911   1.06346   1.08082   1.08240   1.10676
 Alpha virt. eigenvalues --    1.11963   1.12152   1.12917   1.15382   1.19357
 Alpha virt. eigenvalues --    1.19446   1.22533   1.24116   1.25010   1.27081
 Alpha virt. eigenvalues --    1.31090   1.31374   1.32231   1.36502   1.38629
 Alpha virt. eigenvalues --    1.39893   1.41437   1.47375   1.47679   1.49881
 Alpha virt. eigenvalues --    1.51933   1.54033   1.55037   1.55919   1.58715
 Alpha virt. eigenvalues --    1.59524   1.59941   1.62380   1.64072   1.64842
 Alpha virt. eigenvalues --    1.65260   1.68138   1.68315   1.70571   1.72942
 Alpha virt. eigenvalues --    1.73378   1.76149   1.76935   1.77441   1.78528
 Alpha virt. eigenvalues --    1.81008   1.84376   1.85665   1.86315   1.88505
 Alpha virt. eigenvalues --    1.90517   1.92478   1.93704   1.94689   1.94960
 Alpha virt. eigenvalues --    1.96662   1.99466   2.00332   2.02441   2.04035
 Alpha virt. eigenvalues --    2.06217   2.10149   2.10936   2.14081   2.15873
 Alpha virt. eigenvalues --    2.18308   2.19156   2.22112   2.23570   2.24486
 Alpha virt. eigenvalues --    2.27606   2.28832   2.34777   2.40099   2.47180
 Alpha virt. eigenvalues --    2.48601   2.51042   2.52096   2.52748   2.54499
 Alpha virt. eigenvalues --    2.55752   2.57943   2.58789   2.59171   2.62209
 Alpha virt. eigenvalues --    2.64073   2.65322   2.68584   2.72479   2.73204
 Alpha virt. eigenvalues --    2.73867   2.74787   2.77173   2.77473   2.79541
 Alpha virt. eigenvalues --    2.81596   2.83791   2.84622   2.87476   2.87939
 Alpha virt. eigenvalues --    2.91314   2.92512   2.97613   2.98844   3.02310
 Alpha virt. eigenvalues --    3.03178   3.08011   3.09109   3.14460   3.15010
 Alpha virt. eigenvalues --    3.15756   3.19726   3.24271   3.29445   3.36584
 Alpha virt. eigenvalues --    3.38050   3.39437   3.40862   3.43219   3.46270
 Alpha virt. eigenvalues --    3.47274   3.51061   3.55324   3.58392   3.66546
 Alpha virt. eigenvalues --    3.67205   3.71480   3.83805   3.86088   3.87028
 Alpha virt. eigenvalues --    3.94292   3.99199   4.03389   4.05326   4.06226
 Alpha virt. eigenvalues --    4.08354   4.10433   4.18588   4.22756   4.37979
 Alpha virt. eigenvalues --    4.45196   4.61633   4.80796   4.89175   5.20432
 Alpha virt. eigenvalues --    5.26283   5.38720   5.49222   5.51969   5.89236
 Alpha virt. eigenvalues --    6.13407  23.72319  23.96517  24.00048  24.02084
 Alpha virt. eigenvalues --   24.07738  24.13466  24.15362  24.23650  24.38959
 Alpha virt. eigenvalues --   35.74847  35.85175  50.02864  50.09864
          Condensed to atoms (all electrons):
               1          2          3          4          5          6
     1  O    7.794606  -0.228158   0.354046   0.334828  -0.011060   0.003911
     2  N   -0.228158   7.724730  -0.885082  -0.979834   0.047515   0.027664
     3  C    0.354046  -0.885082  16.271036  -1.232536  -0.350142   0.125997
     4  C    0.334828  -0.979834  -1.232536  14.455927   0.511957  -0.321402
     5  O   -0.011060   0.047515  -0.350142   0.511957   8.014665   0.162563
     6  C    0.003911   0.027664   0.125997  -0.321402   0.162563   5.133810
     7  N    0.011792  -0.010137   0.759791  -0.147928  -0.149783  -0.001664
     8  C   -0.214254   0.616147  -6.187920   0.972446  -0.045870  -0.108714
     9  C   -0.011993   0.084037  -2.601720  -0.694288   0.056880   0.002381
    10  C    0.028655  -0.022747   0.236429  -0.005595  -0.004253  -0.002564
    11  C    0.139018  -0.052107   0.286874   0.042306   0.000646   0.015497
    12  C    0.397559  -0.456901   0.906575  -1.560148   0.059962   0.092919
    13  C   -0.977807   1.460316  -1.200815  -5.038558  -0.040115   0.027657
    14  H    0.319798  -0.031177  -0.059406  -0.040080  -0.001327  -0.003894
    15  H    0.004377  -0.002044  -0.015155   0.027933  -0.060779   0.409363
    16  H   -0.002828   0.011934   0.096556  -0.179246  -0.054889   0.390226
    17  H   -0.000449  -0.001811  -0.066270   0.096851  -0.043588   0.406779
    18  H   -0.000589   0.001223  -0.036968  -0.009976  -0.000028  -0.000437
    19  H    0.000430  -0.000269   0.015725  -0.006547  -0.000212  -0.000022
    20  H   -0.001867   0.001549  -0.020263  -0.001103  -0.000068  -0.000014
    21  H    0.012974   0.033947  -0.076028  -0.038396   0.002997   0.001169
               7          8          9         10         11         12
     1  O    0.011792  -0.214254  -0.011993   0.028655   0.139018   0.397559
     2  N   -0.010137   0.616147   0.084037  -0.022747  -0.052107  -0.456901
     3  C    0.759791  -6.187920  -2.601720   0.236429   0.286874   0.906575
     4  C   -0.147928   0.972446  -0.694288  -0.005595   0.042306  -1.560148
     5  O   -0.149783  -0.045870   0.056880  -0.004253   0.000646   0.059962
     6  C   -0.001664  -0.108714   0.002381  -0.002564   0.015497   0.092919
     7  N    7.067720  -0.080053  -0.947011   0.006470   0.010811  -0.213902
     8  C   -0.080053  17.073531  -2.081124  -0.968153   0.964947  -5.759524
     9  C   -0.947011  -2.081124  12.352597   0.787405  -1.396681   4.534938
    10  C    0.006470  -0.968153   0.787405   6.114434   0.286538  -0.465143
    11  C    0.010811   0.964947  -1.396681   0.286538   8.512969  -1.333455
    12  C   -0.213902  -5.759524   4.534938  -0.465143  -1.333455  17.229282
    13  C    0.715075   1.835551  -4.063018  -0.235874  -1.233494  -7.036554
    14  H    0.002970   0.022285  -0.001882  -0.001207  -0.013095  -0.024991
    15  H    0.007585  -0.005503  -0.003053   0.000472   0.000352   0.002172
    16  H    0.021909  -0.009028  -0.017227  -0.001516   0.004679  -0.028659
    17  H   -0.014790   0.027910   0.008730   0.000203  -0.001143  -0.004001
    18  H   -0.004767  -0.087187   0.477549  -0.032968   0.001937   0.052107
    19  H    0.001513   0.019687  -0.104429   0.435260  -0.076290  -0.058051
    20  H    0.000118   0.076071  -0.029163  -0.085897   0.428937  -0.083525
    21  H   -0.009251  -0.042306   0.122775   0.039397  -0.152806   0.646321
              13         14         15         16         17         18
     1  O   -0.977807   0.319798   0.004377  -0.002828  -0.000449  -0.000589
     2  N    1.460316  -0.031177  -0.002044   0.011934  -0.001811   0.001223
     3  C   -1.200815  -0.059406  -0.015155   0.096556  -0.066270  -0.036968
     4  C   -5.038558  -0.040080   0.027933  -0.179246   0.096851  -0.009976
     5  O   -0.040115  -0.001327  -0.060779  -0.054889  -0.043588  -0.000028
     6  C    0.027657  -0.003894   0.409363   0.390226   0.406779  -0.000437
     7  N    0.715075   0.002970   0.007585   0.021909  -0.014790  -0.004767
     8  C    1.835551   0.022285  -0.005503  -0.009028   0.027910  -0.087187
     9  C   -4.063018  -0.001882  -0.003053  -0.017227   0.008730   0.477549
    10  C   -0.235874  -0.001207   0.000472  -0.001516   0.000203  -0.032968
    11  C   -1.233494  -0.013095   0.000352   0.004679  -0.001143   0.001937
    12  C   -7.036554  -0.024991   0.002172  -0.028659  -0.004001   0.052107
    13  C   20.217665   0.100148  -0.015191   0.076867  -0.035752  -0.047279
    14  H    0.100148   0.442639   0.000598   0.001480  -0.000360   0.000002
    15  H   -0.015191   0.000598   0.525058  -0.026808  -0.037515  -0.000060
    16  H    0.076867   0.001480  -0.026808   0.601098  -0.048575   0.000006
    17  H   -0.035752  -0.000360  -0.037515  -0.048575   0.534908   0.000209
    18  H   -0.047279   0.000002  -0.000060   0.000006   0.000209   0.475062
    19  H    0.096960   0.000004   0.000019  -0.000061  -0.000007  -0.010216
    20  H    0.052318   0.000348  -0.000002   0.000184  -0.000014   0.001111
    21  H   -0.218054  -0.015077  -0.000598  -0.001371   0.000257   0.001003
              19         20         21
     1  O    0.000430  -0.001867   0.012974
     2  N   -0.000269   0.001549   0.033947
     3  C    0.015725  -0.020263  -0.076028
     4  C   -0.006547  -0.001103  -0.038396
     5  O   -0.000212  -0.000068   0.002997
     6  C   -0.000022  -0.000014   0.001169
     7  N    0.001513   0.000118  -0.009251
     8  C    0.019687   0.076071  -0.042306
     9  C   -0.104429  -0.029163   0.122775
    10  C    0.435260  -0.085897   0.039397
    11  C   -0.076290   0.428937  -0.152806
    12  C   -0.058051  -0.083525   0.646321
    13  C    0.096960   0.052318  -0.218054
    14  H    0.000004   0.000348  -0.015077
    15  H    0.000019  -0.000002  -0.000598
    16  H   -0.000061   0.000184  -0.001371
    17  H   -0.000007  -0.000014   0.000257
    18  H   -0.010216   0.001111   0.001003
    19  H    0.486296  -0.012178   0.000819
    20  H   -0.012178   0.485385  -0.016169
    21  H    0.000819  -0.016169   0.519837
 Mulliken charges:
               1
     1  O    0.047011
     2  N   -0.338794
     3  C   -0.320723
     4  C   -0.186609
     5  O   -0.095069
     6  C   -0.361222
     7  N   -0.026469
     8  C   -0.018940
     9  C   -0.475706
    10  C   -0.109348
    11  C   -0.436439
    12  C   -0.896981
    13  C    1.559955
    14  H    0.302226
    15  H    0.188777
    16  H    0.165266
    17  H    0.178427
    18  H    0.220267
    19  H    0.211568
    20  H    0.204241
    21  H    0.188561
 Sum of Mulliken charges =  -0.00000
 Mulliken charges with hydrogens summed into heavy atoms:
               1
     1  O    0.349236
     2  N   -0.338794
     3  C   -0.320723
     4  C   -0.186609
     5  O   -0.095069
     6  C    0.171248
     7  N   -0.026469
     8  C   -0.018940
     9  C   -0.255439
    10  C    0.102220
    11  C   -0.232198
    12  C   -0.708420
    13  C    1.559955
 Electronic spatial extent (au):  <R**2>=           2274.2367
 Charge=             -0.0000 electrons
 Dipole moment (field-independent basis, Debye):
    X=             -1.2975    Y=              1.4582    Z=              3.5436  Tot=              4.0456
 Quadrupole moment (field-independent basis, Debye-Ang):
   XX=            -67.4564   YY=            -72.4929   ZZ=            -75.7159
   XY=             -0.8850   XZ=              6.2866   YZ=              3.8073
 Traceless Quadrupole moment (field-independent basis, Debye-Ang):
   XX=              4.4320   YY=             -0.6045   ZZ=             -3.8275
   XY=             -0.8850   XZ=              6.2866   YZ=              3.8073
 Octapole moment (field-independent basis, Debye-Ang**2):
  XXX=              6.0003  YYY=             25.8577  ZZZ=              0.0260  XYY=             -5.8790
  XXY=            -12.9654  XXZ=             22.2619  XZZ=             16.9019  YZZ=             10.2004
  YYZ=             22.5372  XYZ=             -1.7560
 Hexadecapole moment (field-independent basis, Debye-Ang**3):
 XXXX=          -1749.2773 YYYY=           -878.0568 ZZZZ=           -142.2382 XXXY=            -25.9399
 XXXZ=             34.3379 YYYX=             12.5666 YYYZ=             57.4359 ZZZX=              6.2978
 ZZZY=              5.4662 XXYY=           -448.1284 XXZZ=           -374.0234 YYZZ=           -169.0054
 XXYZ=             -8.4344 YYXZ=             20.8071 ZZXY=              2.3927
 N-N= 7.662738240373D+02 E-N=-2.950649314706D+03  KE= 6.061988532838D+02
 No NMR shielding tensors so no spin-rotation constants.
 Leave Link  601 at Sun Oct 13 23:10:32 2019, MaxMem= 10737418240 cpu:               3.5 elap:               0.2
 (Enter /apps/cent7/gaussian/g16-A.03/g16-haswell/g16/l701.exe)
 ... and contract with generalized density number  0.
 Compute integral first derivatives.
 Leave Link  701 at Sun Oct 13 23:10:32 2019, MaxMem= 10737418240 cpu:               4.1 elap:               0.2
 (Enter /apps/cent7/gaussian/g16-A.03/g16-haswell/g16/l702.exe)
 L702 exits ... SP integral derivatives will be done elsewhere.
 Leave Link  702 at Sun Oct 13 23:10:32 2019, MaxMem= 10737418240 cpu:               0.4 elap:               0.0
 (Enter /apps/cent7/gaussian/g16-A.03/g16-haswell/g16/l703.exe)
 Integral derivatives from FoFJK, PRISM(SPDF).
 Compute integral first derivatives, UseDBF=F ICtDFT=           0.
 Calling FoFJK, ICntrl=      2127 FMM=F ISym2X=0 I1Cent= 0 IOpClX= 0 NMat=1 NMatS=1 NMatT=0.
 FoFJK:  IHMeth= 1 ICntrl=    2127 DoSepK=F KAlg= 0 I1Cent=           0 FoldK=F
 IRaf=         0 NMat=       1 IRICut=       1 DoRegI=T DoRafI=F ISym2E= 0 IDoP0=0 IntGTp=1.
 FoFCou: FMM=F IPFlag=           0 FMFlag=      100000 FMFlg1=         800
         NFxFlg=           0 DoJE=F BraDBF=F KetDBF=F FulRan=T
         wScrn=  0.000000 ICntrl=      2127 IOpCl=  0 I1Cent=           0 NGrid=           0
         NMat0=    1 NMatS0=      1 NMatT0=    0 NMatD0=    1 NMtDS0=    0 NMtDT0=    0
 Symmetry not used in FoFCou.
 Leave Link  703 at Sun Oct 13 23:10:36 2019, MaxMem= 10737418240 cpu:             103.8 elap:               4.4
 (Enter /apps/cent7/gaussian/g16-A.03/g16-haswell/g16/l716.exe)
 Dipole        =-5.10456815D-01 5.73694797D-01 1.39416330D+00
 ***** Axes restored to original set *****
 -------------------------------------------------------------------
 Center     Atomic                   Forces (Hartrees/Bohr)
 Number     Number              X              Y              Z
 -------------------------------------------------------------------
      1        8           0.099225486    0.016995868   -0.009530165
      2        7          -0.135884783   -0.030778702    0.007755897
      3        6           0.121368548   -0.075465543   -0.003568779
      4        6          -0.124159505    0.005662087   -0.005677106
      5        8           0.001299009   -0.005204757    0.007262425
      6        6          -0.001187958    0.001170044   -0.002894417
      7        7          -0.099250141   -0.039896409    0.003856945
      8        6           0.071001624    0.065767336   -0.000271454
      9        6           0.004049816   -0.005358804   -0.000659550
     10        6           0.000865996   -0.016157828   -0.000371962
     11        6          -0.010260083   -0.002107936   -0.000287860
     12        6          -0.008486378    0.004163040    0.000094958
     13        6           0.081873563    0.088210122    0.000205353
     14        1           0.003475260   -0.002237963    0.006537941
     15        1           0.001487462    0.000478044   -0.003770539
     16        1          -0.000261522   -0.001059749    0.002549622
     17        1           0.000087813    0.001591163   -0.000424054
     18        1           0.003182692   -0.003648980    0.000119794
     19        1          -0.000450884   -0.004796214   -0.000122197
     20        1          -0.004628061   -0.001979103    0.000063960
     21        1          -0.003347955    0.004654282   -0.000868812
 -------------------------------------------------------------------
 Cartesian Forces:  Max     0.135884783 RMS     0.040181256
 Leave Link  716 at Sun Oct 13 23:10:36 2019, MaxMem= 10737418240 cpu:               0.6 elap:               0.0
 (Enter /apps/cent7/gaussian/g16-A.03/g16-haswell/g16/l103.exe)

 GradGradGradGradGradGradGradGradGradGradGradGradGradGradGradGradGradGrad
 Berny optimization.
 FormGI is forming the generalized inverse of G from B-inverse, IUseBI=4.
 Internal  Forces:  Max     0.123536885 RMS     0.023019690
 Search for a local minimum.
 Step number   1 out of a maximum of  110
 All quantities printed in internal units (Hartrees-Bohrs-Radians)
 RMS Force = .23020D-01 SwitMx=.10000D-02 MixMth= 1
 Mixed Optimization -- RFO/linear search
 Second derivative matrix not updated -- first step.
 ITU=  0
     Eigenvalues ---    0.01148   0.01912   0.01922   0.01925   0.01945
     Eigenvalues ---    0.01962   0.01975   0.02213   0.02256   0.02370
     Eigenvalues ---    0.02471   0.02729   0.02795   0.02955   0.03034
     Eigenvalues ---    0.03242   0.10288   0.10288   0.16000   0.16000
     Eigenvalues ---    0.16000   0.16000   0.16000   0.16000   0.16000
     Eigenvalues ---    0.16000   0.22000   0.22607   0.24521   0.24983
     Eigenvalues ---    0.24998   0.24999   0.25000   0.25000   0.25000
     Eigenvalues ---    0.34810   0.34811   0.34813   0.34813   0.34813
     Eigenvalues ---    0.34815   0.34818   0.38978   0.39429   0.40279
     Eigenvalues ---    0.43455   0.43663   0.43981   0.44348   0.48449
     Eigenvalues ---    0.52781   0.55474   0.56957   0.62248   0.68087
     Eigenvalues ---    0.72206   0.76749
 RFO step:  Lambda=-8.64343994D-02 EMin= 1.14755305D-02
 Linear search not attempted -- first point.
 Maximum step size (   0.300) exceeded in Quadratic search.
    -- Step size scaled by   0.765
 Iteration  1 RMS(Cart)=  0.05671768 RMS(Int)=  0.00156457
 Iteration  2 RMS(Cart)=  0.00284692 RMS(Int)=  0.00005258
 Iteration  3 RMS(Cart)=  0.00001116 RMS(Int)=  0.00005233
 Iteration  4 RMS(Cart)=  0.00000000 RMS(Int)=  0.00005233
 ITry= 1 IFail=0 DXMaxC= 1.98D-01 DCOld= 1.00D+10 DXMaxT= 3.00D-01 DXLimC= 3.00D+00 Rises=F
 Variable       Old X    -DE/DX   Delta X   Delta X   Delta X     New X
                                 (Linear)    (Quad)   (Total)
    R1        2.39718   0.10005   0.00000   0.08960   0.08960   2.48678
    R2        1.81414   0.00742   0.00000   0.00885   0.00885   1.82299
    R3        2.42414  -0.00141   0.00000  -0.00133  -0.00133   2.42281
    R4        2.54739   0.12354   0.00000   0.14963   0.14965   2.69705
    R5        2.58160   0.08895   0.00000   0.11349   0.11351   2.69511
    R6        2.53433   0.00138   0.00000   0.00161   0.00161   2.53594
    R7        2.42808   0.00691   0.00000   0.00711   0.00710   2.43518
    R8        2.72336  -0.00475   0.00000  -0.00756  -0.00756   2.71581
    R9        2.05985  -0.00092   0.00000  -0.00162  -0.00162   2.05823
   R10        2.05980   0.00110   0.00000   0.00193   0.00193   2.06173
   R11        2.05980   0.00046   0.00000   0.00080   0.00080   2.06060
   R12        2.47221   0.10823   0.00000   0.11089   0.11086   2.58307
   R13        2.65748  -0.01844   0.00000  -0.02604  -0.02602   2.63146
   R14        2.62933   0.02465   0.00000   0.03286   0.03282   2.66214
   R15        2.66678  -0.01285   0.00000  -0.01948  -0.01943   2.64735
   R16        2.05982  -0.00473   0.00000  -0.00833  -0.00833   2.05149
   R17        2.67198  -0.01546   0.00000  -0.02391  -0.02388   2.64810
   R18        2.05971  -0.00481   0.00000  -0.00847  -0.00847   2.05123
   R19        2.66953  -0.01621   0.00000  -0.02419  -0.02421   2.64532
   R20        2.05980  -0.00503   0.00000  -0.00886  -0.00886   2.05094
   R21        2.66321  -0.01766   0.00000  -0.02486  -0.02490   2.63830
   R22        2.05976  -0.00550   0.00000  -0.00967  -0.00967   2.05009
    A1        1.91064   0.00227   0.00000   0.00705   0.00705   1.91769
    A2        2.18580  -0.06519   0.00000  -0.14818  -0.14818   2.03762
    A3        2.16920  -0.01061   0.00000  -0.02699  -0.02701   2.14219
    A4        2.26852   0.01360   0.00000   0.02806   0.02804   2.29656
    A5        1.84545  -0.00298   0.00000  -0.00105  -0.00102   1.84442
    A6        2.18491  -0.00092   0.00000  -0.00467  -0.00467   2.18024
    A7        1.94937  -0.00307   0.00000  -0.00181  -0.00182   1.94755
    A8        2.14887   0.00399   0.00000   0.00650   0.00651   2.15538
    A9        1.96393   0.01049   0.00000   0.02385   0.02385   1.98778
   A10        1.91057  -0.00668   0.00000  -0.02134  -0.02134   1.88923
   A11        1.91063   0.00503   0.00000   0.01605   0.01606   1.92670
   A12        1.91062  -0.00092   0.00000  -0.00269  -0.00273   1.90789
   A13        1.91067   0.00034   0.00000   0.00070   0.00075   1.91142
   A14        1.91062   0.00265   0.00000   0.00735   0.00729   1.91791
   A15        1.91068  -0.00042   0.00000  -0.00007  -0.00009   1.91059
   A16        1.88973  -0.00374   0.00000  -0.01059  -0.01068   1.87906
   A17        2.26475  -0.01262   0.00000  -0.02692  -0.02689   2.23786
   A18        1.90056   0.02224   0.00000   0.04420   0.04415   1.94471
   A19        2.11763  -0.00962   0.00000  -0.01723  -0.01722   2.10041
   A20        2.06678  -0.00032   0.00000  -0.00200  -0.00194   2.06485
   A21        2.10526  -0.00090   0.00000  -0.00227  -0.00230   2.10296
   A22        2.11114   0.00121   0.00000   0.00427   0.00424   2.11538
   A23        2.10160   0.00744   0.00000   0.01455   0.01462   2.11622
   A24        2.08910  -0.00355   0.00000  -0.00675  -0.00679   2.08232
   A25        2.09248  -0.00389   0.00000  -0.00779  -0.00783   2.08465
   A26        2.10368   0.00227   0.00000   0.00215   0.00216   2.10583
   A27        2.09057  -0.00112   0.00000  -0.00103  -0.00104   2.08954
   A28        2.08894  -0.00115   0.00000  -0.00112  -0.00112   2.08782
   A29        2.06688  -0.00330   0.00000  -0.00841  -0.00848   2.05840
   A30        2.11006  -0.00004   0.00000  -0.00102  -0.00099   2.10907
   A31        2.10624   0.00333   0.00000   0.00943   0.00947   2.11571
   A32        1.83946  -0.01241   0.00000  -0.03051  -0.03047   1.80899
   A33        2.33374   0.00890   0.00000   0.01959   0.01963   2.35337
   A34        2.10979   0.00352   0.00000   0.01093   0.01086   2.12065
    D1        1.58493   0.00304   0.00000   0.01993   0.01993   1.60486
    D2        3.14075  -0.00168   0.00000  -0.01093  -0.01092   3.12983
    D3       -0.00742  -0.00124   0.00000  -0.00788  -0.00789  -0.01531
    D4        0.00489  -0.00077   0.00000  -0.00584  -0.00598  -0.00108
    D5       -3.12784  -0.00111   0.00000  -0.00811  -0.00827  -3.13611
    D6       -3.13146  -0.00118   0.00000  -0.00839  -0.00846  -3.13992
    D7        0.01899  -0.00152   0.00000  -0.01066  -0.01075   0.00824
    D8        3.13687   0.00077   0.00000   0.00454   0.00439   3.14126
    D9       -0.02655   0.00087   0.00000   0.00542   0.00530  -0.02125
   D10       -0.01037   0.00111   0.00000   0.00705   0.00694  -0.00343
   D11        3.10939   0.00120   0.00000   0.00794   0.00785   3.11724
   D12        1.64241   0.00021   0.00000   0.00134   0.00132   1.64373
   D13       -1.50902   0.00054   0.00000   0.00381   0.00383  -1.50518
   D14       -0.01990   0.00180   0.00000   0.01059   0.01046  -0.00945
   D15        3.13034   0.00149   0.00000   0.00844   0.00827   3.13861
   D16       -2.39771  -0.00131   0.00000  -0.00918  -0.00909  -2.40680
   D17       -0.30330  -0.00190   0.00000  -0.01156  -0.01162  -0.31492
   D18        1.79114   0.00011   0.00000  -0.00347  -0.00350   1.78765
   D19       -3.10487  -0.00102   0.00000  -0.00774  -0.00785  -3.11272
   D20        0.01253  -0.00074   0.00000  -0.00529  -0.00537   0.00715
   D21        3.11645   0.00066   0.00000   0.00352   0.00352   3.11997
   D22       -0.02503   0.00052   0.00000   0.00280   0.00280  -0.02224
   D23        0.00166  -0.00001   0.00000   0.00012   0.00015   0.00181
   D24       -3.13982  -0.00014   0.00000  -0.00060  -0.00058  -3.14040
   D25       -0.00091   0.00007   0.00000  -0.00096  -0.00104  -0.00195
   D26       -3.12411  -0.00013   0.00000  -0.00193  -0.00203  -3.12615
   D27        3.11891   0.00021   0.00000   0.00098   0.00096   3.11987
   D28       -0.00430   0.00001   0.00000   0.00001  -0.00003  -0.00433
   D29        0.00233   0.00000   0.00000  -0.00008  -0.00008   0.00225
   D30       -3.13936  -0.00010   0.00000  -0.00064  -0.00065  -3.14000
   D31       -3.13937   0.00014   0.00000   0.00064   0.00065  -3.13872
   D32        0.00213   0.00004   0.00000   0.00008   0.00008   0.00221
   D33       -0.00376  -0.00005   0.00000  -0.00018  -0.00019  -0.00395
   D34        3.13770  -0.00009   0.00000  -0.00057  -0.00057   3.13712
   D35        3.13793   0.00005   0.00000   0.00038   0.00038   3.13831
   D36       -0.00380   0.00001   0.00000  -0.00000  -0.00000  -0.00380
   D37        0.00117   0.00004   0.00000   0.00030   0.00029   0.00145
   D38       -3.14034  -0.00039   0.00000  -0.00301  -0.00300   3.13985
   D39       -3.14029   0.00008   0.00000   0.00068   0.00067  -3.13962
   D40        0.00139  -0.00035   0.00000  -0.00263  -0.00262  -0.00123
   D41       -3.11424  -0.00000   0.00000  -0.00086  -0.00088  -3.11512
   D42        0.00282  -0.00003   0.00000  -0.00023  -0.00019   0.00263
   D43        0.02726   0.00042   0.00000   0.00244   0.00242   0.02968
   D44       -3.13886   0.00039   0.00000   0.00307   0.00311  -3.13575
         Item               Value     Threshold  Converged?
 Maximum Force            0.123537     0.000450     NO 
 RMS     Force            0.023020     0.000300     NO 
 Maximum Displacement     0.198409     0.001800     NO 
 RMS     Displacement     0.057376     0.001200     NO 
 Predicted change in Energy=-4.478318D-02
 Lowest energy point so far.  Saving SCF results.
 GradGradGradGradGradGradGradGradGradGradGradGradGradGradGradGradGradGrad

 Leave Link  103 at Sun Oct 13 23:10:37 2019, MaxMem= 10737418240 cpu:               1.4 elap:               0.1
 (Enter /apps/cent7/gaussian/g16-A.03/g16-haswell/g16/l202.exe)
                          Input orientation:                          
 ---------------------------------------------------------------------
 Center     Atomic      Atomic             Coordinates (Angstroms)
 Number     Number       Type             X           Y           Z
 ---------------------------------------------------------------------
      1          8           0        1.271345   -0.036415   -0.029245
      2          7           0       -0.043894   -0.014196    0.007688
      3          6           0       -0.601916    1.140067    0.000444
      4          6           0       -2.018470    1.312714    0.023112
      5          8           0       -2.913718    0.313458    0.052749
      6          6           0       -3.350159   -0.037955    1.376157
      7          7           0       -2.344513    2.559278    0.003784
      8          6           0       -1.189411    3.289747   -0.020111
      9          6           0       -1.045702    4.674808   -0.014719
     10          6           0        0.249658    5.208297   -0.016688
     11          6           0        1.378043    4.377436   -0.026584
     12          6           0        1.238765    2.984545   -0.030047
     13          6           0       -0.053601    2.456395   -0.025142
     14          1           0        1.624388   -0.054706    0.868330
     15          1           0       -3.394468   -1.124142    1.443430
     16          1           0       -2.651255    0.345162    2.121195
     17          1           0       -4.339183    0.385376    1.554049
     18          1           0       -1.919336    5.319226   -0.009719
     19          1           0        0.380527    6.285831   -0.011051
     20          1           0        2.370169    4.817381   -0.032105
     21          1           0        2.110231    2.338495   -0.039327
 ---------------------------------------------------------------------
                    Distance matrix (angstroms):
                    1          2          3          4          5
     1  O    0.000000
     2  N    1.315945   0.000000
     3  C    2.212261   1.282094   0.000000
     4  C    3.556089   2.379049   1.427215   0.000000
     5  O    4.200462   2.888819   2.455697   1.341961   0.000000
     6  C    4.830471   3.578359   3.291376   2.329899   1.437142
     7  N    4.451196   3.451903   2.247402   1.288643   2.317348
     8  C    4.137482   3.497002   2.228609   2.144264   3.440471
     9  C    5.250194   4.794881   3.562522   3.500198   4.745040
    10  C    5.343314   5.230794   4.156436   4.507943   5.828483
    11  C    4.415141   4.616223   3.794934   4.575073   5.911127
    12  C    3.021136   3.261761   2.605981   3.661615   4.938084
    13  C    2.823048   2.470828   1.426191   2.273992   3.574704
    14  H    0.964684   1.877635   2.671543   3.981789   4.625486
    15  H    5.012158   3.810469   3.873912   3.138302   2.057135
    16  H    4.489630   3.375556   3.054382   2.395521   2.085272
    17  H    5.844891   4.582619   4.117088   2.930774   2.071479
    18  H    6.234077   5.653581   4.381902   4.007873   5.103960
    19  H    6.384723   6.314335   5.238722   5.521616   6.820950
    20  H    4.976621   5.401243   4.728317   5.616573   6.943485
    21  H    2.518736   3.190239   2.965393   4.254679   5.417501
                    6          7          8          9         10
     6  C    0.000000
     7  N    3.104891   0.000000
     8  C    4.206185   1.366901   0.000000
     9  C    5.427263   2.482482   1.392506   0.000000
    10  C    6.513206   3.707755   2.398284   1.400918   0.000000
    11  C    6.619611   4.142951   2.788356   2.441949   1.401314
    12  C    5.671960   3.608584   2.447302   2.841833   2.433842
    13  C    4.364941   2.293403   1.408746   2.430171   2.768574
    14  H    5.000428   4.830376   4.460063   5.502496   5.511111
    15  H    1.089170   4.091768   5.146518   6.424229   7.450596
    16  H    1.091021   3.078932   3.923361   5.087805   6.052761
    17  H    1.090424   3.332849   4.564474   5.630922   6.839974
    18  H    5.715530   2.792538   2.156776   1.085604   2.171840
    19  H    7.472123   4.616628   3.382500   2.151636   1.085467
    20  H    7.634110   5.227671   3.873554   3.418889   2.156298
    21  H    6.121026   4.460420   3.434077   3.926687   3.420235
                   11         12         13         14         15
    11  C    0.000000
    12  C    1.399841   0.000000
    13  C    2.395831   1.396130   0.000000
    14  H    4.528293   3.192622   3.149535   0.000000
    15  H    7.430017   6.365476   5.112566   5.163656   0.000000
    16  H    6.091586   5.169762   3.976414   4.473330   1.780614
    17  H    7.149939   6.354412   5.014895   6.018976   1.784200
    18  H    3.429280   3.927436   3.417163   6.496776   6.767913
    19  H    2.153428   3.411074   3.853991   6.520960   8.442381
    20  H    1.085309   2.153919   3.383632   5.010410   8.408920
    21  H    2.166458   1.084859   2.167088   2.605245   6.670092
                   16         17         18         19         20
    16  H    0.000000
    17  H    1.781116   0.000000
    18  H    5.460568   5.713484   0.000000
    19  H    7.002122   7.716253   2.494734   0.000000
    20  H    7.060604   8.195972   4.318819   2.472947   0.000000
    21  H    5.595800   6.924483   5.012289   4.309772   2.492487
                   21
    21  H    0.000000
 Stoichiometry    C9H8N2O2
 Framework group  C1[X(C9H8N2O2)]
 Deg. of freedom    57
 Full point group                 C1      NOp   1
 RotChk:  IX=0 Diff= 5.29D-02
 Largest Abelian subgroup         C1      NOp   1
 Largest concise Abelian subgroup C1      NOp   1
                         Standard orientation:                         
 ---------------------------------------------------------------------
 Center     Atomic      Atomic             Coordinates (Angstroms)
 Number     Number       Type             X           Y           Z
[...]
 8319,0.00092071,-0.00015795,-0.00032984,-0.00093974,0.00009506,0.00005
 191,0.00011308,0.00170586,-0.00075721,0.00695620,-0.00631615,0.0224813
 7,0.00234825,0.05512838,0.01668412,-0.07272749,-0.10962225,-0.03881038
 ,0.16562386,0.00173746,0.00141547,0.00007044,-0.00105088,0.00174554,-0
 .00059573,-0.00625804,-0.00728435,0.00387272,-0.00011151,0.00310145,-0
 .00034056,-0.00155039,-0.00236227,0.00053213,0.00073804,-0.00004529,-0
 .00017067,0.00148273,-0.00523623,-0.00013111,-0.02041249,0.04010415,0.
 00053374,-0.05482057,-0.03052274,0.01552403,-0.27831640,0.12643028,0.0
 3920320,0.70105197,-0.00045747,-0.00093056,0.00034087,0.00081714,-0.00
 218915,-0.00024766,0.00008370,0.01265089,-0.00028136,-0.00407317,0.000
 75206,0.00080803,-0.00126767,-0.00072602,0.00033759,0.00040594,-0.0001
 6272,-0.00008140,-0.00447842,-0.00309445,0.00115391,0.03964948,-0.0642
 6331,-0.00472537,0.02639928,0.07358552,-0.01054288,0.04869760,-0.18270
 833,-0.00246173,0.03006955,0.67330697,0.00019905,-0.00007244,0.0024632
 4,-0.00052948,-0.00046164,-0.00303924,0.00336268,0.00135959,0.00809882
 ,0.00015635,-0.00078627,-0.00065509,0.00045713,0.00058159,-0.00002605,
 -0.00020160,0.00001821,-0.00000177,-0.00018264,0.00132316,-0.00079374,
 0.00056340,-0.00482368,-0.00529598,0.01158606,0.00206951,0.00298594,0.
 04457815,-0.01968802,-0.07058671,-0.12849253,-0.04419430,0.16237983,-0
 .00121996,-0.00301771,0.00037074,-0.00059582,0.00499959,-0.00027152,0.
 00357892,-0.01595416,-0.00024795,0.00231019,0.00136655,-0.00046789,0.0
 0185590,0.00008757,-0.00026590,-0.00036802,0.00018208,0.00019514,0.001
 44375,0.00390556,0.00052841,-0.05421763,0.02599156,0.01068701,-0.01721
 394,-0.02951255,0.00525027,0.03677616,0.02740487,-0.00892750,-0.128170
 85,0.04538476,0.01142789,0.72499274,0.00344560,-0.00177464,-0.00067355
 ,-0.00313558,0.00440716,0.00036728,-0.02631085,-0.02017363,0.00705400,
 0.00511332,-0.00753797,-0.00056987,-0.00179850,0.00012579,0.00043744,0
 .00025730,-0.00024322,-0.00000149,0.01177277,0.00235189,-0.00242082,-0
 .03340617,0.07598107,0.00229969,-0.03220909,-0.05817394,0.01097076,0.0
 8528555,-0.02709886,-0.01667764,-0.02940758,-0.32462145,0.02466839,-0.
 04898892,0.66819462,-0.00007686,0.00075634,-0.00054256,0.00029165,-0.0
 0142769,-0.00020760,0.00046429,0.00474918,-0.00297737,-0.00072474,0.00
 026235,0.00078883,-0.00013600,0.00002023,0.00070767,0.00018915,0.00001
 548,0.00052615,-0.00001856,-0.00068210,0.00509063,0.01479448,-0.010866
 41,-0.00041596,0.00543875,0.01037548,-0.00464409,-0.01292707,-0.003853
 36,0.00818358,0.01659802,0.00808972,-0.06670380,-0.12691754,-0.0258779
 3,0.16698865,0.00532710,-0.00178742,-0.00393354,0.01330440,0.02002667,
 0.00190105,-0.11116580,-0.02356298,0.01252965,-0.03124351,-0.01990609,
 0.00992478,-0.00853742,-0.00116305,0.00199781,0.00129660,-0.00139092,-
 0.00026934,-0.05390832,-0.01703270,0.01537462,-0.22336235,0.03889959,0
 .03166795,0.03346747,0.06862022,-0.01093126,-0.07096294,0.00359957,0.0
 1461534,0.03558977,-0.08195082,-0.00066524,-0.29968718,-0.05986613,0.0
 5894673,0.72508072,-0.01163709,0.00586246,0.00125703,0.01363518,-0.046
 54908,0.00218497,-0.04976745,-0.19934218,0.02053299,-0.02798200,-0.006
 45177,0.00715808,0.00090451,-0.00005290,-0.00018996,0.00009574,-0.0003
 5786,-0.00001956,-0.01640152,0.00648716,0.00388941,0.10448421,-0.16682
 633,-0.01635401,0.02237819,-0.02519288,-0.00283163,0.00041997,-0.00235
 446,-0.00019868,-0.02731568,-0.03053308,0.00864945,-0.11442342,-0.1673
 5354,0.03331169,0.08965978,0.63086136,-0.00324422,-0.00092748,-0.01228
 232,0.00235678,0.00081450,0.02771471,0.01432944,0.01469711,-0.06616206
 ,0.01047171,0.00535945,0.00462952,0.00185537,0.00027211,-0.00030947,-0
 .00037159,0.00030836,-0.00028927,0.01532659,0.00402927,0.00652119,0.02
 713751,-0.00181828,-0.07416524,-0.00772871,-0.01308187,0.00817091,0.01
 482994,-0.00090521,-0.00712491,-0.00443809,0.02075980,0.00658426,0.062
 71509,0.02121132,-0.06772976,-0.13908742,-0.05484755,0.15986091,-0.092
 82086,0.12368266,0.01061954,-0.03108603,0.04833624,0.00166663,-0.01068
 762,-0.00265973,0.00358255,-0.00024544,0.00182660,0.00047063,0.0003021
 4,-0.00007065,-0.00010429,-0.00029258,-0.00006324,0.00004403,-0.000633
 08,-0.00007057,-0.00000848,-0.00012071,-0.00007641,0.00002755,-0.00003
 563,-0.00019564,0.00000671,0.00012381,-0.00015003,-0.00000708,0.000170
 49,-0.00000491,-0.00014876,-0.00019340,-0.00050905,0.00013905,0.000231
 31,-0.00029507,-0.00001258,0.13475174,0.18334836,-0.48689968,-0.006547
 03,-0.01002520,0.01153460,0.00082714,-0.00434148,0.00194611,0.00115127
 ,0.00218158,0.00067932,-0.00035601,-0.00075183,-0.00061114,0.00019518,
 0.00029250,0.00005528,-0.00007662,-0.00028364,0.00103685,-0.00005819,-
 0.00080462,-0.00039147,0.00020381,0.00026093,0.00022056,-0.00007787,-0
 .00015535,0.00007948,0.00003224,0.00015893,-0.00005088,-0.00006742,-0.
 00020145,0.00012634,0.00005612,-0.00014737,-0.00042173,0.00006857,-0.1
 6981485,0.47267129,0.00641039,0.00662747,-0.00711705,0.00578307,-0.012
 05557,-0.00856180,0.00370016,0.00077788,0.00381862,0.00044692,-0.00027
 903,0.00238345,-0.00005676,0.00004483,-0.00018247,0.00001886,0.0000022
 9,-0.00011869,0.00000500,-0.00010535,-0.00069039,0.00007818,0.00004242
 ,-0.00004479,-0.00002476,0.00002358,-0.00006109,-0.00000693,0.00003056
 ,0.00004354,-0.00016013,-0.00003073,-0.00046558,0.00011706,0.00012389,
 0.00023953,-0.00002104,0.00010098,0.00008401,-0.01624692,0.00468324,0.
 01023516,-0.00037007,0.00006490,0.00006614,0.00031237,0.00002265,-0.00
 007043,0.00004021,-0.00133633,0.00013717,-0.00568432,0.00450537,0.0010
 4203,-0.02818760,-0.03628441,0.00868773,-0.07774244,-0.08169096,0.0110
 3206,0.00105080,0.00040589,-0.00014808,0.00028383,-0.00030520,-0.00000
 759,-0.00006256,-0.00004607,0.00002207,0.00000178,-0.00000023,-0.00000
 281,-0.00007802,-0.00003531,0.00002308,0.00010113,-0.00015803,-0.00002
 431,-0.00047829,0.00005599,0.00009545,-0.00000801,-0.00005998,0.000010
 48,0.10062995,-0.00020893,-0.00000100,0.00004270,0.00010282,0.00001554
 ,-0.00002388,0.00013272,0.00028064,-0.00003135,0.00252479,0.00027461,-
 0.00054983,0.00394883,0.00828017,-0.00146779,-0.09653022,-0.29755559,0
 .03827082,-0.00092506,-0.00052818,0.00027624,0.00005938,0.00060757,-0.
 00004432,-0.00003599,-0.00003912,0.00001229,0.00001144,0.00000213,-0.0
 0000349,-0.00001992,-0.00003503,0.00000793,-0.00000624,0.00009154,-0.0
 0000901,-0.00024555,-0.00016225,0.00006363,0.00001972,-0.00003173,-0.0
 0000073,0.09988458,0.31149098,0.00008530,-0.00001781,-0.00006824,-0.00
 007607,-0.00000606,0.00001772,0.00003625,0.00029357,0.00021824,0.00117
 466,-0.00099083,0.00021367,0.00590948,0.00744798,-0.00210746,0.0120582
 7,0.03498349,-0.05855377,-0.00005709,-0.00001866,0.00052308,-0.0000328
 0,0.00003662,0.00015919,0.00002139,0.00001449,0.00001712,-0.00000369,-
 0.00000087,-0.00001028,0.00002202,0.00001126,0.00000956,-0.00003480,0.
 00002470,-0.00005191,0.00011625,-0.00000328,-0.00005467,0.00000490,0.0
 0001689,0.00001816,-0.01875256,-0.04041442,0.05412287,-0.00034446,-0.0
 0005021,0.00012997,0.00025359,-0.00010836,-0.00007581,-0.00073379,0.00
 003962,-0.00075012,0.00293246,0.00814264,0.00041569,-0.02241715,0.0186
 4371,0.03543181,-0.04985799,0.00533080,0.00865186,0.00072080,-0.002639
 07,0.00069271,0.00008480,0.00009239,-0.00055775,-0.00007064,-0.0000972
 4,0.00004231,0.00005585,-0.00000049,-0.00003775,-0.00006680,0.00003379
 ,0.00001920,-0.00001503,-0.00011587,-0.00005322,0.00000433,0.00018233,
 0.00008662,0.00003977,-0.00004599,0.00002905,0.00247060,-0.00461766,-0
 .01031576,0.06345607,0.00009657,0.00001572,0.00001490,-0.00007186,-0.0
 0006599,0.00004463,0.00003897,0.00006745,-0.00033594,-0.00154343,0.001
 31831,0.00123455,0.00545441,-0.00103688,-0.00189692,0.01107268,-0.1373
 0474,-0.12709871,0.00067149,-0.00022424,0.00066828,-0.00052747,-0.0002
 4122,-0.00041619,0.00006978,0.00006873,0.00001189,0.00002458,-0.000032
 99,0.00001875,0.00005907,0.00007956,-0.00002277,-0.00003902,-0.0000356
 9,0.00002934,0.00024489,0.00007173,0.00000515,-0.00001708,0.00001249,-
 0.00000187,0.00226865,-0.01280752,-0.02377791,-0.01593886,0.14130124,-
 0.00000925,0.00004651,0.00002193,-0.00006467,0.00003580,0.00001322,0.0
 0018533,0.00017018,-0.00019084,-0.00100251,-0.00398424,0.00055862,0.00
 935994,-0.00059417,-0.00221263,0.01647273,-0.12417264,-0.23596425,-0.0
 0075121,0.00014651,0.00031513,-0.00036556,0.00043950,0.00009526,0.0000
 6074,0.00001294,-0.00002312,-0.00000791,-0.00001283,0.00002312,0.00003
 659,-0.00000556,-0.00001969,-0.00004631,0.00011275,0.00001395,-0.00012
 264,-0.00016372,0.00000972,-0.00001428,0.00000002,-0.00000222,-0.00191
 999,0.00413066,0.00685903,-0.02287078,0.13850556,0.24965043,-0.0003257
 1,-0.00007031,0.00004211,0.00027044,-0.00010754,-0.00002616,-0.0004266
 1,0.00006037,0.00084722,0.00252845,0.00883488,-0.00258714,-0.03657401,
 0.01339402,-0.02171722,-0.09592046,0.04746994,-0.08539207,0.00073334,-
 0.00251584,-0.00050676,0.00045030,-0.00002977,0.00038812,-0.00010049,-
 0.00009858,0.00000815,0.00006699,0.00001016,0.00001684,-0.00008256,0.0
 0002925,0.00000500,0.00003394,-0.00014321,0.00006648,0.00000537,0.0002
 1906,-0.00011753,0.00002844,-0.00004660,-0.00003681,0.00772097,-0.0040
 7265,0.00984022,0.00348179,-0.00187841,0.00107105,0.11811103,0.0000931
 7,0.00000668,-0.00005335,-0.00008010,-0.00007026,-0.00000194,0.0001512
 6,0.00007959,0.00023606,-0.00186858,0.00147004,-0.00060589,0.00552524,
 -0.00127177,0.00051291,0.05282310,-0.10661616,0.09690069,0.00042876,-0
 .00026104,-0.00082909,-0.00025240,-0.00022953,0.00060692,0.00004969,0.
 00006502,-0.00004796,0.00001541,-0.00003360,-0.00002086,0.00005687,0.0
 0007893,-0.00001529,-0.00003988,-0.00004918,-0.00000618,0.00023150,0.0
 0007877,-0.00012165,-0.00001412,0.00001433,0.00000714,0.01274349,-0.00
 988115,0.02239222,-0.00884436,0.00882227,-0.01468061,-0.06103952,0.107
 80538,0.00016018,-0.00001643,0.00001269,-0.00004242,0.00002103,0.00000
 072,-0.00009341,-0.00024988,-0.00051090,0.00023408,0.00009296,0.000807
 67,0.00581224,-0.00545304,0.01218417,-0.09397452,0.09643436,-0.2205664
 8,0.00050521,0.00107685,0.00034393,0.00025391,-0.00043516,-0.00028194,
 -0.00003203,0.00002093,0.00001033,-0.00001517,0.00001738,0.00001273,-0
 .00001600,-0.00002076,-0.00000346,0.00004689,-0.00004966,-0.00002135,0
 .00008649,0.00006405,0.00000107,0.00000215,0.00001893,0.00000728,-0.00
 019537,-0.00026522,-0.00132172,-0.01085797,0.01303169,-0.01913385,0.09
 812283,-0.10427931,0.22846580,-0.00008570,0.00000154,0.00004420,0.0000
 9959,0.00002784,-0.00011549,-0.00001976,-0.00041572,0.00010012,0.00007
 706,-0.00003906,-0.00008547,0.00000275,0.00003460,0.00006494,-0.000004
 82,-0.00000511,0.00000479,0.00039672,0.00067144,-0.00105906,0.00268066
 ,-0.00131519,0.00043986,-0.26711516,0.12424951,0.04258785,-0.01526193,
 0.01475376,0.00284403,-0.00187261,-0.00365763,0.00230664,0.00017174,-0
 .00059676,-0.00024157,0.00150846,-0.00035832,0.00131763,0.00001166,-0.
 00001385,0.00000002,-0.00000370,0.00001095,0.00000044,0.00000512,-0.00
 000728,0.00001354,-0.00000192,-0.00000667,-0.00002006,0.27969248,-0.00
 006978,0.00013653,0.00001343,-0.00040126,-0.00078642,0.00011571,0.0017
 6201,-0.00015748,-0.00035857,0.00006889,-0.00051143,-0.00000193,-0.000
 08970,0.00025341,0.00002358,0.00004558,-0.00006063,-0.00000491,-0.0004
 4798,0.00285432,-0.00038620,0.02928869,-0.00931289,-0.00555295,0.12332
 039,-0.13126461,-0.02076087,-0.01423035,0.01232904,0.00245164,-0.00319
 919,-0.00079286,0.00127500,-0.00094150,-0.00103925,0.00020406,-0.00107
 828,-0.00502876,0.00109296,-0.00004016,0.00000946,0.00000872,-0.000018
 30,0.00001915,0.00000286,-0.00000187,-0.00002532,0.00002434,-0.0000115
 3,-0.00002744,-0.00001984,-0.13383545,0.13230095,0.00004882,-0.0000019
 3,0.00010422,-0.00008553,0.00001948,-0.00039652,-0.00004942,0.00012412
 ,0.00030560,-0.00009363,0.00002247,-0.00030122,0.00007355,-0.00000415,
 0.00029046,0.00000128,0.00000642,0.00001463,-0.00098131,-0.00063457,-0
 .00391248,-0.00167547,0.00123073,0.00454202,0.04265110,-0.02096789,-0.
 04419739,0.00484819,-0.00397115,0.00137159,0.00227450,0.00137715,0.006
 79493,-0.00021830,0.00012691,-0.00106446,0.00136812,0.00093345,0.00697
 473,0.00000181,0.00000286,0.00000663,0.00000246,-0.00000363,0.00000135
 ,-0.00000519,-0.00000461,-0.00001933,-0.00000135,0.00000924,-0.0000101
 6,-0.04716247,0.02225549,0.03405528,0.00011707,0.00007431,-0.00009726,
 -0.00010617,0.00002990,0.00011291,0.00007025,-0.00008326,-0.00021261,-
 0.00052370,0.00016974,0.00010701,-0.00003493,-0.00035240,0.00002223,0.
 00009938,0.00000361,-0.00002323,0.00031022,-0.00157160,0.00001583,-0.0
 0386007,-0.00216604,0.00265087,0.00470200,-0.02720364,0.00171380,-0.05
 846836,0.00108652,0.00424063,0.00470808,0.02725656,-0.00203224,-0.0040
 6586,0.00296444,0.00234613,-0.00139523,-0.00017917,0.00007366,0.000027
 85,0.00002049,0.00000728,-0.00000246,-0.00000830,0.00000106,-0.0000012
 0,0.00000840,-0.00000258,-0.00000218,0.00000897,0.00000242,0.00061003,
 0.00055348,-0.00104091,0.05715526,0.00006239,-0.00008251,-0.00002866,0
 .00003584,0.00000116,0.00002064,-0.00011710,-0.00010814,-0.00002992,-0
 .00022112,0.00034080,0.00002631,-0.00020628,-0.00038459,0.00006912,0.0
 0015130,-0.00000355,-0.00003357,0.00030714,-0.00089435,-0.00001375,-0.
 00245650,0.00116592,0.00097718,0.00260885,-0.01024658,0.00040322,0.001
 27870,-0.34206820,0.02066898,-0.00295006,-0.01081174,0.00168138,0.0031
 3331,0.00032864,-0.00020313,0.00007270,0.00085758,-0.00015276,-0.00002
 957,0.00000811,0.00001060,-0.00000938,-0.00001068,0.00000279,-0.000009
 22,0.00001330,0.00000024,-0.00000948,0.00001351,0.00000213,-0.00026622
 ,0.00060281,-0.00025326,-0.00133026,0.36118474,-0.00009619,-0.00003192
 ,-0.00027527,0.00011248,0.00002246,0.00038640,-0.00021031,-0.00003745,
 -0.00086544,0.00013422,-0.00006008,-0.00001293,0.00001225,0.00010162,-
 0.00005379,-0.00003346,-0.00000085,0.00000301,-0.00011434,0.00040264,-
 0.00011076,0.00267054,0.00091340,0.00677012,-0.00034876,0.00700950,0.0
 0354017,0.00422935,0.02071278,-0.04137241,0.00005482,-0.00501332,0.004
 37833,0.00233366,-0.00016662,0.00693590,0.00005813,-0.00009667,-0.0011
 2465,0.00001068,-0.00000041,0.00006481,0.00000114,0.00000256,-0.000000
 69,0.00000579,-0.00000335,0.00000020,-0.00000347,-0.00000227,0.0000009
 8,-0.00098425,-0.00043492,-0.00366562,-0.00671508,-0.02284745,0.029514
 39,0.00012473,0.00000422,-0.00004607,-0.00011803,-0.00012497,0.0000566
 9,0.00029740,0.00023231,0.00007943,0.00013794,0.00007886,-0.00002183,-
 0.00004800,-0.00006429,-0.00001684,0.00002940,0.00000619,-0.00002802,0
 .00001284,-0.00012903,-0.00013433,-0.00004297,0.00118911,-0.00025917,-
 0.00252603,0.00375691,0.00190888,-0.01704746,-0.01559242,0.00540475,-0
 .25772154,-0.12055886,0.05760636,0.00455430,0.00281295,-0.00064713,0.0
 0182553,0.00080221,0.00095502,-0.00002193,0.00001926,0.00000926,-0.000
 00015,-0.00000710,0.00000136,-0.00000104,0.00000466,-0.00000475,-0.000
 00646,0.00000573,0.00000598,-0.00081860,-0.00076531,0.00028261,0.00054
 051,0.00017317,-0.00107689,0.27058763,0.00041728,0.00006283,-0.0001023
 8,-0.00034802,-0.00022598,0.00009960,-0.00112521,0.00047326,0.00026680
 ,0.00029471,-0.00061818,-0.00001792,-0.00029116,0.00009738,0.00004777,
 0.00003907,-0.00003919,-0.00001257,-0.00030577,0.00035616,-0.00000076,
 0.00091519,-0.00123864,-0.00017531,0.00330813,-0.00079530,-0.00017636,
 0.01486500,0.01152505,-0.00392145,-0.12064985,-0.13161187,0.03339548,-
 0.02719538,-0.01050101,0.00692855,0.00102076,-0.00580635,0.00061706,-0
 .00006751,0.00002454,0.00001500,-0.00001960,-0.00000257,0.00000478,-0.
 00000737,0.00000137,0.00000124,-0.00000956,0.00000155,0.00000239,0.000
 72261,0.00043076,-0.00017470,-0.00053191,0.00066137,-0.00022282,0.1286
 3925,0.13629674,-0.00007482,-0.00001108,-0.00006526,0.00007244,0.00005
 047,0.00007975,0.00017265,-0.00003416,0.00069106,-0.00003649,0.0000301
 4,0.00007006,-0.00000135,-0.00000290,-0.00014343,-0.00003011,-0.000005
 18,-0.00008803,-0.00012165,-0.00003985,-0.00060357,-0.00024067,-0.0002
 3649,-0.00077079,0.00193935,-0.00027687,0.00684341,0.00329897,0.002830
 90,0.00154430,0.05761137,0.03337385,-0.05058066,0.00143079,0.00027781,
 0.00217874,0.00093825,0.00066600,0.00612841,0.00001531,-0.00000411,0.0
 0002302,0.00000224,0.00000200,0.00000314,0.00001853,-0.00000212,-0.000
 00222,-0.00001545,-0.00000028,0.00000298,0.00017995,0.00015505,0.00016
 761,-0.00102799,-0.00037880,-0.00400875,-0.06318191,-0.03616607,0.0422
 4236,0.00053825,0.00178528,-0.00059800,-0.00141220,-0.00053642,0.00077
 499,0.00086098,-0.00007551,-0.00119695,-0.00064602,0.00091672,0.000117
 84,-0.00000697,-0.00028691,0.00001768,0.00002747,-0.00000487,-0.000008
 95,-0.00144557,-0.00033365,0.00020256,-0.00065176,-0.00331956,0.002301
 14,-0.00005013,-0.00077409,-0.00016833,0.00187792,-0.00068490,0.001251
 76,0.00503411,-0.00234280,-0.00003851,-0.27007108,0.12499380,0.0424922
 6,-0.01690001,0.01552256,0.00344934,0.00045808,0.00041016,-0.00006238,
 0.00000599,-0.00001761,0.00000115,0.00000293,0.00000923,-0.00001746,0.
 00000933,0.00001243,0.00001457,-0.00007206,0.00009163,-0.00023884,0.00
 011950,-0.00021822,-0.00004032,0.00024195,0.00032933,-0.00094943,0.282
 07926,0.00132826,-0.00230055,-0.00024272,-0.00203209,-0.00046581,0.000
 61364,0.00132592,0.00052449,-0.00064497,-0.00051898,0.00066022,0.00008
 090,0.00016698,-0.00011330,-0.00003023,-0.00004526,0.00000401,0.000008
 75,-0.00106627,-0.00021075,0.00020681,-0.00265154,-0.00069975,0.001237
 59,-0.00106149,-0.00089011,0.00022405,-0.00050531,-0.00535780,0.000988
 77,0.02585185,-0.00792249,-0.00489785,0.12786437,-0.13300468,-0.021872
 71,-0.01424437,0.01221412,0.00255550,0.00021337,-0.00001214,-0.0000253
 2,0.00001228,-0.00000751,-0.00000181,0.00001129,0.00000242,-0.00001251
 ,0.00001530,0.00000405,0.00000658,0.00004501,0.00007065,-0.00009245,0.
 00125015,-0.00056762,-0.00024685,-0.00048287,0.00090808,-0.00022831,-0
 .13547660,0.13716446,-0.00056496,-0.00034768,-0.00144521,0.00088042,0.
 00028667,0.00170298,-0.00129569,-0.00033502,-0.00425524,0.00021854,-0.
 00023700,0.00014120,-0.00001381,0.00007030,-0.00001822,-0.00000617,-0.
 00000019,-0.00001314,0.00025298,0.00004579,-0.00069421,0.00225426,0.00
 138272,0.00810171,-0.00014728,0.00016098,-0.00102954,0.00123884,0.0010
 2878,0.00696473,-0.00198874,0.00135288,0.00447686,0.04229475,-0.021237
 36,-0.04729476,0.00550531,-0.00404303,0.00256290,-0.00004914,-0.000068
 64,0.00031987,-0.00000092,0.00000482,0.00000560,0.00000079,-0.00000435
 ,0.00000756,-0.00000406,-0.00000049,-0.00000048,-0.00023563,-0.0001026
 7,-0.00106187,-0.00014193,0.00007870,-0.00010401,-0.00089343,-0.000408
 33,-0.00371215,-0.04730413,0.02237313,0.03534542\\0.00000666,0.0000106
 8,-0.00000530,-0.00000891,-0.00001435,0.00003104,-0.00002141,0.0000388
 4,-0.00005925,0.00002806,-0.00005774,0.00002978,0.00000578,0.00003046,
 -0.00002135,-0.00000026,-0.00000346,0.00000787,-0.00000065,0.00003072,
 0.00000007,-0.00003332,-0.00000193,0.00000778,0.00001524,0.00000814,-0
 .00000546,-0.00001862,0.00000125,0.00001146,0.00001053,-0.00000925,-0.
 00001578,-0.00001088,0.00001919,0.00001566,0.00002945,-0.00003727,0.00
 000918,0.00000251,0.00000117,0.00000282,0.00000020,-0.00000329,-0.0000
 0046,0.00000403,-0.00000513,-0.00000345,0.00000063,-0.00000556,-0.0000
 0232,-0.00000589,-0.00000331,0.00000108,0.00000124,0.00000091,0.000000
 44,-0.00000510,0.00000475,-0.00000125,0.00000074,-0.00000481,-0.000002
 56\\\@


 A BIRD IN THE HAND IS SAFER THAN ONE OVERHEAD.

                       -- NEWTON'S SEVENTH LAW
 Job cpu time:       0 days  1 hours 22 minutes 35.8 seconds.
 Elapsed time:       0 days  0 hours  3 minutes 29.9 seconds.
 File lengths (MBytes):  RWF=    234 Int=      0 D2E=      0 Chk=     11 Scr=      1
 Normal termination of Gaussian 16 at Sun Oct 13 23:21:36 2019.
real 693.70
user 16271.61
sys 63.19
Machine:
brown-a134
brown-a134
brown-a134
brown-a134
brown-a134
brown-a134
brown-a134
brown-a134
brown-a134
brown-a134
brown-a134
brown-a134
brown-a134
brown-a134
brown-a134
brown-a134
brown-a134
brown-a134
brown-a134
brown-a134
brown-a134
brown-a134
brown-a134
brown-a134
