 Entering Gaussian System, Link 0=/apps/cent7/gaussian/g16-A.03/g16-haswell/g16/g16
 Initial command:
 /apps/cent7/gaussian/g16-A.03/g16-haswell/g16/l1.exe "/scratch/brown/finej/gaussian/Gau-165920.inp" -scrdir="/scratch/brown/finej/gaussian/"
 Entering Link 1 = /apps/cent7/gaussian/g16-A.03/g16-haswell/g16/l1.exe PID=    165921.
  
 Copyright (c) 1988,1990,1992,1993,1995,1998,2003,2009,2016,
            Gaussian, Inc.  All Rights Reserved.
  
 This is part of the Gaussian(R) 16 program.  It is based on
 the Gaussian(R) 09 system (copyright 2009, Gaussian, Inc.),
 the Gaussian(R) 03 system (copyright 2003, Gaussian, Inc.),
 the Gaussian(R) 98 system (copyright 1998, Gaussian, Inc.),
 the Gaussian(R) 94 system (copyright 1995, Gaussian, Inc.),
 the Gaussian 92(TM) system (copyright 1992, Gaussian, Inc.),
 the Gaussian 90(TM) system (copyright 1990, Gaussian, Inc.),
 the Gaussian 88(TM) system (copyright 1988, Gaussian, Inc.),
 the Gaussian 86(TM) system (copyright 1986, Carnegie Mellon
 University), and the Gaussian 82(TM) system (copyright 1983,
 Carnegie Mellon University). Gaussian is a federally registered
 trademark of Gaussian, Inc.
  
 This software contains proprietary and confidential information,
 including trade secrets, belonging to Gaussian, Inc.
  
 This software is provided under written license and may be
 used, copied, transmitted, or stored only in accord with that
 written license.
  
 The following legend is applicable only to US Government
 contracts under FAR:
  
                    RESTRICTED RIGHTS LEGEND
  
 Use, reproduction and disclosure by the US Government is
 subject to restrictions as set forth in subparagraphs (a)
 and (c) of the Commercial Computer Software - Restricted
 Rights clause in FAR 52.227-19.
  
 Gaussian, Inc.
 340 Quinnipiac St., Bldg. 40, Wallingford CT 06492
  
  
 ---------------------------------------------------------------
 Warning -- This program may not be used in any manner that
 competes with the business of Gaussian, Inc. or will provide
 assistance to any competitor of Gaussian, Inc.  The licensee
 of this program is prohibited from giving any competitor of
 Gaussian, Inc. access to this program.  By using this program,
 the user acknowledges that Gaussian, Inc. is engaged in the
 business of creating and licensing software in the field of
 computational chemistry and represents and warrants to the
 licensee that it is not a competitor of Gaussian, Inc. and that
 it will not use this program in any manner prohibited above.
 ---------------------------------------------------------------
  

 Cite this work as:
 Gaussian 16, Revision A.03,
 M. J. Frisch, G. W. Trucks, H. B. Schlegel, G. E. Scuseria, 
 M. A. Robb, J. R. Cheeseman, G. Scalmani, V. Barone, 
 G. A. Petersson, H. Nakatsuji, X. Li, M. Caricato, A. V. Marenich, 
 J. Bloino, B. G. Janesko, R. Gomperts, B. Mennucci, H. P. Hratchian, 
 J. V. Ortiz, A. F. Izmaylov, J. L. Sonnenberg, D. Williams-Young, 
 F. Ding, F. Lipparini, F. Egidi, J. Goings, B. Peng, A. Petrone, 
 T. Henderson, D. Ranasinghe, V. G. Zakrzewski, J. Gao, N. Rega, 
 G. Zheng, W. Liang, M. Hada, M. Ehara, K. Toyota, R. Fukuda, 
 J. Hasegawa, M. Ishida, T. Nakajima, Y. Honda, O. Kitao, H. Nakai, 
 T. Vreven, K. Throssell, J. A. Montgomery, Jr., J. E. Peralta, 
 F. Ogliaro, M. J. Bearpark, J. J. Heyd, E. N. Brothers, K. N. Kudin, 
 V. N. Staroverov, T. A. Keith, R. Kobayashi, J. Normand, 
 K. Raghavachari, A. P. Rendell, J. C. Burant, S. S. Iyengar, 
 J. Tomasi, M. Cossi, J. M. Millam, M. Klene, C. Adamo, R. Cammi, 
 J. W. Ochterski, R. L. Martin, K. Morokuma, O. Farkas, 
 J. B. Foresman, and D. J. Fox, Gaussian, Inc., Wallingford CT, 2016.
 
 ******************************************
 Gaussian 16:  ES64L-G16RevA.03 25-Dec-2016
                30-Dec-2019 
 ******************************************
 %chk=2_p_b.chk
 %nprocshared=24
 Will use up to   24 processors via shared memory.
 %mem=80GB
 -------------------------------------------------------------------
 #p opt freq m062x/6-311++g(d,p) geom=connectivity temperature=0.001
 -------------------------------------------------------------------
 1/18=20,19=15,26=3,38=1,57=2,112=-1000/1,3;
 2/9=110,12=2,17=6,18=5,40=1/2;
 3/5=4,6=6,7=1111,11=2,25=1,30=1,71=1,74=-55/1,2,3;
 4//1;
 5/5=2,38=5/2;
 6/7=2,8=2,9=2,10=2,28=1/1;
 7//1,2,3,16;
 1/18=20,19=15,26=3/3(2);
 2/9=110/2;
 99//99;
 2/9=110/2;
 3/5=4,6=6,7=1111,11=2,25=1,30=1,71=1,74=-55/1,2,3;
 4/5=5,16=3,69=1/1;
 5/5=2,38=5/2;
 7//1,2,3,16;
 1/18=20,19=15,26=3/3(-5);
 2/9=110/2;
 6/7=2,8=2,9=2,10=2,19=2,28=1/1;
 99/9=1/99;
 Leave Link    1 at Mon Dec 30 16:56:16 2019, MaxMem= 10737418240 cpu:               1.4 elap:               0.1
 (Enter /apps/cent7/gaussian/g16-A.03/g16-haswell/g16/l101.exe)
 -------------------
 Title Card Required
 -------------------
 Symbolic Z-matrix:
 Charge =  1 Multiplicity = 1
 O                     1.2297   -0.118    -0.0218 
 N                    -0.0286    0.0421   -0.007 
 C                    -0.6307    1.1748   -0.0132 
 C                    -1.9705    1.3227    0.0019 
 O                    -2.8586    0.3182    0.0307 
 C                    -3.2781   -0.0096    1.3699 
 N                    -2.3119    2.5611   -0.0253 
 C                    -1.2233    3.2866   -0.0347 
 C                    -1.0742    4.6849   -0.023 
 C                     0.2311    5.221    -0.0064 
 C                     1.3565    4.365    -0.0046 
 C                     1.1911    2.9621   -0.0148 
 C                    -0.1183    2.4411   -0.0282 
 H                     1.71545  -0.17979   0.80393 
 H                    -3.314    -1.093     1.4844 
 H                    -2.5695    0.4081    2.0851 
 H                    -4.2681    0.4081    1.553 
 H                    -1.948     5.3365   -0.0266 
 H                     0.3708    6.3019    0.005 
 H                     2.3601    4.7902    0.0046 
 H                     2.0544    2.2967   -0.0123 
 H                     1.6962   -0.17737  -0.85873 
 
 Add atom      1 valence  3 ND=      2 dihedral       2      1     14     22
 ITRead=  0  0  0  0  0  0  0  0  0  0  0  0  0  0  0  0  0  0  0  0
 ITRead=  0  0
 MicOpt= -1 -1 -1 -1 -1 -1 -1 -1 -1 -1 -1 -1 -1 -1 -1 -1 -1 -1 -1 -1
 MicOpt= -1 -1
 NAtoms=     22 NQM=       22 NQMF=       0 NMMI=      0 NMMIF=      0
                NMic=       0 NMicF=      0.
                    Isotopes and Nuclear Properties:
 (Nuclear quadrupole moments (NQMom) in fm**2, nuclear magnetic moments (NMagM)
  in nuclear magnetons)

  Atom         1           2           3           4           5           6           7           8           9          10
 IAtWgt=          16          14          12          12          16          12          14          12          12          12
 AtmWgt=  15.9949146  14.0030740  12.0000000  12.0000000  15.9949146  12.0000000  14.0030740  12.0000000  12.0000000  12.0000000
 NucSpn=           0           2           0           0           0           0           2           0           0           0
 AtZEff=  -0.0000000  -0.0000000  -0.0000000  -0.0000000  -0.0000000  -0.0000000  -0.0000000  -0.0000000  -0.0000000  -0.0000000
 NQMom=    0.0000000   2.0440000   0.0000000   0.0000000   0.0000000   0.0000000   2.0440000   0.0000000   0.0000000   0.0000000
 NMagM=    0.0000000   0.4037610   0.0000000   0.0000000   0.0000000   0.0000000   0.4037610   0.0000000   0.0000000   0.0000000
 AtZNuc=   8.0000000   7.0000000   6.0000000   6.0000000   8.0000000   6.0000000   7.0000000   6.0000000   6.0000000   6.0000000

  Atom        11          12          13          14          15          16          17          18          19          20
 IAtWgt=          12          12          12           1           1           1           1           1           1           1
 AtmWgt=  12.0000000  12.0000000  12.0000000   1.0078250   1.0078250   1.0078250   1.0078250   1.0078250   1.0078250   1.0078250
 NucSpn=           0           0           0           1           1           1           1           1           1           1
 AtZEff=  -0.0000000  -0.0000000  -0.0000000  -0.0000000  -0.0000000  -0.0000000  -0.0000000  -0.0000000  -0.0000000  -0.0000000
 NQMom=    0.0000000   0.0000000   0.0000000   0.0000000   0.0000000   0.0000000   0.0000000   0.0000000   0.0000000   0.0000000
 NMagM=    0.0000000   0.0000000   0.0000000   2.7928460   2.7928460   2.7928460   2.7928460   2.7928460   2.7928460   2.7928460
 AtZNuc=   6.0000000   6.0000000   6.0000000   1.0000000   1.0000000   1.0000000   1.0000000   1.0000000   1.0000000   1.0000000

  Atom        21          22
 IAtWgt=           1           1
 AtmWgt=   1.0078250   1.0078250
 NucSpn=           1           1
 AtZEff=  -0.0000000  -0.0000000
 NQMom=    0.0000000   0.0000000
 NMagM=    2.7928460   2.7928460
 AtZNuc=   1.0000000   1.0000000
 Leave Link  101 at Mon Dec 30 16:56:16 2019, MaxMem= 10737418240 cpu:               8.3 elap:               0.4
 (Enter /apps/cent7/gaussian/g16-A.03/g16-haswell/g16/l103.exe)

 GradGradGradGradGradGradGradGradGradGradGradGradGradGradGradGradGradGrad
 Berny optimization.
 Initialization pass.
                           ----------------------------
                           !    Initial Parameters    !
                           ! (Angstroms and Degrees)  !
 --------------------------                            --------------------------
 ! Name  Definition              Value          Derivative Info.                !
 --------------------------------------------------------------------------------
 ! R1    R(1,2)                  1.2685         estimate D2E/DX2                !
 ! R2    R(1,14)                 0.96           estimate D2E/DX2                !
 ! R3    R(1,22)                 0.96           estimate D2E/DX2                !
 ! R4    R(2,3)                  1.2828         estimate D2E/DX2                !
 ! R5    R(3,4)                  1.348          estimate D2E/DX2                !
 ! R6    R(3,13)                 1.3661         estimate D2E/DX2                !
 ! R7    R(4,5)                  1.3411         estimate D2E/DX2                !
 ! R8    R(4,7)                  1.2849         estimate D2E/DX2                !
 ! R9    R(5,6)                  1.4411         estimate D2E/DX2                !
 ! R10   R(6,15)                 1.09           estimate D2E/DX2                !
 ! R11   R(6,16)                 1.09           estimate D2E/DX2                !
 ! R12   R(6,17)                 1.09           estimate D2E/DX2                !
 ! R13   R(7,8)                  1.3082         estimate D2E/DX2                !
 ! R14   R(8,9)                  1.4063         estimate D2E/DX2                !
 ! R15   R(8,13)                 1.3914         estimate D2E/DX2                !
 ! R16   R(9,10)                 1.4112         estimate D2E/DX2                !
 ! R17   R(9,18)                 1.09           estimate D2E/DX2                !
 ! R18   R(10,11)                1.414          estimate D2E/DX2                !
 ! R19   R(10,19)                1.0899         estimate D2E/DX2                !
 ! R20   R(11,12)                1.4127         estimate D2E/DX2                !
 ! R21   R(11,20)                1.09           estimate D2E/DX2                !
 ! R22   R(12,13)                1.4093         estimate D2E/DX2                !
 ! R23   R(12,21)                1.09           estimate D2E/DX2                !
 ! A1    A(2,1,14)             120.0            estimate D2E/DX2                !
 ! A2    A(2,1,22)             120.0            estimate D2E/DX2                !
 ! A3    A(14,1,22)            120.0            estimate D2E/DX2                !
 ! A4    A(1,2,3)              125.2373         estimate D2E/DX2                !
 ! A5    A(2,3,4)              124.2861         estimate D2E/DX2                !
 ! A6    A(2,3,13)             129.9767         estimate D2E/DX2                !
 ! A7    A(4,3,13)             105.7364         estimate D2E/DX2                !
 ! A8    A(3,4,5)              125.1862         estimate D2E/DX2                !
 ! A9    A(3,4,7)              111.6906         estimate D2E/DX2                !
 ! A10   A(5,4,7)              123.1211         estimate D2E/DX2                !
 ! A11   A(4,5,6)              112.525          estimate D2E/DX2                !
 ! A12   A(5,6,15)             109.4677         estimate D2E/DX2                !
 ! A13   A(5,6,16)             109.4713         estimate D2E/DX2                !
 ! A14   A(5,6,17)             109.4703         estimate D2E/DX2                !
 ! A15   A(15,6,16)            109.4734         estimate D2E/DX2                !
 ! A16   A(15,6,17)            109.4706         estimate D2E/DX2                !
 ! A17   A(16,6,17)            109.474          estimate D2E/DX2                !
 ! A18   A(4,7,8)              108.2736         estimate D2E/DX2                !
 ! A19   A(7,8,9)              129.7606         estimate D2E/DX2                !
 ! A20   A(7,8,13)             108.894          estimate D2E/DX2                !
 ! A21   A(9,8,13)             121.3311         estimate D2E/DX2                !
 ! A22   A(8,9,10)             118.418          estimate D2E/DX2                !
 ! A23   A(8,9,18)             120.6226         estimate D2E/DX2                !
 ! A24   A(10,9,18)            120.9594         estimate D2E/DX2                !
 ! A25   A(9,10,11)            120.4129         estimate D2E/DX2                !
 ! A26   A(9,10,19)            119.6968         estimate D2E/DX2                !
 ! A27   A(11,10,19)           119.8903         estimate D2E/DX2                !
 ! A28   A(10,11,12)           120.5317         estimate D2E/DX2                !
 ! A29   A(10,11,20)           119.7811         estimate D2E/DX2                !
 ! A30   A(12,11,20)           119.6872         estimate D2E/DX2                !
 ! A31   A(11,12,13)           118.4235         estimate D2E/DX2                !
 ! A32   A(11,12,21)           120.8976         estimate D2E/DX2                !
 ! A33   A(13,12,21)           120.6789         estimate D2E/DX2                !
 ! A34   A(3,13,8)             105.3932         estimate D2E/DX2                !
 ! A35   A(3,13,12)            133.7136         estimate D2E/DX2                !
 ! A36   A(8,13,12)            120.8821         estimate D2E/DX2                !
 ! D1    D(14,1,2,3)            90.8101         estimate D2E/DX2                !
 ! D2    D(22,1,2,3)           -89.1899         estimate D2E/DX2                !
 ! D3    D(2,1,14,22)          180.0            estimate D2E/DX2                !
 ! D4    D(1,2,3,4)            179.9515         estimate D2E/DX2                !
 ! D5    D(1,2,3,13)            -0.4253         estimate D2E/DX2                !
 ! D6    D(2,3,4,5)              0.2803         estimate D2E/DX2                !
 ! D7    D(2,3,4,7)           -179.2119         estimate D2E/DX2                !
 ! D8    D(13,3,4,5)          -179.4197         estimate D2E/DX2                !
 ! D9    D(13,3,4,7)             1.0881         estimate D2E/DX2                !
 ! D10   D(2,3,13,8)           179.7295         estimate D2E/DX2                !
 ! D11   D(2,3,13,12)           -1.5215         estimate D2E/DX2                !
 ! D12   D(4,3,13,8)            -0.594          estimate D2E/DX2                !
 ! D13   D(4,3,13,12)          178.155          estimate D2E/DX2                !
 ! D14   D(3,4,5,6)             94.1032         estimate D2E/DX2                !
 ! D15   D(7,4,5,6)            -86.4602         estimate D2E/DX2                !
 ! D16   D(3,4,7,8)             -1.1405         estimate D2E/DX2                !
 ! D17   D(5,4,7,8)            179.3551         estimate D2E/DX2                !
 ! D18   D(4,5,6,15)          -137.3784         estimate D2E/DX2                !
 ! D19   D(4,5,6,16)           -17.3779         estimate D2E/DX2                !
 ! D20   D(4,5,6,17)           102.625          estimate D2E/DX2                !
 ! D21   D(4,7,8,9)           -177.8958         estimate D2E/DX2                !
 ! D22   D(4,7,8,13)             0.7177         estimate D2E/DX2                !
 ! D23   D(7,8,9,10)           178.5594         estimate D2E/DX2                !
 ! D24   D(7,8,9,18)            -1.4343         estimate D2E/DX2                !
 ! D25   D(13,8,9,10)            0.0952         estimate D2E/DX2                !
 ! D26   D(13,8,9,18)         -179.8985         estimate D2E/DX2                !
 ! D27   D(7,8,13,3)            -0.0521         estimate D2E/DX2                !
 ! D28   D(7,8,13,12)         -178.9985         estimate D2E/DX2                !
 ! D29   D(9,8,13,3)           178.7001         estimate D2E/DX2                !
 ! D30   D(9,8,13,12)           -0.2463         estimate D2E/DX2                !
 ! D31   D(8,9,10,11)            0.1337         estimate D2E/DX2                !
 ! D32   D(8,9,10,19)         -179.8718         estimate D2E/DX2                !
 ! D33   D(18,9,10,11)        -179.8726         estimate D2E/DX2                !
 ! D34   D(18,9,10,19)           0.1219         estimate D2E/DX2                !
 ! D35   D(9,10,11,12)          -0.2154         estimate D2E/DX2                !
 ! D36   D(9,10,11,20)         179.7767         estimate D2E/DX2                !
 ! D37   D(19,10,11,12)        179.7902         estimate D2E/DX2                !
 ! D38   D(19,10,11,20)         -0.2177         estimate D2E/DX2                !
 ! D39   D(10,11,12,13)          0.0669         estimate D2E/DX2                !
 ! D40   D(10,11,12,21)       -179.928          estimate D2E/DX2                !
 ! D41   D(20,11,12,13)       -179.9253         estimate D2E/DX2                !
 ! D42   D(20,11,12,21)          0.0799         estimate D2E/DX2                !
 ! D43   D(11,12,13,3)        -178.433          estimate D2E/DX2                !
 ! D44   D(11,12,13,8)           0.1616         estimate D2E/DX2                !
 ! D45   D(21,12,13,3)           1.5618         estimate D2E/DX2                !
 ! D46   D(21,12,13,8)        -179.8435         estimate D2E/DX2                !
 --------------------------------------------------------------------------------
 Trust Radius=3.00D-01 FncErr=1.00D-07 GrdErr=1.00D-06 EigMax=2.50D+02 EigMin=1.00D-04
 Number of steps in this run=    115 maximum allowed number of steps=    132.
 GradGradGradGradGradGradGradGradGradGradGradGradGradGradGradGradGradGrad

 Leave Link  103 at Mon Dec 30 16:56:16 2019, MaxMem= 10737418240 cpu:               0.3 elap:               0.0
 (Enter /apps/cent7/gaussian/g16-A.03/g16-haswell/g16/l202.exe)
                          Input orientation:                          
 ---------------------------------------------------------------------
 Center     Atomic      Atomic             Coordinates (Angstroms)
 Number     Number       Type             X           Y           Z
 ---------------------------------------------------------------------
      1          8           0        1.229700   -0.118000   -0.021800
      2          7           0       -0.028600    0.042100   -0.007000
      3          6           0       -0.630700    1.174800   -0.013200
      4          6           0       -1.970500    1.322700    0.001900
      5          8           0       -2.858600    0.318200    0.030700
      6          6           0       -3.278100   -0.009600    1.369900
      7          7           0       -2.311900    2.561100   -0.025300
      8          6           0       -1.223300    3.286600   -0.034700
      9          6           0       -1.074200    4.684900   -0.023000
     10          6           0        0.231100    5.221000   -0.006400
     11          6           0        1.356500    4.365000   -0.004600
     12          6           0        1.191100    2.962100   -0.014800
     13          6           0       -0.118300    2.441100   -0.028200
     14          1           0        1.715453   -0.179786    0.803928
     15          1           0       -3.314000   -1.093000    1.484400
     16          1           0       -2.569500    0.408100    2.085100
     17          1           0       -4.268100    0.408100    1.553000
     18          1           0       -1.948000    5.336500   -0.026600
     19          1           0        0.370800    6.301900    0.005000
     20          1           0        2.360100    4.790200    0.004600
     21          1           0        2.054400    2.296700   -0.012300
     22          1           0        1.696204   -0.177374   -0.858728
 ---------------------------------------------------------------------
                    Distance matrix (angstroms):
                    1          2          3          4          5
     1  O    0.000000
     2  N    1.268531   0.000000
     3  C    2.265501   1.282799   0.000000
     4  C    3.509624   2.326154   1.348023   0.000000
     5  O    4.111839   2.843686   2.387306   1.341108   0.000000
     6  C    4.718987   3.529558   3.213175   2.314361   1.441142
     7  N    4.440779   3.399876   2.179084   1.284885   2.309246
     8  C    4.196269   3.457579   2.193476   2.101559   3.389673
     9  C    5.326895   4.759110   3.538021   3.479707   4.717524
    10  C    5.431608   5.185407   4.136965   4.477036   5.795263
    11  C    4.484826   4.539380   3.758512   4.508277   5.843364
    12  C    3.080350   3.164511   2.552136   3.561408   4.836564
    13  C    2.892428   2.400770   1.366124   2.163878   3.466903
    14  H    0.960000   1.936120   2.829671   4.060414   4.665601
    15  H    4.885128   3.782404   3.819139   3.136623   2.076564
    16  H    4.376040   3.311648   2.957979   2.352662   2.076589
    17  H    5.743046   4.532209   4.033794   2.919139   2.076576
    18  H    6.312636   5.631621   4.365227   4.013964   5.100570
    19  H    6.477156   6.272540   5.224030   5.502193   6.799585
    20  H    5.036758   5.315118   4.692155   5.547762   6.872721
    21  H    2.551665   3.069550   2.910055   4.141099   5.296591
    22  H    0.960000   1.936120   2.820953   4.054087   4.667217
                    6          7          8          9         10
     6  C    0.000000
     7  N    3.080361   0.000000
     8  C    4.130380   1.308239   0.000000
     9  C    5.369886   2.458136   1.406275   0.000000
    10  C    6.447314   3.679983   2.420327   1.411201   0.000000
    11  C    6.519654   4.087988   2.796287   2.451729   1.413953
    12  C    5.542756   3.525893   2.436190   2.845996   2.454445
    13  C    4.236148   2.196882   1.391380   2.438936   2.801856
    14  H    5.028406   4.941624   4.621190   5.668434   5.659366
    15  H    1.090025   4.078706   5.085232   6.377546   7.393025
    16  H    1.089999   3.025815   3.819891   4.997102   5.948255
    17  H    1.089999   3.309556   4.480777   5.565590   6.770416
    18  H    5.683323   2.799155   2.174246   1.090010   2.182252
    19  H    7.417038   4.603410   3.410977   2.168755   1.089950
    20  H    7.529371   5.176617   3.886272   3.436025   2.172176
    21  H    5.972023   4.374317   3.423992   3.935956   3.446156
    22  H    5.453314   4.925317   4.604525   5.658206   5.658219
                   11         12         13         14         15
    11  C    0.000000
    12  C    1.412653   0.000000
    13  C    2.424249   1.409308   0.000000
    14  H    4.630081   3.288877   3.305167   0.000000
    15  H    7.336243   6.243986   4.999032   5.156782   0.000000
    16  H    5.952930   5.007455   3.821977   4.510858   1.780006
    17  H    7.051191   6.227662   4.884068   6.058847   1.779976
    18  H    3.444418   3.935970   3.425076   6.673835   6.744446
    19  H    2.173310   3.439120   3.891799   6.667731   8.393505
    20  H    1.089997   2.169997   3.414940   5.074964   8.306459
    21  H    2.182885   1.089977   2.177551   2.629467   6.523028
    22  H    4.634447   3.289931   3.292205   1.662769   5.606315
                   16         17         18         19         20
    16  H    0.000000
    17  H    1.779992   0.000000
    18  H    5.397654   5.671607   0.000000
    19  H    6.907174   7.658497   2.511937   0.000000
    20  H    6.916085   8.095269   4.342711   2.498510   0.000000
    21  H    5.417227   6.781665   5.025912   4.344702   2.512226
    22  H    5.215854   6.460042   6.661492   6.669612   5.085557
                   21         22
    21  H    0.000000
    22  H    2.639278   0.000000
 Stoichiometry    C9H9N2O2(1+)
 Framework group  C1[X(C9H9N2O2)]
 Deg. of freedom    60
 Full point group                 C1      NOp   1
 Largest Abelian subgroup         C1      NOp   1
 Largest concise Abelian subgroup C1      NOp   1
                         Standard orientation:                         
 ---------------------------------------------------------------------
 Center     Atomic      Atomic             Coordinates (Angstroms)
 Number     Number       Type             X           Y           Z
 ---------------------------------------------------------------------
      1          8           0        0.802883    2.802807   -0.019066
      2          7           0        1.324746    1.655059   -0.158725
      3          6           0        0.679662    0.546490   -0.181378
      4          6           0        1.254341   -0.663566   -0.331959
      5          8           0        2.569985   -0.882095   -0.473015
      6          6           0        3.219203   -1.170918    0.780774
      7          7           0        0.381621   -1.606578   -0.335895
      8          6           0       -0.800277   -1.072411   -0.164803
      9          6           0       -2.059345   -1.689625   -0.058005
     10          6           0       -3.190967   -0.874239    0.156621
     11          6           0       -3.053072    0.529338    0.257726
     12          6           0       -1.781449    1.135119    0.150052
     13          6           0       -0.660097    0.308000   -0.061117
     14          1           0        0.696640    3.178285    0.858048
     15          1           0        4.167396   -0.635573    0.830682
     16          1           0        2.578631   -0.852903    1.603350
     17          1           0        3.402670   -2.242696    0.856485
     18          1           0       -2.155643   -2.772318   -0.139394
     19          1           0       -4.176705   -1.330919    0.244676
     20          1           0       -3.934551    1.149645    0.419922
     21          1           0       -1.668134    2.216366    0.228243
     22          1           0        0.514189    3.295923   -0.790488
 ---------------------------------------------------------------------
 Rotational constants (GHZ):           1.3299174           0.6955662           0.4754581
 Leave Link  202 at Mon Dec 30 16:56:17 2019, MaxMem= 10737418240 cpu:               1.0 elap:               0.1
 (Enter /apps/cent7/gaussian/g16-A.03/g16-haswell/g16/l301.exe)
 Standard basis: 6-311++G(d,p) (5D, 7F)
 Ernie: Thresh=  0.10000D-02 Tol=  0.10000D-05 Strict=F.
 There are   362 symmetry adapted cartesian basis functions of A   symmetry.
 There are   349 symmetry adapted basis functions of A   symmetry.
   349 basis functions,   549 primitive gaussians,   362 cartesian basis functions
    46 alpha electrons       46 beta electrons
       nuclear repulsion energy       781.9056136037 Hartrees.
 IExCor= 4336 DFT=T Ex+Corr=M062X ExCW=0 ScaHFX=  0.540000
 ScaDFX=  1.000000  1.000000  1.000000  1.000000 ScalE2=  1.000000  1.000000
 IRadAn=      5 IRanWt=     -1 IRanGd=            0 ICorTp=0 IEmpDi=  4
 NAtoms=   22 NActive=   22 NUniq=   22 SFac= 1.00D+00 NAtFMM=   60 NAOKFM=F Big=F
 Integral buffers will be    131072 words long.
 Raffenetti 2 integral format.
 Two-electron integral symmetry is turned on.
 Leave Link  301 at Mon Dec 30 16:56:17 2019, MaxMem= 10737418240 cpu:               1.3 elap:               0.1
 (Enter /apps/cent7/gaussian/g16-A.03/g16-haswell/g16/l302.exe)
 NPDir=0 NMtPBC=     1 NCelOv=     1 NCel=       1 NClECP=     1 NCelD=      1
         NCelK=      1 NCelE2=     1 NClLst=     1 CellRange=     0.0.
 One-electron integrals computed using PRISM.
 One-electron integral symmetry used in STVInt
 NBasis=   349 RedAO= T EigKep=  1.83D-06  NBF=   349
 NBsUse=   347 1.00D-06 EigRej=  6.49D-07 NBFU=   347
 Precomputing XC quadrature grid using
 IXCGrd= 4 IRadAn=           5 IRanWt=          -1 IRanGd=           0 AccXCQ= 0.00D+00.
 Generated NRdTot=       0 NPtTot=           0 NUsed=           0 NTot=          32
 NSgBfM=   362   362   362   362   362 MxSgAt=    22 MxSgA2=    22.
 Leave Link  302 at Mon Dec 30 16:56:17 2019, MaxMem= 10737418240 cpu:               5.4 elap:               0.3
 (Enter /apps/cent7/gaussian/g16-A.03/g16-haswell/g16/l303.exe)
 DipDrv:  MaxL=1.
 Leave Link  303 at Mon Dec 30 16:56:17 2019, MaxMem= 10737418240 cpu:               1.0 elap:               0.1
 (Enter /apps/cent7/gaussian/g16-A.03/g16-haswell/g16/l401.exe)
 ExpMin= 3.60D-02 ExpMax= 8.59D+03 ExpMxC= 1.30D+03 IAcc=3 IRadAn=         5 AccDes= 0.00D+00
 Harris functional with IExCor= 1009 and IRadAn=       5 diagonalized for initial guess.
 HarFok:  IExCor= 1009 AccDes= 0.00D+00 IRadAn=         5 IDoV= 1 UseB2=F ITyADJ=14
 ICtDFT=  3500011 ScaDFX=  1.000000  1.000000  1.000000  1.000000
 FoFCou: FMM=F IPFlag=           0 FMFlag=      100000 FMFlg1=           0
         NFxFlg=           0 DoJE=T BraDBF=F KetDBF=T FulRan=T
         wScrn=  0.000000 ICntrl=       500 IOpCl=  0 I1Cent=   200000004 NGrid=           0
         NMat0=    1 NMatS0=      1 NMatT0=    0 NMatD0=    1 NMtDS0=    0 NMtDT0=    0
 Petite list used in FoFCou.
 Harris En= -607.512617773943    
 JPrj=0 DoOrth=F DoCkMO=F.
 Leave Link  401 at Mon Dec 30 16:56:18 2019, MaxMem= 10737418240 cpu:              13.9 elap:               0.6
 (Enter /apps/cent7/gaussian/g16-A.03/g16-haswell/g16/l502.exe)
 Integral symmetry usage will be decided dynamically.
 Closed shell SCF:
 Using DIIS extrapolation, IDIIS=  1040.
 NGot= 10737418240 LenX= 10737143966 LenY= 10737012481
 Requested convergence on RMS density matrix=1.00D-08 within 128 cycles.
 Requested convergence on MAX density matrix=1.00D-06.
 Requested convergence on             energy=1.00D-06.
 No special actions if energy rises.
 Fock matrices will be formed incrementally for  20 cycles.

 Cycle   1  Pass 1  IDiag  1:
 FoFJK:  IHMeth= 1 ICntrl=       0 DoSepK=F KAlg= 0 I1Cent=           0 FoldK=F
 IRaf= 900000000 NMat=       1 IRICut=       1 DoRegI=T DoRafI=F ISym2E= 0 IDoP0=0 IntGTp=1.
 FoFCou: FMM=F IPFlag=           0 FMFlag=      100000 FMFlg1=           0
         NFxFlg=           0 DoJE=F BraDBF=F KetDBF=F FulRan=T
         wScrn=  0.000000 ICntrl=         0 IOpCl=  0 I1Cent=           0 NGrid=           0
         NMat0=    1 NMatS0=      1 NMatT0=    0 NMatD0=    1 NMtDS0=    0 NMtDT0=    0
 Symmetry not used in FoFCou.
 E= -607.425917516896    
 DIIS: error= 3.39D-02 at cycle   1 NSaved=   1.
 NSaved= 1 IEnMin= 1 EnMin= -607.425917516896     IErMin= 1 ErrMin= 3.39D-02
 ErrMax= 3.39D-02  0.00D+00 EMaxC= 1.00D-01 BMatC= 3.82D-01 BMatP= 3.82D-01
 IDIUse=3 WtCom= 6.61D-01 WtEn= 3.39D-01
 Coeff-Com:  0.100D+01
 Coeff-En:   0.100D+01
 Coeff:      0.100D+01
 Gap=     0.387 Goal=   None    Shift=    0.000
 GapD=    0.387 DampG=1.000 DampE=0.500 DampFc=0.5000 IDamp=-1.
 Damping current iteration by 5.00D-01
 RMSDP=3.90D-02 MaxDP=2.83D+00              OVMax= 3.94D-01

 Cycle   2  Pass 1  IDiag  1:
 RMSU=  1.54D-02    CP:  1.23D+00
 E= -607.549109639795     Delta-E=       -0.123192122899 Rises=F Damp=T
 DIIS: error= 1.19D-02 at cycle   2 NSaved=   2.
 NSaved= 2 IEnMin= 2 EnMin= -607.549109639795     IErMin= 2 ErrMin= 1.19D-02
 ErrMax= 1.19D-02  0.00D+00 EMaxC= 1.00D-01 BMatC= 6.21D-02 BMatP= 3.82D-01
 IDIUse=3 WtCom= 8.81D-01 WtEn= 1.19D-01
 Coeff-Com:  0.129D-01 0.987D+00
 Coeff-En:   0.154D+00 0.846D+00
 Coeff:      0.298D-01 0.970D+00
 Gap=     0.240 Goal=   None    Shift=    0.000
 RMSDP=1.55D-02 MaxDP=1.08D+00 DE=-1.23D-01 OVMax= 3.67D-01

 Cycle   3  Pass 1  IDiag  1:
 RMSU=  1.39D-02    CP:  1.19D+00  5.74D-01
 E= -607.692647402526     Delta-E=       -0.143537762732 Rises=F Damp=F
 DIIS: error= 1.69D-02 at cycle   3 NSaved=   3.
 NSaved= 3 IEnMin= 3 EnMin= -607.692647402526     IErMin= 2 ErrMin= 1.19D-02
 ErrMax= 1.69D-02  0.00D+00 EMaxC= 1.00D-01 BMatC= 5.12D-02 BMatP= 6.21D-02
 IDIUse=3 WtCom= 8.31D-01 WtEn= 1.69D-01
 Coeff-Com: -0.122D+00 0.542D+00 0.580D+00
 Coeff-En:   0.000D+00 0.000D+00 0.100D+01
 Coeff:     -0.101D+00 0.450D+00 0.651D+00
 Gap=     0.148 Goal=   None    Shift=    0.000
 RMSDP=7.78D-03 MaxDP=5.98D-01 DE=-1.44D-01 OVMax= 1.29D-01

 Cycle   4  Pass 1  IDiag  1:
 RMSU=  4.97D-03    CP:  1.14D+00  6.11D-01  6.12D-01
 E= -607.735380875552     Delta-E=       -0.042733473026 Rises=F Damp=F
 DIIS: error= 4.63D-03 at cycle   4 NSaved=   4.
 NSaved= 4 IEnMin= 4 EnMin= -607.735380875552     IErMin= 4 ErrMin= 4.63D-03
 ErrMax= 4.63D-03  0.00D+00 EMaxC= 1.00D-01 BMatC= 1.05D-02 BMatP= 5.12D-02
 IDIUse=3 WtCom= 9.54D-01 WtEn= 4.63D-02
 Coeff-Com: -0.336D-01 0.101D+00 0.347D+00 0.585D+00
 Coeff-En:   0.000D+00 0.000D+00 0.169D+00 0.831D+00
 Coeff:     -0.321D-01 0.967D-01 0.339D+00 0.597D+00
 Gap=     0.161 Goal=   None    Shift=    0.000
 RMSDP=2.56D-03 MaxDP=1.63D-01 DE=-4.27D-02 OVMax= 4.27D-02

 Cycle   5  Pass 1  IDiag  1:
 RMSU=  1.04D-03    CP:  1.14D+00  6.21D-01  6.93D-01  6.02D-01
 E= -607.745348740489     Delta-E=       -0.009967864936 Rises=F Damp=F
 DIIS: error= 1.07D-03 at cycle   5 NSaved=   5.
 NSaved= 5 IEnMin= 5 EnMin= -607.745348740489     IErMin= 5 ErrMin= 1.07D-03
 ErrMax= 1.07D-03  0.00D+00 EMaxC= 1.00D-01 BMatC= 5.01D-04 BMatP= 1.05D-02
 IDIUse=3 WtCom= 9.89D-01 WtEn= 1.07D-02
 Coeff-Com: -0.431D-02-0.243D-02 0.113D+00 0.293D+00 0.601D+00
 Coeff-En:   0.000D+00 0.000D+00 0.000D+00 0.000D+00 0.100D+01
 Coeff:     -0.426D-02-0.241D-02 0.112D+00 0.290D+00 0.605D+00
 Gap=     0.164 Goal=   None    Shift=    0.000
 RMSDP=6.87D-04 MaxDP=5.16D-02 DE=-9.97D-03 OVMax= 7.12D-03

 Cycle   6  Pass 1  IDiag  1:
 RMSU=  3.05D-04    CP:  1.14D+00  6.12D-01  7.20D-01  6.18D-01  7.91D-01
 E= -607.745789821596     Delta-E=       -0.000441081107 Rises=F Damp=F
 DIIS: error= 3.74D-04 at cycle   6 NSaved=   6.
 NSaved= 6 IEnMin= 6 EnMin= -607.745789821596     IErMin= 6 ErrMin= 3.74D-04
 ErrMax= 3.74D-04  0.00D+00 EMaxC= 1.00D-01 BMatC= 4.83D-05 BMatP= 5.01D-04
 IDIUse=3 WtCom= 9.96D-01 WtEn= 3.74D-03
 Coeff-Com:  0.437D-02-0.152D-01-0.658D-02 0.192D-01 0.240D+00 0.758D+00
 Coeff-En:   0.000D+00 0.000D+00 0.000D+00 0.000D+00 0.000D+00 0.100D+01
 Coeff:      0.435D-02-0.151D-01-0.656D-02 0.191D-01 0.240D+00 0.759D+00
 Gap=     0.165 Goal=   None    Shift=    0.000
 RMSDP=1.64D-04 MaxDP=1.18D-02 DE=-4.41D-04 OVMax= 4.53D-03

 Cycle   7  Pass 1  IDiag  1:
 RMSU=  1.13D-04    CP:  1.14D+00  6.10D-01  7.14D-01  6.06D-01  8.30D-01
                    CP:  9.74D-01
 E= -607.745847633594     Delta-E=       -0.000057811998 Rises=F Damp=F
 DIIS: error= 1.77D-04 at cycle   7 NSaved=   7.
 NSaved= 7 IEnMin= 7 EnMin= -607.745847633594     IErMin= 7 ErrMin= 1.77D-04
 ErrMax= 1.77D-04  0.00D+00 EMaxC= 1.00D-01 BMatC= 7.11D-06 BMatP= 4.83D-05
 IDIUse=3 WtCom= 9.98D-01 WtEn= 1.77D-03
 Coeff-Com:  0.301D-02-0.753D-02-0.185D-01-0.339D-01 0.146D-01 0.307D+00
 Coeff-Com:  0.736D+00
 Coeff-En:   0.000D+00 0.000D+00 0.000D+00 0.000D+00 0.000D+00 0.000D+00
 Coeff-En:   0.100D+01
 Coeff:      0.301D-02-0.752D-02-0.185D-01-0.338D-01 0.145D-01 0.306D+00
 Coeff:      0.736D+00
 Gap=     0.166 Goal=   None    Shift=    0.000
 RMSDP=6.25D-05 MaxDP=3.92D-03 DE=-5.78D-05 OVMax= 1.45D-03

 Cycle   8  Pass 1  IDiag  1:
 RMSU=  3.27D-05    CP:  1.14D+00  6.10D-01  7.17D-01  6.04D-01  8.35D-01
                    CP:  1.04D+00  9.99D-01
 E= -607.745855318436     Delta-E=       -0.000007684841 Rises=F Damp=F
 DIIS: error= 4.19D-05 at cycle   8 NSaved=   8.
 NSaved= 8 IEnMin= 8 EnMin= -607.745855318436     IErMin= 8 ErrMin= 4.19D-05
 ErrMax= 4.19D-05  0.00D+00 EMaxC= 1.00D-01 BMatC= 7.18D-07 BMatP= 7.11D-06
 IDIUse=1 WtCom= 1.00D+00 WtEn= 0.00D+00
 Coeff-Com:  0.686D-03-0.112D-02-0.536D-02-0.137D-01-0.187D-01 0.345D-01
 Coeff-Com:  0.305D+00 0.698D+00
 Coeff:      0.686D-03-0.112D-02-0.536D-02-0.137D-01-0.187D-01 0.345D-01
 Coeff:      0.305D+00 0.698D+00
 Gap=     0.166 Goal=   None    Shift=    0.000
 RMSDP=2.26D-05 MaxDP=2.37D-03 DE=-7.68D-06 OVMax= 4.30D-04

 Cycle   9  Pass 1  IDiag  1:
 RMSU=  1.10D-05    CP:  1.14D+00  6.10D-01  7.17D-01  6.02D-01  8.41D-01
                    CP:  1.06D+00  9.80D-01  9.22D-01
 E= -607.745856130029     Delta-E=       -0.000000811594 Rises=F Damp=F
 DIIS: error= 1.35D-05 at cycle   9 NSaved=   9.
 NSaved= 9 IEnMin= 9 EnMin= -607.745856130029     IErMin= 9 ErrMin= 1.35D-05
 ErrMax= 1.35D-05  0.00D+00 EMaxC= 1.00D-01 BMatC= 6.67D-08 BMatP= 7.18D-07
 IDIUse=1 WtCom= 1.00D+00 WtEn= 0.00D+00
 Coeff-Com:  0.119D-04 0.147D-03-0.553D-03-0.225D-02-0.844D-02-0.160D-01
 Coeff-Com:  0.542D-01 0.252D+00 0.721D+00
 Coeff:      0.119D-04 0.147D-03-0.553D-03-0.225D-02-0.844D-02-0.160D-01
 Coeff:      0.542D-01 0.252D+00 0.721D+00
 Gap=     0.166 Goal=   None    Shift=    0.000
 RMSDP=4.99D-06 MaxDP=2.26D-04 DE=-8.12D-07 OVMax= 1.58D-04

 Cycle  10  Pass 1  IDiag  1:
 RMSU=  3.44D-06    CP:  1.14D+00  6.10D-01  7.17D-01  6.02D-01  8.41D-01
                    CP:  1.06D+00  9.95D-01  9.98D-01  1.03D+00
 E= -607.745856214890     Delta-E=       -0.000000084860 Rises=F Damp=F
 DIIS: error= 1.53D-05 at cycle  10 NSaved=  10.
 NSaved=10 IEnMin=10 EnMin= -607.745856214890     IErMin= 9 ErrMin= 1.35D-05
 ErrMax= 1.53D-05  0.00D+00 EMaxC= 1.00D-01 BMatC= 1.70D-08 BMatP= 6.67D-08
 IDIUse=1 WtCom= 1.00D+00 WtEn= 0.00D+00
 Coeff-Com: -0.117D-03 0.266D-03 0.689D-03 0.155D-02-0.210D-03-0.147D-01
 Coeff-Com: -0.258D-01-0.858D-02 0.349D+00 0.698D+00
 Coeff:     -0.117D-03 0.266D-03 0.689D-03 0.155D-02-0.210D-03-0.147D-01
 Coeff:     -0.258D-01-0.858D-02 0.349D+00 0.698D+00
 Gap=     0.166 Goal=   None    Shift=    0.000
 RMSDP=2.19D-06 MaxDP=1.27D-04 DE=-8.49D-08 OVMax= 1.29D-04

 Cycle  11  Pass 1  IDiag  1:
 RMSU=  1.54D-06    CP:  1.14D+00  6.10D-01  7.17D-01  6.02D-01  8.41D-01
                    CP:  1.06D+00  9.99D-01  9.97D-01  1.11D+00  1.04D+00
 E= -607.745856241799     Delta-E=       -0.000000026909 Rises=F Damp=F
 DIIS: error= 3.30D-06 at cycle  11 NSaved=  11.
 NSaved=11 IEnMin=11 EnMin= -607.745856241799     IErMin=11 ErrMin= 3.30D-06
 ErrMax= 3.30D-06  0.00D+00 EMaxC= 1.00D-01 BMatC= 3.20D-09 BMatP= 1.70D-08
 IDIUse=1 WtCom= 1.00D+00 WtEn= 0.00D+00
 Coeff-Com: -0.515D-04 0.980D-04 0.311D-03 0.871D-03 0.861D-03-0.565D-02
 Coeff-Com: -0.168D-01-0.389D-01 0.472D-01 0.329D+00 0.683D+00
 Coeff:     -0.515D-04 0.980D-04 0.311D-03 0.871D-03 0.861D-03-0.565D-02
 Coeff:     -0.168D-01-0.389D-01 0.472D-01 0.329D+00 0.683D+00
 Gap=     0.166 Goal=   None    Shift=    0.000
 RMSDP=9.66D-07 MaxDP=4.97D-05 DE=-2.69D-08 OVMax= 4.69D-05

 Cycle  12  Pass 1  IDiag  1:
 RMSU=  5.44D-07    CP:  1.14D+00  6.10D-01  7.17D-01  6.02D-01  8.41D-01
                    CP:  1.06D+00  1.00D+00  1.00D+00  1.13D+00  1.13D+00
                    CP:  1.01D+00
 E= -607.745856247050     Delta-E=       -0.000000005251 Rises=F Damp=F
 DIIS: error= 1.97D-06 at cycle  12 NSaved=  12.
 NSaved=12 IEnMin=12 EnMin= -607.745856247050     IErMin=12 ErrMin= 1.97D-06
 ErrMax= 1.97D-06  0.00D+00 EMaxC= 1.00D-01 BMatC= 5.21D-10 BMatP= 3.20D-09
 IDIUse=1 WtCom= 1.00D+00 WtEn= 0.00D+00
 Coeff-Com:  0.496D-05-0.191D-04-0.524D-04-0.437D-04 0.563D-03 0.127D-02
 Coeff-Com:  0.252D-02-0.135D-01-0.747D-01-0.265D-01 0.271D+00 0.839D+00
 Coeff:      0.496D-05-0.191D-04-0.524D-04-0.437D-04 0.563D-03 0.127D-02
 Coeff:      0.252D-02-0.135D-01-0.747D-01-0.265D-01 0.271D+00 0.839D+00
 Gap=     0.166 Goal=   None    Shift=    0.000
 RMSDP=6.93D-07 MaxDP=6.98D-05 DE=-5.25D-09 OVMax= 3.35D-05

 Cycle  13  Pass 1  IDiag  1:
 RMSU=  3.22D-07    CP:  1.14D+00  6.10D-01  7.17D-01  6.02D-01  8.41D-01
                    CP:  1.06D+00  1.00D+00  1.00D+00  1.14D+00  1.18D+00
                    CP:  1.08D+00  1.13D+00
 E= -607.745856248265     Delta-E=       -0.000000001216 Rises=F Damp=F
 DIIS: error= 5.22D-07 at cycle  13 NSaved=  13.
 NSaved=13 IEnMin=13 EnMin= -607.745856248265     IErMin=13 ErrMin= 5.22D-07
 ErrMax= 5.22D-07  0.00D+00 EMaxC= 1.00D-01 BMatC= 7.22D-11 BMatP= 5.21D-10
 IDIUse=1 WtCom= 1.00D+00 WtEn= 0.00D+00
 Coeff-Com:  0.750D-05-0.183D-04-0.635D-04-0.125D-03 0.146D-03 0.105D-02
 Coeff-Com:  0.346D-02-0.574D-03-0.323D-01-0.486D-01-0.726D-02 0.287D+00
 Coeff-Com:  0.797D+00
 Coeff:      0.750D-05-0.183D-04-0.635D-04-0.125D-03 0.146D-03 0.105D-02
 Coeff:      0.346D-02-0.574D-03-0.323D-01-0.486D-01-0.726D-02 0.287D+00
 Coeff:      0.797D+00
 Gap=     0.166 Goal=   None    Shift=    0.000
 RMSDP=3.08D-07 MaxDP=1.99D-05 DE=-1.22D-09 OVMax= 1.07D-05

 Cycle  14  Pass 1  IDiag  1:
 RMSU=  8.74D-08    CP:  1.14D+00  6.10D-01  7.17D-01  6.02D-01  8.41D-01
                    CP:  1.06D+00  1.00D+00  1.00D+00  1.13D+00  1.20D+00
                    CP:  1.12D+00  1.27D+00  1.06D+00
 E= -607.745856248410     Delta-E=       -0.000000000145 Rises=F Damp=F
 DIIS: error= 1.63D-07 at cycle  14 NSaved=  14.
 NSaved=14 IEnMin=14 EnMin= -607.745856248410     IErMin=14 ErrMin= 1.63D-07
 ErrMax= 1.63D-07  0.00D+00 EMaxC= 1.00D-01 BMatC= 1.15D-11 BMatP= 7.22D-11
 IDIUse=1 WtCom= 1.00D+00 WtEn= 0.00D+00
 Coeff-Com:  0.176D-05-0.341D-05-0.195D-04-0.470D-04-0.274D-04 0.141D-03
 Coeff-Com:  0.107D-02 0.168D-02-0.219D-03-0.152D-01-0.481D-01-0.365D-01
 Coeff-Com:  0.305D+00 0.793D+00
 Coeff:      0.176D-05-0.341D-05-0.195D-04-0.470D-04-0.274D-04 0.141D-03
 Coeff:      0.107D-02 0.168D-02-0.219D-03-0.152D-01-0.481D-01-0.365D-01
 Coeff:      0.305D+00 0.793D+00
 Gap=     0.166 Goal=   None    Shift=    0.000
 RMSDP=1.45D-07 MaxDP=9.92D-06 DE=-1.45D-10 OVMax= 4.21D-06

 Cycle  15  Pass 1  IDiag  1:
 RMSU=  3.89D-08    CP:  1.14D+00  6.10D-01  7.17D-01  6.02D-01  8.41D-01
                    CP:  1.06D+00  1.00D+00  9.99D-01  1.13D+00  1.20D+00
                    CP:  1.13D+00  1.31D+00  1.17D+00  1.02D+00
 E= -607.745856248428     Delta-E=       -0.000000000018 Rises=F Damp=F
 DIIS: error= 6.76D-08 at cycle  15 NSaved=  15.
 NSaved=15 IEnMin=15 EnMin= -607.745856248428     IErMin=15 ErrMin= 6.76D-08
 ErrMax= 6.76D-08  0.00D+00 EMaxC= 1.00D-01 BMatC= 1.11D-12 BMatP= 1.15D-11
 IDIUse=1 WtCom= 1.00D+00 WtEn= 0.00D+00
 Coeff-Com: -0.156D-06 0.517D-06-0.117D-05-0.472D-05-0.200D-04-0.679D-04
 Coeff-Com:  0.510D-04 0.558D-03 0.331D-02-0.996D-03-0.152D-01-0.431D-01
 Coeff-Com:  0.244D-01 0.264D+00 0.767D+00
 Coeff:     -0.156D-06 0.517D-06-0.117D-05-0.472D-05-0.200D-04-0.679D-04
 Coeff:      0.510D-04 0.558D-03 0.331D-02-0.996D-03-0.152D-01-0.431D-01
 Coeff:      0.244D-01 0.264D+00 0.767D+00
 Gap=     0.166 Goal=   None    Shift=    0.000
 RMSDP=3.96D-08 MaxDP=3.27D-06 DE=-1.80D-11 OVMax= 1.41D-06

 Cycle  16  Pass 1  IDiag  1:
 RMSU=  1.35D-08    CP:  1.14D+00  6.10D-01  7.17D-01  6.02D-01  8.41D-01
                    CP:  1.06D+00  1.00D+00  9.99D-01  1.13D+00  1.20D+00
                    CP:  1.13D+00  1.32D+00  1.20D+00  1.09D+00  1.18D+00
 E= -607.745856248435     Delta-E=       -0.000000000007 Rises=F Damp=F
 DIIS: error= 2.84D-08 at cycle  16 NSaved=  16.
 NSaved=16 IEnMin=16 EnMin= -607.745856248435     IErMin=16 ErrMin= 2.84D-08
 ErrMax= 2.84D-08  0.00D+00 EMaxC= 1.00D-01 BMatC= 2.18D-13 BMatP= 1.11D-12
 IDIUse=1 WtCom= 1.00D+00 WtEn= 0.00D+00
 Coeff-Com: -0.324D-06 0.700D-06 0.266D-05 0.557D-05-0.147D-05-0.568D-04
 Coeff-Com: -0.143D-03-0.693D-04 0.155D-02 0.198D-02 0.174D-02-0.117D-01
 Coeff-Com: -0.392D-01-0.115D-01 0.316D+00 0.742D+00
 Coeff:     -0.324D-06 0.700D-06 0.266D-05 0.557D-05-0.147D-05-0.568D-04
 Coeff:     -0.143D-03-0.693D-04 0.155D-02 0.198D-02 0.174D-02-0.117D-01
 Coeff:     -0.392D-01-0.115D-01 0.316D+00 0.742D+00
 Gap=     0.166 Goal=   None    Shift=    0.000
 RMSDP=1.19D-08 MaxDP=6.62D-07 DE=-6.59D-12 OVMax= 1.00D-06

 Cycle  17  Pass 1  IDiag  1:
 RMSU=  6.10D-09    CP:  1.14D+00  6.10D-01  7.17D-01  6.02D-01  8.41D-01
                    CP:  1.06D+00  1.00D+00  9.99D-01  1.13D+00  1.20D+00
                    CP:  1.13D+00  1.32D+00  1.21D+00  1.12D+00  1.24D+00
                    CP:  1.04D+00
 E= -607.745856248449     Delta-E=       -0.000000000014 Rises=F Damp=F
 DIIS: error= 1.42D-08 at cycle  17 NSaved=  17.
 NSaved=17 IEnMin=17 EnMin= -607.745856248449     IErMin=17 ErrMin= 1.42D-08
 ErrMax= 1.42D-08  0.00D+00 EMaxC= 1.00D-01 BMatC= 5.93D-14 BMatP= 2.18D-13
 IDIUse=1 WtCom= 1.00D+00 WtEn= 0.00D+00
 Coeff-Com:  0.891D-07-0.212D-06 0.430D-06 0.926D-06 0.430D-05 0.575D-05
 Coeff-Com: -0.775D-05-0.107D-03-0.483D-03 0.423D-04 0.253D-02 0.701D-02
 Coeff-Com: -0.681D-02-0.386D-01-0.176D+00 0.196D+00 0.102D+01
 Coeff:      0.891D-07-0.212D-06 0.430D-06 0.926D-06 0.430D-05 0.575D-05
 Coeff:     -0.775D-05-0.107D-03-0.483D-03 0.423D-04 0.253D-02 0.701D-02
 Coeff:     -0.681D-02-0.386D-01-0.176D+00 0.196D+00 0.102D+01
 Gap=     0.166 Goal=   None    Shift=    0.000
 RMSDP=6.67D-09 MaxDP=2.92D-07 DE=-1.36D-11 OVMax= 6.91D-07

 SCF Done:  E(RM062X) =  -607.745856248     A.U. after   17 cycles
            NFock= 17  Conv=0.67D-08     -V/T= 2.0018
 KE= 6.066577188888D+02 PE=-2.967402596002D+03 EE= 9.710934072614D+02
 Leave Link  502 at Mon Dec 30 16:56:53 2019, MaxMem= 10737418240 cpu:             830.3 elap:              35.8
 (Enter /apps/cent7/gaussian/g16-A.03/g16-haswell/g16/l601.exe)
 Copying SCF densities to generalized density rwf, IOpCl= 0 IROHF=0.

 **********************************************************************

            Population analysis using the SCF density.

 **********************************************************************

 Orbital symmetries:
       Occupied  (A) (A) (A) (A) (A) (A) (A) (A) (A) (A) (A) (A)
                 (A) (A) (A) (A) (A) (A) (A) (A) (A) (A) (A) (A)
                 (A) (A) (A) (A) (A) (A) (A) (A) (A) (A) (A) (A)
                 (A) (A) (A) (A) (A) (A) (A) (A) (A) (A)
       Virtual   (A) (A) (A) (A) (A) (A) (A) (A) (A) (A) (A) (A)
                 (A) (A) (A) (A) (A) (A) (A) (A) (A) (A) (A) (A)
                 (A) (A) (A) (A) (A) (A) (A) (A) (A) (A) (A) (A)
                 (A) (A) (A) (A) (A) (A) (A) (A) (A) (A) (A) (A)
                 (A) (A) (A) (A) (A) (A) (A) (A) (A) (A) (A) (A)
                 (A) (A) (A) (A) (A) (A) (A) (A) (A) (A) (A) (A)
                 (A) (A) (A) (A) (A) (A) (A) (A) (A) (A) (A) (A)
                 (A) (A) (A) (A) (A) (A) (A) (A) (A) (A) (A) (A)
                 (A) (A) (A) (A) (A) (A) (A) (A) (A) (A) (A) (A)
                 (A) (A) (A) (A) (A) (A) (A) (A) (A) (A) (A) (A)
                 (A) (A) (A) (A) (A) (A) (A) (A) (A) (A) (A) (A)
                 (A) (A) (A) (A) (A) (A) (A) (A) (A) (A) (A) (A)
                 (A) (A) (A) (A) (A) (A) (A) (A) (A) (A) (A) (A)
                 (A) (A) (A) (A) (A) (A) (A) (A) (A) (A) (A) (A)
                 (A) (A) (A) (A) (A) (A) (A) (A) (A) (A) (A) (A)
                 (A) (A) (A) (A) (A) (A) (A) (A) (A) (A) (A) (A)
                 (A) (A) (A) (A) (A) (A) (A) (A) (A) (A) (A) (A)
                 (A) (A) (A) (A) (A) (A) (A) (A) (A) (A) (A) (A)
                 (A) (A) (A) (A) (A) (A) (A) (A) (A) (A) (A) (A)
                 (A) (A) (A) (A) (A) (A) (A) (A) (A) (A) (A) (A)
                 (A) (A) (A) (A) (A) (A) (A) (A) (A) (A) (A) (A)
                 (A) (A) (A) (A) (A) (A) (A) (A) (A) (A) (A) (A)
                 (A) (A) (A) (A) (A) (A) (A) (A) (A) (A) (A) (A)
                 (A) (A) (A) (A) (A) (A) (A) (A) (A) (A) (A) (A)
                 (A) (A) (A) (A) (A) (A) (A) (A) (A) (A) (A) (A)
                 (A)
 The electronic state is 1-A.
 Alpha  occ. eigenvalues --  -20.02267 -19.77917 -15.00320 -14.89894 -10.78659
 Alpha  occ. eigenvalues --  -10.78550 -10.73074 -10.72473 -10.70959 -10.70722
 Alpha  occ. eigenvalues --  -10.70124 -10.70083 -10.70060  -1.60270  -1.34533
 Alpha  occ. eigenvalues --   -1.27230  -1.22600  -1.10328  -1.06901  -1.02570
 Alpha  occ. eigenvalues --   -0.99834  -0.98845  -0.93333  -0.91789  -0.86100
 Alpha  occ. eigenvalues --   -0.84630  -0.80590  -0.78581  -0.74041  -0.72716
 Alpha  occ. eigenvalues --   -0.71582  -0.68285  -0.66183  -0.65708  -0.64467
 Alpha  occ. eigenvalues --   -0.63595  -0.59217  -0.58714  -0.57926  -0.56054
 Alpha  occ. eigenvalues --   -0.54004  -0.53431  -0.49700  -0.48895  -0.46787
 Alpha  occ. eigenvalues --   -0.42700
 Alpha virt. eigenvalues --   -0.26144  -0.19655  -0.14890  -0.13314  -0.11054
 Alpha virt. eigenvalues --   -0.10488  -0.08900  -0.08199  -0.07723  -0.07066
 Alpha virt. eigenvalues --   -0.06424  -0.05906  -0.04796  -0.04644  -0.04077
 Alpha virt. eigenvalues --   -0.02992  -0.02963  -0.02338  -0.02126  -0.01637
 Alpha virt. eigenvalues --   -0.00871  -0.00389   0.00330   0.00515   0.01028
 Alpha virt. eigenvalues --    0.01292   0.02124   0.02727   0.02935   0.03435
 Alpha virt. eigenvalues --    0.03636   0.03985   0.04170   0.04466   0.04855
 Alpha virt. eigenvalues --    0.05511   0.05702   0.06105   0.07105   0.07558
 Alpha virt. eigenvalues --    0.07779   0.08297   0.08507   0.08886   0.09478
 Alpha virt. eigenvalues --    0.09899   0.10248   0.10873   0.11337   0.11510
 Alpha virt. eigenvalues --    0.12371   0.12809   0.13113   0.13994   0.14605
 Alpha virt. eigenvalues --    0.14769   0.15273   0.15916   0.16276   0.17013
 Alpha virt. eigenvalues --    0.17272   0.18537   0.18912   0.19594   0.19780
 Alpha virt. eigenvalues --    0.20101   0.21167   0.21792   0.22202   0.22762
 Alpha virt. eigenvalues --    0.23944   0.24561   0.25031   0.26099   0.27207
 Alpha virt. eigenvalues --    0.27723   0.28586   0.29793   0.30430   0.31192
 Alpha virt. eigenvalues --    0.32669   0.33987   0.35316   0.36036   0.38274
 Alpha virt. eigenvalues --    0.40526   0.41786   0.42224   0.43375   0.43768
 Alpha virt. eigenvalues --    0.44351   0.45603   0.45965   0.46766   0.48199
 Alpha virt. eigenvalues --    0.49463   0.49934   0.51338   0.51652   0.53288
 Alpha virt. eigenvalues --    0.54615   0.55102   0.56291   0.58326   0.59398
 Alpha virt. eigenvalues --    0.60361   0.60974   0.61666   0.63104   0.63420
 Alpha virt. eigenvalues --    0.64735   0.65596   0.67758   0.67850   0.70141
 Alpha virt. eigenvalues --    0.72508   0.73639   0.74735   0.74910   0.76290
 Alpha virt. eigenvalues --    0.76631   0.77909   0.78489   0.79907   0.80408
 Alpha virt. eigenvalues --    0.82053   0.82501   0.83009   0.84519   0.85829
 Alpha virt. eigenvalues --    0.86696   0.87770   0.89469   0.90689   0.91217
 Alpha virt. eigenvalues --    0.92110   0.93587   0.94304   0.97155   0.97558
 Alpha virt. eigenvalues --    0.97919   0.98981   0.99207   1.01417   1.02404
 Alpha virt. eigenvalues --    1.05313   1.08319   1.10135   1.14549   1.17101
 Alpha virt. eigenvalues --    1.17672   1.18178   1.21639   1.25632   1.26818
 Alpha virt. eigenvalues --    1.29716   1.32900   1.35669   1.36308   1.37273
 Alpha virt. eigenvalues --    1.39028   1.40267   1.43527   1.44288   1.46414
 Alpha virt. eigenvalues --    1.48076   1.48668   1.49886   1.52202   1.52422
 Alpha virt. eigenvalues --    1.53473   1.54547   1.56575   1.57862   1.59365
 Alpha virt. eigenvalues --    1.61519   1.62630   1.64354   1.65381   1.66240
 Alpha virt. eigenvalues --    1.69077   1.69786   1.70670   1.71980   1.74657
 Alpha virt. eigenvalues --    1.76053   1.77368   1.78235   1.80166   1.80623
 Alpha virt. eigenvalues --    1.81226   1.83516   1.85709   1.86499   1.89973
 Alpha virt. eigenvalues --    1.93771   1.96073   1.96734   1.98935   2.01726
 Alpha virt. eigenvalues --    2.05918   2.06466   2.07301   2.09079   2.09137
 Alpha virt. eigenvalues --    2.11523   2.14578   2.16771   2.19957   2.24932
 Alpha virt. eigenvalues --    2.33282   2.34248   2.36994   2.37655   2.39286
 Alpha virt. eigenvalues --    2.40009   2.42023   2.44199   2.46671   2.47060
 Alpha virt. eigenvalues --    2.47744   2.52055   2.53030   2.55060   2.58247
 Alpha virt. eigenvalues --    2.59433   2.60522   2.62334   2.63410   2.64288
 Alpha virt. eigenvalues --    2.65583   2.66532   2.67588   2.69688   2.70166
 Alpha virt. eigenvalues --    2.73224   2.76672   2.77208   2.78467   2.82951
 Alpha virt. eigenvalues --    2.84455   2.87045   2.89996   2.92288   2.94002
 Alpha virt. eigenvalues --    2.94840   3.00115   3.00374   3.07037   3.09444
 Alpha virt. eigenvalues --    3.15505   3.19117   3.23659   3.25787   3.27525
 Alpha virt. eigenvalues --    3.30855   3.32167   3.34686   3.40815   3.43489
 Alpha virt. eigenvalues --    3.49971   3.50817   3.52070   3.53255   3.56422
 Alpha virt. eigenvalues --    3.72480   3.74988   3.79824   3.84658   3.89366
 Alpha virt. eigenvalues --    3.91498   3.92671   3.94196   3.96643   4.03938
 Alpha virt. eigenvalues --    4.08091   4.21666   4.29578   4.46979   4.66173
 Alpha virt. eigenvalues --    4.74773   4.89360   5.12619   5.24548   5.37011
 Alpha virt. eigenvalues --    5.49664   5.76130   5.96338  23.57262  23.80962
 Alpha virt. eigenvalues --   23.87110  23.89122  23.92912  23.98622  24.00769
 Alpha virt. eigenvalues --   24.08598  24.21653  35.57780  35.70085  49.74278
 Alpha virt. eigenvalues --   49.97109
          Condensed to atoms (all electrons):
               1          2          3          4          5          6
     1  O    7.677908  -0.646759   0.406969   0.364414  -0.013505   0.000058
     2  N   -0.646759   8.185081  -1.064433  -0.844313   0.046997   0.005838
     3  C    0.406969  -1.064433  17.333710  -2.159059  -0.355092   0.203074
     4  C    0.364414  -0.844313  -2.159059  15.683548   0.531190  -0.308408
     5  O   -0.013505   0.046997  -0.355092   0.531190   7.977667   0.152600
     6  C    0.000058   0.005838   0.203074  -0.308408   0.152600   5.179746
     7  N    0.018319  -0.027842   0.809199  -0.209299  -0.137026   0.002374
     8  C   -0.206463   0.734218  -7.092044   1.966378  -0.032691  -0.119764
     9  C   -0.047213   0.114637  -2.375024  -0.710317   0.075671  -0.028446
    10  C    0.019438  -0.022501   0.236371   0.026505  -0.002987  -0.011162
    11  C    0.100968  -0.057106  -0.165107  -0.070847  -0.008544   0.011551
    12  C    0.164504  -0.391002   1.829669  -2.378731   0.068598   0.049379
    13  C   -0.590205   1.195898  -1.001089  -5.544205  -0.086753   0.047450
    14  H    0.276552   0.028296  -0.061168  -0.015335  -0.000617  -0.003692
    15  H    0.003072  -0.003043  -0.025126   0.043007  -0.053537   0.415044
    16  H   -0.002959   0.020404   0.101318  -0.168474  -0.061437   0.360936
    17  H    0.000168  -0.000252  -0.081789   0.091977  -0.035986   0.413453
    18  H   -0.000553   0.001461  -0.038572  -0.016591   0.000566   0.000452
    19  H    0.000343  -0.000433   0.015461  -0.009246  -0.000179  -0.000302
    20  H   -0.000470   0.000587  -0.023757   0.000058  -0.000085   0.000219
    21  H    0.010758   0.029987  -0.045548  -0.062914   0.002692  -0.001063
    22  H    0.275339   0.033613   0.007573   0.001191   0.000086   0.002608
               7          8          9         10         11         12
     1  O    0.018319  -0.206463  -0.047213   0.019438   0.100968   0.164504
     2  N   -0.027842   0.734218   0.114637  -0.022501  -0.057106  -0.391002
     3  C    0.809199  -7.092044  -2.375024   0.236371  -0.165107   1.829669
     4  C   -0.209299   1.966378  -0.710317   0.026505  -0.070847  -2.378731
     5  O   -0.137026  -0.032691   0.075671  -0.002987  -0.008544   0.068598
     6  C    0.002374  -0.119764  -0.028446  -0.011162   0.011551   0.049379
     7  N    7.029402  -0.245688  -1.085522  -0.008034   0.033999  -0.225301
     8  C   -0.245688  17.873264  -2.521085  -0.881094   1.581413  -6.090504
     9  C   -1.085522  -2.521085  13.468291   0.738040  -1.916708   5.391577
    10  C   -0.008034  -0.881094   0.738040   6.043571   0.201701  -0.495086
    11  C    0.033999   1.581413  -1.916708   0.201701   8.703860  -2.283092
    12  C   -0.225301  -6.090504   5.391577  -0.495086  -2.283092  18.250495
    13  C    0.979772   1.014327  -5.116692  -0.087356   0.067881  -7.510352
    14  H    0.001265   0.003975  -0.003966   0.000989   0.009889  -0.012653
    15  H    0.003550  -0.002230  -0.004353   0.000091   0.000227  -0.001105
    16  H    0.020911  -0.024408  -0.023943   0.000052   0.008898  -0.019755
    17  H   -0.011135   0.036704   0.013457   0.001136  -0.001503  -0.006499
    18  H   -0.006831  -0.126153   0.515391  -0.018238  -0.007827   0.077472
    19  H    0.002703   0.010162  -0.084449   0.433531  -0.080346  -0.058568
    20  H   -0.000329   0.076608  -0.032478  -0.071967   0.442333  -0.092827
    21  H   -0.007016  -0.049667   0.146410   0.014504  -0.241926   0.726922
    22  H    0.001032  -0.022519  -0.002868  -0.000878   0.013012   0.037427
              13         14         15         16         17         18
     1  O   -0.590205   0.276552   0.003072  -0.002959   0.000168  -0.000553
     2  N    1.195898   0.028296  -0.003043   0.020404  -0.000252   0.001461
     3  C   -1.001089  -0.061168  -0.025126   0.101318  -0.081789  -0.038572
     4  C   -5.544205  -0.015335   0.043007  -0.168474   0.091977  -0.016591
     5  O   -0.086753  -0.000617  -0.053537  -0.061437  -0.035986   0.000566
     6  C    0.047450  -0.003692   0.415044   0.360936   0.413453   0.000452
     7  N    0.979772   0.001265   0.003550   0.020911  -0.011135  -0.006831
     8  C    1.014327   0.003975  -0.002230  -0.024408   0.036704  -0.126153
     9  C   -5.116692  -0.003966  -0.004353  -0.023943   0.013457   0.515391
    10  C   -0.087356   0.000989   0.000091   0.000052   0.001136  -0.018238
    11  C    0.067881   0.009889   0.000227   0.008898  -0.001503  -0.007827
    12  C   -7.510352  -0.012653  -0.001105  -0.019755  -0.006499   0.077472
    13  C   21.003162   0.053550  -0.016039   0.086127  -0.041215  -0.066656
    14  H    0.053550   0.354728  -0.000113   0.001211  -0.000158  -0.000023
    15  H   -0.016039  -0.000113   0.478480  -0.033559  -0.020366  -0.000008
    16  H    0.086127   0.001211  -0.033559   0.610258  -0.042499  -0.000127
    17  H   -0.041215  -0.000158  -0.020366  -0.042499   0.476238   0.000082
    18  H   -0.066656  -0.000023  -0.000008  -0.000127   0.000082   0.421470
    19  H    0.098307   0.000016   0.000012   0.000046  -0.000018  -0.007521
    20  H    0.040429  -0.000131  -0.000008   0.000077  -0.000002   0.000805
    21  H   -0.212023  -0.001273  -0.000309  -0.000819   0.000031   0.001764
    22  H   -0.060158  -0.042601   0.000090  -0.000073   0.000051   0.000014
              19         20         21         22
     1  O    0.000343  -0.000470   0.010758   0.275339
     2  N   -0.000433   0.000587   0.029987   0.033613
     3  C    0.015461  -0.023757  -0.045548   0.007573
     4  C   -0.009246   0.000058  -0.062914   0.001191
     5  O   -0.000179  -0.000085   0.002692   0.000086
     6  C   -0.000302   0.000219  -0.001063   0.002608
     7  N    0.002703  -0.000329  -0.007016   0.001032
     8  C    0.010162   0.076608  -0.049667  -0.022519
     9  C   -0.084449  -0.032478   0.146410  -0.002868
    10  C    0.433531  -0.071967   0.014504  -0.000878
    11  C   -0.080346   0.442333  -0.241926   0.013012
    12  C   -0.058568  -0.092827   0.726922   0.037427
    13  C    0.098307   0.040429  -0.212023  -0.060158
    14  H    0.000016  -0.000131  -0.001273  -0.042601
    15  H    0.000012  -0.000008  -0.000309   0.000090
    16  H    0.000046   0.000077  -0.000819  -0.000073
    17  H   -0.000018  -0.000002   0.000031   0.000051
    18  H   -0.007521   0.000805   0.001764   0.000014
    19  H    0.430156  -0.009824   0.000165  -0.000036
    20  H   -0.009824   0.437142  -0.013853   0.000213
    21  H    0.000165  -0.013853   0.560081  -0.002663
    22  H   -0.000036   0.000213  -0.002663   0.354254
 Mulliken charges:
               1
     1  O    0.189315
     2  N   -0.339334
     3  C   -0.455534
     4  C   -0.210528
     5  O   -0.067628
     6  C   -0.371944
     7  N    0.061497
     8  C    0.117264
     9  C   -0.510409
    10  C   -0.116625
    11  C   -0.342724
    12  C   -1.030566
    13  C    1.745841
    14  H    0.411261
    15  H    0.216223
    16  H    0.167817
    17  H    0.208123
    18  H    0.269622
    19  H    0.260020
    20  H    0.247260
    21  H    0.145759
    22  H    0.405292
 Sum of Mulliken charges =   1.00000
 Mulliken charges with hydrogens summed into heavy atoms:
               1
     1  O    1.005867
     2  N   -0.339334
     3  C   -0.455534
     4  C   -0.210528
     5  O   -0.067628
     6  C    0.220218
     7  N    0.061497
     8  C    0.117264
     9  C   -0.240788
    10  C    0.143395
    11  C   -0.095464
    12  C   -0.884807
    13  C    1.745841
 Electronic spatial extent (au):  <R**2>=           2273.4610
 Charge=              1.0000 electrons
 Dipole moment (field-independent basis, Debye):
    X=             -1.7638    Y=              9.5434    Z=              2.1879  Tot=              9.9486
 Quadrupole moment (field-independent basis, Debye-Ang):
   XX=            -50.9234   YY=            -31.6766   ZZ=            -71.4271
   XY=              5.1988   XZ=              5.2341   YZ=             -1.5310
 Traceless Quadrupole moment (field-independent basis, Debye-Ang):
   XX=              0.4189   YY=             19.6658   ZZ=            -20.0847
   XY=              5.1988   XZ=              5.2341   YZ=             -1.5310
 Octapole moment (field-independent basis, Debye-Ang**2):
  XXX=            -20.0683  YYY=            139.4020  ZZZ=             -0.8625  XYY=              9.1462
  XXY=            -21.5013  XXZ=             25.8627  XZZ=             16.7232  YZZ=             18.0317
  YYZ=              4.5789  XYZ=             -6.1050
 Hexadecapole moment (field-independent basis, Debye-Ang**3):
 XXXX=          -1504.0879 YYYY=           -444.7961 ZZZZ=           -133.7725 XXXY=            -16.9096
 XXXZ=             33.4854 YYYX=             88.5075 YYYZ=             -6.5443 ZZZX=              5.3966
 ZZZY=             -0.3937 XXYY=           -394.4068 XXZZ=           -355.2167 YYZZ=           -139.3216
 XXYZ=            -13.8138 YYXZ=             13.4276 ZZXY=              6.7723
 N-N= 7.819056136037D+02 E-N=-2.967402596335D+03  KE= 6.066577188888D+02
 No NMR shielding tensors so no spin-rotation constants.
 Leave Link  601 at Mon Dec 30 16:56:54 2019, MaxMem= 10737418240 cpu:               3.3 elap:               0.2
 (Enter /apps/cent7/gaussian/g16-A.03/g16-haswell/g16/l701.exe)
 ... and contract with generalized density number  0.
 Compute integral first derivatives.
 Leave Link  701 at Mon Dec 30 16:56:54 2019, MaxMem= 10737418240 cpu:               3.5 elap:               0.2
 (Enter /apps/cent7/gaussian/g16-A.03/g16-haswell/g16/l702.exe)
 L702 exits ... SP integral derivatives will be done elsewhere.
 Leave Link  702 at Mon Dec 30 16:56:54 2019, MaxMem= 10737418240 cpu:               0.5 elap:               0.0
 (Enter /apps/cent7/gaussian/g16-A.03/g16-haswell/g16/l703.exe)
 Integral derivatives from FoFJK, PRISM(SPDF).
 Compute integral first derivatives, UseDBF=F ICtDFT=           0.
 Calling FoFJK, ICntrl=      2127 FMM=F ISym2X=0 I1Cent= 0 IOpClX= 0 NMat=1 NMatS=1 NMatT=0.
 FoFJK:  IHMeth= 1 ICntrl=    2127 DoSepK=F KAlg= 0 I1Cent=           0 FoldK=F
 IRaf=         0 NMat=       1 IRICut=       1 DoRegI=T DoRafI=F ISym2E= 0 IDoP0=0 IntGTp=1.
 FoFCou: FMM=F IPFlag=           0 FMFlag=      100000 FMFlg1=         800
         NFxFlg=           0 DoJE=F BraDBF=F KetDBF=F FulRan=T
         wScrn=  0.000000 ICntrl=      2127 IOpCl=  0 I1Cent=           0 NGrid=           0
         NMat0=    1 NMatS0=      1 NMatT0=    0 NMatD0=    1 NMtDS0=    0 NMtDT0=    0
 Symmetry not used in FoFCou.
 Leave Link  703 at Mon Dec 30 16:56:59 2019, MaxMem= 10737418240 cpu:             110.3 elap:               4.6
 (Enter /apps/cent7/gaussian/g16-A.03/g16-haswell/g16/l716.exe)
 Dipole        =-6.93929806D-01 3.75467925D+00 8.60767755D-01
 ***** Axes restored to original set *****
 -------------------------------------------------------------------
 Center     Atomic                   Forces (Hartrees/Bohr)
 Number     Number              X              Y              Z
 -------------------------------------------------------------------
      1        8           0.131680724    0.018880934   -0.002014638
      2        7          -0.195561889   -0.040291789    0.004421424
      3        6           0.141065371   -0.055609157   -0.002412593
      4        6          -0.153680857    0.001395233   -0.001803936
      5        8           0.013930397    0.001964380    0.000884215
      6        6          -0.004803574   -0.001660957    0.004653065
      7        7          -0.096166834   -0.051209296    0.002471343
      8        6           0.077041167    0.078796562   -0.000546151
      9        6          -0.005778784   -0.016438472   -0.000556970
     10        6           0.010392147   -0.017770267   -0.000313188
     11        6          -0.007997757    0.002066358   -0.000098708
     12        6          -0.011751087    0.002731769   -0.000583518
     13        6           0.079297720    0.084323686   -0.001062021
     14        1           0.011393621   -0.002666850    0.015692338
     15        1           0.001227910    0.001054355   -0.004185003
     16        1          -0.000458466   -0.000896698    0.002890783
     17        1           0.000875003    0.001426746   -0.001115942
     18        1           0.003160109   -0.003820260    0.000149491
     19        1          -0.000100542   -0.005037281   -0.000159355
     20        1          -0.005088025   -0.002112821    0.000087625
     21        1           0.000104430    0.007348705    0.000114266
     22        1           0.011219219   -0.002474880   -0.016512527
 -------------------------------------------------------------------
 Cartesian Forces:  Max     0.195561889 RMS     0.046673135
 Leave Link  716 at Mon Dec 30 16:56:59 2019, MaxMem= 10737418240 cpu:               0.6 elap:               0.0
 (Enter /apps/cent7/gaussian/g16-A.03/g16-haswell/g16/l103.exe)

 GradGradGradGradGradGradGradGradGradGradGradGradGradGradGradGradGradGrad
 Berny optimization.
 FormGI is forming the generalized inverse of G from B-inverse, IUseBI=4.
 Internal  Forces:  Max     0.151354326 RMS     0.026480959
 Search for a local minimum.
 Step number   1 out of a maximum of  115
 All quantities printed in internal units (Hartrees-Bohrs-Radians)
 RMS Force = .26481D-01 SwitMx=.10000D-02 MixMth= 1
 Mixed Optimization -- RFO/linear search
 Second derivative matrix not updated -- first step.
 ITU=  0
     Eigenvalues ---    0.01148   0.01912   0.01922   0.01925   0.01945
     Eigenvalues ---    0.01962   0.01975   0.02050   0.02213   0.02256
     Eigenvalues ---    0.02370   0.02471   0.02729   0.02795   0.02955
     Eigenvalues ---    0.03034   0.03242   0.10288   0.10288   0.16000
     Eigenvalues ---    0.16000   0.16000   0.16000   0.16000   0.16000
     Eigenvalues ---    0.16000   0.16000   0.16000   0.22000   0.22607
     Eigenvalues ---    0.24521   0.24983   0.24998   0.24999   0.25000
     Eigenvalues ---    0.25000   0.25000   0.34810   0.34811   0.34813
     Eigenvalues ---    0.34813   0.34813   0.34815   0.34818   0.38978
     Eigenvalues ---    0.39429   0.40279   0.43455   0.43663   0.43981
     Eigenvalues ---    0.44348   0.48449   0.52781   0.55473   0.55473
     Eigenvalues ---    0.56957   0.62248   0.68087   0.72206   0.76749
 RFO step:  Lambda=-1.12205341D-01 EMin= 1.14755305D-02
 Linear search not attempted -- first point.
 Maximum step size (   0.300) exceeded in Quadratic search.
    -- Step size scaled by   0.691
 Iteration  1 RMS(Cart)=  0.05867353 RMS(Int)=  0.00142014
 Iteration  2 RMS(Cart)=  0.00367242 RMS(Int)=  0.00003290
 Iteration  3 RMS(Cart)=  0.00001143 RMS(Int)=  0.00003250
 Iteration  4 RMS(Cart)=  0.00000000 RMS(Int)=  0.00003250
 ITry= 1 IFail=0 DXMaxC= 1.99D-01 DCOld= 1.00D+10 DXMaxT= 3.00D-01 DXLimC= 3.00D+00 Rises=F
 Variable       Old X    -DE/DX   Delta X   Delta X   Delta X     New X
                                 (Linear)    (Quad)   (Total)
    R1        2.39718   0.15135   0.00000   0.11893   0.11893   2.51611
    R2        1.81414   0.01943   0.00000   0.02014   0.02014   1.83428
    R3        1.81414   0.02000   0.00000   0.02073   0.02073   1.83487
    R4        2.42414   0.00408   0.00000   0.00338   0.00338   2.42752
    R5        2.54739   0.13462   0.00000   0.14143   0.14142   2.68881
    R6        2.58160   0.08589   0.00000   0.09505   0.09502   2.67662
    R7        2.53433  -0.00848   0.00000  -0.00859  -0.00859   2.52573
    R8        2.42808  -0.00164   0.00000  -0.00098  -0.00096   2.42712
    R9        2.72336   0.00302   0.00000   0.00413   0.00413   2.72749
   R10        2.05985  -0.00153   0.00000  -0.00229  -0.00229   2.05756
   R11        2.05980   0.00126   0.00000   0.00189   0.00189   2.06169
   R12        2.05980  -0.00044   0.00000  -0.00066  -0.00066   2.05914
   R13        2.47221   0.11527   0.00000   0.10325   0.10328   2.57549
   R14        2.65748  -0.02746   0.00000  -0.03378  -0.03376   2.62372
   R15        2.62933   0.02493   0.00000   0.02870   0.02867   2.65800
   R16        2.66678  -0.00427   0.00000  -0.00602  -0.00598   2.66081
   R17        2.05982  -0.00482   0.00000  -0.00723  -0.00723   2.05259
   R18        2.67198  -0.01924   0.00000  -0.02523  -0.02521   2.64677
   R19        2.05971  -0.00501   0.00000  -0.00752  -0.00752   2.05219
   R20        2.66953  -0.01598   0.00000  -0.02037  -0.02039   2.64914
   R21        2.05980  -0.00551   0.00000  -0.00827  -0.00827   2.05152
   R22        2.66321  -0.01395   0.00000  -0.01677  -0.01681   2.64639
   R23        2.05976  -0.00441   0.00000  -0.00661  -0.00661   2.05314
    A1        2.09440   0.00129   0.00000   0.00327   0.00327   2.09766
    A2        2.09440   0.00107   0.00000   0.00271   0.00270   2.09710
    A3        2.09440  -0.00236   0.00000  -0.00598  -0.00599   2.08841
    A4        2.18580  -0.07737   0.00000  -0.14766  -0.14766   2.03814
    A5        2.16920  -0.02130   0.00000  -0.04297  -0.04295   2.12626
    A6        2.26852   0.01989   0.00000   0.03565   0.03567   2.30419
    A7        1.84545   0.00141   0.00000   0.00734   0.00729   1.85273
    A8        2.18491  -0.00269   0.00000  -0.00714  -0.00715   2.17776
    A9        1.94937  -0.00825   0.00000  -0.01173  -0.01174   1.93763
   A10        2.14887   0.01092   0.00000   0.01883   0.01882   2.16769
   A11        1.96393   0.01492   0.00000   0.02847   0.02847   1.99240
   A12        1.91057  -0.00695   0.00000  -0.01808  -0.01809   1.89248
   A13        1.91063   0.00586   0.00000   0.01534   0.01535   1.92599
   A14        1.91062  -0.00201   0.00000  -0.00514  -0.00517   1.90545
   A15        1.91067   0.00070   0.00000   0.00186   0.00190   1.91257
   A16        1.91062   0.00277   0.00000   0.00612   0.00606   1.91668
   A17        1.91068  -0.00037   0.00000  -0.00010  -0.00010   1.91058
   A18        1.88973  -0.00040   0.00000  -0.00271  -0.00266   1.88707
   A19        2.26475  -0.01335   0.00000  -0.02386  -0.02386   2.24089
   A20        1.90056   0.02245   0.00000   0.03789   0.03790   1.93845
   A21        2.11763  -0.00910   0.00000  -0.01399  -0.01400   2.10363
   A22        2.06678  -0.00062   0.00000  -0.00259  -0.00253   2.06426
   A23        2.10526  -0.00090   0.00000  -0.00178  -0.00181   2.10345
   A24        2.11114   0.00152   0.00000   0.00437   0.00434   2.11547
   A25        2.10160   0.00906   0.00000   0.01573   0.01579   2.11739
   A26        2.08910  -0.00397   0.00000  -0.00645  -0.00648   2.08262
   A27        2.09248  -0.00509   0.00000  -0.00928  -0.00931   2.08317
   A28        2.10368  -0.00017   0.00000  -0.00271  -0.00272   2.10096
   A29        2.09057   0.00004   0.00000   0.00124   0.00124   2.09182
   A30        2.08894   0.00013   0.00000   0.00147   0.00147   2.09041
   A31        2.06688  -0.00272   0.00000  -0.00545  -0.00552   2.06136
   A32        2.11006  -0.00470   0.00000  -0.01267  -0.01264   2.09742
   A33        2.10624   0.00743   0.00000   0.01812   0.01816   2.12440
   A34        1.83946  -0.01520   0.00000  -0.03071  -0.03072   1.80874
   A35        2.33374   0.01165   0.00000   0.02170   0.02176   2.35550
   A36        2.10979   0.00355   0.00000   0.00902   0.00897   2.11876
    D1        1.58493   0.00072   0.00000   0.00370   0.00371   1.58865
    D2       -1.55666  -0.00045   0.00000  -0.00241  -0.00242  -1.55908
    D3        3.14159  -0.00117   0.00000  -0.00611  -0.00610   3.13549
    D4        3.14075  -0.00098   0.00000  -0.00478  -0.00477   3.13598
    D5       -0.00742  -0.00025   0.00000  -0.00111  -0.00112  -0.00854
    D6        0.00489  -0.00105   0.00000  -0.00585  -0.00591  -0.00102
    D7       -3.12784   0.00010   0.00000  -0.00007  -0.00020  -3.12804
    D8       -3.13146  -0.00171   0.00000  -0.00893  -0.00888  -3.14035
    D9        0.01899  -0.00056   0.00000  -0.00314  -0.00317   0.01582
   D10        3.13687  -0.00004   0.00000  -0.00085  -0.00094   3.13593
   D11       -0.02655   0.00002   0.00000  -0.00035  -0.00043  -0.02699
   D12       -0.01037   0.00050   0.00000   0.00213   0.00212  -0.00825
   D13        3.10939   0.00056   0.00000   0.00263   0.00262   3.11201
   D14        1.64241   0.00224   0.00000   0.01114   0.01115   1.65356
   D15       -1.50902   0.00086   0.00000   0.00455   0.00454  -1.50448
   D16       -0.01990   0.00095   0.00000   0.00352   0.00346  -0.01645
   D17        3.13034   0.00215   0.00000   0.00931   0.00928   3.13962
   D18       -2.39771  -0.00184   0.00000  -0.00847  -0.00839  -2.40609
   D19       -0.30330  -0.00165   0.00000  -0.00788  -0.00792  -0.31122
   D20        1.79114   0.00025   0.00000  -0.00175  -0.00180   1.78934
   D21       -3.10487  -0.00049   0.00000  -0.00317  -0.00321  -3.10808
   D22        0.01253  -0.00022   0.00000  -0.00153  -0.00156   0.01097
   D23        3.11645   0.00061   0.00000   0.00228   0.00228   3.11872
   D24       -0.02503   0.00050   0.00000   0.00191   0.00191  -0.02312
   D25        0.00166  -0.00004   0.00000  -0.00011  -0.00010   0.00156
   D26       -3.13982  -0.00015   0.00000  -0.00048  -0.00047  -3.14029
   D27       -0.00091   0.00020   0.00000  -0.00006  -0.00011  -0.00102
   D28       -3.12411  -0.00002   0.00000  -0.00076  -0.00081  -3.12493
   D29        3.11891   0.00032   0.00000   0.00117   0.00116   3.12006
   D30       -0.00430   0.00010   0.00000   0.00047   0.00045  -0.00385
   D31        0.00233  -0.00006   0.00000  -0.00037  -0.00037   0.00196
   D32       -3.13936  -0.00007   0.00000  -0.00030  -0.00030  -3.13965
   D33       -3.13937   0.00005   0.00000  -0.00001  -0.00000  -3.13937
   D34        0.00213   0.00004   0.00000   0.00007   0.00007   0.00220
   D35       -0.00376   0.00007   0.00000   0.00047   0.00047  -0.00329
   D36        3.13770   0.00008   0.00000   0.00050   0.00050   3.13819
   D37        3.13793   0.00008   0.00000   0.00039   0.00039   3.13832
   D38       -0.00380   0.00009   0.00000   0.00042   0.00042  -0.00338
   D39        0.00117  -0.00003   0.00000  -0.00014  -0.00014   0.00102
   D40       -3.14034   0.00001   0.00000  -0.00013  -0.00013  -3.14047
   D41       -3.14029  -0.00005   0.00000  -0.00017  -0.00017  -3.14046
   D42        0.00139  -0.00001   0.00000  -0.00016  -0.00016   0.00123
   D43       -3.11424   0.00002   0.00000  -0.00055  -0.00057  -3.11481
   D44        0.00282  -0.00006   0.00000  -0.00034  -0.00032   0.00250
   D45        0.02726  -0.00002   0.00000  -0.00056  -0.00058   0.02668
   D46       -3.13886  -0.00010   0.00000  -0.00035  -0.00033  -3.13920
         Item               Value     Threshold  Converged?
 Maximum Force            0.151354     0.000450     NO 
 RMS     Force            0.026481     0.000300     NO 
 Maximum Displacement     0.199242     0.001800     NO 
 RMS     Displacement     0.059871     0.001200     NO 
 Predicted change in Energy=-5.583858D-02
 Lowest energy point so far.  Saving SCF results.
 GradGradGradGradGradGradGradGradGradGradGradGradGradGradGradGradGradGrad

 Leave Link  103 at Mon Dec 30 16:56:59 2019, MaxMem= 10737418240 cpu:               1.6 elap:               0.1
 (Enter /apps/cent7/gaussian/g16-A.03/g16-haswell/g16/l202.exe)
                          Input orientation:                          
 ---------------------------------------------------------------------
 Center     Atomic      Atomic             Coordinates (Angstroms)
 Number     Number       Type             X           Y           Z
 ---------------------------------------------------------------------
      1          8           0        1.264239   -0.058180   -0.028954
      2          7           0       -0.066208   -0.018372    0.004662
      3          6           0       -0.610682    1.145111    0.000103
      4          6           0       -2.023400    1.312527    0.027007
      5          8           0       -2.909185    0.312111    0.057774
      6          6           0       -3.355187   -0.041308    1.384184
      7          7           0       -2.340407    2.556884    0.000394
      8          6           0       -1.189840    3.287016   -0.023645
      9          6           0       -1.044579    4.667801   -0.019834
     10          6           0        0.258450    5.201362   -0.020253
     11          6           0        1.385578    4.369947   -0.026738
     12          6           0        1.238118    2.975864   -0.029026
     13          6           0       -0.059680    2.449688   -0.025917
     14          1           0        1.773084   -0.074352    0.797481
     15          1           0       -3.393525   -1.127035    1.456592
     16          1           0       -2.665903    0.351013    2.133347
     17          1           0       -4.348167    0.375333    1.550739
     18          1           0       -1.917440    5.314253   -0.016862
     19          1           0        0.391882    6.279093   -0.015472
     20          1           0        2.379373    4.806899   -0.030117
     21          1           0        2.114727    2.334013   -0.033005
     22          1           0        1.730311   -0.076329   -0.880559
 ---------------------------------------------------------------------
                    Distance matrix (angstroms):
                    1          2          3          4          5
     1  O    0.000000
     2  N    1.331466   0.000000
     3  C    2.228022   1.284588   0.000000
     4  C    3.562378   2.366937   1.422857   0.000000
     5  O    4.190716   2.862614   2.445471   1.336560   0.000000
     6  C    4.830770   3.566650   3.294781   2.334193   1.443325
     7  N    4.453413   3.435687   2.232723   1.284378   2.316421
     8  C    4.148839   3.491267   2.218952   2.143827   3.436980
     9  C    5.259812   4.787278   3.549368   3.495447   4.738651
    10  C    5.354855   5.229881   4.148371   4.509114   5.826214
    11  C    4.429790   4.622339   3.792802   4.579502   5.909159
    12  C    3.034157   3.266168   2.602031   3.661602   4.929831
    13  C    2.835872   2.468258   1.416405   2.269831   3.563133
    14  H    0.970659   2.003669   2.793786   4.114651   4.756066
    15  H    5.004404   3.795823   3.876625   3.142040   2.064562
    16  H    4.504331   3.380261   3.066799   2.402912   2.090144
    17  H    5.846577   4.569522   4.118959   2.933365   2.074515
    18  H    6.243898   5.644858   4.369171   4.003369   5.100054
    19  H    6.397047   6.314136   5.230980   5.522877   6.819624
    20  H    4.991244   5.409743   4.727583   5.621237   6.941159
    21  H    2.538885   3.208054   2.973624   4.262760   5.416273
    22  H    0.970971   2.003610   2.783474   4.104015   4.749344
                    6          7          8          9         10
     6  C    0.000000
     7  N    3.113721   0.000000
     8  C    4.212891   1.362891   0.000000
     9  C    5.430091   2.477004   1.388410   0.000000
[...]
 -0.00223467,0.00538742,0.01128387,-0.00305268,-0.01376621,-0.00577728,
 0.00645153,0.01886338,0.00226537,-0.06687627,-0.14277036,-0.01192997,0
 .17213569,0.00469315,-0.00116415,-0.00380202,0.00924733,0.01331963,0.0
 0354751,-0.09931841,-0.02472580,0.01255455,-0.02986678,-0.01630985,0.0
 0989838,-0.00618682,0.00125992,0.00161677,0.00077520,-0.00089332,-0.00
 029167,-0.05423379,-0.01101410,0.01640332,-0.22245449,0.03914154,0.039
 75782,0.02893841,0.06168691,-0.00940964,-0.06440341,0.00394842,0.01547
 927,0.03256023,-0.07774214,-0.00290556,-0.28959937,-0.05407164,0.06447
 547,0.70360626,-0.00833566,0.00258523,0.00147388,0.01805905,-0.0659727
 1,-0.00008814,-0.04712322,-0.17305022,0.01775581,-0.02887555,-0.006641
 23,0.00796087,0.00337280,0.00740304,-0.00119878,-0.00095098,-0.0007386
 2,0.00025347,-0.01963087,0.01048286,0.00487533,0.09249134,-0.16136266,
 -0.01853880,0.01711281,-0.02665350,-0.00286455,-0.00634627,-0.00404736
 ,0.00167682,-0.01596895,-0.04355301,0.00649246,-0.09624773,-0.13718722
 ,0.02891805,0.07913925,0.59393719,-0.00345791,-0.00035209,-0.00962997,
 0.00334216,0.00113360,0.02495944,0.01363253,0.01205498,-0.05878915,0.0
 1049317,0.00475712,0.00300118,0.00151422,-0.00065978,0.00006405,-0.000
 28891,0.00023623,-0.00048501,0.01681866,0.00268187,0.00376953,0.037175
 44,-0.00495926,-0.06780625,-0.00722936,-0.01421097,0.00630990,0.015976
 38,-0.00094472,-0.00683191,-0.00591268,0.02220833,0.00668509,0.0665228
 9,0.01817753,-0.06448067,-0.15540001,-0.04384801,0.14957610,-0.1393488
 0,0.10692199,-0.15621202,-0.01250417,0.01155319,-0.01304248,-0.0065801
 3,0.00108337,0.00081223,0.00054350,0.00115181,0.00283741,0.00041539,-0
 .00004269,-0.00018434,-0.00034620,-0.00007047,-0.00004031,-0.00059591,
 -0.00003299,-0.00065548,-0.00046692,0.00026374,0.00025360,-0.00026896,
 -0.00045506,0.00024883,0.00012280,-0.00004958,-0.00007511,0.00029439,-
 0.00018535,0.00013750,0.00042346,0.00011791,-0.00050299,-0.00060138,-0
 .00149333,-0.00151035,0.15221227,0.12964178,-0.13555429,0.17223272,-0.
 00017168,0.00178591,-0.00371929,-0.00009793,-0.00158296,0.00042810,0.0
 0113134,0.00088120,0.00008764,-0.00056356,-0.00058694,0.00015903,0.000
 25172,0.00004852,-0.00006525,-0.00034942,-0.00016281,0.00000288,0.0001
 3963,0.00001097,-0.00008313,-0.00001752,-0.00005717,0.00004041,0.00020
 625,0.00001008,-0.00002243,-0.00031660,0.00021807,0.00012605,0.0000994
 8,-0.00035510,-0.00025451,0.00029481,0.00034254,-0.00037129,-0.1156485
 8,0.12399620,-0.14383096,0.13381278,-0.28911168,-0.00572254,-0.0050926
 2,0.01090398,0.00563928,0.00125167,-0.00068096,-0.00370785,-0.00111317
 ,-0.00025722,0.00106167,0.00042711,-0.00038437,-0.00045356,0.00003665,
 0.00022367,0.00166136,-0.00100085,-0.00006111,-0.00023902,0.00065705,-
 0.00006130,-0.00022024,-0.00033124,0.00001589,0.00007501,-0.00002793,-
 0.00000670,0.00003894,-0.00027239,-0.00012211,0.00019336,-0.00006555,-
 0.00014512,-0.00047054,-0.00025018,0.00071498,0.16386291,-0.14909179,0
 .30032181,-0.00043296,0.00011920,0.00008467,0.00046283,-0.00041247,-0.
 00008314,-0.00060089,-0.00077478,0.00026132,-0.00556412,0.00341978,0.0
 0131193,-0.02602972,-0.03611721,0.00826187,-0.07185714,-0.07458790,0.0
 0847699,0.00079566,0.00017462,-0.00009354,0.00019715,-0.00022645,-0.00
 001774,-0.00008981,-0.00012289,0.00003387,0.00008970,0.00001239,-0.000
 02609,-0.00007786,0.00004121,0.00002026,0.00004044,-0.00014976,-0.0000
 1263,-0.00022625,0.00003883,0.00004444,-0.00000770,-0.00004124,0.00007
 366,0.09286597,0.00002837,-0.00000271,-0.00001115,-0.00007862,0.000096
 44,0.00001818,0.00034131,0.00011664,-0.00007703,0.00211984,0.00037470,
 -0.00054583,0.00444582,0.00777903,-0.00154884,-0.09137667,-0.31287604,
 0.03616812,-0.00056615,-0.00009341,0.00017114,-0.00002521,0.00035733,-
 0.00000648,-0.00000120,0.00000285,0.00000114,-0.00000758,-0.00000197,0
 .00000145,0.00000501,-0.00002211,0.00000034,-0.00001039,0.00007229,-0.
 00000278,-0.00014201,-0.00012286,0.00003979,0.00000662,-0.00000380,0.0
 0000391,0.09258514,0.32528839,0.00008885,-0.00003399,-0.00009866,-0.00
 009915,0.00010258,0.00007638,0.00020846,0.00020496,0.00022514,0.001365
 71,-0.00088343,-0.00008187,0.00625132,0.00876850,-0.00259078,0.0093147
 3,0.03190074,-0.05709622,-0.00006111,-0.00001863,0.00047628,-0.0000279
 4,0.00004493,0.00008960,0.00002804,0.00003218,0.00001139,-0.00002531,-
 0.00000359,-0.00000410,0.00002211,-0.00000906,0.00000481,-0.00001936,0
 .00003286,-0.00003437,0.00005263,-0.00000636,-0.00005720,-0.00001048,0
 .00000118,0.00000617,-0.01623389,-0.03739445,0.05312936,-0.00029288,0.
 00000982,0.00022161,0.00021790,-0.00010148,-0.00010136,-0.00089948,-0.
 00005850,-0.00087279,0.00284181,0.00817746,0.00077445,-0.02219792,0.01
 637650,0.03630112,-0.04886768,0.00152355,0.00310824,0.00071539,-0.0023
 8893,0.00048698,0.00031656,0.00029496,-0.00052983,-0.00017553,-0.00028
 094,0.00006516,0.00023112,0.00002696,-0.00008526,-0.00013478,0.0001656
 9,0.00001376,-0.00006029,-0.00020809,-0.00001556,0.00005146,0.00031199
 ,0.00009673,0.00005861,-0.00002922,0.00006430,0.00243974,-0.00362289,-
 0.00967772,0.06209105,0.00022611,0.00000962,0.00004692,-0.00035186,0.0
 0005453,0.00004258,0.00024939,0.00002625,-0.00050830,-0.00163908,0.002
 42630,0.00147244,0.00325583,-0.00083076,0.00004124,0.00777866,-0.13245
 306,-0.12721840,0.00117323,-0.00032810,0.00027020,-0.00037821,-0.00017
 869,-0.00045888,0.00004356,0.00003486,0.00002078,0.00000297,-0.0000236
 5,0.00002606,0.00005544,0.00001310,-0.00002394,0.00001980,0.00001020,0
 .00001205,0.00018735,0.00001921,0.00002349,0.00000936,0.00001555,-0.00
 004614,0.00201077,-0.01155324,-0.02480630,-0.01085166,0.13379771,-0.00
 010918,0.00004458,0.00004615,0.00004220,-0.00005423,-0.00001005,0.0002
 2467,0.00023054,-0.00019896,-0.00057920,-0.00320712,0.00040965,0.00776
 287,-0.00049457,-0.00316399,0.01252471,-0.12445548,-0.24909164,-0.0005
 6067,0.00003350,0.00025192,-0.00029016,0.00032600,0.00003015,0.0000645
 0,0.00006536,-0.00004003,-0.00009199,-0.00001631,0.00004408,0.00006362
 ,-0.00010175,-0.00002925,0.00002491,0.00017097,0.00000176,-0.00021502,
 -0.00023761,0.00004752,-0.00000108,-0.00000998,0.00001386,-0.00180696,
 0.00374315,0.00682129,-0.01797164,0.13750480,0.26237498,-0.00026719,-0
 .00002361,-0.00004874,0.00020111,-0.00006094,-0.00000511,-0.00047623,-
 0.00008151,0.00102425,0.00205301,0.00850976,-0.00252276,-0.03674354,0.
 01201330,-0.01948812,-0.10393638,0.05301692,-0.09134859,0.00066865,-0.
 00214451,-0.00048771,0.00059470,0.00014186,0.00019787,-0.00019352,-0.0
 0028058,0.00004756,0.00026242,0.00003499,-0.00003601,-0.00014924,0.000
 19391,0.00003060,-0.00004407,-0.00026054,0.00006862,0.00008596,0.00037
 590,-0.00015815,0.00001049,-0.00002364,0.00005452,0.00803025,-0.003698
 22,0.00878940,0.00368025,-0.00177826,0.00093401,0.12620844,0.00019477,
 -0.00000399,-0.00014777,-0.00033866,0.00006507,0.00012505,0.00044079,0
 .00004407,0.00028823,-0.00217502,0.00241200,-0.00067952,0.00295623,-0.
 00117629,-0.00089193,0.05891016,-0.11019634,0.09795564,0.00096228,-0.0
 0031026,-0.00074904,-0.00009666,-0.00016746,0.00057995,0.00002517,0.00
 003254,-0.00004323,-0.00000622,-0.00002499,-0.00002138,0.00005632,0.00
 001858,-0.00000815,0.00001118,-0.00000178,-0.00001968,0.00017139,0.000
 02667,-0.00011543,-0.00002189,0.00000796,-0.00000797,0.01409574,-0.009
 41774,0.02203979,-0.00931370,0.00897724,-0.01354380,-0.06590490,0.1097
 1901,0.00026043,-0.00003546,0.00003394,-0.00012192,0.00008701,-0.00000
 356,-0.00011622,-0.00023679,-0.00064176,-0.00016710,-0.00121948,0.0012
 0107,0.01016477,-0.00598502,0.01173486,-0.10136142,0.09828854,-0.21624
 471,0.00023414,0.00117503,0.00029734,0.00000028,-0.00043472,-0.0002625
 9,0.00001805,0.00007312,-0.00001951,-0.00002690,0.00000415,0.00001432,
 -0.00000687,0.00000624,-0.00002114,0.00000358,-0.00005092,-0.00000213,
 0.00016957,0.00006102,0.00000441,0.00000357,0.00002203,-0.00005308,-0.
 00025009,-0.00055824,-0.00091300,-0.01185040,0.01358452,-0.01749125,0.
 10304993,-0.10479626,0.22230344,-0.00005651,0.00002495,0.00005712,0.00
 004186,-0.00020878,-0.00020519,-0.00000742,-0.00042658,0.00024340,0.00
 038933,0.00007563,-0.00012085,-0.00024380,-0.00020619,0.00013990,0.000
 12931,-0.00001114,-0.00004116,0.00011515,0.00053557,-0.00112174,0.0048
 2550,-0.00197025,-0.00012943,-0.26341029,0.12756483,0.05116917,-0.0145
 2882,0.01406921,0.00369075,-0.00178978,-0.00312754,0.00249964,0.000026
 82,-0.00080468,-0.00030037,0.00128495,-0.00062398,0.00163089,-0.000002
 76,0.00000505,0.00000694,-0.00001514,0.00000662,0.00000334,-0.00000086
 ,-0.00001024,0.00001914,-0.00001363,-0.00000992,-0.00001920,0.27345173
 ,-0.00005412,0.00009457,0.00001727,-0.00027173,-0.00049996,0.00005495,
 0.00126023,-0.00069634,-0.00024429,0.00019247,-0.00065386,-0.00002062,
 0.00000043,0.00043023,-0.00000802,-0.00002482,-0.00005464,0.00000721,-
 0.00018962,0.00274674,-0.00028947,0.02797521,-0.01068144,-0.00640410,0
 .12664333,-0.13643691,-0.02741356,-0.01446256,0.01295386,0.00317806,-0
 .00328088,-0.00109178,0.00125066,-0.00085473,-0.00085368,0.00019521,-0
 .00104219,-0.00426818,0.00084132,-0.00002286,-0.00000690,-0.00001013,-
 0.00001977,0.00001495,0.00000426,0.00000501,-0.00002744,0.00002078,-0.
 00000560,-0.00002891,-0.00001874,-0.13558777,0.13793751,0.00006073,-0.
 00000245,0.00015798,-0.00020225,0.00003814,-0.00075735,0.00016270,0.00
 018454,0.00081923,-0.00012788,0.00000994,-0.00003897,0.00013027,0.0000
 4456,0.00023145,-0.00004054,0.00000402,-0.00002413,-0.00108597,-0.0004
 7454,-0.00389329,-0.00158911,0.00121679,0.00428395,0.05121180,-0.02765
 017,-0.04951533,0.00508308,-0.00407964,0.00157941,0.00250659,0.0012118
 3,0.00673896,-0.00029877,0.00018145,-0.00124018,0.00165314,0.00073465,
 0.00712051,0.00003392,0.00001100,0.00001135,0.00000464,-0.00000245,-0.
 00000187,0.00000360,-0.00000111,-0.00001657,-0.00000466,0.00000801,-0.
 00000241,-0.05633671,0.02904032,0.03894414,0.00016994,0.00007242,-0.00
 010048,-0.00018032,0.00007678,0.00018371,0.00017858,-0.00001055,-0.000
 33763,-0.00066989,0.00012651,0.00016000,0.00003118,-0.00026810,0.00003
 660,0.00007454,0.00000596,-0.00002771,0.00014544,-0.00164479,-0.000178
 21,-0.00373655,-0.00240263,0.00312406,0.00433327,-0.02715721,0.0017492
 0,-0.05943309,-0.00278786,0.00398676,0.00504021,0.02670804,-0.00100658
 ,-0.00371849,0.00340843,0.00273767,-0.00133734,-0.00026638,0.00004391,
 0.00000556,-0.00001905,0.00000438,-0.00000005,-0.00000391,0.00000062,0
 .00000179,0.00000406,-0.00000468,0.00000156,0.00000630,0.00000440,0.00
 056089,0.00041041,-0.00111385,0.05802316,0.00000723,-0.00004828,-0.000
 00971,-0.00009770,0.00041452,0.00003160,-0.00013497,-0.00085915,0.0000
 2027,-0.00030673,0.00012489,0.00007099,-0.00003958,-0.00022487,0.00002
 703,0.00005465,0.00000306,-0.00001565,0.00033323,-0.00062898,-0.000096
 45,-0.00181695,0.00066959,0.00082382,0.00201595,-0.00828440,0.00018344
 ,-0.00257521,-0.34782443,0.01545141,-0.00269061,-0.00928847,0.00143986
 ,0.00239561,-0.00022057,-0.00022408,0.00029800,0.00148029,-0.00020731,
 0.00001632,0.00000085,0.00000141,-0.00000217,0.,0.00000062,-0.00000320
 ,0.00000386,-0.00000042,-0.00000312,0.00000433,0.00000183,-0.00005668,
 0.00055560,-0.00019492,0.00281338,0.36398459,-0.00009716,-0.00002662,-
 0.00018526,0.00019215,-0.00001225,0.00050857,-0.00033168,-0.00001121,-
 0.00106552,0.00018134,-0.00003886,-0.00006063,0.00002552,0.00008526,0.
 00011338,-0.00003013,-0.00000329,-0.00002570,-0.00027484,0.00040700,-0
 .00081907,0.00309535,0.00097167,0.00724731,0.00032621,0.00760687,0.005
 54881,0.00397680,0.01550637,-0.04606984,0.00042662,-0.00604117,0.00638
 755,0.00278649,-0.00048195,0.00700520,0.00001782,-0.00006383,-0.001216
 45,-0.00001706,-0.00001091,0.00002428,0.00000054,0.00000110,0.00000150
 ,0.00000524,-0.00000493,0.00000234,-0.00000471,0.00000208,0.00000206,-
 0.00109109,-0.00031384,-0.00344542,-0.00787099,-0.01711225,0.03046867,
 -0.00014568,-0.00002795,0.00005906,0.00023022,-0.00022676,-0.00007907,
 0.00030187,0.00048372,0.00014774,0.00016370,-0.00005130,-0.00005087,0.
 00004714,0.00000632,-0.00002785,-0.00001656,0.00000569,-0.00001723,0.0
 0010946,0.00003063,-0.00017909,-0.00026128,0.00126829,-0.00025492,-0.0
 0219106,0.00329867,0.00224007,-0.01630307,-0.01419352,0.00562918,-0.26
 134588,-0.12182832,0.06294221,0.00524377,0.00327145,-0.00081845,0.0018
 1306,0.00097289,0.00122351,0.00001782,0.00000115,0.00000854,0.00000298
 ,-0.00000122,0.00000017,0.00000200,-0.00000084,-0.00000304,-0.00000345
 ,0.00000054,0.00000394,-0.00067199,-0.00073308,0.00019991,0.00046587,-
 0.00002740,-0.00115234,0.27233129,0.00053727,0.00005569,-0.00013515,-0
 .00064820,0.00022544,0.00014719,-0.00103999,-0.00048263,0.00033612,0.0
 0026653,-0.00064800,-0.00003836,-0.00014921,0.00024893,0.00002279,-0.0
 0001707,-0.00002620,0.00000156,-0.00024646,0.00050276,0.00000951,0.000
 60350,-0.00121992,-0.00014402,0.00345661,-0.00117346,-0.00046909,0.015
 64369,0.01211512,-0.00442157,-0.12160051,-0.13117360,0.03552123,-0.026
 52904,-0.01145670,0.00744046,0.00131873,-0.00504249,0.00024217,-0.0000
 6509,-0.00001121,-0.00005663,-0.00001039,0.00000223,0.00000270,-0.0000
 0229,-0.00000422,-0.00000070,-0.00000287,-0.00000387,0.00000250,0.0007
 0496,0.00049266,-0.00020450,-0.00035866,0.00062180,-0.00013741,0.12807
 212,0.13606351,0.00003139,0.00000837,0.00007293,-0.00005840,0.00004035
 ,-0.00011216,0.00022196,-0.00005100,0.00092146,-0.00006618,0.00004262,
 -0.00003129,-0.00002044,-0.00001696,-0.00005517,-0.00001600,-0.0000041
 7,-0.00007887,-0.00016551,-0.00006094,-0.00054334,-0.00022224,-0.00031
 428,-0.00094799,0.00223226,-0.00042938,0.00669423,0.00417352,0.0031730
 5,0.00187850,0.06293218,0.03557789,-0.05515576,0.00063611,-0.00014240,
 0.00250086,0.00120447,0.00032951,0.00648361,0.00004260,0.00001060,0.00
 002986,0.00000064,0.00000037,0.00000323,0.00001411,-0.00000187,-0.0000
 0168,-0.00001301,0.00000245,0.00000340,0.00013012,0.00016144,-0.000067
 20,-0.00113608,-0.00022156,-0.00376663,-0.06876904,-0.03792970,0.04604
 259,0.00109692,0.00174928,-0.00072622,-0.00162634,-0.00044103,0.000944
 48,0.00079201,0.00006150,-0.00124489,-0.00111802,0.00088799,0.00025021
 ,0.00004361,-0.00029339,-0.00001341,0.00000800,-0.00000269,-0.00001856
 ,-0.00111777,-0.00050251,0.00024085,-0.00005208,-0.00382732,0.00223429
 ,0.00023464,-0.00016099,-0.00033211,0.00145448,-0.00061601,0.00164969,
 0.00496409,-0.00212452,0.00036655,-0.26766357,0.12459946,0.05218482,-0
 .01536987,0.01502648,0.00373334,0.00032116,0.00003708,0.00008733,0.000
 00725,-0.00001089,-0.00000016,0.00000878,0.00001144,-0.00001179,0.0000
 0862,0.00000635,0.00001419,-0.00006824,0.00007968,-0.00023372,0.000028
 66,-0.00019597,-0.00018421,0.00020985,0.00009862,-0.00112960,0.2775791
 3,0.00119218,-0.00307809,-0.00021876,-0.00157007,-0.00027607,0.0005097
 4,0.00116614,0.00078507,-0.00053413,-0.00057588,0.00062859,0.00011739,
 0.00011635,-0.00024559,-0.00002076,-0.00002663,0.00001196,0.00000301,-
 0.00087139,-0.00020440,0.00021822,-0.00246765,-0.00086101,0.00105983,-
 0.00093948,-0.00094936,0.00023150,-0.00040258,-0.00577935,0.00076530,0
 .02680255,-0.00831778,-0.00612519,0.12494520,-0.13155658,-0.02728598,-
 0.01415075,0.01193608,0.00312636,0.00002857,-0.00042483,0.00025944,0.0
 0000964,-0.00000774,-0.00000186,0.00000724,0.00000342,-0.00000721,0.00
 000886,0.00000280,0.00000428,0.00005723,0.00008024,-0.00006582,0.00129
 796,-0.00048617,-0.00034222,-0.00031793,0.00091915,-0.00016894,-0.1342
 2473,0.13830275,-0.00069892,-0.00036351,-0.00122329,0.00100113,0.00022
 495,0.00173571,-0.00130030,-0.00025235,-0.00374549,0.00032351,-0.00025
 531,-0.00003312,-0.00003364,0.00008358,-0.00006061,-0.00001736,-0.0000
 0322,-0.00006123,0.00025932,0.00012620,-0.00033770,0.00216491,0.001403
 98,0.00737227,-0.00029335,0.00003413,-0.00102803,0.00163803,0.00082013
 ,0.00735786,-0.00104400,0.00123879,0.00620204,0.05216891,-0.02719852,-
 0.05076231,0.00515590,-0.00430224,0.00107318,0.00004246,0.00042000,0.0
 0025745,-0.00000113,0.00000337,0.00000474,0.00001432,0.00001098,0.0000
 1457,-0.00001185,-0.00001421,0.00001539,-0.00023249,-0.00007156,-0.000
 90838,-0.00025696,0.00003790,-0.00066881,-0.00110899,-0.00027499,-0.00
 391214,-0.05774680,0.02864367,0.03832962,-0.04920241,0.03509139,0.0274
 3909,0.00032298,0.01422305,0.01725393,-0.00794516,0.00049803,0.0030969
 1,0.00066510,0.00122253,-0.00348317,-0.00011502,-0.00022477,0.00006668
 ,-0.00001446,-0.00006538,0.00017528,-0.00089633,0.00052799,0.00106026,
 -0.00038160,-0.00009593,-0.00007247,-0.00021028,-0.00025631,-0.0000990
 9,0.00008986,-0.00002632,0.00002516,0.00013434,-0.00005995,-0.00026851
 ,0.00041612,0.00016879,0.00017562,0.00054189,-0.00103842,0.00170910,0.
 00629749,-0.01452985,-0.01818749,-0.00003033,0.00000622,0.00002974,-0.
 00002705,-0.00001783,-0.00001523,0.00002179,0.00002975,-0.00000673,-0.
 00001628,-0.00001705,-0.00001694,0.00001509,0.00001591,0.00002015,-0.0
 0000007,-0.00003227,-0.00002287,0.00025869,-0.00008484,-0.00002269,0.0
 5007566,0.03553016,-0.17149248,-0.23208430,0.00263015,0.00236611,0.003
 36049,-0.00059585,-0.00174494,-0.00002969,0.00123889,0.00091048,-0.000
 82122,-0.00066845,-0.00062249,0.00020251,0.00030374,0.00004705,-0.0000
 7353,-0.00043886,-0.00005829,0.00021781,0.00019195,-0.00005292,-0.0000
 0414,-0.00000681,-0.00001810,-0.00003193,0.00018074,0.00001113,-0.0000
 7689,-0.00035592,0.00024132,0.00001597,0.00018015,-0.00032936,0.000197
 20,0.00049001,0.00042697,0.00014608,-0.00306499,0.01142817,0.02091658,
 -0.00004227,-0.00000322,0.00002237,-0.00003828,0.00000729,-0.00001050,
 -0.00002722,0.00002137,0.00002537,-0.00000031,-0.00000630,-0.00000963,
 -0.00001110,0.00000195,0.00002038,-0.00000316,-0.00000498,-0.00000544,
 -0.00015783,-0.00048308,-0.00031175,-0.03533473,0.15935434,0.01391195,
 -0.18778591,-0.34330991,0.01108979,-0.00118739,-0.00249823,-0.00162085
 ,-0.00142828,0.00083797,0.00306181,0.00038023,-0.00041304,-0.00113190,
 -0.00031063,0.00018116,0.00055420,0.00000015,-0.00010700,-0.00119419,0
 .00089427,0.00014008,0.00041287,-0.00070225,-0.00008257,0.00033612,0.0
 0051403,-0.00008160,-0.00014780,0.00004609,0.00002580,-0.00014817,0.00
 030511,0.00001495,-0.00052155,0.00000751,-0.00016226,0.00050784,0.0008
 6662,-0.00051289,0.00397667,-0.01991307,-0.02163964,-0.00004961,-0.000
 00480,0.00002817,-0.00006504,0.00001381,-0.00001484,-0.00006735,0.0000
 3720,0.00004492,0.00000781,0.00002286,0.00002412,0.00000186,-0.0000078
 4,0.00001366,0.00000653,0.00008589,0.00004156,-0.00006426,-0.00016787,
 0.00037826,-0.02885673,0.20833427,0.36709131\\-0.00002524,0.00000488,-
 0.00000044,0.00000933,0.00000037,0.00002594,0.00001848,-0.00002881,-0.
 00004053,0.00000322,0.00002649,-0.00000021,-0.00000890,-0.00001252,-0.
 00001438,0.00001231,-0.00000178,0.00001262,-0.00001495,-0.00002801,0.0
 0001263,0.00002207,0.00002538,-0.00000667,-0.00001314,-0.00002401,0.00
 000600,0.00002595,-0.00001111,-0.00000494,-0.00002397,0.00002311,0.000
 00164,-0.00000167,-0.00001811,-0.00000057,0.00000261,0.00004231,0.0000
 1749,0.00000348,0.00000255,0.00000566,0.00000109,-0.00000333,0.0000001
 1,-0.00000544,-0.00000059,-0.00000299,0.00000135,-0.00000376,-0.000004
 20,0.00000116,0.00000060,-0.00000060,-0.00000713,-0.00000225,0.0000014
 6,-0.00000197,-0.00000257,0.00000009,-0.00000264,0.00000869,-0.0000014
 4,0.00000402,0.00000248,-0.00000666\\\@


 LAWS OF PROGRAMMING DEFINITION:  A WORKING PROGRAM
                                  IS ONE THAT HAS
                                  ONLY UNOBSERVED
                                  BUGS.
 Job cpu time:       0 days  1 hours 29 minutes  4.2 seconds.
 Elapsed time:       0 days  0 hours  3 minutes 46.7 seconds.
 File lengths (MBytes):  RWF=    249 Int=      0 D2E=      0 Chk=     11 Scr=      1
 Normal termination of Gaussian 16 at Mon Dec 30 17:13:47 2019.
real 1050.79
user 24652.77
sys 82.95
Machine:
brown-a526
brown-a526
brown-a526
brown-a526
brown-a526
brown-a526
brown-a526
brown-a526
brown-a526
brown-a526
brown-a526
brown-a526
brown-a526
brown-a526
brown-a526
brown-a526
brown-a526
brown-a526
brown-a526
brown-a526
brown-a526
brown-a526
brown-a526
brown-a526
