 Entering Gaussian System, Link 0=/apps/cent7/gaussian/g16-A.03/g16-haswell/g16/g16
 Initial command:
 /apps/cent7/gaussian/g16-A.03/g16-haswell/g16/l1.exe "/scratch/brown/finej/gaussian/Gau-40898.inp" -scrdir="/scratch/brown/finej/gaussian/"
 Entering Link 1 = /apps/cent7/gaussian/g16-A.03/g16-haswell/g16/l1.exe PID=     40899.
  
 Copyright (c) 1988,1990,1992,1993,1995,1998,2003,2009,2016,
            Gaussian, Inc.  All Rights Reserved.
  
 This is part of the Gaussian(R) 16 program.  It is based on
 the Gaussian(R) 09 system (copyright 2009, Gaussian, Inc.),
 the Gaussian(R) 03 system (copyright 2003, Gaussian, Inc.),
 the Gaussian(R) 98 system (copyright 1998, Gaussian, Inc.),
 the Gaussian(R) 94 system (copyright 1995, Gaussian, Inc.),
 the Gaussian 92(TM) system (copyright 1992, Gaussian, Inc.),
 the Gaussian 90(TM) system (copyright 1990, Gaussian, Inc.),
 the Gaussian 88(TM) system (copyright 1988, Gaussian, Inc.),
 the Gaussian 86(TM) system (copyright 1986, Carnegie Mellon
 University), and the Gaussian 82(TM) system (copyright 1983,
 Carnegie Mellon University). Gaussian is a federally registered
 trademark of Gaussian, Inc.
  
 This software contains proprietary and confidential information,
 including trade secrets, belonging to Gaussian, Inc.
  
 This software is provided under written license and may be
 used, copied, transmitted, or stored only in accord with that
 written license.
  
 The following legend is applicable only to US Government
 contracts under FAR:
  
                    RESTRICTED RIGHTS LEGEND
  
 Use, reproduction and disclosure by the US Government is
 subject to restrictions as set forth in subparagraphs (a)
 and (c) of the Commercial Computer Software - Restricted
 Rights clause in FAR 52.227-19.
  
 Gaussian, Inc.
 340 Quinnipiac St., Bldg. 40, Wallingford CT 06492
  
  
 ---------------------------------------------------------------
 Warning -- This program may not be used in any manner that
 competes with the business of Gaussian, Inc. or will provide
 assistance to any competitor of Gaussian, Inc.  The licensee
 of this program is prohibited from giving any competitor of
 Gaussian, Inc. access to this program.  By using this program,
 the user acknowledges that Gaussian, Inc. is engaged in the
 business of creating and licensing software in the field of
 computational chemistry and represents and warrants to the
 licensee that it is not a competitor of Gaussian, Inc. and that
 it will not use this program in any manner prohibited above.
 ---------------------------------------------------------------
  

 Cite this work as:
 Gaussian 16, Revision A.03,
 M. J. Frisch, G. W. Trucks, H. B. Schlegel, G. E. Scuseria, 
 M. A. Robb, J. R. Cheeseman, G. Scalmani, V. Barone, 
 G. A. Petersson, H. Nakatsuji, X. Li, M. Caricato, A. V. Marenich, 
 J. Bloino, B. G. Janesko, R. Gomperts, B. Mennucci, H. P. Hratchian, 
 J. V. Ortiz, A. F. Izmaylov, J. L. Sonnenberg, D. Williams-Young, 
 F. Ding, F. Lipparini, F. Egidi, J. Goings, B. Peng, A. Petrone, 
 T. Henderson, D. Ranasinghe, V. G. Zakrzewski, J. Gao, N. Rega, 
 G. Zheng, W. Liang, M. Hada, M. Ehara, K. Toyota, R. Fukuda, 
 J. Hasegawa, M. Ishida, T. Nakajima, Y. Honda, O. Kitao, H. Nakai, 
 T. Vreven, K. Throssell, J. A. Montgomery, Jr., J. E. Peralta, 
 F. Ogliaro, M. J. Bearpark, J. J. Heyd, E. N. Brothers, K. N. Kudin, 
 V. N. Staroverov, T. A. Keith, R. Kobayashi, J. Normand, 
 K. Raghavachari, A. P. Rendell, J. C. Burant, S. S. Iyengar, 
 J. Tomasi, M. Cossi, J. M. Millam, M. Klene, C. Adamo, R. Cammi, 
 J. W. Ochterski, R. L. Martin, K. Morokuma, O. Farkas, 
 J. B. Foresman, and D. J. Fox, Gaussian, Inc., Wallingford CT, 2016.
 
 ******************************************
 Gaussian 16:  ES64L-G16RevA.03 25-Dec-2016
                13-Oct-2019 
 ******************************************
 %chk=3.chk
 %nprocshared=24
 Will use up to   24 processors via shared memory.
 %mem=80GB
 -------------------------------------------------------------------
 #P opt freq m062x/6-311++g(d,p) geom=connectivity temperature=0.001
 -------------------------------------------------------------------
 1/18=20,19=15,26=3,38=1,57=2,112=-1000/1,3;
 2/9=110,12=2,17=6,18=5,40=1/2;
 3/5=4,6=6,7=1111,11=2,25=1,30=1,71=1,74=-55/1,2,3;
 4//1;
 5/5=2,38=5/2;
 6/7=2,8=2,9=2,10=2,28=1/1;
 7//1,2,3,16;
 1/18=20,19=15,26=3/3(2);
 2/9=110/2;
 99//99;
 2/9=110/2;
 3/5=4,6=6,7=1111,11=2,25=1,30=1,71=1,74=-55/1,2,3;
 4/5=5,16=3,69=1/1;
 5/5=2,38=5/2;
 7//1,2,3,16;
 1/18=20,19=15,26=3/3(-5);
 2/9=110/2;
 6/7=2,8=2,9=2,10=2,19=2,28=1/1;
 99/9=1/99;
 Leave Link    1 at Sun Oct 13 23:23:20 2019, MaxMem= 10737418240 cpu:               1.6 elap:               0.1
 (Enter /apps/cent7/gaussian/g16-A.03/g16-haswell/g16/l101.exe)
 -------------------
 Title Card Required
 -------------------
 Symbolic Z-matrix:
 Charge =  0 Multiplicity = 1
 O                    -1.9826    1.1511    0. 
 N                    -0.6762    1.1626    0. 
 C                    -0.0035   -0.0224    0. 
 C                     1.4039   -0.0355    0. 
 C                     2.0976    1.1877    0. 
 C                     1.382     2.3982    0. 
 C                    -0.0247    2.36      0. 
 H                    -0.5825   -0.9459    0. 
 H                     1.949    -0.9794    0. 
 H                     3.1876    1.1974    0. 
 H                     1.9099    3.3518    0. 
 H                    -0.6197    3.2733    0. 
 
 ITRead=  0  0  0  0  0  0  0  0  0  0  0  0
 MicOpt= -1 -1 -1 -1 -1 -1 -1 -1 -1 -1 -1 -1
 NAtoms=     12 NQM=       12 NQMF=       0 NMMI=      0 NMMIF=      0
                NMic=       0 NMicF=      0.
                    Isotopes and Nuclear Properties:
 (Nuclear quadrupole moments (NQMom) in fm**2, nuclear magnetic moments (NMagM)
  in nuclear magnetons)

  Atom         1           2           3           4           5           6           7           8           9          10
 IAtWgt=          16          14          12          12          12          12          12           1           1           1
 AtmWgt=  15.9949146  14.0030740  12.0000000  12.0000000  12.0000000  12.0000000  12.0000000   1.0078250   1.0078250   1.0078250
 NucSpn=           0           2           0           0           0           0           0           1           1           1
 AtZEff=  -0.0000000  -0.0000000  -0.0000000  -0.0000000  -0.0000000  -0.0000000  -0.0000000  -0.0000000  -0.0000000  -0.0000000
 NQMom=    0.0000000   2.0440000   0.0000000   0.0000000   0.0000000   0.0000000   0.0000000   0.0000000   0.0000000   0.0000000
 NMagM=    0.0000000   0.4037610   0.0000000   0.0000000   0.0000000   0.0000000   0.0000000   2.7928460   2.7928460   2.7928460
 AtZNuc=   8.0000000   7.0000000   6.0000000   6.0000000   6.0000000   6.0000000   6.0000000   1.0000000   1.0000000   1.0000000

  Atom        11          12
 IAtWgt=           1           1
 AtmWgt=   1.0078250   1.0078250
 NucSpn=           1           1
 AtZEff=  -0.0000000  -0.0000000
 NQMom=    0.0000000   0.0000000
 NMagM=    2.7928460   2.7928460
 AtZNuc=   1.0000000   1.0000000
 Leave Link  101 at Sun Oct 13 23:23:20 2019, MaxMem= 10737418240 cpu:               8.2 elap:               0.4
 (Enter /apps/cent7/gaussian/g16-A.03/g16-haswell/g16/l103.exe)

 GradGradGradGradGradGradGradGradGradGradGradGradGradGradGradGradGradGrad
 Berny optimization.
 Initialization pass.
                           ----------------------------
                           !    Initial Parameters    !
                           ! (Angstroms and Degrees)  !
 --------------------------                            --------------------------
 ! Name  Definition              Value          Derivative Info.                !
 --------------------------------------------------------------------------------
 ! R1    R(1,2)                  1.3065         estimate D2E/DX2                !
 ! R2    R(2,3)                  1.3626         estimate D2E/DX2                !
 ! R3    R(2,7)                  1.3632         estimate D2E/DX2                !
 ! R4    R(3,4)                  1.4075         estimate D2E/DX2                !
 ! R5    R(3,8)                  1.09           estimate D2E/DX2                !
 ! R6    R(4,5)                  1.4062         estimate D2E/DX2                !
 ! R7    R(4,9)                  1.09           estimate D2E/DX2                !
 ! R8    R(5,6)                  1.4062         estimate D2E/DX2                !
 ! R9    R(5,10)                 1.09           estimate D2E/DX2                !
 ! R10   R(6,7)                  1.4072         estimate D2E/DX2                !
 ! R11   R(6,11)                 1.09           estimate D2E/DX2                !
 ! R12   R(7,12)                 1.09           estimate D2E/DX2                !
 ! A1    A(1,2,3)              119.0783         estimate D2E/DX2                !
 ! A2    A(1,2,7)              119.0548         estimate D2E/DX2                !
 ! A3    A(3,2,7)              121.8669         estimate D2E/DX2                !
 ! A4    A(2,3,4)              120.116          estimate D2E/DX2                !
 ! A5    A(2,3,8)              118.3311         estimate D2E/DX2                !
 ! A6    A(4,3,8)              121.5529         estimate D2E/DX2                !
 ! A7    A(3,4,5)              119.0251         estimate D2E/DX2                !
 ! A8    A(3,4,9)              120.5396         estimate D2E/DX2                !
 ! A9    A(5,4,9)              120.4353         estimate D2E/DX2                !
 ! A10   A(4,5,6)              119.8517         estimate D2E/DX2                !
 ! A11   A(4,5,10)             120.0683         estimate D2E/DX2                !
 ! A12   A(6,5,10)             120.08           estimate D2E/DX2                !
 ! A13   A(5,6,7)              119.0344         estimate D2E/DX2                !
 ! A14   A(5,6,11)             120.4418         estimate D2E/DX2                !
 ! A15   A(7,6,11)             120.5238         estimate D2E/DX2                !
 ! A16   A(2,7,6)              120.1059         estimate D2E/DX2                !
 ! A17   A(2,7,12)             118.366          estimate D2E/DX2                !
 ! A18   A(6,7,12)             121.5281         estimate D2E/DX2                !
 ! D1    D(1,2,3,4)            180.0            estimate D2E/DX2                !
 ! D2    D(1,2,3,8)              0.0            estimate D2E/DX2                !
 ! D3    D(7,2,3,4)              0.0            estimate D2E/DX2                !
 ! D4    D(7,2,3,8)            180.0            estimate D2E/DX2                !
 ! D5    D(1,2,7,6)            180.0            estimate D2E/DX2                !
 ! D6    D(1,2,7,12)             0.0            estimate D2E/DX2                !
 ! D7    D(3,2,7,6)              0.0            estimate D2E/DX2                !
 ! D8    D(3,2,7,12)           180.0            estimate D2E/DX2                !
 ! D9    D(2,3,4,5)              0.0            estimate D2E/DX2                !
 ! D10   D(2,3,4,9)            180.0            estimate D2E/DX2                !
 ! D11   D(8,3,4,5)            180.0            estimate D2E/DX2                !
 ! D12   D(8,3,4,9)              0.0            estimate D2E/DX2                !
 ! D13   D(3,4,5,6)              0.0            estimate D2E/DX2                !
 ! D14   D(3,4,5,10)           180.0            estimate D2E/DX2                !
 ! D15   D(9,4,5,6)            180.0            estimate D2E/DX2                !
 ! D16   D(9,4,5,10)             0.0            estimate D2E/DX2                !
 ! D17   D(4,5,6,7)              0.0            estimate D2E/DX2                !
 ! D18   D(4,5,6,11)           180.0            estimate D2E/DX2                !
 ! D19   D(10,5,6,7)           180.0            estimate D2E/DX2                !
 ! D20   D(10,5,6,11)            0.0            estimate D2E/DX2                !
 ! D21   D(5,6,7,2)              0.0            estimate D2E/DX2                !
 ! D22   D(5,6,7,12)           180.0            estimate D2E/DX2                !
 ! D23   D(11,6,7,2)           180.0            estimate D2E/DX2                !
 ! D24   D(11,6,7,12)            0.0            estimate D2E/DX2                !
 --------------------------------------------------------------------------------
 Trust Radius=3.00D-01 FncErr=1.00D-07 GrdErr=1.00D-06 EigMax=2.50D+02 EigMin=1.00D-04
 Number of steps in this run=     64 maximum allowed number of steps=    100.
 GradGradGradGradGradGradGradGradGradGradGradGradGradGradGradGradGradGrad

 Leave Link  103 at Sun Oct 13 23:23:20 2019, MaxMem= 10737418240 cpu:               0.6 elap:               0.0
 (Enter /apps/cent7/gaussian/g16-A.03/g16-haswell/g16/l202.exe)
                          Input orientation:                          
 ---------------------------------------------------------------------
 Center     Atomic      Atomic             Coordinates (Angstroms)
 Number     Number       Type             X           Y           Z
 ---------------------------------------------------------------------
      1          8           0       -1.982600    1.151100    0.000000
      2          7           0       -0.676200    1.162600    0.000000
      3          6           0       -0.003500   -0.022400    0.000000
      4          6           0        1.403900   -0.035500    0.000000
      5          6           0        2.097600    1.187700    0.000000
      6          6           0        1.382000    2.398200    0.000000
      7          6           0       -0.024700    2.360000    0.000000
      8          1           0       -0.582500   -0.945900    0.000000
      9          1           0        1.949000   -0.979400    0.000000
     10          1           0        3.187600    1.197400    0.000000
     11          1           0        1.909900    3.351800    0.000000
     12          1           0       -0.619700    3.273300    0.000000
 ---------------------------------------------------------------------
                    Distance matrix (angstroms):
                    1          2          3          4          5
     1  O    0.000000
     2  N    1.306451   0.000000
     3  C    2.300856   1.362626   0.000000
     4  C    3.588370   2.400471   1.407461   0.000000
     5  C    4.080364   2.773914   2.424657   1.406214   0.000000
     6  C    3.588285   2.400603   2.789071   2.433799   1.406198
     7  C    2.301046   1.363165   2.382494   2.789143   2.424550
     8  H    2.521446   2.110581   1.089997   2.185089   3.425666
     9  H    4.471746   3.388191   2.174421   1.089991   2.172189
    10  H    5.170407   3.863957   3.416289   2.168324   1.090043
    11  H    4.471536   3.388290   3.878959   3.424885   2.172225
    12  H    2.522148   2.111456   3.352811   3.878545   3.425412
                    6          7          8          9         10
     6  C    0.000000
     7  C    1.407219   0.000000
     8  H    3.878436   3.352628   0.000000
     9  H    3.424861   3.879057   2.531722   0.000000
    10  H    2.168435   3.416213   4.336749   2.504514   0.000000
    11  H    1.089969   2.174016   4.968127   4.331376   2.504787
    12  H    2.184629   1.090019   4.219364   4.968267   4.336461
                   11         12
    11  H    0.000000
    12  H    2.530818   0.000000
 Stoichiometry    C5H5NO
 Framework group  CS[SG(C5H5NO)]
 Deg. of freedom    21
 Full point group                 CS      NOp   2
 Largest Abelian subgroup         CS      NOp   2
 Largest concise Abelian subgroup C1      NOp   1
                         Standard orientation:                         
 ---------------------------------------------------------------------
 Center     Atomic      Atomic             Coordinates (Angstroms)
 Number     Number       Type             X           Y           Z
 ---------------------------------------------------------------------
      1          8           0       -0.000487    2.270329    0.000000
      2          7           0       -0.000000    0.963879    0.000000
      3          6           0        1.191122    0.302080    0.000000
      4          6           0        1.217135   -1.105141    0.000000
      5          6           0        0.000352   -1.810035   -0.000000
      6          6           0       -1.216663   -1.105572   -0.000000
      7          6           0       -1.191372    0.301419   -0.000000
      8          1           0        2.109271    0.889529    0.000000
      9          1           0        2.165997   -1.641557    0.000000
     10          1           0        0.000653   -2.900078   -0.000000
     11          1           0       -2.165379   -1.642199   -0.000000
     12          1           0       -2.110093    0.888014   -0.000000
 ---------------------------------------------------------------------
 Rotational constants (GHZ):           5.7414485           2.7832433           1.8745367
 Leave Link  202 at Sun Oct 13 23:23:20 2019, MaxMem= 10737418240 cpu:               0.3 elap:               0.0
 (Enter /apps/cent7/gaussian/g16-A.03/g16-haswell/g16/l301.exe)
 Standard basis: 6-311++G(d,p) (5D, 7F)
 Ernie: Thresh=  0.10000D-02 Tol=  0.10000D-05 Strict=F.
 There are   149 symmetry adapted cartesian basis functions of A'  symmetry.
 There are    47 symmetry adapted cartesian basis functions of A"  symmetry.
 There are   142 symmetry adapted basis functions of A'  symmetry.
 There are    47 symmetry adapted basis functions of A"  symmetry.
   189 basis functions,   297 primitive gaussians,   196 cartesian basis functions
    25 alpha electrons       25 beta electrons
       nuclear repulsion energy       274.9016617050 Hartrees.
 IExCor= 4336 DFT=T Ex+Corr=M062X ExCW=0 ScaHFX=  0.540000
 ScaDFX=  1.000000  1.000000  1.000000  1.000000 ScalE2=  1.000000  1.000000
 IRadAn=      5 IRanWt=     -1 IRanGd=            0 ICorTp=0 IEmpDi=  4
 NAtoms=   12 NActive=   12 NUniq=   12 SFac= 1.00D+00 NAtFMM=   60 NAOKFM=F Big=F
 Integral buffers will be    131072 words long.
 Raffenetti 2 integral format.
 Two-electron integral symmetry is turned on.
 Leave Link  301 at Sun Oct 13 23:23:20 2019, MaxMem= 10737418240 cpu:               1.3 elap:               0.1
 (Enter /apps/cent7/gaussian/g16-A.03/g16-haswell/g16/l302.exe)
 NPDir=0 NMtPBC=     1 NCelOv=     1 NCel=       1 NClECP=     1 NCelD=      1
         NCelK=      1 NCelE2=     1 NClLst=     1 CellRange=     0.0.
 One-electron integrals computed using PRISM.
 One-electron integral symmetry used in STVInt
 NBasis=   189 RedAO= T EigKep=  7.17D-06  NBF=   142    47
 NBsUse=   189 1.00D-06 EigRej= -1.00D+00 NBFU=   142    47
 Precomputing XC quadrature grid using
 IXCGrd= 4 IRadAn=           5 IRanWt=          -1 IRanGd=           0 AccXCQ= 0.00D+00.
 Generated NRdTot=       0 NPtTot=           0 NUsed=           0 NTot=          32
 NSgBfM=   196   196   196   196   196 MxSgAt=    12 MxSgA2=    12.
 Leave Link  302 at Sun Oct 13 23:23:20 2019, MaxMem= 10737418240 cpu:               3.6 elap:               0.2
 (Enter /apps/cent7/gaussian/g16-A.03/g16-haswell/g16/l303.exe)
 DipDrv:  MaxL=1.
 Leave Link  303 at Sun Oct 13 23:23:20 2019, MaxMem= 10737418240 cpu:               3.1 elap:               0.2
 (Enter /apps/cent7/gaussian/g16-A.03/g16-haswell/g16/l401.exe)
 ExpMin= 3.60D-02 ExpMax= 8.59D+03 ExpMxC= 1.30D+03 IAcc=3 IRadAn=         5 AccDes= 0.00D+00
 Harris functional with IExCor= 1009 and IRadAn=       5 diagonalized for initial guess.
 HarFok:  IExCor= 1009 AccDes= 0.00D+00 IRadAn=         5 IDoV= 1 UseB2=F ITyADJ=14
 ICtDFT=  3500011 ScaDFX=  1.000000  1.000000  1.000000  1.000000
 FoFCou: FMM=F IPFlag=           0 FMFlag=      100000 FMFlg1=           0
         NFxFlg=           0 DoJE=T BraDBF=F KetDBF=T FulRan=T
         wScrn=  0.000000 ICntrl=       500 IOpCl=  0 I1Cent=   200000004 NGrid=           0
         NMat0=    1 NMatS0=      1 NMatT0=    0 NMatD0=    1 NMtDS0=    0 NMtDT0=    0
 Petite list used in FoFCou.
 Harris En= -323.248358003088    
 JPrj=0 DoOrth=F DoCkMO=F.
 Initial guess orbital symmetries:
       Occupied  (A') (A') (A') (A') (A') (A') (A') (A') (A') (A')
                 (A') (A') (A') (A') (A') (A') (A') (A') (A") (A')
                 (A') (A") (A") (A') (A")
       Virtual   (A") (A") (A') (A") (A') (A') (A') (A') (A') (A")
                 (A') (A') (A") (A') (A") (A') (A') (A') (A') (A')
                 (A') (A") (A') (A') (A") (A') (A') (A') (A') (A')
                 (A') (A') (A') (A") (A') (A') (A") (A') (A') (A')
                 (A') (A') (A') (A') (A') (A') (A') (A') (A') (A')
                 (A") (A') (A') (A") (A") (A") (A') (A") (A') (A')
                 (A') (A') (A') (A') (A') (A') (A') (A") (A') (A')
                 (A') (A') (A") (A") (A') (A") (A') (A") (A") (A')
                 (A') (A") (A') (A') (A") (A') (A') (A') (A') (A')
                 (A") (A") (A') (A') (A') (A') (A") (A") (A") (A')
                 (A') (A') (A') (A") (A') (A') (A') (A") (A') (A")
                 (A") (A') (A") (A') (A') (A') (A') (A') (A") (A')
                 (A') (A") (A') (A") (A') (A') (A') (A') (A') (A")
                 (A") (A') (A') (A') (A') (A") (A") (A') (A") (A')
                 (A') (A') (A') (A') (A') (A') (A') (A") (A') (A')
                 (A') (A') (A') (A") (A') (A') (A') (A') (A') (A')
                 (A') (A') (A') (A')
 The electronic state of the initial guess is 1-A'.
 Leave Link  401 at Sun Oct 13 23:23:21 2019, MaxMem= 10737418240 cpu:               5.6 elap:               0.3
 (Enter /apps/cent7/gaussian/g16-A.03/g16-haswell/g16/l502.exe)
 Keep R1 ints in memory in symmetry-blocked form, NReq=247150665.
 FoFCou: FMM=F IPFlag=           0 FMFlag=           0 FMFlg1=           0
         NFxFlg=           0 DoJE=F BraDBF=F KetDBF=F FulRan=T
         wScrn=  0.000000 ICntrl=       600 IOpCl=  0 I1Cent=           0 NGrid=           0
         NMat0=    1 NMatS0=  17955 NMatT0=    0 NMatD0=    1 NMtDS0=    0 NMtDT0=    0
 Petite list used in FoFCou.
 Closed shell SCF:
 Using DIIS extrapolation, IDIIS=  1040.
 NGot= 10737418240 LenX= 10651385333 LenY= 10651346476
 Requested convergence on RMS density matrix=1.00D-08 within 128 cycles.
 Requested convergence on MAX density matrix=1.00D-06.
 Requested convergence on             energy=1.00D-06.
 No special actions if energy rises.

 Cycle   1  Pass 1  IDiag  1:
 E= -323.209138489981    
 DIIS: error= 5.97D-02 at cycle   1 NSaved=   1.
 NSaved= 1 IEnMin= 1 EnMin= -323.209138489981     IErMin= 1 ErrMin= 5.97D-02
 ErrMax= 5.97D-02  0.00D+00 EMaxC= 1.00D-01 BMatC= 2.55D-01 BMatP= 2.55D-01
 IDIUse=3 WtCom= 4.03D-01 WtEn= 5.97D-01
 Coeff-Com:  0.100D+01
 Coeff-En:   0.100D+01
 Coeff:      0.100D+01
 Gap=     0.231 Goal=   None    Shift=    0.000
 GapD=    0.231 DampG=1.000 DampE=0.500 DampFc=0.5000 IDamp=-1.
 Damping current iteration by 5.00D-01
 RMSDP=2.95D-02 MaxDP=1.69D+00              OVMax= 1.69D-01

 Cycle   2  Pass 1  IDiag  1:
 E= -323.287047174519     Delta-E=       -0.077908684538 Rises=F Damp=T
 DIIS: error= 9.26D-03 at cycle   2 NSaved=   2.
 NSaved= 2 IEnMin= 2 EnMin= -323.287047174519     IErMin= 2 ErrMin= 9.26D-03
 ErrMax= 9.26D-03  0.00D+00 EMaxC= 1.00D-01 BMatC= 2.73D-02 BMatP= 2.55D-01
 IDIUse=3 WtCom= 9.07D-01 WtEn= 9.26D-02
 Coeff-Com:  0.423D-01 0.958D+00
 Coeff-En:   0.109D+00 0.891D+00
 Coeff:      0.484D-01 0.952D+00
 Gap=     0.265 Goal=   None    Shift=    0.000
 RMSDP=7.82D-03 MaxDP=4.34D-01 DE=-7.79D-02 OVMax= 1.26D-01

 Cycle   3  Pass 1  IDiag  1:
 E= -323.378817667146     Delta-E=       -0.091770492627 Rises=F Damp=F
 DIIS: error= 1.68D-02 at cycle   3 NSaved=   3.
 NSaved= 3 IEnMin= 3 EnMin= -323.378817667146     IErMin= 2 ErrMin= 9.26D-03
 ErrMax= 1.68D-02  0.00D+00 EMaxC= 1.00D-01 BMatC= 1.37D-02 BMatP= 2.73D-02
 IDIUse=3 WtCom= 8.32D-01 WtEn= 1.68D-01
 Coeff-Com: -0.775D-01 0.420D+00 0.658D+00
 Coeff-En:   0.000D+00 0.000D+00 0.100D+01
 Coeff:     -0.645D-01 0.349D+00 0.715D+00
 Gap=     0.246 Goal=   None    Shift=    0.000
 RMSDP=2.47D-03 MaxDP=1.15D-01 DE=-9.18D-02 OVMax= 3.38D-02

 Cycle   4  Pass 1  IDiag  1:
 E= -323.386967661914     Delta-E=       -0.008149994768 Rises=F Damp=F
 DIIS: error= 6.56D-03 at cycle   4 NSaved=   4.
 NSaved= 4 IEnMin= 4 EnMin= -323.386967661914     IErMin= 4 ErrMin= 6.56D-03
 ErrMax= 6.56D-03  0.00D+00 EMaxC= 1.00D-01 BMatC= 3.32D-03 BMatP= 1.37D-02
 IDIUse=3 WtCom= 9.34D-01 WtEn= 6.56D-02
 Coeff-Com: -0.205D-01 0.791D-01 0.372D+00 0.570D+00
 Coeff-En:   0.000D+00 0.000D+00 0.211D+00 0.789D+00
 Coeff:     -0.192D-01 0.740D-01 0.361D+00 0.584D+00
 Gap=     0.253 Goal=   None    Shift=    0.000
 RMSDP=1.54D-03 MaxDP=8.20D-02 DE=-8.15D-03 OVMax= 2.19D-02

 Cycle   5  Pass 1  IDiag  1:
 E= -323.389592274476     Delta-E=       -0.002624612562 Rises=F Damp=F
 DIIS: error= 1.80D-03 at cycle   5 NSaved=   5.
 NSaved= 5 IEnMin= 5 EnMin= -323.389592274476     IErMin= 5 ErrMin= 1.80D-03
 ErrMax= 1.80D-03  0.00D+00 EMaxC= 1.00D-01 BMatC= 2.06D-04 BMatP= 3.32D-03
 IDIUse=3 WtCom= 9.82D-01 WtEn= 1.80D-02
 Coeff-Com: -0.732D-02 0.204D-01 0.170D+00 0.337D+00 0.480D+00
 Coeff-En:   0.000D+00 0.000D+00 0.000D+00 0.000D+00 0.100D+01
 Coeff:     -0.719D-02 0.201D-01 0.167D+00 0.331D+00 0.489D+00
 Gap=     0.251 Goal=   None    Shift=    0.000
 RMSDP=2.44D-04 MaxDP=1.11D-02 DE=-2.62D-03 OVMax= 7.58D-03

 Cycle   6  Pass 1  IDiag  1:
 E= -323.389759891107     Delta-E=       -0.000167616631 Rises=F Damp=F
 DIIS: error= 4.16D-04 at cycle   6 NSaved=   6.
 NSaved= 6 IEnMin= 6 EnMin= -323.389759891107     IErMin= 6 ErrMin= 4.16D-04
 ErrMax= 4.16D-04  0.00D+00 EMaxC= 1.00D-01 BMatC= 9.31D-06 BMatP= 2.06D-04
 IDIUse=3 WtCom= 9.96D-01 WtEn= 4.16D-03
 Coeff-Com: -0.475D-03-0.136D-02 0.234D-01 0.719D-01 0.212D+00 0.695D+00
 Coeff-En:   0.000D+00 0.000D+00 0.000D+00 0.000D+00 0.000D+00 0.100D+01
 Coeff:     -0.473D-03-0.136D-02 0.233D-01 0.716D-01 0.211D+00 0.696D+00
 Gap=     0.251 Goal=   None    Shift=    0.000
 RMSDP=8.25D-05 MaxDP=4.13D-03 DE=-1.68D-04 OVMax= 1.76D-03

 Cycle   7  Pass 1  IDiag  1:
 E= -323.389769268293     Delta-E=       -0.000009377186 Rises=F Damp=F
 DIIS: error= 8.33D-05 at cycle   7 NSaved=   7.
 NSaved= 7 IEnMin= 7 EnMin= -323.389769268293     IErMin= 7 ErrMin= 8.33D-05
 ErrMax= 8.33D-05  0.00D+00 EMaxC= 1.00D-01 BMatC= 3.76D-07 BMatP= 9.31D-06
 IDIUse=1 WtCom= 1.00D+00 WtEn= 0.00D+00
 Coeff-Com:  0.425D-03-0.141D-02-0.776D-02-0.990D-02-0.170D-01 0.104D+00
 Coeff-Com:  0.932D+00
 Coeff:      0.425D-03-0.141D-02-0.776D-02-0.990D-02-0.170D-01 0.104D+00
 Coeff:      0.932D+00
 Gap=     0.251 Goal=   None    Shift=    0.000
 RMSDP=8.83D-06 MaxDP=4.55D-04 DE=-9.38D-06 OVMax= 2.56D-04

 Cycle   8  Pass 1  IDiag  1:
 E= -323.389769652922     Delta-E=       -0.000000384629 Rises=F Damp=F
 DIIS: error= 3.62D-05 at cycle   8 NSaved=   8.
 NSaved= 8 IEnMin= 8 EnMin= -323.389769652922     IErMin= 8 ErrMin= 3.62D-05
 ErrMax= 3.62D-05  0.00D+00 EMaxC= 1.00D-01 BMatC= 1.17D-07 BMatP= 3.76D-07
 IDIUse=1 WtCom= 1.00D+00 WtEn= 0.00D+00
 Coeff-Com:  0.260D-03-0.612D-03-0.654D-02-0.122D-01-0.327D-01-0.159D-01
 Coeff-Com:  0.486D+00 0.581D+00
 Coeff:      0.260D-03-0.612D-03-0.654D-02-0.122D-01-0.327D-01-0.159D-01
 Coeff:      0.486D+00 0.581D+00
 Gap=     0.251 Goal=   None    Shift=    0.000
 RMSDP=5.67D-06 MaxDP=3.47D-04 DE=-3.85D-07 OVMax= 1.16D-04

 Cycle   9  Pass 1  IDiag  1:
 E= -323.389769771679     Delta-E=       -0.000000118756 Rises=F Damp=F
 DIIS: error= 8.31D-06 at cycle   9 NSaved=   9.
 NSaved= 9 IEnMin= 9 EnMin= -323.389769771679     IErMin= 9 ErrMin= 8.31D-06
 ErrMax= 8.31D-06  0.00D+00 EMaxC= 1.00D-01 BMatC= 4.48D-09 BMatP= 1.17D-07
 IDIUse=1 WtCom= 1.00D+00 WtEn= 0.00D+00
 Coeff-Com: -0.182D-04 0.855D-04-0.158D-03-0.494D-03-0.413D-02-0.772D-02
 Coeff-Com: -0.397D-01 0.449D-01 0.101D+01
 Coeff:     -0.182D-04 0.855D-04-0.158D-03-0.494D-03-0.413D-02-0.772D-02
 Coeff:     -0.397D-01 0.449D-01 0.101D+01
 Gap=     0.251 Goal=   None    Shift=    0.000
 RMSDP=8.75D-07 MaxDP=1.85D-05 DE=-1.19D-07 OVMax= 5.17D-05

 Cycle  10  Pass 1  IDiag  1:
 E= -323.389769778793     Delta-E=       -0.000000007114 Rises=F Damp=F
 DIIS: error= 2.75D-06 at cycle  10 NSaved=  10.
 NSaved=10 IEnMin=10 EnMin= -323.389769778793     IErMin=10 ErrMin= 2.75D-06
 ErrMax= 2.75D-06  0.00D+00 EMaxC= 1.00D-01 BMatC= 6.24D-10 BMatP= 4.48D-09
 IDIUse=1 WtCom= 1.00D+00 WtEn= 0.00D+00
 Coeff-Com: -0.183D-04 0.442D-04 0.406D-03 0.875D-03 0.123D-02 0.219D-02
 Coeff-Com: -0.418D-01-0.498D-01 0.473D-01 0.104D+01
 Coeff:     -0.183D-04 0.442D-04 0.406D-03 0.875D-03 0.123D-02 0.219D-02
 Coeff:     -0.418D-01-0.498D-01 0.473D-01 0.104D+01
 Gap=     0.251 Goal=   None    Shift=    0.000
 RMSDP=1.66D-06 MaxDP=8.84D-05 DE=-7.11D-09 OVMax= 1.43D-05

 Cycle  11  Pass 1  IDiag  1:
 E= -323.389769779718     Delta-E=       -0.000000000925 Rises=F Damp=F
 DIIS: error= 3.85D-07 at cycle  11 NSaved=  11.
 NSaved=11 IEnMin=11 EnMin= -323.389769779718     IErMin=11 ErrMin= 3.85D-07
 ErrMax= 3.85D-07  0.00D+00 EMaxC= 1.00D-01 BMatC= 1.67D-11 BMatP= 6.24D-10
 IDIUse=1 WtCom= 1.00D+00 WtEn= 0.00D+00
 Coeff-Com:  0.419D-05-0.119D-04-0.407D-04-0.409D-04 0.123D-04 0.440D-03
 Coeff-Com:  0.753D-02 0.160D-02-0.608D-01-0.132D+00 0.118D+01
 Coeff:      0.419D-05-0.119D-04-0.407D-04-0.409D-04 0.123D-04 0.440D-03
 Coeff:      0.753D-02 0.160D-02-0.608D-01-0.132D+00 0.118D+01
 Gap=     0.251 Goal=   None    Shift=    0.000
 RMSDP=4.53D-07 MaxDP=2.36D-05 DE=-9.25D-10 OVMax= 5.36D-06

 Cycle  12  Pass 1  IDiag  1:
 E= -323.389769779758     Delta-E=       -0.000000000040 Rises=F Damp=F
 DIIS: error= 1.60D-07 at cycle  12 NSaved=  12.
 NSaved=12 IEnMin=12 EnMin= -323.389769779758     IErMin=12 ErrMin= 1.60D-07
 ErrMax= 1.60D-07  0.00D+00 EMaxC= 1.00D-01 BMatC= 2.12D-12 BMatP= 1.67D-11
 IDIUse=1 WtCom= 1.00D+00 WtEn= 0.00D+00
 Coeff-Com:  0.241D-05-0.638D-05-0.336D-04-0.542D-04-0.748D-04 0.503D-04
 Coeff-Com:  0.465D-02 0.257D-02-0.203D-01-0.991D-01 0.436D+00 0.676D+00
 Coeff:      0.241D-05-0.638D-05-0.336D-04-0.542D-04-0.748D-04 0.503D-04
 Coeff:      0.465D-02 0.257D-02-0.203D-01-0.991D-01 0.436D+00 0.676D+00
 Gap=     0.251 Goal=   None    Shift=    0.000
 RMSDP=5.22D-08 MaxDP=2.68D-06 DE=-4.05D-11 OVMax= 8.28D-07

 Cycle  13  Pass 1  IDiag  1:
 E= -323.389769779760     Delta-E=       -0.000000000002 Rises=F Damp=F
 DIIS: error= 5.49D-08 at cycle  13 NSaved=  13.
 NSaved=13 IEnMin=13 EnMin= -323.389769779760     IErMin=13 ErrMin= 5.49D-08
 ErrMax= 5.49D-08  0.00D+00 EMaxC= 1.00D-01 BMatC= 3.95D-13 BMatP= 2.12D-12
 IDIUse=1 WtCom= 1.00D+00 WtEn= 0.00D+00
 Coeff-Com: -0.142D-06 0.445D-06-0.126D-05-0.618D-05-0.330D-04-0.749D-04
 Coeff-Com: -0.127D-03 0.232D-03 0.773D-02-0.960D-02-0.105D+00 0.228D+00
 Coeff-Com:  0.878D+00
 Coeff:     -0.142D-06 0.445D-06-0.126D-05-0.618D-05-0.330D-04-0.749D-04
 Coeff:     -0.127D-03 0.232D-03 0.773D-02-0.960D-02-0.105D+00 0.228D+00
 Coeff:      0.878D+00
 Gap=     0.251 Goal=   None    Shift=    0.000
 RMSDP=3.17D-08 MaxDP=1.65D-06 DE=-1.82D-12 OVMax= 3.24D-07

 Cycle  14  Pass 1  IDiag  1:
 E= -323.389769779761     Delta-E=       -0.000000000000 Rises=F Damp=F
 DIIS: error= 1.02D-08 at cycle  14 NSaved=  14.
 NSaved=14 IEnMin=14 EnMin= -323.389769779761     IErMin=14 ErrMin= 1.02D-08
 ErrMax= 1.02D-08  0.00D+00 EMaxC= 1.00D-01 BMatC= 1.36D-14 BMatP= 3.95D-13
 IDIUse=1 WtCom= 1.00D+00 WtEn= 0.00D+00
 Coeff-Com: -0.979D-07 0.271D-06 0.114D-05 0.182D-05-0.316D-05-0.353D-05
 Coeff-Com: -0.202D-03-0.118D-03 0.140D-02 0.265D-02-0.256D-01 0.161D-02
 Coeff-Com:  0.799D-02 0.101D+01
 Coeff:     -0.979D-07 0.271D-06 0.114D-05 0.182D-05-0.316D-05-0.353D-05
 Coeff:     -0.202D-03-0.118D-03 0.140D-02 0.265D-02-0.256D-01 0.161D-02
 Coeff:      0.799D-02 0.101D+01
 Gap=     0.251 Goal=   None    Shift=    0.000
 RMSDP=5.91D-09 MaxDP=3.10D-07 DE=-2.27D-13 OVMax= 7.29D-08

 SCF Done:  E(RM062X) =  -323.389769780     A.U. after   14 cycles
            NFock= 14  Conv=0.59D-08     -V/T= 2.0048
 KE= 3.218490812292D+02 PE=-1.303413077477D+03 EE= 3.832725647630D+02
 Leave Link  502 at Sun Oct 13 23:23:25 2019, MaxMem= 10737418240 cpu:              78.2 elap:               4.6
 (Enter /apps/cent7/gaussian/g16-A.03/g16-haswell/g16/l601.exe)
 Copying SCF densities to generalized density rwf, IOpCl= 0 IROHF=0.

 **********************************************************************

            Population analysis using the SCF density.

 **********************************************************************

 Orbital symmetries:
       Occupied  (A') (A') (A') (A') (A') (A') (A') (A') (A') (A')
                 (A') (A') (A') (A') (A') (A') (A") (A') (A') (A')
                 (A') (A") (A") (A') (A")
       Virtual   (A") (A") (A') (A') (A') (A') (A') (A") (A') (A")
                 (A") (A') (A') (A') (A") (A') (A') (A') (A") (A')
                 (A') (A') (A') (A') (A") (A') (A') (A') (A') (A')
                 (A") (A') (A') (A') (A') (A") (A') (A') (A') (A')
                 (A') (A') (A') (A') (A') (A') (A') (A') (A') (A')
                 (A") (A") (A') (A') (A") (A") (A") (A') (A') (A')
                 (A') (A') (A') (A') (A') (A') (A') (A') (A') (A")
                 (A') (A') (A") (A') (A') (A") (A") (A") (A') (A')
                 (A") (A') (A") (A') (A") (A') (A') (A') (A') (A')
                 (A") (A") (A') (A') (A') (A') (A") (A") (A") (A')
                 (A') (A') (A") (A') (A') (A') (A') (A") (A') (A")
                 (A") (A') (A") (A') (A') (A') (A') (A') (A") (A')
                 (A') (A') (A') (A") (A') (A') (A') (A') (A') (A")
                 (A") (A") (A') (A') (A") (A") (A') (A') (A") (A')
                 (A') (A') (A') (A') (A') (A') (A') (A") (A') (A')
                 (A') (A') (A') (A") (A') (A') (A') (A') (A') (A')
                 (A') (A') (A') (A')
 The electronic state is 1-A'.
 Alpha  occ. eigenvalues --  -19.58797 -14.90884 -10.61014 -10.61011 -10.58710
 Alpha  occ. eigenvalues --  -10.58706 -10.57998  -1.22090  -1.01131  -0.90132
 Alpha  occ. eigenvalues --   -0.89800  -0.76516  -0.73276  -0.62383  -0.59904
 Alpha  occ. eigenvalues --   -0.57562  -0.55365  -0.53030  -0.52899  -0.46255
 Alpha  occ. eigenvalues --   -0.45185  -0.41643  -0.34709  -0.32752  -0.27781
 Alpha virt. eigenvalues --   -0.02650  -0.01796  -0.00969   0.00445   0.01443
 Alpha virt. eigenvalues --    0.03291   0.04071   0.05239   0.05800   0.08446
 Alpha virt. eigenvalues --    0.08639   0.09119   0.09313   0.11215   0.11770
 Alpha virt. eigenvalues --    0.12201   0.12359   0.12986   0.13413   0.14314
 Alpha virt. eigenvalues --    0.14657   0.14758   0.15044   0.16237   0.17608
 Alpha virt. eigenvalues --    0.19677   0.20573   0.20737   0.21794   0.22565
 Alpha virt. eigenvalues --    0.24073   0.25455   0.26834   0.27355   0.27561
 Alpha virt. eigenvalues --    0.28538   0.29524   0.31317   0.31637   0.31917
 Alpha virt. eigenvalues --    0.36108   0.36820   0.38025   0.39369   0.41349
 Alpha virt. eigenvalues --    0.48479   0.50260   0.51330   0.53974   0.55471
 Alpha virt. eigenvalues --    0.56106   0.57938   0.58852   0.59006   0.60467
 Alpha virt. eigenvalues --    0.62832   0.65543   0.65912   0.68177   0.71571
 Alpha virt. eigenvalues --    0.73994   0.74809   0.78642   0.80863   0.82331
 Alpha virt. eigenvalues --    0.82547   0.84882   0.88038   0.89143   0.89222
 Alpha virt. eigenvalues --    0.93535   0.95394   1.00190   1.02619   1.04261
 Alpha virt. eigenvalues --    1.04611   1.09781   1.13309   1.14209   1.15844
 Alpha virt. eigenvalues --    1.17625   1.18878   1.19658   1.32267   1.39246
 Alpha virt. eigenvalues --    1.41334   1.48717   1.50826   1.52563   1.55773
 Alpha virt. eigenvalues --    1.57489   1.60906   1.62736   1.65200   1.66562
 Alpha virt. eigenvalues --    1.69740   1.73107   1.77435   1.77867   1.78974
 Alpha virt. eigenvalues --    1.82476   1.89404   1.92322   1.92662   1.93861
 Alpha virt. eigenvalues --    1.94727   1.98472   2.04100   2.06946   2.09201
 Alpha virt. eigenvalues --    2.10895   2.20391   2.29353   2.34320   2.35803
 Alpha virt. eigenvalues --    2.45472   2.46976   2.47895   2.49158   2.57807
 Alpha virt. eigenvalues --    2.59208   2.65129   2.71638   2.72738   2.72762
 Alpha virt. eigenvalues --    2.73989   2.78848   2.79208   2.79570   2.81085
 Alpha virt. eigenvalues --    2.86408   2.89374   2.92630   2.93583   3.01852
 Alpha virt. eigenvalues --    3.02808   3.03720   3.19727   3.28455   3.36807
 Alpha virt. eigenvalues --    3.42744   3.44286   3.52639   3.53081   3.64294
 Alpha virt. eigenvalues --    3.77460   3.83173   3.92037   4.02057   4.05355
 Alpha virt. eigenvalues --    4.14740   4.39990   4.65407   5.16745   5.18317
 Alpha virt. eigenvalues --    5.31375   6.01109  23.72632  23.94746  24.02268
 Alpha virt. eigenvalues --   24.07684  24.14188  35.56070  50.09795
          Condensed to atoms (all electrons):
               1          2          3          4          5          6
     1  O    8.185631   0.215602  -0.191764   0.074303   0.046580   0.074306
     2  N    0.215602   6.884075  -0.140628   0.261888  -0.155302   0.261931
     3  C   -0.191764  -0.140628  10.050483  -2.331666   0.120047   1.203136
     4  C    0.074303   0.261888  -2.331666   7.119528  -0.455180  -0.080601
     5  C    0.046580  -0.155302   0.120047  -0.455180   6.457561  -0.455294
     6  C    0.074306   0.261931   1.203136  -0.080601  -0.455294   7.120545
     7  C   -0.191626  -0.140654  -2.824841   1.203208   0.119117  -2.332293
     8  H   -0.003093  -0.099647   0.627231  -0.182423   0.024491   0.023977
     9  H   -0.000441   0.029200  -0.161652   0.445018  -0.011982  -0.009223
    10  H    0.001103  -0.000235   0.004075  -0.038779   0.400722  -0.038706
    11  H   -0.000444   0.029197   0.049715  -0.009214  -0.011933   0.444970
    12  H   -0.003117  -0.099650  -0.055786   0.024016   0.024508  -0.182777
               7          8          9         10         11         12
     1  O   -0.191626  -0.003093  -0.000441   0.001103  -0.000444  -0.003117
     2  N   -0.140654  -0.099647   0.029200  -0.000235   0.029197  -0.099650
     3  C   -2.824841   0.627231  -0.161652   0.004075   0.049715  -0.055786
     4  C    1.203208  -0.182423   0.445018  -0.038779  -0.009214   0.024016
     5  C    0.119117   0.024491  -0.011982   0.400722  -0.011933   0.024508
     6  C   -2.332293   0.023977  -0.009223  -0.038706   0.444970  -0.182777
     7  C   10.051409  -0.055681   0.049753   0.004003  -0.161621   0.627565
     8  H   -0.055681   0.450772  -0.012507   0.000772   0.000321  -0.000557
     9  H    0.049753  -0.012507   0.450198  -0.002071  -0.000805   0.000322
    10  H    0.004003   0.000772  -0.002071   0.458557  -0.002066   0.000773
    11  H   -0.161621   0.000321  -0.000805  -0.002066   0.450236  -0.012538
    12  H    0.627565  -0.000557   0.000322   0.000773  -0.012538   0.450905
 Mulliken charges:
               1
     1  O   -0.207039
     2  N   -0.045776
     3  C   -0.348350
     4  C   -0.030099
     5  C   -0.103334
     6  C   -0.029971
     7  C   -0.348338
     8  H    0.226342
     9  H    0.224191
    10  H    0.211854
    11  H    0.224183
    12  H    0.226337
 Sum of Mulliken charges =  -0.00000
 Mulliken charges with hydrogens summed into heavy atoms:
               1
     1  O   -0.207039
     2  N   -0.045776
     3  C   -0.122008
     4  C    0.194093
     5  C    0.108520
     6  C    0.194212
     7  C   -0.122002
 Electronic spatial extent (au):  <R**2>=            633.8554
 Charge=              0.0000 electrons
 Dipole moment (field-independent basis, Debye):
    X=              0.0009    Y=             -4.9577    Z=              0.0000  Tot=              4.9577
 Quadrupole moment (field-independent basis, Debye-Ang):
   XX=            -32.0111   YY=            -48.2865   ZZ=            -44.0312
   XY=              0.0038   XZ=             -0.0000   YZ=             -0.0000
 Traceless Quadrupole moment (field-independent basis, Debye-Ang):
   XX=              9.4318   YY=             -6.8435   ZZ=             -2.5883
   XY=              0.0038   XZ=             -0.0000   YZ=             -0.0000
 Octapole moment (field-independent basis, Debye-Ang**2):
  XXX=             -0.0068  YYY=            -34.1376  ZZZ=              0.0000  XYY=              0.0107
  XXY=              0.7366  XXZ=              0.0000  XZZ=             -0.0008  YZZ=              5.1833
  YYZ=              0.0000  XYZ=             -0.0000
 Hexadecapole moment (field-independent basis, Debye-Ang**3):
 XXXX=           -244.8253 YYYY=           -539.7362 ZZZZ=            -48.1519 XXXY=              0.0153
 XXXZ=             -0.0000 YYYX=              0.0322 YYYZ=             -0.0000 ZZZX=             -0.0000
 ZZZY=             -0.0000 XXYY=           -117.3577 XXZZ=            -63.2331 YYZZ=            -99.7374
 XXYZ=             -0.0000 YYXZ=             -0.0000 ZZXY=              0.0075
 N-N= 2.749016617050D+02 E-N=-1.303413077131D+03  KE= 3.218490812292D+02
 Symmetry A'   KE= 3.104605901877D+02
 Symmetry A"   KE= 1.138849104150D+01
 No NMR shielding tensors so no spin-rotation constants.
 Leave Link  601 at Sun Oct 13 23:23:26 2019, MaxMem= 10737418240 cpu:               2.3 elap:               0.1
 (Enter /apps/cent7/gaussian/g16-A.03/g16-haswell/g16/l701.exe)
 ... and contract with generalized density number  0.
 Compute integral first derivatives.
 Leave Link  701 at Sun Oct 13 23:23:26 2019, MaxMem= 10737418240 cpu:               2.9 elap:               0.2
 (Enter /apps/cent7/gaussian/g16-A.03/g16-haswell/g16/l702.exe)
 L702 exits ... SP integral derivatives will be done elsewhere.
 Leave Link  702 at Sun Oct 13 23:23:26 2019, MaxMem= 10737418240 cpu:               0.5 elap:               0.0
 (Enter /apps/cent7/gaussian/g16-A.03/g16-haswell/g16/l703.exe)
 Integral derivatives from FoFJK, PRISM(SPDF).
 Compute integral first derivatives, UseDBF=F ICtDFT=           0.
 Calling FoFJK, ICntrl=      2127 FMM=F ISym2X=1 I1Cent= 0 IOpClX= 0 NMat=1 NMatS=1 NMatT=0.
 FoFJK:  IHMeth= 1 ICntrl=    2127 DoSepK=F KAlg= 0 I1Cent=           0 FoldK=F
 IRaf=         0 NMat=       1 IRICut=       1 DoRegI=T DoRafI=F ISym2E= 1 IDoP0=0 IntGTp=1.
 FoFCou: FMM=F IPFlag=           0 FMFlag=      100000 FMFlg1=         800
         NFxFlg=           0 DoJE=F BraDBF=F KetDBF=F FulRan=T
         wScrn=  0.000000 ICntrl=      2127 IOpCl=  0 I1Cent=           0 NGrid=           0
         NMat0=    1 NMatS0=      1 NMatT0=    0 NMatD0=    1 NMtDS0=    0 NMtDT0=    0
 Petite list used in FoFCou.
 Leave Link  703 at Sun Oct 13 23:23:27 2019, MaxMem= 10737418240 cpu:              18.0 elap:               0.8
 (Enter /apps/cent7/gaussian/g16-A.03/g16-haswell/g16/l716.exe)
 Dipole        = 3.37852661D-04-1.95049283D+00 7.14098890D-33
 ***** Axes restored to original set *****
 -------------------------------------------------------------------
 Center     Atomic                   Forces (Hartrees/Bohr)
 Number     Number              X              Y              Z
 -------------------------------------------------------------------
      1        8           0.026014759    0.000207516   -0.000000000
      2        7          -0.038073015    0.000017733    0.000000000
      3        6           0.031392649   -0.001879812   -0.000000000
      4        6          -0.013216528    0.016976474    0.000000000
      5        6          -0.002335101   -0.000124469   -0.000000000
      6        6          -0.012888725   -0.017117968   -0.000000000
      7        6           0.031203426    0.002164616    0.000000000
      8        1          -0.003234140    0.011489709    0.000000000
      9        1          -0.005330012    0.003872183    0.000000000
     10        1          -0.005218592   -0.000036738    0.000000000
     11        1          -0.005227237   -0.003961028   -0.000000000
     12        1          -0.003087484   -0.011608216   -0.000000000
 -------------------------------------------------------------------
 Cartesian Forces:  Max     0.038073015 RMS     0.012271958
 Leave Link  716 at Sun Oct 13 23:23:27 2019, MaxMem= 10737418240 cpu:               0.9 elap:               0.1
 (Enter /apps/cent7/gaussian/g16-A.03/g16-haswell/g16/l103.exe)

 GradGradGradGradGradGradGradGradGradGradGradGradGradGradGradGradGradGrad
 Berny optimization.
 FormGI is forming the generalized inverse of G from B-inverse, IUseBI=4.
 Internal  Forces:  Max     0.026015577 RMS     0.007791120
 Search for a local minimum.
 Step number   1 out of a maximum of   64
 All quantities printed in internal units (Hartrees-Bohrs-Radians)
 RMS Force = .77911D-02 SwitMx=.10000D-02 MixMth= 1
 Mixed Optimization -- RFO/linear search
 Second derivative matrix not updated -- first step.
 ITU=  0
     Eigenvalues ---    0.01997   0.02000   0.02003   0.02007   0.02035
     Eigenvalues ---    0.02075   0.02093   0.02147   0.02183   0.16000
     Eigenvalues ---    0.16000   0.16000   0.16000   0.16000   0.22000
     Eigenvalues ---    0.22000   0.23517   0.25000   0.34808   0.34810
     Eigenvalues ---    0.34813   0.34814   0.34816   0.40844   0.42036
     Eigenvalues ---    0.44425   0.44572   0.50373   0.51782   0.65433
 RFO step:  Lambda=-8.82376212D-03 EMin= 1.99740059D-02
 Linear search not attempted -- first point.
 Iteration  1 RMS(Cart)=  0.02956506 RMS(Int)=  0.00043103
 Iteration  2 RMS(Cart)=  0.00046934 RMS(Int)=  0.00001248
 Iteration  3 RMS(Cart)=  0.00000013 RMS(Int)=  0.00001248
 ITry= 1 IFail=0 DXMaxC= 1.09D-01 DCOld= 1.00D+10 DXMaxT= 3.00D-01 DXLimC= 3.00D+00 Rises=F
 ClnCor:  largest displacement from symmetrization is 8.20D-09 for atom     3.
 Variable       Old X    -DE/DX   Delta X   Delta X   Delta X     New X
                                 (Linear)    (Quad)   (Total)
    R1        2.46883  -0.02602   0.00000  -0.03923  -0.03923   2.42960
    R2        2.57499  -0.00939   0.00000  -0.01756  -0.01755   2.55745
    R3        2.57601  -0.00974   0.00000  -0.01826  -0.01824   2.55777
    R4        2.65972  -0.02224   0.00000  -0.04911  -0.04911   2.61061
    R5        2.05980  -0.00802   0.00000  -0.02246  -0.02246   2.03734
    R6        2.65736  -0.01596   0.00000  -0.03515  -0.03517   2.62219
    R7        2.05979  -0.00602   0.00000  -0.01686  -0.01686   2.04292
    R8        2.65733  -0.01586   0.00000  -0.03492  -0.03494   2.62239
    R9        2.05988  -0.00522   0.00000  -0.01462  -0.01462   2.04526
   R10        2.65926  -0.02214   0.00000  -0.04885  -0.04885   2.61041
   R11        2.05974  -0.00600   0.00000  -0.01680  -0.01680   2.04294
   R12        2.05984  -0.00804   0.00000  -0.02253  -0.02253   2.03731
    A1        2.07831   0.00525   0.00000   0.02059   0.02057   2.09888
    A2        2.07790   0.00531   0.00000   0.02079   0.02077   2.09867
    A3        2.12698  -0.01056   0.00000  -0.04138  -0.04134   2.08564
    A4        2.09642   0.00430   0.00000   0.01802   0.01804   2.11446
    A5        2.06527  -0.01126   0.00000  -0.06296  -0.06297   2.00230
    A6        2.12150   0.00696   0.00000   0.04494   0.04493   2.16643
    A7        2.07738   0.00413   0.00000   0.01702   0.01700   2.09438
    A8        2.10381  -0.00482   0.00000  -0.02485  -0.02484   2.07897
    A9        2.10199   0.00069   0.00000   0.00783   0.00784   2.10984
   A10        2.09181  -0.00630   0.00000  -0.02869  -0.02873   2.06308
   A11        2.09559   0.00316   0.00000   0.01440   0.01442   2.11001
   A12        2.09579   0.00314   0.00000   0.01429   0.01431   2.11010
   A13        2.07754   0.00411   0.00000   0.01692   0.01690   2.09444
   A14        2.10211   0.00068   0.00000   0.00773   0.00774   2.10985
   A15        2.10354  -0.00479   0.00000  -0.02466  -0.02465   2.07889
   A16        2.09624   0.00432   0.00000   0.01810   0.01812   2.11437
   A17        2.06588  -0.01135   0.00000  -0.06349  -0.06350   2.00238
   A18        2.12106   0.00703   0.00000   0.04539   0.04538   2.16644
    D1        3.14159  -0.00000   0.00000  -0.00000   0.00000   3.14159
    D2        0.00000   0.00000   0.00000  -0.00000   0.00000   0.00000
    D3       -0.00000   0.00000   0.00000  -0.00000   0.00000   0.00000
    D4        3.14159  -0.00000   0.00000   0.00000   0.00000   3.14159
    D5        3.14159  -0.00000   0.00000   0.00000   0.00000   3.14159
    D6       -0.00000   0.00000   0.00000   0.00000   0.00000   0.00000
    D7       -0.00000   0.00000   0.00000  -0.00000   0.00000   0.00000
    D8        3.14159  -0.00000   0.00000   0.00000   0.00000   3.14159
    D9       -0.00000   0.00000   0.00000   0.00000   0.00000   0.00000
   D10        3.14159  -0.00000   0.00000   0.00000   0.00000   3.14159
   D11        3.14159  -0.00000   0.00000   0.00000   0.00000   3.14159
   D12       -0.00000  -0.00000   0.00000  -0.00000   0.00000   0.00000
   D13        0.00000  -0.00000   0.00000  -0.00000   0.00000   0.00000
   D14        3.14159   0.00000   0.00000  -0.00000   0.00000   3.14159
   D15        3.14159  -0.00000   0.00000  -0.00000   0.00000   3.14159
   D16       -0.00000  -0.00000   0.00000   0.00000   0.00000   0.00000
   D17       -0.00000   0.00000   0.00000  -0.00000   0.00000   0.00000
   D18        3.14159  -0.00000   0.00000   0.00000   0.00000   3.14159
   D19        3.14159  -0.00000   0.00000  -0.00000   0.00000   3.14159
   D20        0.00000   0.00000   0.00000   0.00000   0.00000   0.00000
   D21        0.00000   0.00000   0.00000   0.00000  -0.00000   0.00000
   D22        3.14159   0.00000   0.00000   0.00000   0.00000   3.14159
   D23        3.14159   0.00000   0.00000  -0.00000   0.00000   3.14159
   D24       -0.00000  -0.00000   0.00000  -0.00000   0.00000   0.00000
         Item               Value     Threshold  Converged?
 Maximum Force            0.026016     0.000450     NO 
 RMS     Force            0.007791     0.000300     NO 
 Maximum Displacement     0.109381     0.001800     NO 
 RMS     Displacement     0.029813     0.001200     NO 
 Predicted change in Energy=-4.542809D-03
 Lowest energy point so far.  Saving SCF results.
 GradGradGradGradGradGradGradGradGradGradGradGradGradGradGradGradGradGrad

 Leave Link  103 at Sun Oct 13 23:23:27 2019, MaxMem= 10737418240 cpu:               1.9 elap:               0.1
 (Enter /apps/cent7/gaussian/g16-A.03/g16-haswell/g16/l202.exe)
                          Input orientation:                          
 ---------------------------------------------------------------------
 Center     Atomic      Atomic             Coordinates (Angstroms)
 Number     Number       Type             X           Y           Z
 ---------------------------------------------------------------------
      1          8           0       -1.958226    1.151436    0.000000
      2          7           0       -0.672586    1.162835    0.000000
      3          6           0        0.019670   -0.000056   -0.000000
      4          6           0        1.401113   -0.009336   -0.000000
      5          6           0        2.102954    1.187687   -0.000000
      6          6           0        1.379733    2.372037    0.000000
      7          6           0       -0.001218    2.338108    0.000000
      8          1           0       -0.591165   -0.888429   -0.000000
      9          1           0        1.920785   -0.957309   -0.000000
     10          1           0        3.185217    1.197332   -0.000000
     11          1           0        1.882336    3.329179    0.000000
     12          1           0       -0.627813    3.215418    0.000000
 ---------------------------------------------------------------------
                    Distance matrix (angstroms):
                    1          2          3          4          5
     1  O    0.000000
     2  N    1.285691   0.000000
     3  C    2.288669   1.353342   0.000000
     4  C    3.554231   2.382061   1.381475   0.000000
     5  C    4.061342   2.775651   2.398084   1.387604   0.000000
     6  C    3.554130   2.382054   2.734336   2.381469   1.387708
     7  C    2.288684   1.353514   2.338257   2.734415   2.398126
     8  H    2.455586   2.052880   1.078112   2.177608   3.401255
     9  H    4.415148   3.349714   2.128514   1.081069   2.152717
    10  H    5.143648   3.857957   3.384439   2.153851   1.082305
    11  H    4.415029   3.349727   3.814883   3.373020   2.152826
    12  H    2.455610   2.053071   3.280016   3.809932   3.401291
                    6          7          8          9         10
     6  C    0.000000
     7  C    1.381367   0.000000
     8  H    3.809866   3.280027   0.000000
     9  H    3.373022   3.814952   2.512894   0.000000
    10  H    2.153997   3.384484   4.314100   2.498252   0.000000
    11  H    1.081079   2.128379   4.889420   4.286660   2.498454
    12  H    2.177506   1.078098   4.104011   4.889478   4.314147
                   11         12
    11  H    0.000000
    12  H    2.512725   0.000000
 Stoichiometry    C5H5NO
 Framework group  CS[SG(C5H5NO)]
 Deg. of freedom    21
 Full point group                 CS      NOp   2
 RotChk:  IX=0 Diff= 2.35D-04
 Largest Abelian subgroup         CS      NOp   2
 Largest concise Abelian subgroup C1      NOp   1
                         Standard orientation:                         
 ---------------------------------------------------------------------
 Center     Atomic      Atomic             Coordinates (Angstroms)
 Number     Number       Type             X           Y           Z
 ---------------------------------------------------------------------
      1          8           0       -0.000183    2.254495    0.000000
      2          7           0        0.000000    0.968804    0.000000
      3          6           0        1.169081    0.287053    0.000000
      4          6           0        1.190806   -1.094251   -0.000000
      5          6           0        0.000154   -1.806847   -0.000000
      6          6           0       -1.190663   -1.094325   -0.000000
      7          6           0       -1.169176    0.286875    0.000000
      8          1           0        2.051915    0.905867    0.000000
      9          1           0        2.143421   -1.605361   -0.000000
     10          1           0        0.000260   -2.889152   -0.000000
     11          1           0       -2.143239   -1.605530   -0.000000
     12          1           0       -2.052096    0.905542    0.000000
 ---------------------------------------------------------------------
 Rotational constants (GHZ):           5.9751587           2.8169804           1.9144266
 Leave Link  202 at Sun Oct 13 23:23:27 2019, MaxMem= 10737418240 cpu:               1.8 elap:               0.1
 (Enter /apps/cent7/gaussian/g16-A.03/g16-haswell/g16/l301.exe)
 Standard basis: 6-311++G(d,p) (5D, 7F)
 Ernie: Thresh=  0.10000D-02 Tol=  0.10000D-05 Strict=F.
 There are   149 symmetry adapted cartesian basis functions of A'  symmetry.
 There are    47 symmetry adapted cartesian basis functions of A"  symmetry.
 There are   142 symmetry adapted basis functions of A'  symmetry.
 There are    47 symmetry adapted basis functions of A"  symmetry.
   189 basis functions,   297 primitive gaussians,   196 cartesian basis functions
    25 alpha electrons       25 beta electrons
       nuclear repulsion energy       278.2271819188 Hartrees.
 IExCor= 4336 DFT=T Ex+Corr=M062X ExCW=0 ScaHFX=  0.540000
 ScaDFX=  1.000000  1.000000  1.000000  1.000000 ScalE2=  1.000000  1.000000
 IRadAn=      5 IRanWt=     -1 IRanGd=            0 ICorTp=0 IEmpDi=  4
 NAtoms=   12 NActive=   12 NUniq=   12 SFac= 1.00D+00 NAtFMM=   60 NAOKFM=F Big=F
 Integral buffers will be    131072 words long.
 Raffenetti 2 integral format.
 Two-electron integral symmetry is turned on.
 Leave Link  301 at Sun Oct 13 23:23:27 2019, MaxMem= 10737418240 cpu:               1.3 elap:               0.1
 (Enter /apps/cent7/gaussian/g16-A.03/g16-haswell/g16/l302.exe)
 NPDir=0 NMtPBC=     1 NCelOv=     1 NCel=       1 NClECP=     1 NCelD=      1
         NCelK=      1 NCelE2=     1 NClLst=     1 CellRange=     0.0.
 One-electron integrals computed using PRISM.
 One-electron integral symmetry used in STVInt
 NBasis=   189 RedAO= T EigKep=  6.27D-06  NBF=   142    47
 NBsUse=   189 1.00D-06 EigRej= -1.00D+00 NBFU=   142    47
 Precomputing XC quadrature grid using
 IXCGrd= 4 IRadAn=           5 IRanWt=          -1 IRanGd=           0 AccXCQ= 0.00D+00.
 Generated NRdTot=       0 NPtTot=           0 NUsed=           0 NTot=          32
 NSgBfM=   196   196   196   196   196 MxSgAt=    12 MxSgA2=    12.
 Leave Link  302 at Sun Oct 13 23:23:27 2019, MaxMem= 10737418240 cpu:               3.1 elap:               0.1
 (Enter /apps/cent7/gaussian/g16-A.03/g16-haswell/g16/l303.exe)
 DipDrv:  MaxL=1.
 Leave Link  303 at Sun Oct 13 23:23:27 2019, MaxMem= 10737418240 cpu:               0.6 elap:               0.0
 (Enter /apps/cent7/gaussian/g16-A.03/g16-haswell/g16/l401.exe)
 Initial guess from the checkpoint file:  "3.chk"
 B after Tr=     0.000000   -0.000000    0.000000
         Rot=    1.000000    0.000000    0.000000    0.000073 Ang=   0.01 deg.
 Guess basis will be translated and rotated to current coordinates.
 JPrj=2 DoOrth=T DoCkMO=T.
 Initial guess orbital symmetries:
       Occupied  (A') (A') (A') (A') (A') (A') (A') (A') (A') (A')
                 (A') (A') (A') (A') (A') (A') (A") (A') (A') (A')
                 (A') (A") (A") (A') (A")
       Virtual   (A") (A") (A') (A') (A') (A') (A') (A") (A') (A")
                 (A") (A') (A') (A') (A") (A') (A') (A') (A") (A')
                 (A') (A') (A') (A') (A") (A') (A') (A') (A') (A')
                 (A") (A') (A') (A') (A') (A") (A') (A') (A') (A')
                 (A') (A') (A') (A') (A') (A') (A') (A') (A') (A')
                 (A") (A") (A') (A') (A") (A") (A") (A') (A') (A')
                 (A') (A') (A') (A') (A') (A') (A') (A') (A') (A")
                 (A') (A') (A") (A') (A') (A") (A") (A") (A') (A')
                 (A") (A') (A") (A') (A") (A') (A') (A') (A') (A')
                 (A") (A") (A') (A') (A') (A') (A") (A") (A") (A')
                 (A') (A') (A") (A') (A') (A') (A') (A") (A') (A")
                 (A") (A') (A") (A') (A') (A') (A') (A') (A") (A')
                 (A') (A') (A') (A") (A') (A') (A') (A') (A') (A")
                 (A") (A") (A') (A') (A") (A") (A') (A') (A") (A')
                 (A') (A') (A') (A') (A') (A') (A') (A") (A') (A')
                 (A') (A') (A') (A") (A') (A') (A') (A') (A') (A')
                 (A') (A') (A') (A')
 The electronic state of the initial guess is 1-A'.
 Generating alternative initial guess.
 ExpMin= 3.60D-02 ExpMax= 8.59D+03 ExpMxC= 1.30D+03 IAcc=3 IRadAn=         5 AccDes= 0.00D+00
 Harris functional with IExCor= 1009 and IRadAn=       5 diagonalized for initial guess.
 HarFok:  IExCor= 1009 AccDes= 0.00D+00 IRadAn=         5 IDoV= 1 UseB2=F ITyADJ=14
 ICtDFT=  3500011 ScaDFX=  1.000000  1.000000  1.000000  1.000000
 FoFCou: FMM=F IPFlag=           0 FMFlag=      100000 FMFlg1=           0
         NFxFlg=           0 DoJE=T BraDBF=F KetDBF=T FulRan=T
         wScrn=  0.000000 ICntrl=       500 IOpCl=  0 I1Cent=   200000004 NGrid=           0
         NMat0=    1 NMatS0=      1 NMatT0=    0 NMatD0=    1 NMtDS0=    0 NMtDT0=    0
 Petite list used in FoFCou.
 Harris En= -323.260249423084    
 Leave Link  401 at Sun Oct 13 23:23:27 2019, MaxMem= 10737418240 cpu:               7.1 elap:               0.3
 (Enter /apps/cent7/gaussian/g16-A.03/g16-haswell/g16/l502.exe)
 Keep R1 ints in memory in symmetry-blocked form, NReq=247150665.
 FoFCou: FMM=F IPFlag=           0 FMFlag=           0 FMFlg1=           0
         NFxFlg=           0 DoJE=F BraDBF=F KetDBF=F FulRan=T
         wScrn=  0.000000 ICntrl=       600 IOpCl=  0 I1Cent=           0 NGrid=           0
         NMat0=    1 NMatS0=  17955 NMatT0=    0 NMatD0=    1 NMtDS0=    0 NMtDT0=    0
 Petite list used in FoFCou.
 Closed shell SCF:
 Using DIIS extrapolation, IDIIS=  1040.
 NGot= 10737418240 LenX= 10651385333 LenY= 10651346476
 Requested convergence on RMS density matrix=1.00D-08 within 128 cycles.
 Requested convergence on MAX density matrix=1.00D-06.
 Requested convergence on             energy=1.00D-06.
 No special actions if energy rises.

 Cycle   1  Pass 1  IDiag  1:
 E= -323.393114653467    
 DIIS: error= 2.71D-03 at cycle   1 NSaved=   1.
 NSaved= 1 IEnMin= 1 EnMin= -323.393114653467     IErMin= 1 ErrMin= 2.71D-03
 ErrMax= 2.71D-03  0.00D+00 EMaxC= 1.00D-01 BMatC= 1.50D-03 BMatP= 1.50D-03
 IDIUse=3 WtCom= 9.73D-01 WtEn= 2.71D-02
 Coeff-Com:  0.100D+01
 Coeff-En:   0.100D+01
 Coeff:      0.100D+01
 Gap=     0.257 Goal=   None    Shift=    0.000
 GapD=    0.257 DampG=1.000 DampE=1.000 DampFc=1.0000 IDamp=-1.
 RMSDP=2.98D-03 MaxDP=1.75D-01              OVMax= 9.93D-03

 Cycle   2  Pass 1  IDiag  1:
 E= -323.394495203510     Delta-E=       -0.001380550042 Rises=F Damp=F
 DIIS: error= 1.22D-03 at cycle   2 NSaved=   2.
 NSaved= 2 IEnMin= 2 EnMin= -323.394495203510     IErMin= 2 ErrMin= 1.22D-03
 ErrMax= 1.22D-03  0.00D+00 EMaxC= 1.00D-01 BMatC= 1.64D-04 BMatP= 1.50D-03
 IDIUse=3 WtCom= 9.88D-01 WtEn= 1.22D-02
 Coeff-Com:  0.141D+00 0.859D+00
 Coeff-En:   0.000D+00 0.100D+01
 Coeff:      0.139D+00 0.861D+00
 Gap=     0.256 Goal=   None    Shift=    0.000
 RMSDP=8.11D-04 MaxDP=4.57D-02 DE=-1.38D-03 OVMax= 5.16D-03

 Cycle   3  Pass 1  IDiag  1:
 E= -323.394611548506     Delta-E=       -0.000116344997 Rises=F Damp=F
 DIIS: error= 6.07D-04 at cycle   3 NSaved=   3.
 NSaved= 3 IEnMin= 3 EnMin= -323.394611548506     IErMin= 3 ErrMin= 6.07D-04
 ErrMax= 6.07D-04  0.00D+00 EMaxC= 1.00D-01 BMatC= 5.88D-05 BMatP= 1.64D-04
 IDIUse=3 WtCom= 9.94D-01 WtEn= 6.07D-03
 Coeff-Com: -0.313D-01 0.357D+00 0.674D+00
 Coeff-En:   0.000D+00 0.991D-01 0.901D+00
 Coeff:     -0.311D-01 0.356D+00 0.675D+00
 Gap=     0.256 Goal=   None    Shift=    0.000
 RMSDP=1.01D-04 MaxDP=2.59D-03 DE=-1.16D-04 OVMax= 1.87D-03

 Cycle   4  Pass 1  IDiag  1:
 E= -323.394659526813     Delta-E=       -0.000047978307 Rises=F Damp=F
 DIIS: error= 2.83D-04 at cycle   4 NSaved=   4.
 NSaved= 4 IEnMin= 4 EnMin= -323.394659526813     IErMin= 4 ErrMin= 2.83D-04
 ErrMax= 2.83D-04  0.00D+00 EMaxC= 1.00D-01 BMatC= 3.99D-06 BMatP= 5.88D-05
 IDIUse=3 WtCom= 9.97D-01 WtEn= 2.83D-03
 Coeff-Com: -0.183D-01 0.123D+00 0.301D+00 0.594D+00
 Coeff-En:   0.000D+00 0.000D+00 0.000D+00 0.100D+01
 Coeff:     -0.183D-01 0.123D+00 0.301D+00 0.595D+00
 Gap=     0.256 Goal=   None    Shift=    0.000
 RMSDP=8.70D-05 MaxDP=4.78D-03 DE=-4.80D-05 OVMax= 1.59D-03

 Cycle   5  Pass 1  IDiag  1:
 E= -323.394662685107     Delta-E=       -0.000003158294 Rises=F Damp=F
 DIIS: error= 1.32D-04 at cycle   5 NSaved=   5.
 NSaved= 5 IEnMin= 5 EnMin= -323.394662685107     IErMin= 5 ErrMin= 1.32D-04
 ErrMax= 1.32D-04  0.00D+00 EMaxC= 1.00D-01 BMatC= 1.33D-06 BMatP= 3.99D-06
 IDIUse=3 WtCom= 9.99D-01 WtEn= 1.32D-03
 Coeff-Com: -0.227D-02-0.211D-01-0.104D-01 0.369D+00 0.665D+00
 Coeff-En:   0.000D+00 0.000D+00 0.000D+00 0.148D+00 0.852D+00
 Coeff:     -0.226D-02-0.210D-01-0.104D-01 0.369D+00 0.665D+00
 Gap=     0.256 Goal=   None    Shift=    0.000
 RMSDP=2.09D-05 MaxDP=8.13D-04 DE=-3.16D-06 OVMax= 2.80D-04

 Cycle   6  Pass 1  IDiag  1:
 E= -323.394663847509     Delta-E=       -0.000001162402 Rises=F Damp=F
 DIIS: error= 2.30D-05 at cycle   6 NSaved=   6.
 NSaved= 6 IEnMin= 6 EnMin= -323.394663847509     IErMin= 6 ErrMin= 2.30D-05
 ErrMax= 2.30D-05  0.00D+00 EMaxC= 1.00D-01 BMatC= 6.34D-08 BMatP= 1.33D-06
 IDIUse=1 WtCom= 1.00D+00 WtEn= 0.00D+00
 Coeff-Com:  0.132D-02-0.215D-01-0.400D-01 0.953D-01 0.165D+00 0.800D+00
 Coeff:      0.132D-02-0.215D-01-0.400D-01 0.953D-01 0.165D+00 0.800D+00
 Gap=     0.256 Goal=   None    Shift=    0.000
 RMSDP=5.05D-06 MaxDP=1.61D-04 DE=-1.16D-06 OVMax= 2.16D-04

 Cycle   7  Pass 1  IDiag  1:
 E= -323.394663933426     Delta-E=       -0.000000085918 Rises=F Damp=F
 DIIS: error= 1.99D-05 at cycle   7 NSaved=   7.
 NSaved= 7 IEnMin= 7 EnMin= -323.394663933426     IErMin= 7 ErrMin= 1.99D-05
 ErrMax= 1.99D-05  0.00D+00 EMaxC= 1.00D-01 BMatC= 1.90D-08 BMatP= 6.34D-08
 IDIUse=1 WtCom= 1.00D+00 WtEn= 0.00D+00
 Coeff-Com:  0.902D-03-0.570D-02-0.169D-01-0.700D-02-0.621D-01 0.333D+00
 Coeff-Com:  0.758D+00
 Coeff:      0.902D-03-0.570D-02-0.169D-01-0.700D-02-0.621D-01 0.333D+00
 Coeff:      0.758D+00
 Gap=     0.256 Goal=   None    Shift=    0.000
 RMSDP=6.73D-06 MaxDP=3.34D-04 DE=-8.59D-08 OVMax= 8.00D-05

 Cycle   8  Pass 1  IDiag  1:
 E= -323.394663957100     Delta-E=       -0.000000023673 Rises=F Damp=F
 DIIS: error= 5.52D-06 at cycle   8 NSaved=   8.
 NSaved= 8 IEnMin= 8 EnMin= -323.394663957100     IErMin= 8 ErrMin= 5.52D-06
 ErrMax= 5.52D-06  0.00D+00 EMaxC= 1.00D-01 BMatC= 2.58D-09 BMatP= 1.90D-08
 IDIUse=1 WtCom= 1.00D+00 WtEn= 0.00D+00
 Coeff-Com:  0.134D-03 0.135D-02-0.257D-03-0.102D-01-0.513D-01-0.159D-01
 Coeff-Com:  0.309D+00 0.767D+00
 Coeff:      0.134D-03 0.135D-02-0.257D-03-0.102D-01-0.513D-01-0.159D-01
 Coeff:      0.309D+00 0.767D+00
 Gap=     0.256 Goal=   None    Shift=    0.000
 RMSDP=2.63D-06 MaxDP=1.39D-04 DE=-2.37D-08 OVMax= 5.02D-05

 Cycle   9  Pass 1  IDiag  1:
 E= -323.394663960185     Delta-E=       -0.000000003085 Rises=F Damp=F
 DIIS: error= 2.26D-06 at cycle   9 NSaved=   9.
 NSaved= 9 IEnMin= 9 EnMin= -323.394663960185     IErMin= 9 ErrMin= 2.26D-06
 ErrMax= 2.26D-06  0.00D+00 EMaxC= 1.00D-01 BMatC= 6.66D-10 BMatP= 2.58D-09
 IDIUse=1 WtCom= 1.00D+00 WtEn= 0.00D+00
 Coeff-Com: -0.335D-04 0.149D-02 0.174D-02-0.592D-02-0.269D-01-0.592D-01
 Coeff-Com:  0.903D-01 0.437D+00 0.561D+00
 Coeff:     -0.335D-04 0.149D-02 0.174D-02-0.592D-02-0.269D-01-0.592D-01
 Coeff:      0.903D-01 0.437D+00 0.561D+00
 Gap=     0.256 Goal=   None    Shift=    0.000
 RMSDP=7.14D-07 MaxDP=3.54D-05 DE=-3.08D-09 OVMax= 6.21D-06

 Cycle  10  Pass 1  IDiag  1:
 E= -323.394663960795     Delta-E=       -0.000000000610 Rises=F Damp=F
 DIIS: error= 4.65D-07 at cycle  10 NSaved=  10.
 NSaved=10 IEnMin=10 EnMin= -323.394663960795     IErMin=10 ErrMin= 4.65D-07
 ErrMax= 4.65D-07  0.00D+00 EMaxC= 1.00D-01 BMatC= 1.21D-11 BMatP= 6.66D-10
 IDIUse=1 WtCom= 1.00D+00 WtEn= 0.00D+00
 Coeff-Com: -0.135D-04 0.117D-03 0.256D-03 0.776D-03-0.732D-04-0.892D-02
 Coeff-Com: -0.708D-02-0.212D-02 0.648D-01 0.952D+00
 Coeff:     -0.135D-04 0.117D-03 0.256D-03 0.776D-03-0.732D-04-0.892D-02
 Coeff:     -0.708D-02-0.212D-02 0.648D-01 0.952D+00
 Gap=     0.256 Goal=   None    Shift=    0.000
 RMSDP=3.65D-07 MaxDP=2.14D-05 DE=-6.10D-10 OVMax= 1.71D-06

 Cycle  11  Pass 1  IDiag  1:
 E= -323.394663960808     Delta-E=       -0.000000000013 Rises=F Damp=F
 DIIS: error= 1.36D-07 at cycle  11 NSaved=  11.
 NSaved=11 IEnMin=11 EnMin= -323.394663960808     IErMin=11 ErrMin= 1.36D-07
 ErrMax= 1.36D-07  0.00D+00 EMaxC= 1.00D-01 BMatC= 2.52D-12 BMatP= 1.21D-11
 IDIUse=1 WtCom= 1.00D+00 WtEn= 0.00D+00
 Coeff-Com: -0.449D-05-0.415D-04-0.368D-05 0.785D-03 0.165D-02-0.533D-03
 Coeff-Com: -0.727D-02-0.307D-01-0.124D-01 0.428D+00 0.620D+00
 Coeff:     -0.449D-05-0.415D-04-0.368D-05 0.785D-03 0.165D-02-0.533D-03
 Coeff:     -0.727D-02-0.307D-01-0.124D-01 0.428D+00 0.620D+00
 Gap=     0.256 Goal=   None    Shift=    0.000
 RMSDP=3.35D-08 MaxDP=1.74D-06 DE=-1.34D-11 OVMax= 5.77D-07

 Cycle  12  Pass 1  IDiag  1:
 E= -323.394663960811     Delta-E=       -0.000000000003 Rises=F Damp=F
 DIIS: error= 3.06D-08 at cycle  12 NSaved=  12.
 NSaved=12 IEnMin=12 EnMin= -323.394663960811     IErMin=12 ErrMin= 3.06D-08
 ErrMax= 3.06D-08  0.00D+00 EMaxC= 1.00D-01 BMatC= 1.59D-13 BMatP= 2.52D-12
 IDIUse=1 WtCom= 1.00D+00 WtEn= 0.00D+00
 Coeff-Com:  0.793D-06-0.231D-04-0.386D-04 0.103D-03 0.407D-03 0.603D-03
 Coeff-Com:  0.155D-03-0.671D-02-0.139D-01-0.273D-01 0.150D+00 0.896D+00
 Coeff:      0.793D-06-0.231D-04-0.386D-04 0.103D-03 0.407D-03 0.603D-03
 Coeff:      0.155D-03-0.671D-02-0.139D-01-0.273D-01 0.150D+00 0.896D+00
 Gap=     0.256 Goal=   None    Shift=    0.000
 RMSDP=1.32D-08 MaxDP=6.59D-07 DE=-2.73D-12 OVMax= 1.38D-07

 Cycle  13  Pass 1  IDiag  1:
 E= -323.394663960811     Delta-E=        0.000000000000 Rises=F Damp=F
 DIIS: error= 6.19D-09 at cycle  13 NSaved=  13.
 NSaved=13 IEnMin=12 EnMin= -323.394663960811     IErMin=13 ErrMin= 6.19D-09
 ErrMax= 6.19D-09  0.00D+00 EMaxC= 1.00D-01 BMatC= 5.03D-15 BMatP= 1.59D-13
 IDIUse=1 WtCom= 1.00D+00 WtEn= 0.00D+00
 Coeff-Com:  0.293D-06 0.143D-05-0.262D-05-0.360D-04-0.784D-04-0.172D-04
 Coeff-Com:  0.630D-03 0.169D-02-0.127D-02-0.240D-01-0.280D-01-0.184D-01
 Coeff-Com:  0.107D+01
 Coeff:      0.293D-06 0.143D-05-0.262D-05-0.360D-04-0.784D-04-0.172D-04
 Coeff:      0.630D-03 0.169D-02-0.127D-02-0.240D-01-0.280D-01-0.184D-01
 Coeff:      0.107D+01
 Gap=     0.256 Goal=   None    Shift=    0.000
 RMSDP=3.58D-09 MaxDP=2.00D-07 DE= 3.41D-13 OVMax= 5.49D-08

 SCF Done:  E(RM062X) =  -323.394663961     A.U. after   13 cycles
            NFock= 13  Conv=0.36D-08     -V/T= 2.0036
 KE= 3.222452822752D+02 PE=-1.310334555051D+03 EE= 3.864674268966D+02
 Leave Link  502 at Sun Oct 13 23:23:32 2019, MaxMem= 10737418240 cpu:              72.1 elap:               4.2
 (Enter /apps/cent7/gaussian/g16-A.03/g16-haswell/g16/l701.exe)
 ... and contract with generalized density number  0.
 Compute integral first derivatives.
 Leave Link  701 at Sun Oct 13 23:23:32 2019, MaxMem= 10737418240 cpu:               2.6 elap:               0.1
 (Enter /apps/cent7/gaussian/g16-A.03/g16-haswell/g16/l702.exe)
 L702 exits ... SP integral derivatives will be done elsewhere.
 Leave Link  702 at Sun Oct 13 23:23:32 2019, MaxMem= 10737418240 cpu:               0.5 elap:               0.0
 (Enter /apps/cent7/gaussian/g16-A.03/g16-haswell/g16/l703.exe)
 Integral derivatives from FoFJK, PRISM(SPDF).
 Compute integral first derivatives, UseDBF=F ICtDFT=           0.
 Calling FoFJK, ICntrl=      2127 FMM=F ISym2X=1 I1Cent= 0 IOpClX= 0 NMat=1 NMatS=1 NMatT=0.
 FoFJK:  IHMeth= 1 ICntrl=    2127 DoSepK=F KAlg= 0 I1Cent=           0 FoldK=F
 IRaf=         0 NMat=       1 IRICut=       1 DoRegI=T DoRafI=F ISym2E= 1 IDoP0=0 IntGTp=1.
 FoFCou: FMM=F IPFlag=           0 FMFlag=      100000 FMFlg1=         800
         NFxFlg=           0 DoJE=F BraDBF=F KetDBF=F FulRan=T
         wScrn=  0.000000 ICntrl=      2127 IOpCl=  0 I1Cent=           0 NGrid=           0
         NMat0=    1 NMatS0=      1 NMatT0=    0 NMatD0=    1 NMtDS0=    0 NMtDT0=    0
 Petite list used in FoFCou.
 Leave Link  703 at Sun Oct 13 23:23:33 2019, MaxMem= 10737418240 cpu:              17.9 elap:               0.8
 (Enter /apps/cent7/gaussian/g16-A.03/g16-haswell/g16/l716.exe)
 Dipole        = 1.25085214D-04-1.88494031D+00-8.49941139D-32
 ***** Axes restored to original set *****
 -------------------------------------------------------------------
 Center     Atomic                   Forces (Hartrees/Bohr)
 Number     Number              X              Y              Z
 -------------------------------------------------------------------
      1        8           0.011545918    0.000089139    0.000000000
      2        7          -0.021287352   -0.000082913   -0.000000000
      3        6           0.007856935   -0.005870048    0.000000000
      4        6          -0.001789750    0.000939853   -0.000000000
      5        6           0.004055030    0.000064309    0.000000000
      6        6          -0.001701097   -0.000978600   -0.000000000
      7        6           0.007700062    0.005898457    0.000000000
      8        1          -0.002243737    0.000175900   -0.000000000
      9        1          -0.000751412   -0.001203833   -0.000000000
     10        1          -0.000363794    0.000004581   -0.000000000
     11        1          -0.000766473    0.001181246   -0.000000000
     12        1          -0.002254332   -0.000218091   -0.000000000
 -------------------------------------------------------------------
 Cartesian Forces:  Max     0.021287352 RMS     0.004759363
 Leave Link  716 at Sun Oct 13 23:23:33 2019, MaxMem= 10737418240 cpu:               0.5 elap:               0.0
 (Enter /apps/cent7/gaussian/g16-A.03/g16-haswell/g16/l103.exe)

 GradGradGradGradGradGradGradGradGradGradGradGradGradGradGradGradGradGrad
 Berny optimization.
 Using GEDIIS/GDIIS optimizer.
 FormGI is forming the generalized inverse of G from B-inverse, IUseBI=4.
 Internal  Forces:  Max     0.011546254 RMS     0.002171779
 Search for a local minimum.
 Step number   2 out of a maximum of   64
 All quantities printed in internal units (Hartrees-Bohrs-Radians)
 RMS Force = .21718D-02 SwitMx=.10000D-02 MixMth= 1
 Mixed Optimization -- RFO/linear search
 Update second derivatives using D2CorX and points    1    2
 DE= -4.89D-03 DEPred=-4.54D-03 R= 1.08D+00
 TightC=F SS=  1.41D+00  RLast= 1.72D-01 DXNew= 5.0454D-01 5.1682D-01
 Trust test= 1.08D+00 RLast= 1.72D-01 DXMaxT set to 5.05D-01
 ITU=  1  0
 Use linear search instead of GDIIS.
     Eigenvalues ---    0.01998   0.02000   0.02002   0.02007   0.02035
     Eigenvalues ---    0.02070   0.02087   0.02145   0.02183   0.14318
     Eigenvalues ---    0.16000   0.16000   0.16000   0.16046   0.21679
     Eigenvalues ---    0.22000   0.23067   0.25000   0.34765   0.34811
     Eigenvalues ---    0.34813   0.34816   0.35354   0.40672   0.42150
     Eigenvalues ---    0.43251   0.44571   0.51726   0.57391   0.62610
 RFO step:  Lambda=-5.77425085D-04 EMin= 1.99756859D-02
 Quartic linear search produced a step of  0.09466.
 Iteration  1 RMS(Cart)=  0.00600012 RMS(Int)=  0.00004063
 Iteration  2 RMS(Cart)=  0.00005111 RMS(Int)=  0.00000306
 Iteration  3 RMS(Cart)=  0.00000000 RMS(Int)=  0.00000306
 ITry= 1 IFail=0 DXMaxC= 1.41D-02 DCOld= 1.00D+10 DXMaxT= 5.05D-01 DXLimC= 3.00D+00 Rises=F
 ClnCor:  largest displacement from symmetrization is 1.46D-11 for atom    10.
 Variable       Old X    -DE/DX   Delta X   Delta X   Delta X     New X
                                 (Linear)    (Quad)   (Total)
    R1        2.42960  -0.01155  -0.00371  -0.01797  -0.02169   2.40792
    R2        2.55745   0.00593  -0.00166   0.01334   0.01168   2.56913
    R3        2.55777   0.00584  -0.00173   0.01319   0.01147   2.56924
    R4        2.61061  -0.00071  -0.00465   0.00001  -0.00464   2.60597
    R5        2.03734   0.00113  -0.00213   0.00437   0.00224   2.03958
    R6        2.62219   0.00265  -0.00333   0.00731   0.00397   2.62616
    R7        2.04292   0.00069  -0.00160   0.00280   0.00121   2.04413
    R8        2.62239   0.00260  -0.00331   0.00718   0.00387   2.62625
    R9        2.04526  -0.00036  -0.00138  -0.00060  -0.00198   2.04328
   R10        2.61041  -0.00066  -0.00462   0.00011  -0.00452   2.60589
   R11        2.04294   0.00069  -0.00159   0.00279   0.00120   2.04414
   R12        2.03731   0.00113  -0.00213   0.00439   0.00226   2.03957
    A1        2.09888   0.00105   0.00195   0.00306   0.00500   2.10388
    A2        2.09867   0.00108   0.00197   0.00319   0.00515   2.10382
    A3        2.08564  -0.00212  -0.00391  -0.00625  -0.01015   2.07548
    A4        2.11446   0.00030   0.00171   0.00147   0.00319   2.11765
    A5        2.00230  -0.00214  -0.00596  -0.01182  -0.01778   1.98451
    A6        2.16643   0.00183   0.00425   0.01035   0.01460   2.18102
    A7        2.09438   0.00112   0.00161   0.00385   0.00546   2.09984
    A8        2.07897  -0.00183  -0.00235  -0.00980  -0.01215   2.06682
    A9        2.10984   0.00070   0.00074   0.00595   0.00669   2.11653
   A10        2.06308  -0.00074  -0.00272  -0.00442  -0.00715   2.05593
   A11        2.11001   0.00038   0.00137   0.00226   0.00363   2.11364
   A12        2.11010   0.00036   0.00135   0.00216   0.00352   2.11361
   A13        2.09444   0.00111   0.00160   0.00378   0.00537   2.09982
   A14        2.10985   0.00070   0.00073   0.00592   0.00666   2.11651
   A15        2.07889  -0.00181  -0.00233  -0.00970  -0.01203   2.06686
   A16        2.11437   0.00032   0.00172   0.00156   0.00328   2.11765
   A17        2.00238  -0.00216  -0.00601  -0.01193  -0.01794   1.98443
   A18        2.16644   0.00184   0.00430   0.01037   0.01466   2.18110
    D1        3.14159  -0.00000   0.00000  -0.00000   0.00000   3.14159
    D2        0.00000  -0.00000   0.00000  -0.00000   0.00000   0.00000
    D3       -0.00000   0.00000   0.00000  -0.00000   0.00000   0.00000
    D4        3.14159  -0.00000   0.00000  -0.00000   0.00000   3.14159
    D5        3.14159  -0.00000   0.00000   0.00000   0.00000   3.14159
    D6       -0.00000   0.00000   0.00000   0.00000   0.00000   0.00000
    D7        0.00000   0.00000   0.00000   0.00000  -0.00000   0.00000
    D8        3.14159  -0.00000   0.00000   0.00000   0.00000   3.14159
    D9        0.00000  -0.00000   0.00000  -0.00000   0.00000   0.00000
   D10        3.14159  -0.00000   0.00000   0.00000   0.00000   3.14159
   D11        3.14159   0.00000   0.00000   0.00000   0.00000   3.14159
   D12       -0.00000   0.00000   0.00000   0.00000   0.00000   0.00000
   D13        0.00000   0.00000   0.00000   0.00000  -0.00000   0.00000
   D14        3.14159   0.00000   0.00000   0.00000   0.00000   3.14159
   D15        3.14159   0.00000   0.00000   0.00000   0.00000   3.14159
   D16        0.00000  -0.00000   0.00000  -0.00000   0.00000   0.00000
   D17       -0.00000  -0.00000   0.00000  -0.00000   0.00000   0.00000
   D18        3.14159  -0.00000   0.00000  -0.00000   0.00000   3.14159
   D19        3.14159  -0.00000   0.00000  -0.00000   0.00000   3.14159
   D20       -0.00000   0.00000   0.00000  -0.00000   0.00000   0.00000
   D21       -0.00000   0.00000   0.00000   0.00000   0.00000   0.00000
   D22        3.14159   0.00000   0.00000   0.00000   0.00000   3.14159
   D23        3.14159   0.00000   0.00000  -0.00000   0.00000   3.14159
   D24        0.00000  -0.00000   0.00000  -0.00000   0.00000   0.00000
         Item               Value     Threshold  Converged?
 Maximum Force            0.011546     0.000450     NO 
 RMS     Force            0.002172     0.000300     NO 
 Maximum Displacement     0.014080     0.001800     NO 
 RMS     Displacement     0.006006     0.001200     NO 
 Predicted change in Energy=-3.350848D-04
 Lowest energy point so far.  Saving SCF results.
 GradGradGradGradGradGradGradGradGradGradGradGradGradGradGradGradGradGrad

 Leave Link  103 at Sun Oct 13 23:23:33 2019, MaxMem= 10737418240 cpu:               0.4 elap:               0.0
 (Enter /apps/cent7/gaussian/g16-A.03/g16-haswell/g16/l202.exe)
                          Input orientation:                          
 ---------------------------------------------------------------------
 Center     Atomic      Atomic             Coordinates (Angstroms)
 Number     Number       Type             X           Y           Z
 ---------------------------------------------------------------------
      1          8           0       -1.951274    1.151489   -0.000000
      2          7           0       -0.677110    1.162846   -0.000000
      3          6           0        0.024194   -0.001832   -0.000000
      4          6           0        1.403197   -0.008528    0.000000
      5          6           0        2.110405    1.187774    0.000000
      6          6           0        1.381909    2.371290    0.000000
      7          6           0        0.003288    2.339931   -0.000000
      8          1           0       -0.598589   -0.883322   -0.000000
      9          1           0        1.913389   -0.962360    0.000000
     10          1           0        3.191617    1.197448    0.000000
     11          1           0        1.875000    3.334077    0.000000
     12          1           0       -0.635225    3.210088   -0.000000
 ---------------------------------------------------------------------
                    Distance matrix (angstroms):
                    1          2          3          4          5
     1  O    0.000000
     2  N    1.274215   0.000000
     3  C    2.287493   1.359522   0.000000
     4  C    3.549383   2.387424   1.379019   0.000000
     5  C    4.061842   2.787627   2.401550   1.389706   0.000000
     6  C    3.549369   2.387445   2.734062   2.379913   1.389754
     7  C    2.287511   1.359585   2.341857   2.734046   2.401544
     8  H    2.443401   2.047673   1.079298   2.184585   3.409999
     9  H    4.404995   3.350699   2.119357   1.081708   2.159142
[...]
    A1        2.10537   0.00001   0.00000   0.00010   0.00010   2.10547
    A2        2.10535   0.00002   0.00000   0.00012   0.00012   2.10547
    A3        2.07247  -0.00003   0.00000  -0.00022  -0.00022   2.07225
    A4        2.11767  -0.00001   0.00000   0.00008   0.00008   2.11775
    A5        1.98206   0.00013   0.00000   0.00086   0.00086   1.98292
    A6        2.18345  -0.00011   0.00000  -0.00094  -0.00094   2.18252
    A7        2.10179  -0.00001   0.00000  -0.00008  -0.00008   2.10171
    A8        2.06404   0.00005   0.00000   0.00037   0.00037   2.06440
    A9        2.11736  -0.00004   0.00000  -0.00029  -0.00029   2.11707
   A10        2.05499   0.00009   0.00000   0.00022   0.00022   2.05521
   A11        2.11411  -0.00004   0.00000  -0.00012  -0.00012   2.11399
   A12        2.11408  -0.00004   0.00000  -0.00010  -0.00010   2.11399
   A13        2.10178  -0.00001   0.00000  -0.00008  -0.00008   2.10171
   A14        2.11734  -0.00004   0.00000  -0.00027  -0.00027   2.11707
   A15        2.06406   0.00005   0.00000   0.00034   0.00034   2.06440
   A16        2.11767  -0.00001   0.00000   0.00008   0.00008   2.11775
   A17        1.98202   0.00013   0.00000   0.00090   0.00090   1.98292
   A18        2.18350  -0.00012   0.00000  -0.00098  -0.00098   2.18252
    D1        3.14159  -0.00000   0.00000   0.00000   0.00000   3.14159
    D2        0.00000  -0.00000   0.00000  -0.00000   0.00000   0.00000
    D3       -0.00000   0.00000   0.00000   0.00000   0.00000   0.00000
    D4        3.14159  -0.00000   0.00000   0.00000   0.00000   3.14159
    D5        3.14159   0.00000   0.00000   0.00000   0.00000   3.14159
    D6       -0.00000   0.00000   0.00000   0.00000   0.00000   0.00000
    D7        0.00000   0.00000   0.00000   0.00000  -0.00000   0.00000
    D8        3.14159   0.00000   0.00000   0.00000   0.00000   3.14159
    D9        0.00000   0.00000   0.00000  -0.00000  -0.00000   0.00000
   D10        3.14159   0.00000   0.00000  -0.00000   0.00000   3.14159
   D11        3.14159  -0.00000   0.00000  -0.00000   0.00000   3.14159
   D12       -0.00000   0.00000   0.00000  -0.00000   0.00000   0.00000
   D13       -0.00000   0.00000   0.00000   0.00000   0.00000   0.00000
   D14        3.14159   0.00000   0.00000   0.00000   0.00000   3.14159
   D15        3.14159   0.00000   0.00000   0.00000   0.00000   3.14159
   D16        0.00000   0.00000   0.00000   0.00000   0.00000   0.00000
   D17        0.00000  -0.00000   0.00000   0.00000  -0.00000   0.00000
   D18        3.14159  -0.00000   0.00000   0.00000   0.00000   3.14159
   D19        3.14159   0.00000   0.00000   0.00000   0.00000   3.14159
   D20       -0.00000   0.00000   0.00000  -0.00000   0.00000   0.00000
   D21       -0.00000  -0.00000   0.00000  -0.00000   0.00000   0.00000
   D22        3.14159   0.00000   0.00000  -0.00000   0.00000   3.14159
   D23        3.14159  -0.00000   0.00000  -0.00000   0.00000   3.14159
   D24        0.00000  -0.00000   0.00000   0.00000  -0.00000   0.00000
         Item               Value     Threshold  Converged?
 Maximum Force            0.000261     0.000450     YES
 RMS     Force            0.000075     0.000300     YES
 Maximum Displacement     0.001515     0.001800     YES
 RMS     Displacement     0.000432     0.001200     YES
 Predicted change in Energy=-5.189670D-07
 Optimization completed.
    -- Stationary point found.
                           ----------------------------
                           !   Optimized Parameters   !
                           ! (Angstroms and Degrees)  !
 --------------------------                            --------------------------
 ! Name  Definition              Value          Derivative Info.                !
 --------------------------------------------------------------------------------
 ! R1    R(1,2)                  1.2694         -DE/DX =   -0.0002              !
 ! R2    R(2,3)                  1.363          -DE/DX =    0.0003              !
 ! R3    R(2,7)                  1.363          -DE/DX =    0.0003              !
 ! R4    R(3,4)                  1.3794         -DE/DX =    0.0001              !
 ! R5    R(3,8)                  1.0799         -DE/DX =    0.0                 !
 ! R6    R(4,5)                  1.39           -DE/DX =    0.0001              !
 ! R7    R(4,9)                  1.0823         -DE/DX =    0.0                 !
 ! R8    R(5,6)                  1.39           -DE/DX =    0.0001              !
 ! R9    R(5,10)                 1.0813         -DE/DX =    0.0001              !
 ! R10   R(6,7)                  1.3794         -DE/DX =    0.0001              !
 ! R11   R(6,11)                 1.0823         -DE/DX =    0.0                 !
 ! R12   R(7,12)                 1.0799         -DE/DX =    0.0                 !
 ! A1    A(1,2,3)              120.6289         -DE/DX =    0.0                 !
 ! A2    A(1,2,7)              120.6275         -DE/DX =    0.0                 !
 ! A3    A(3,2,7)              118.7436         -DE/DX =    0.0                 !
 ! A4    A(2,3,4)              121.3334         -DE/DX =    0.0                 !
 ! A5    A(2,3,8)              113.564          -DE/DX =    0.0001              !
 ! A6    A(4,3,8)              125.1026         -DE/DX =   -0.0001              !
 ! A7    A(3,4,5)              120.4236         -DE/DX =    0.0                 !
 ! A8    A(3,4,9)              118.2605         -DE/DX =    0.0                 !
 ! A9    A(5,4,9)              121.3158         -DE/DX =    0.0                 !
 ! A10   A(4,5,6)              117.7425         -DE/DX =    0.0001              !
 ! A11   A(4,5,10)             121.1295         -DE/DX =    0.0                 !
 ! A12   A(6,5,10)             121.1281         -DE/DX =    0.0                 !
 ! A13   A(5,6,7)              120.4234         -DE/DX =    0.0                 !
 ! A14   A(5,6,11)             121.3147         -DE/DX =    0.0                 !
 ! A15   A(7,6,11)             118.2619         -DE/DX =    0.0                 !
 ! A16   A(2,7,6)              121.3334         -DE/DX =    0.0                 !
 ! A17   A(2,7,12)             113.5613         -DE/DX =    0.0001              !
 ! A18   A(6,7,12)             125.1053         -DE/DX =   -0.0001              !
 ! D1    D(1,2,3,4)            180.0            -DE/DX =    0.0                 !
 ! D2    D(1,2,3,8)              0.0            -DE/DX =    0.0                 !
 ! D3    D(7,2,3,4)              0.0            -DE/DX =    0.0                 !
 ! D4    D(7,2,3,8)            180.0            -DE/DX =    0.0                 !
 ! D5    D(1,2,7,6)            180.0            -DE/DX =    0.0                 !
 ! D6    D(1,2,7,12)             0.0            -DE/DX =    0.0                 !
 ! D7    D(3,2,7,6)              0.0            -DE/DX =    0.0                 !
 ! D8    D(3,2,7,12)           180.0            -DE/DX =    0.0                 !
 ! D9    D(2,3,4,5)              0.0            -DE/DX =    0.0                 !
 ! D10   D(2,3,4,9)            180.0            -DE/DX =    0.0                 !
 ! D11   D(8,3,4,5)            180.0            -DE/DX =    0.0                 !
 ! D12   D(8,3,4,9)              0.0            -DE/DX =    0.0                 !
 ! D13   D(3,4,5,6)              0.0            -DE/DX =    0.0                 !
 ! D14   D(3,4,5,10)           180.0            -DE/DX =    0.0                 !
 ! D15   D(9,4,5,6)            180.0            -DE/DX =    0.0                 !
 ! D16   D(9,4,5,10)             0.0            -DE/DX =    0.0                 !
 ! D17   D(4,5,6,7)              0.0            -DE/DX =    0.0                 !
 ! D18   D(4,5,6,11)           180.0            -DE/DX =    0.0                 !
 ! D19   D(10,5,6,7)           180.0            -DE/DX =    0.0                 !
 ! D20   D(10,5,6,11)            0.0            -DE/DX =    0.0                 !
 ! D21   D(5,6,7,2)              0.0            -DE/DX =    0.0                 !
 ! D22   D(5,6,7,12)           180.0            -DE/DX =    0.0                 !
 ! D23   D(11,6,7,2)           180.0            -DE/DX =    0.0                 !
 ! D24   D(11,6,7,12)            0.0            -DE/DX =    0.0                 !
 --------------------------------------------------------------------------------
 GradGradGradGradGradGradGradGradGradGradGradGradGradGradGradGradGradGrad

 Leave Link  103 at Sun Oct 13 23:24:13 2019, MaxMem= 10737418240 cpu:               0.5 elap:               0.0
 (Enter /apps/cent7/gaussian/g16-A.03/g16-haswell/g16/l9999.exe)

 ----------------------------------------------------------------------

 Electric dipole moment (input orientation):
 (Debye = 10**-18 statcoulomb cm , SI units = C m)
                  (au)            (Debye)         (10**-30 SI)
   Tot        0.180895D+01      0.459789D+01      0.153369D+02
   x          0.180888D+01      0.459770D+01      0.153363D+02
   y          0.161635D-01      0.410835D-01      0.137040D+00
   z          0.000000D+00      0.000000D+00      0.000000D+00

 Dipole polarizability, Alpha (input orientation).
 (esu units = cm**3 , SI units = C**2 m**2 J**-1)
 Alpha(0;0):
               (au)            (10**-24 esu)      (10**-40 SI)
   iso        0.689812D+02      0.102220D+02      0.113735D+02
   aniso      0.513945D+02      0.761589D+01      0.847382D+01
   xx         0.967372D+02      0.143350D+02      0.159498D+02
   yx         0.216428D+00      0.320714D-01      0.356842D-01
   yy         0.724994D+02      0.107433D+02      0.119535D+02
   zx         0.000000D+00      0.000000D+00      0.000000D+00
   zy         0.000000D+00      0.000000D+00      0.000000D+00
   zz         0.377071D+02      0.558762D+01      0.621706D+01

 ----------------------------------------------------------------------

 Dipole orientation:
     8         -0.01973673          2.20876256         -3.66482477
     7         -0.01973657          2.20874412         -1.26609275
     6          0.00006700         -0.00749799          0.04612794
     6          0.00035357         -0.03956813          2.65259296
     6         -0.01973678          2.20876748          4.01046071
     6         -0.03982731          4.45712454          2.65256221
     6         -0.03954051          4.42502841          0.04612318
     1          0.01485538         -1.66248460         -1.14786680
     1          0.01655506         -1.85269718          3.59872249
     1         -0.01973705          2.20879854          6.05381395
     1         -0.05602867          6.27023897          3.59871517
     1         -0.05432831          6.07995021         -1.14796749

 Electric dipole moment (dipole orientation):
 (Debye = 10**-18 statcoulomb cm , SI units = C m)
                  (au)            (Debye)         (10**-30 SI)
   Tot        0.180895D+01      0.459789D+01      0.153369D+02
   x          0.000000D+00      0.000000D+00      0.000000D+00
   y          0.000000D+00      0.000000D+00      0.000000D+00
   z          0.180895D+01      0.459789D+01      0.153369D+02

 Dipole polarizability, Alpha (dipole orientation).
 (esu units = cm**3 , SI units = C**2 m**2 J**-1)
 Alpha(0;0):
               (au)            (10**-24 esu)      (10**-40 SI)
   iso        0.689812D+02      0.102220D+02      0.113735D+02
   aniso      0.513945D+02      0.761589D+01      0.847382D+01
   xx         0.377099D+02      0.558803D+01      0.621752D+01
   yx        -0.310849D+00     -0.460631D-01     -0.512521D-01
   yy         0.724947D+02      0.107426D+02      0.119528D+02
   zx         0.000000D+00      0.000000D+00      0.000000D+00
   zy        -0.169602D-03     -0.251324D-04     -0.279635D-04
   zz         0.967391D+02      0.143353D+02      0.159501D+02

 ----------------------------------------------------------------------
 1\1\GINC-BROWN-A054\Freq\RM062X\6-311++G(d,p)\C5H5N1O1\FINEJ\13-Oct-20
 19\0\\#P Geom=AllCheck Guess=TCheck SCRF=Check GenChk RM062X/6-311++G(
 d,p) Freq\\Title Card Required\\0,1\O,-1.9497085572,1.1514982227,0.\N,
 -0.6804048242,1.1628305176,0.\C,0.0244443348,-0.0037496558,0.\C,1.4038
 228054,-0.0083961542,0.\C,2.1117154404,1.1877922911,0.\C,1.382543732,2
 .3711509861,0.\C,0.0034824236,2.3418422793,0.\H,-0.5995395708,-0.88517
 6487,0.\H,1.9130464659,-0.9633890917,0.\H,3.192968096,1.1974704271,0.\
 H,1.8746329428,3.335083568,0.\H,-0.6362032887,3.2119430966,0.\\Version
 =ES64L-G16RevA.03\State=1-A'\HF=-323.3951151\RMSD=6.332e-10\RMSF=9.720
 e-05\ZeroPoint=0.0933723\Thermal=0.0933723\Dipole=1.8088755,0.0161635,
 0.\DipoleDeriv=-1.9397944,-0.0141887,0.,-0.0142001,-0.3500092,0.,0.,0.
 ,-0.3765084,2.0128344,0.0179757,0.,0.0179592,-0.0007235,0.,0.,0.,0.055
 5675,-0.2429225,0.0200764,0.,0.4637069,0.0630891,0.,0.,0.,-0.0365155,0
 .1526346,0.0249827,0.,-0.0631202,0.0853628,0.,0.,0.,-0.1230371,-0.1251
 313,0.0003215,0.,0.0003183,-0.1615217,0.,0.,0.,-0.1124833,0.151911,-0.
 0237951,0.,0.0643066,0.0860657,0.,0.,0.,-0.1230349,-0.2341521,-0.02538
 39,0.,-0.4689717,0.0543661,0.,0.,0.,-0.0365144,0.0512625,-0.0147422,0.
 ,0.0116942,0.0750271,0.,0.,0.,0.1551374,0.0725103,0.0426206,0.,0.04571
 17,-0.0011317,0.,0.,0.,0.1453689,-0.0244372,-0.0009072,0.,-0.0009099,0
 .077079,0.,0.,0.,0.1515135,0.0740647,-0.0412796,0.,-0.0443645,-0.00268
 26,0.,0.,0.,0.1453687,0.05122,0.0143198,0.,-0.0121305,0.0750789,0.,0.,
 0.,0.1551376\Polar=96.7371667,0.2164282,72.4993642,0.,0.,37.7071239\Qu
 adrupole=-4.5965228,6.3557199,-1.7591971,-0.0978695,0.,0.\PG=CS [SG(C5
 H5N1O1)]\NImag=0\\0.51977850,0.00378057,0.09657726,0.,0.,0.02967442,-0
 .38959038,-0.00256937,0.,0.75232566,-0.00257023,-0.10188768,0.,0.00046
 717,0.69777980,0.,0.,-0.06036375,0.,0.,0.18125116,-0.06713261,0.061236
 04,0.,-0.16417637,-0.00421082,0.,0.78604592,0.04053946,0.00420550,0.,0
 .06690216,-0.26820193,0.,0.08307034,0.69979216,0.,0.,0.01423565,0.,0.,
 -0.06610740,0.,0.,0.11379359,0.00703854,-0.01165021,0.,-0.03135619,0.1
 0759017,0.,-0.36843564,-0.04408818,0.,0.70718205,-0.00350696,-0.011342
 79,0.,0.04214504,0.05190551,0.,0.02858832,-0.13752731,0.,-0.03363071,0
 .74865305,0.,0.,0.00643287,0.,0.,-0.00408478,0.,0.,-0.04781223,0.,0.,0
 .12335680,-0.01260017,-0.00023557,0.,0.01465351,0.00105922,0.,-0.02934
 003,-0.02839643,0.,-0.18814132,-0.13290207,0.,0.77363856,-0.00023546,0
 .01378433,0.,0.00106057,-0.10392058,0.,-0.08828632,0.04381060,0.,-0.05
 432193,-0.28856055,0.,0.00102273,0.66198414,0.,0.,-0.00085907,0.,0.,-0
 .00476120,0.,0.,0.00285515,0.,0.,-0.05286756,0.,0.,0.11784711,0.006761
 58,0.01197338,0.,-0.02865141,-0.10902937,0.,-0.06173074,0.03448766,0.,
 0.07728776,0.03059069,0.,-0.19150821,0.05603577,0.,0.70602070,0.003829
 33,-0.01106625,0.,-0.04358475,0.04920273,0.,0.03359386,-0.02351314,0.,
 -0.02809387,-0.06234253,0.,0.13461648,-0.28514896,0.,0.03289602,0.7498
 0522,0.,0.,0.00643225,0.,0.,-0.00408468,0.,0.,0.00142811,0.,0.,0.00067
 998,0.,0.,-0.05287011,0.,0.,0.12335633,-0.06529243,-0.06247780,0.,-0.1
 6307692,0.00610791,0.,0.07339638,-0.02787683,0.,-0.06050110,-0.0342551
 6,0.,-0.03140150,0.08694054,0.,-0.36867469,-0.03272090,0.,0.78902291,-
 0.04177995,0.00236374,0.,-0.06500754,-0.26925838,0.,0.03027570,-0.0607
 1105,0.,-0.03514901,-0.02474241,0.,0.02705195,0.04587279,0.,0.03995284
 ,-0.13732348,0.,-0.08149495,0.69680129,0.,0.,0.01423563,0.,0.,-0.06611
 042,0.,0.,0.00103544,0.,0.,0.00142842,0.,0.,0.00285480,0.,0.,-0.047809
 38,0.,0.,0.11379499,0.00080826,0.00005006,0.,0.01107263,0.02029452,0.,
 -0.15804427,-0.14947377,0.,-0.00769504,-0.02312222,0.,-0.00485024,0.00
 192573,0.,-0.00008664,0.00064760,0.,-0.00232530,0.00237467,0.,0.160330
 09,-0.00241889,0.00332741,0.,-0.01772012,-0.02939465,0.,-0.13663170,-0
 .25438573,0.,0.00280347,0.00762935,0.,0.00166048,0.00156096,0.,0.00096
 132,0.00002049,0.,0.00471412,-0.00213359,0.,0.14760977,0.27365914,0.,0
 .,-0.00396717,0.,0.,0.00310801,0.,0.,-0.03217510,0.,0.,0.00173395,0.,0
 .,0.00791326,0.,0.,-0.00120755,0.,0.,0.00557469,0.,0.,0.02331709,-0.00
 062518,0.00130174,0.,-0.00605831,-0.00131168,0.,-0.00825654,0.02912475
 ,0.,-0.12455902,0.12046341,0.,0.01304104,-0.01473491,0.,-0.00086279,-0
 .00367854,0.,-0.00092221,-0.00101570,0.,0.00053161,-0.00042957,0.,0.12
 662074,0.00041336,-0.00001163,0.,-0.00221346,0.00247426,0.,-0.00161661
 ,0.00326574,0.,0.12173798,-0.28491620,0.,0.01512033,-0.01596395,0.,-0.
 00366241,-0.00367343,0.,-0.00109922,0.00029111,0.,0.00020963,0.0003247
 9,0.,-0.12967995,0.29816302,0.,0.,-0.00047322,0.,0.,0.00954392,0.,0.,0
 .00061508,0.,0.,-0.03645889,0.,0.,0.00279282,0.,0.,0.00733366,0.,0.,-0
 .00109002,0.,0.,-0.00382643,0.,0.,0.02615244,0.00068185,-0.00000038,0.
 ,-0.00012914,0.00001500,0.,0.00083213,-0.00290666,0.,-0.00976730,0.002
 55212,0.,-0.35174644,-0.00262077,0.,-0.01021696,-0.00282054,0.,0.00073
 563,0.00300577,0.,-0.00042265,0.00029558,0.,0.00050523,-0.00011784,0.,
 0.36945124,-0.00000043,0.00072358,0.,0.00001500,-0.00180334,0.,-0.0023
 8027,-0.00480261,0.,-0.02794525,0.00479367,0.,-0.00262105,-0.05895188,
 0.,0.02767707,0.00524265,0.,0.00247939,-0.00470651,0.,-0.00120316,0.00
 034218,0.,0.00065684,0.00087414,0.,0.00279590,0.05706553,0.,0.,-0.0009
 0755,0.,0.,-0.00104373,0.,0.,0.00764743,0.,0.,0.00146601,0.,0.,-0.0336
 1166,0.,0.,0.00146585,0.,0.,0.00764684,0.,0.,0.00011953,0.,0.,-0.00378
 482,0.,0.,0.02466695,-0.00059446,-0.00131213,0.,-0.00611812,0.00115820
 ,0.,-0.00095964,0.00099318,0.,-0.00099503,0.00372647,0.,0.01303854,0.0
 1525347,0.,-0.12028606,-0.11752505,0.,-0.00776082,-0.02932157,0.,0.000
 05133,-0.00008781,0.,0.00053743,0.00080951,0.,0.00051501,-0.00066319,0
 .,0.12204419,-0.00042381,-0.00004244,0.,0.00205997,0.00253454,0.,0.001
 07688,0.00032856,0.,0.00371031,-0.00354153,0.,-0.01460197,-0.01596167,
 0.,-0.11879894,-0.28919173,0.,0.00141948,0.00277081,0.,-0.00009794,0.0
 0000760,0.,-0.00078490,-0.00083879,0.,0.00011139,0.00086439,0.,0.12653
 560,0.30274161,0.,0.,-0.00047329,0.,0.,0.00954472,0.,0.,-0.00109001,0.
 ,0.,0.00733308,0.,0.,0.00279255,0.,0.,-0.03645822,0.,0.,0.00061500,0.,
 0.,-0.00075455,0.,0.,-0.00005001,0.,0.,-0.00378437,0.,0.,0.02615189,0.
 00076650,-0.00009632,0.,0.01110503,-0.01957008,0.,-0.00219860,-0.00237
 568,0.,-0.00005772,-0.00064892,0.,-0.00478373,-0.00203942,0.,-0.008052
 53,0.02284038,0.,-0.16319996,0.15110778,0.,0.00063022,-0.00075666,0.,0
 .00004800,0.00009868,0.,-0.00043861,0.00118916,0.,0.00052763,-0.000206
 07,0.,0.16565377,0.00237301,0.00336898,0.,0.01844533,-0.02943030,0.,-0
 .00471542,-0.00226079,0.,-0.00096277,-0.00000827,0.,-0.00177410,0.0014
 9476,0.,-0.00308404,0.00798842,0.,0.13826344,-0.24922433,0.,0.00078510
 ,-0.00095795,0.,0.00008853,0.00001094,0.,-0.00030956,0.00035821,0.,0.0
 0043332,0.00032865,0.,-0.14954284,0.26833168,0.,0.,-0.00396677,0.,0.,0
 .00310817,0.,0.,0.00557428,0.,0.,-0.00120766,0.,0.,0.00791390,0.,0.,0.
 00173377,0.,0.,-0.03217600,0.,0.,0.00016427,0.,0.,-0.00075453,0.,0.,0.
 00011952,0.,0.,-0.00382679,0.,0.,0.02331786\\-0.00020969,-0.00000049,0
 .,0.00040669,-0.00000255,0.,0.00010594,0.00011180,0.,-0.00004657,0.000
 13139,0.,0.00005485,-0.00000758,0.,-0.00005353,-0.00012432,0.,0.000119
 74,-0.00010279,0.,-0.00009759,0.00006900,0.,-0.00005773,0.00001966,0.,
 -0.00006549,0.00000035,0.,-0.00005612,-0.00002209,0.,-0.00010051,-0.00
 007238,0.\\\@


 HE THAT WALD REACHE THE SWEITE ROSE
 SULD NOW AND THEN BE SCRATCHED WT THE SCHARPE BREERES.
 -- PROVERBS AND REASONS OF THE YEAR 1585
           AS REPRINTED IN PAISLEY MAGAZINE 1828.
 Job cpu time:       0 days  0 hours 10 minutes 59.2 seconds.
 Elapsed time:       0 days  0 hours  0 minutes 28.2 seconds.
 File lengths (MBytes):  RWF=     46 Int=      0 D2E=      0 Chk=      4 Scr=      1
 Normal termination of Gaussian 16 at Sun Oct 13 23:24:13 2019.
real 53.23
user 1080.79
sys 14.88
Machine:
brown-a054
brown-a054
brown-a054
brown-a054
brown-a054
brown-a054
brown-a054
brown-a054
brown-a054
brown-a054
brown-a054
brown-a054
brown-a054
brown-a054
brown-a054
brown-a054
brown-a054
brown-a054
brown-a054
brown-a054
brown-a054
brown-a054
brown-a054
brown-a054
