Title Card Required                                                     
Freq      RM062X                                                      6-311++G(d,p)       
Number of atoms                            I               13
Info1-9                                    I   N=           9
          36          36        1002           0           0         100
           6          18        -502
Full Title                                 C   N=           2
Title Card Required     
Route                                      C   N=           6
#p opt freq m062x/6-311++g(d,p) geom=connectivity temperatur
e=0.001     
Charge                                     I                1
Multiplicity                               I                1
Number of electrons                        I               50
Number of alpha electrons                  I               25
Number of beta electrons                   I               25
Number of basis functions                  I              196
Number of independent functions            I              196
Number of point charges in /Mol/           I                0
Number of translation vectors              I                0
Atomic numbers                             I   N=          13
           8           7           6           6           6           6
           6           1           1           1           1           1
           1
Nuclear charges                            R   N=          13
  8.00000000E+00  7.00000000E+00  6.00000000E+00  6.00000000E+00  6.00000000E+00
  6.00000000E+00  6.00000000E+00  1.00000000E+00  1.00000000E+00  1.00000000E+00
  1.00000000E+00  1.00000000E+00  1.00000000E+00
Current cartesian coordinates              R   N=          39
 -4.21611826E+00 -5.13477228E-05 -1.91873564E-01 -1.63543299E+00  6.34379850E-06
  1.57303352E-02 -4.41218925E-01 -2.24230238E+00 -1.56388775E-02  2.16517030E+00
 -2.27828605E+00  7.24207789E-03  3.48151445E+00 -8.22035512E-06  2.31162328E-02
  2.16525720E+00  2.27825813E+00  7.24215030E-03 -4.41192371E-01  2.24232863E+00
 -1.56142578E-02 -1.64801177E+00 -3.89253647E+00 -7.01910202E-02  3.13256102E+00
 -4.07892350E+00 -7.25100245E-03  5.52866453E+00 -7.05363990E-05  3.08410594E-02
  3.13265725E+00  4.07889146E+00 -7.38890703E-03 -1.64799756E+00  3.89254553E+00
 -7.03519553E-02 -4.89808041E+00  5.19213693E-04  1.51113403E+00
Number of symbols in /Mol/                 I                0
Force Field                                I                0
Atom Types                                 C   N=          13
                                                            
                                                            
                                    
Int Atom Types                             I   N=          13
           0           0           0           0           0           0
           0           0           0           0           0           0
           0
MM charges                                 R   N=          13
  0.00000000E+00  0.00000000E+00  0.00000000E+00  0.00000000E+00  0.00000000E+00
  0.00000000E+00  0.00000000E+00  0.00000000E+00  0.00000000E+00  0.00000000E+00
  0.00000000E+00  0.00000000E+00  0.00000000E+00
Integer atomic weights                     I   N=          13
          16          14          12          12          12          12
          12           1           1           1           1           1
           1
Real atomic weights                        R   N=          13
  1.59949146E+01  1.40030740E+01  1.20000000E+01  1.20000000E+01  1.20000000E+01
  1.20000000E+01  1.20000000E+01  1.00782504E+00  1.00782504E+00  1.00782504E+00
  1.00782504E+00  1.00782504E+00  1.00782504E+00
Atom fragment info                         I   N=          13
           0           0           0           0           0           0
           0           0           0           0           0           0
           0
Atom residue num                           I   N=          13
           0           0           0           0           0           0
           0           0           0           0           0           0
           0
Nuclear spins                              I   N=          13
           0           2           0           0           0           0
           0           1           1           1           1           1
           1
Nuclear ZEff                               R   N=          13
 -5.60000000E+00 -4.55000000E+00 -3.60000000E+00 -3.60000000E+00 -3.60000000E+00
 -3.60000000E+00 -3.60000000E+00 -1.00000000E+00 -1.00000000E+00 -1.00000000E+00
 -1.00000000E+00 -1.00000000E+00 -1.00000000E+00
Nuclear ZNuc                               R   N=          13
  8.00000000E+00  7.00000000E+00  6.00000000E+00  6.00000000E+00  6.00000000E+00
  6.00000000E+00  6.00000000E+00  1.00000000E+00  1.00000000E+00  1.00000000E+00
  1.00000000E+00  1.00000000E+00  1.00000000E+00
Nuclear QMom                               R   N=          13
  0.00000000E+00  2.04400000E+00  0.00000000E+00  0.00000000E+00  0.00000000E+00
  0.00000000E+00  0.00000000E+00  0.00000000E+00  0.00000000E+00  0.00000000E+00
  0.00000000E+00  0.00000000E+00  0.00000000E+00
Nuclear GFac                               R   N=          13
  0.00000000E+00  4.03761000E-01  0.00000000E+00  0.00000000E+00  0.00000000E+00
  0.00000000E+00  0.00000000E+00  2.79284600E+00  2.79284600E+00  2.79284600E+00
  2.79284600E+00  2.79284600E+00  2.79284600E+00
MicOpt                                     I   N=          13
          -1          -1          -1          -1          -1          -1
          -1          -1          -1          -1          -1          -1
          -1
Number of residues                         I                0
Number of secondary structures             I                0
Redundant internal dimensions              I   N=           4
          58          13          19          26
Redundant internal coordinate indices      I   N=         232
           1           2           0           0           1          13
           0           0           2           3           0           0
           2           7           0           0           3           4
           0           0           3           8           0           0
           4           5           0           0           4           9
           0           0           5           6           0           0
           5          10           0           0           6           7
           0           0           6          11           0           0
           7          12           0           0           2           1
          13           0           1           2           3           0
           1           2           7           0           3           2
           7           0           2           3           4           0
           2           3           8           0           4           3
           8           0           3           4           5           0
           3           4           9           0           5           4
           9           0           4           5           6           0
           4           5          10           0           6           5
          10           0           5           6           7           0
           5           6          11           0           7           6
          11           0           2           7           6           0
           2           7          12           0           6           7
          12           0          13           1           2           3
          13           1           2           7           1           2
           3           4           1           2           3           8
           7           2           3           4           7           2
           3           8           1           2           7           6
           1           2           7          12           3           2
           7           6           3           2           7          12
           2           3           4           5           2           3
           4           9           8           3           4           5
           8           3           4           9           3           4
           5           6           3           4           5          10
           9           4           5           6           9           4
           5          10           4           5           6           7
           4           5           6          11          10           5
           6           7          10           5           6          11
           5           6           7           2           5           6
           7          12          11           6           7           2
          11           6           7          12
Redundant internal coordinates             R   N=          58
  2.58902218E+00  1.83447747E+00  2.54068488E+00  2.54070903E+00  2.60673803E+00
  2.04513996E+00  2.63126657E+00  2.04410129E+00  2.63121316E+00  2.04716465E+00
  2.60679741E+00  2.04410306E+00  2.04513833E+00  1.87141449E+00  2.05727162E+00
  2.05732375E+00  2.16255502E+00  2.07378701E+00  2.02096117E+00  2.18841444E+00
  2.08094148E+00  2.07749579E+00  2.12469395E+00  2.09371353E+00  2.09469882E+00
  2.09473329E+00  2.08093614E+00  2.12471558E+00  2.07747885E+00  2.07377298E+00
  2.02094446E+00  2.18844436E+00  1.62771812E+00 -1.62704408E+00  3.06100530E+00
 -7.37381691E-02  3.99802725E-02 -3.09476320E+00 -3.06099050E+00  7.36307047E-02
 -3.99688162E-02  3.09465239E+00 -1.69216897E-02  3.13565111E+00  3.11710669E+00
 -1.35058108E-02 -3.75877439E-03 -3.13578230E+00  3.12654554E+00 -5.47798406E-03
  3.76978050E-03 -3.12646636E+00  3.13579311E+00  5.55697411E-03  1.68994001E-02
 -3.11699373E+00 -3.13573946E+00  1.35527121E-02
ZRed-IntVec                                I   N=          58
           0           0           0           0           0           0
           0           0           0           0           0           0
           0           0           0           0           0           0
           0           0           0           0           0           0
           0           0           0           0           0           0
           0           0           0           0           0           0
           0           0           0           0           0           0
           0           0           0           0           0           0
           0           0           0           0           0           0
           0           0           0           0
ZRed-FPVec                                 R   N=          58
  0.00000000E+00  0.00000000E+00  0.00000000E+00  0.00000000E+00  0.00000000E+00
  0.00000000E+00  0.00000000E+00  0.00000000E+00  0.00000000E+00  0.00000000E+00
  0.00000000E+00  0.00000000E+00  0.00000000E+00  0.00000000E+00  0.00000000E+00
  0.00000000E+00  0.00000000E+00  0.00000000E+00  0.00000000E+00  0.00000000E+00
  0.00000000E+00  0.00000000E+00  0.00000000E+00  0.00000000E+00  0.00000000E+00
  0.00000000E+00  0.00000000E+00  0.00000000E+00  0.00000000E+00  0.00000000E+00
  0.00000000E+00  0.00000000E+00  0.00000000E+00  0.00000000E+00  0.00000000E+00
  0.00000000E+00  0.00000000E+00  0.00000000E+00  0.00000000E+00  0.00000000E+00
  0.00000000E+00  0.00000000E+00  0.00000000E+00  0.00000000E+00  0.00000000E+00
  0.00000000E+00  0.00000000E+00  0.00000000E+00  0.00000000E+00  0.00000000E+00
  0.00000000E+00  0.00000000E+00  0.00000000E+00  0.00000000E+00  0.00000000E+00
  0.00000000E+00  0.00000000E+00  0.00000000E+00
ZRed-Constraint1                           R   N=          58
  2.58902218E+00  1.83447747E+00  2.54068488E+00  2.54070903E+00  2.60673803E+00
  2.04513996E+00  2.63126657E+00  2.04410129E+00  2.63121316E+00  2.04716465E+00
  2.60679741E+00  2.04410306E+00  2.04513833E+00  1.87141449E+00  2.05727162E+00
  2.05732375E+00  2.16255502E+00  2.07378701E+00  2.02096117E+00  2.18841444E+00
  2.08094148E+00  2.07749579E+00  2.12469395E+00  2.09371353E+00  2.09469882E+00
  2.09473329E+00  2.08093614E+00  2.12471558E+00  2.07747885E+00  2.07377298E+00
  2.02094446E+00  2.18844436E+00  1.62771812E+00 -1.62704408E+00  3.06100530E+00
 -7.37381691E-02  3.99802725E-02 -3.09476320E+00 -3.06099050E+00  7.36307047E-02
 -3.99688162E-02  3.09465239E+00 -1.69216897E-02  3.13565111E+00  3.11710669E+00
 -1.35058108E-02 -3.75877439E-03 -3.13578230E+00  3.12654554E+00 -5.47798406E-03
  3.76978050E-03 -3.12646636E+00  3.13579311E+00  5.55697411E-03  1.68994001E-02
 -3.11699373E+00 -3.13573946E+00  1.35527121E-02
ZRed-Constraint2                           R   N=          58
  2.57002751E+00  1.81413707E+00  2.45658094E+00  2.79039537E+00  2.91000353E+00
  2.02200694E+00  2.54858938E+00  2.02200696E+00  2.89831385E+00  2.02200697E+00
  2.56173162E+00  2.02200695E+00  2.02200695E+00  1.91063324E+00  2.08399466E+00
  2.08399511E+00  2.11493019E+00  2.10545300E+00  2.08886606E+00  2.08886623E+00
  2.08249603E+00  2.10034469E+00  2.10034456E+00  2.07286641E+00  2.10515941E+00
  2.10515942E+00  2.08519683E+00  2.09899416E+00  2.09899431E+00  2.10537709E+00
  2.08890403E+00  2.08890417E+00  2.10662468E+00 -1.05942712E+00  3.12738762E+00
 -1.44295462E-02  1.07002448E-02 -3.13111692E+00 -3.12754745E+00  1.42673551E-02
 -1.08600876E-02  3.13095472E+00 -4.31461637E-03  3.13747849E+00  3.13750255E+00
 -3.88965553E-03 -2.18972146E-03  3.13980197E+00  3.13920248E+00 -1.99113922E-03
  2.02620755E-03 -3.13936784E+00 -3.13996548E+00  1.82578335E-03  4.12807769E-03
 -3.13768673E+00 -3.13766319E+00  3.70731351E-03
SymInf integers                            I   N=          26
           1           1           1           1           1           0
           0           0           0           0           0           0
           0           0           0           0           0           0
           0           0           0           0           0           0
           0           0
RotTr to input orientation                 R   N=          12
  9.99899751E-01 -1.11049680E-02 -8.78454714E-03  1.10047554E-02  9.99874744E-01
 -1.13750743E-02  8.90976665E-03  1.12772622E-02  9.99896714E-01  4.73238998E-01
  2.28508033E+00  2.34971115E-02
Number of contracted shells                I               72
Number of primitive shells                 I              133
Pure/Cartesian d shells                    I                0
Pure/Cartesian f shells                    I                0
Highest angular momentum                   I                2
Largest degree of contraction              I                6
Shell types                                I   N=          72
           0          -1          -1          -1          -1          -2
           0          -1          -1          -1          -1          -2
           0          -1          -1          -1          -1          -2
           0          -1          -1          -1          -1          -2
           0          -1          -1          -1          -1          -2
           0          -1          -1          -1          -1          -2
           0          -1          -1          -1          -1          -2
           0           0           0           0           1           0
           0           0           0           1           0           0
           0           0           1           0           0           0
           0           1           0           0           0           0
           1           0           0           0           0           1
Number of primitives per shell             I   N=          72
           6           3           1           1           1           1
           6           3           1           1           1           1
           6           3           1           1           1           1
           6           3           1           1           1           1
           6           3           1           1           1           1
           6           3           1           1           1           1
           6           3           1           1           1           1
           3           1           1           1           1           3
           1           1           1           1           3           1
           1           1           1           3           1           1
           1           1           3           1           1           1
           1           3           1           1           1           1
Shell to atom map                          I   N=          72
           1           1           1           1           1           1
           2           2           2           2           2           2
           3           3           3           3           3           3
           4           4           4           4           4           4
           5           5           5           5           5           5
           6           6           6           6           6           6
           7           7           7           7           7           7
           8           8           8           8           8           9
           9           9           9           9          10          10
          10          10          10          11          11          11
          11          11          12          12          12          12
          12          13          13          13          13          13
Primitive exponents                        R   N=         133
  8.58850000E+03  1.29723000E+03  2.99296000E+02  8.73771000E+01  2.56789000E+01
  3.74004000E+00  4.21175000E+01  9.62837000E+00  2.85332000E+00  9.05661000E-01
  2.55611000E-01  8.45000000E-02  1.29200000E+00  6.29348000E+03  9.49044000E+02
  2.18776000E+02  6.36916000E+01  1.88282000E+01  2.72023000E+00  3.06331000E+01
  7.02614000E+00  2.11205000E+00  6.84009000E-01  2.00878000E-01  6.39000000E-02
  9.13000000E-01  4.56324000E+03  6.82024000E+02  1.54973000E+02  4.44553000E+01
  1.30290000E+01  1.82773000E+00  2.09642000E+01  4.80331000E+00  1.45933000E+00
  4.83456000E-01  1.45585000E-01  4.38000000E-02  6.26000000E-01  4.56324000E+03
  6.82024000E+02  1.54973000E+02  4.44553000E+01  1.30290000E+01  1.82773000E+00
  2.09642000E+01  4.80331000E+00  1.45933000E+00  4.83456000E-01  1.45585000E-01
  4.38000000E-02  6.26000000E-01  4.56324000E+03  6.82024000E+02  1.54973000E+02
  4.44553000E+01  1.30290000E+01  1.82773000E+00  2.09642000E+01  4.80331000E+00
  1.45933000E+00  4.83456000E-01  1.45585000E-01  4.38000000E-02  6.26000000E-01
  4.56324000E+03  6.82024000E+02  1.54973000E+02  4.44553000E+01  1.30290000E+01
  1.82773000E+00  2.09642000E+01  4.80331000E+00  1.45933000E+00  4.83456000E-01
  1.45585000E-01  4.38000000E-02  6.26000000E-01  4.56324000E+03  6.82024000E+02
  1.54973000E+02  4.44553000E+01  1.30290000E+01  1.82773000E+00  2.09642000E+01
  4.80331000E+00  1.45933000E+00  4.83456000E-01  1.45585000E-01  4.38000000E-02
  6.26000000E-01  3.38650000E+01  5.09479000E+00  1.15879000E+00  3.25840000E-01
  1.02741000E-01  3.60000000E-02  7.50000000E-01  3.38650000E+01  5.09479000E+00
  1.15879000E+00  3.25840000E-01  1.02741000E-01  3.60000000E-02  7.50000000E-01
  3.38650000E+01  5.09479000E+00  1.15879000E+00  3.25840000E-01  1.02741000E-01
  3.60000000E-02  7.50000000E-01  3.38650000E+01  5.09479000E+00  1.15879000E+00
  3.25840000E-01  1.02741000E-01  3.60000000E-02  7.50000000E-01  3.38650000E+01
  5.09479000E+00  1.15879000E+00  3.25840000E-01  1.02741000E-01  3.60000000E-02
  7.50000000E-01  3.38650000E+01  5.09479000E+00  1.15879000E+00  3.25840000E-01
  1.02741000E-01  3.60000000E-02  7.50000000E-01
Contraction coefficients                   R   N=         133
  1.89515008E-03  1.43859006E-02  7.07320031E-02  2.40001011E-01  5.94797026E-01
  2.80802012E-01  1.13889012E-01  9.20811101E-01 -3.27447036E-03  1.00000000E+00
  1.00000000E+00  1.00000000E+00  1.00000000E+00  1.96978815E-03  1.49612859E-02
  7.35005308E-02  2.48936766E-01  6.02459433E-01  2.56201759E-01  1.11906080E-01
  9.21666655E-01 -2.56919183E-03  1.00000000E+00  1.00000000E+00  1.00000000E+00
  1.00000000E+00  1.96665025E-03  1.52306019E-02  7.61269097E-02  2.60801033E-01
  6.16462078E-01  2.21006028E-01  1.14660081E-01  9.19999648E-01 -3.03068213E-03
  1.00000000E+00  1.00000000E+00  1.00000000E+00  1.00000000E+00  1.96665025E-03
  1.52306019E-02  7.61269097E-02  2.60801033E-01  6.16462078E-01  2.21006028E-01
  1.14660081E-01  9.19999648E-01 -3.03068213E-03  1.00000000E+00  1.00000000E+00
  1.00000000E+00  1.00000000E+00  1.96665025E-03  1.52306019E-02  7.61269097E-02
  2.60801033E-01  6.16462078E-01  2.21006028E-01  1.14660081E-01  9.19999648E-01
 -3.03068213E-03  1.00000000E+00  1.00000000E+00  1.00000000E+00  1.00000000E+00
  1.96665025E-03  1.52306019E-02  7.61269097E-02  2.60801033E-01  6.16462078E-01
  2.21006028E-01  1.14660081E-01  9.19999648E-01 -3.03068213E-03  1.00000000E+00
  1.00000000E+00  1.00000000E+00  1.00000000E+00  1.96665025E-03  1.52306019E-02
  7.61269097E-02  2.60801033E-01  6.16462078E-01  2.21006028E-01  1.14660081E-01
  9.19999648E-01 -3.03068213E-03  1.00000000E+00  1.00000000E+00  1.00000000E+00
  1.00000000E+00  2.54938145E-02  1.90373109E-01  8.52161486E-01  1.00000000E+00
  1.00000000E+00  1.00000000E+00  1.00000000E+00  2.54938145E-02  1.90373109E-01
  8.52161486E-01  1.00000000E+00  1.00000000E+00  1.00000000E+00  1.00000000E+00
  2.54938145E-02  1.90373109E-01  8.52161486E-01  1.00000000E+00  1.00000000E+00
  1.00000000E+00  1.00000000E+00  2.54938145E-02  1.90373109E-01  8.52161486E-01
  1.00000000E+00  1.00000000E+00  1.00000000E+00  1.00000000E+00  2.54938145E-02
  1.90373109E-01  8.52161486E-01  1.00000000E+00  1.00000000E+00  1.00000000E+00
  1.00000000E+00  2.54938145E-02  1.90373109E-01  8.52161486E-01  1.00000000E+00
  1.00000000E+00  1.00000000E+00  1.00000000E+00
P(S=P) Contraction coefficients            R   N=         133
  0.00000000E+00  0.00000000E+00  0.00000000E+00  0.00000000E+00  0.00000000E+00
  0.00000000E+00  3.65113974E-02  2.37152983E-01  8.19701941E-01  1.00000000E+00
  1.00000000E+00  1.00000000E+00  0.00000000E+00  0.00000000E+00  0.00000000E+00
  0.00000000E+00  0.00000000E+00  0.00000000E+00  0.00000000E+00  3.83119186E-02
  2.37403116E-01  8.17592398E-01  1.00000000E+00  1.00000000E+00  1.00000000E+00
  0.00000000E+00  0.00000000E+00  0.00000000E+00  0.00000000E+00  0.00000000E+00
  0.00000000E+00  0.00000000E+00  4.02486927E-02  2.37593957E-01  8.15853851E-01
  1.00000000E+00  1.00000000E+00  1.00000000E+00  0.00000000E+00  0.00000000E+00
  0.00000000E+00  0.00000000E+00  0.00000000E+00  0.00000000E+00  0.00000000E+00
  4.02486927E-02  2.37593957E-01  8.15853851E-01  1.00000000E+00  1.00000000E+00
  1.00000000E+00  0.00000000E+00  0.00000000E+00  0.00000000E+00  0.00000000E+00
  0.00000000E+00  0.00000000E+00  0.00000000E+00  4.02486927E-02  2.37593957E-01
  8.15853851E-01  1.00000000E+00  1.00000000E+00  1.00000000E+00  0.00000000E+00
  0.00000000E+00  0.00000000E+00  0.00000000E+00  0.00000000E+00  0.00000000E+00
  0.00000000E+00  4.02486927E-02  2.37593957E-01  8.15853851E-01  1.00000000E+00
  1.00000000E+00  1.00000000E+00  0.00000000E+00  0.00000000E+00  0.00000000E+00
  0.00000000E+00  0.00000000E+00  0.00000000E+00  0.00000000E+00  4.02486927E-02
  2.37593957E-01  8.15853851E-01  1.00000000E+00  1.00000000E+00  1.00000000E+00
  0.00000000E+00  0.00000000E+00  0.00000000E+00  0.00000000E+00  0.00000000E+00
  0.00000000E+00  0.00000000E+00  0.00000000E+00  0.00000000E+00  0.00000000E+00
  0.00000000E+00  0.00000000E+00  0.00000000E+00  0.00000000E+00  0.00000000E+00
  0.00000000E+00  0.00000000E+00  0.00000000E+00  0.00000000E+00  0.00000000E+00
  0.00000000E+00  0.00000000E+00  0.00000000E+00  0.00000000E+00  0.00000000E+00
  0.00000000E+00  0.00000000E+00  0.00000000E+00  0.00000000E+00  0.00000000E+00
  0.00000000E+00  0.00000000E+00  0.00000000E+00  0.00000000E+00  0.00000000E+00
  0.00000000E+00  0.00000000E+00  0.00000000E+00  0.00000000E+00  0.00000000E+00
  0.00000000E+00  0.00000000E+00  0.00000000E+00
Coordinates of each shell                  R   N=         216
 -4.21611826E+00 -5.13477228E-05 -1.91873564E-01 -4.21611826E+00 -5.13477228E-05
 -1.91873564E-01 -4.21611826E+00 -5.13477228E-05 -1.91873564E-01 -4.21611826E+00
 -5.13477228E-05 -1.91873564E-01 -4.21611826E+00 -5.13477228E-05 -1.91873564E-01
 -4.21611826E+00 -5.13477228E-05 -1.91873564E-01 -1.63543299E+00  6.34379850E-06
  1.57303352E-02 -1.63543299E+00  6.34379850E-06  1.57303352E-02 -1.63543299E+00
  6.34379850E-06  1.57303352E-02 -1.63543299E+00  6.34379850E-06  1.57303352E-02
 -1.63543299E+00  6.34379850E-06  1.57303352E-02 -1.63543299E+00  6.34379850E-06
  1.57303352E-02 -4.41218925E-01 -2.24230238E+00 -1.56388775E-02 -4.41218925E-01
 -2.24230238E+00 -1.56388775E-02 -4.41218925E-01 -2.24230238E+00 -1.56388775E-02
 -4.41218925E-01 -2.24230238E+00 -1.56388775E-02 -4.41218925E-01 -2.24230238E+00
 -1.56388775E-02 -4.41218925E-01 -2.24230238E+00 -1.56388775E-02  2.16517030E+00
 -2.27828605E+00  7.24207789E-03  2.16517030E+00 -2.27828605E+00  7.24207789E-03
  2.16517030E+00 -2.27828605E+00  7.24207789E-03  2.16517030E+00 -2.27828605E+00
  7.24207789E-03  2.16517030E+00 -2.27828605E+00  7.24207789E-03  2.16517030E+00
 -2.27828605E+00  7.24207789E-03  3.48151445E+00 -8.22035512E-06  2.31162328E-02
  3.48151445E+00 -8.22035512E-06  2.31162328E-02  3.48151445E+00 -8.22035512E-06
  2.31162328E-02  3.48151445E+00 -8.22035512E-06  2.31162328E-02  3.48151445E+00
 -8.22035512E-06  2.31162328E-02  3.48151445E+00 -8.22035512E-06  2.31162328E-02
  2.16525720E+00  2.27825813E+00  7.24215030E-03  2.16525720E+00  2.27825813E+00
  7.24215030E-03  2.16525720E+00  2.27825813E+00  7.24215030E-03  2.16525720E+00
  2.27825813E+00  7.24215030E-03  2.16525720E+00  2.27825813E+00  7.24215030E-03
  2.16525720E+00  2.27825813E+00  7.24215030E-03 -4.41192371E-01  2.24232863E+00
 -1.56142578E-02 -4.41192371E-01  2.24232863E+00 -1.56142578E-02 -4.41192371E-01
  2.24232863E+00 -1.56142578E-02 -4.41192371E-01  2.24232863E+00 -1.56142578E-02
 -4.41192371E-01  2.24232863E+00 -1.56142578E-02 -4.41192371E-01  2.24232863E+00
 -1.56142578E-02 -1.64801177E+00 -3.89253647E+00 -7.01910202E-02 -1.64801177E+00
 -3.89253647E+00 -7.01910202E-02 -1.64801177E+00 -3.89253647E+00 -7.01910202E-02
 -1.64801177E+00 -3.89253647E+00 -7.01910202E-02 -1.64801177E+00 -3.89253647E+00
 -7.01910202E-02  3.13256102E+00 -4.07892350E+00 -7.25100245E-03  3.13256102E+00
 -4.07892350E+00 -7.25100245E-03  3.13256102E+00 -4.07892350E+00 -7.25100245E-03
  3.13256102E+00 -4.07892350E+00 -7.25100245E-03  3.13256102E+00 -4.07892350E+00
 -7.25100245E-03  5.52866453E+00 -7.05363990E-05  3.08410594E-02  5.52866453E+00
 -7.05363990E-05  3.08410594E-02  5.52866453E+00 -7.05363990E-05  3.08410594E-02
  5.52866453E+00 -7.05363990E-05  3.08410594E-02  5.52866453E+00 -7.05363990E-05
  3.08410594E-02  3.13265725E+00  4.07889146E+00 -7.38890703E-03  3.13265725E+00
  4.07889146E+00 -7.38890703E-03  3.13265725E+00  4.07889146E+00 -7.38890703E-03
  3.13265725E+00  4.07889146E+00 -7.38890703E-03  3.13265725E+00  4.07889146E+00
 -7.38890703E-03 -1.64799756E+00  3.89254553E+00 -7.03519553E-02 -1.64799756E+00
  3.89254553E+00 -7.03519553E-02 -1.64799756E+00  3.89254553E+00 -7.03519553E-02
 -1.64799756E+00  3.89254553E+00 -7.03519553E-02 -1.64799756E+00  3.89254553E+00
 -7.03519553E-02 -4.89808041E+00  5.19213693E-04  1.51113403E+00 -4.89808041E+00
  5.19213693E-04  1.51113403E+00 -4.89808041E+00  5.19213693E-04  1.51113403E+00
 -4.89808041E+00  5.19213693E-04  1.51113403E+00 -4.89808041E+00  5.19213693E-04
  1.51113403E+00
Num ILSW                                   I              100
ILSW                                       I   N=         100
           0           0           0           0           2           0
           0           0           0           0        4336          -1
           5           0           0           0           2           0
           0           0           0           0           1           0
           1           0           0           0           0           0
           0           0      100000           0          -1           0
           0           0           0           0           0           0
           0           0           0           1           0           0
           0 -2000000000           1           0           0           0
           0           0           4          52           0           0
           0           0          55           0           0           0
           0           0           0          13           0           1
           0           0           0           0           0           0
           0           0           0           0           0           0
           0           0           0           0           0           0
           0           0           0           0           0           0
           0           0           0           0
Num RLSW                                   I               52
RLSW                                       R   N=          52
  1.00000000E+00  1.00000000E+00  1.00000000E+00  1.00000000E+00  5.40000000E-01
  0.00000000E+00  0.00000000E+00  1.00000000E+00  0.00000000E+00  0.00000000E+00
  0.00000000E+00  0.00000000E+00  1.00000000E+00  0.00000000E+00  0.00000000E+00
  0.00000000E+00  0.00000000E+00  1.00000000E+00  0.00000000E+00  0.00000000E+00
  0.00000000E+00  0.00000000E+00  1.00000000E+00  0.00000000E+00  0.00000000E+00
  0.00000000E+00  0.00000000E+00  1.00000000E+00  0.00000000E+00  0.00000000E+00
  0.00000000E+00  0.00000000E+00  1.00000000E+00  0.00000000E+00  0.00000000E+00
  0.00000000E+00  0.00000000E+00  0.00000000E+00  1.00000000E+00  1.00000000E+00
  0.00000000E+00  1.00000000E+00  0.00000000E+00  0.00000000E+00  0.00000000E+00
  0.00000000E+00  0.00000000E+00  0.00000000E+00  0.00000000E+00  0.00000000E+00
  0.00000000E+00  0.00000000E+00
MxBond                                     I                3