 Entering Gaussian System, Link 0=/apps/cent7/gaussian/g16-A.03/g16-haswell/g16/g16
 Initial command:
 /apps/cent7/gaussian/g16-A.03/g16-haswell/g16/l1.exe "/scratch/brown/finej/gaussian/Gau-401461.inp" -scrdir="/scratch/brown/finej/gaussian/"
 Entering Link 1 = /apps/cent7/gaussian/g16-A.03/g16-haswell/g16/l1.exe PID=    401464.
  
 Copyright (c) 1988,1990,1992,1993,1995,1998,2003,2009,2016,
            Gaussian, Inc.  All Rights Reserved.
  
 This is part of the Gaussian(R) 16 program.  It is based on
 the Gaussian(R) 09 system (copyright 2009, Gaussian, Inc.),
 the Gaussian(R) 03 system (copyright 2003, Gaussian, Inc.),
 the Gaussian(R) 98 system (copyright 1998, Gaussian, Inc.),
 the Gaussian(R) 94 system (copyright 1995, Gaussian, Inc.),
 the Gaussian 92(TM) system (copyright 1992, Gaussian, Inc.),
 the Gaussian 90(TM) system (copyright 1990, Gaussian, Inc.),
 the Gaussian 88(TM) system (copyright 1988, Gaussian, Inc.),
 the Gaussian 86(TM) system (copyright 1986, Carnegie Mellon
 University), and the Gaussian 82(TM) system (copyright 1983,
 Carnegie Mellon University). Gaussian is a federally registered
 trademark of Gaussian, Inc.
  
 This software contains proprietary and confidential information,
 including trade secrets, belonging to Gaussian, Inc.
  
 This software is provided under written license and may be
 used, copied, transmitted, or stored only in accord with that
 written license.
  
 The following legend is applicable only to US Government
 contracts under FAR:
  
                    RESTRICTED RIGHTS LEGEND
  
 Use, reproduction and disclosure by the US Government is
 subject to restrictions as set forth in subparagraphs (a)
 and (c) of the Commercial Computer Software - Restricted
 Rights clause in FAR 52.227-19.
  
 Gaussian, Inc.
 340 Quinnipiac St., Bldg. 40, Wallingford CT 06492
  
  
 ---------------------------------------------------------------
 Warning -- This program may not be used in any manner that
 competes with the business of Gaussian, Inc. or will provide
 assistance to any competitor of Gaussian, Inc.  The licensee
 of this program is prohibited from giving any competitor of
 Gaussian, Inc. access to this program.  By using this program,
 the user acknowledges that Gaussian, Inc. is engaged in the
 business of creating and licensing software in the field of
 computational chemistry and represents and warrants to the
 licensee that it is not a competitor of Gaussian, Inc. and that
 it will not use this program in any manner prohibited above.
 ---------------------------------------------------------------
  

 Cite this work as:
 Gaussian 16, Revision A.03,
 M. J. Frisch, G. W. Trucks, H. B. Schlegel, G. E. Scuseria, 
 M. A. Robb, J. R. Cheeseman, G. Scalmani, V. Barone, 
 G. A. Petersson, H. Nakatsuji, X. Li, M. Caricato, A. V. Marenich, 
 J. Bloino, B. G. Janesko, R. Gomperts, B. Mennucci, H. P. Hratchian, 
 J. V. Ortiz, A. F. Izmaylov, J. L. Sonnenberg, D. Williams-Young, 
 F. Ding, F. Lipparini, F. Egidi, J. Goings, B. Peng, A. Petrone, 
 T. Henderson, D. Ranasinghe, V. G. Zakrzewski, J. Gao, N. Rega, 
 G. Zheng, W. Liang, M. Hada, M. Ehara, K. Toyota, R. Fukuda, 
 J. Hasegawa, M. Ishida, T. Nakajima, Y. Honda, O. Kitao, H. Nakai, 
 T. Vreven, K. Throssell, J. A. Montgomery, Jr., J. E. Peralta, 
 F. Ogliaro, M. J. Bearpark, J. J. Heyd, E. N. Brothers, K. N. Kudin, 
 V. N. Staroverov, T. A. Keith, R. Kobayashi, J. Normand, 
 K. Raghavachari, A. P. Rendell, J. C. Burant, S. S. Iyengar, 
 J. Tomasi, M. Cossi, J. M. Millam, M. Klene, C. Adamo, R. Cammi, 
 J. W. Ochterski, R. L. Martin, K. Morokuma, O. Farkas, 
 J. B. Foresman, and D. J. Fox, Gaussian, Inc., Wallingford CT, 2016.
 
 ******************************************
 Gaussian 16:  ES64L-G16RevA.03 25-Dec-2016
                14-Oct-2019 
 ******************************************
 %chk=3_p.chk
 %nprocshared=24
 Will use up to   24 processors via shared memory.
 %mem=80GB
 -------------------------------------------------------------------
 #p opt freq m062x/6-311++g(d,p) geom=connectivity temperature=0.001
 -------------------------------------------------------------------
 1/18=20,19=15,26=3,38=1,57=2,112=-1000/1,3;
 2/9=110,12=2,17=6,18=5,40=1/2;
 3/5=4,6=6,7=1111,11=2,25=1,30=1,71=1,74=-55/1,2,3;
 4//1;
 5/5=2,38=5/2;
 6/7=2,8=2,9=2,10=2,28=1/1;
 7//1,2,3,16;
 1/18=20,19=15,26=3/3(2);
 2/9=110/2;
 99//99;
 2/9=110/2;
 3/5=4,6=6,7=1111,11=2,25=1,30=1,71=1,74=-55/1,2,3;
 4/5=5,16=3,69=1/1;
 5/5=2,38=5/2;
 7//1,2,3,16;
 1/18=20,19=15,26=3/3(-5);
 2/9=110/2;
 6/7=2,8=2,9=2,10=2,19=2,28=1/1;
 99/9=1/99;
 Leave Link    1 at Mon Oct 14 10:44:18 2019, MaxMem= 10737418240 cpu:               1.7 elap:               0.1
 (Enter /apps/cent7/gaussian/g16-A.03/g16-haswell/g16/l101.exe)
 -------------------
 Title Card Required
 -------------------
 Symbolic Z-matrix:
 Charge =  1 Multiplicity = 1
 O                    -2.06673   1.10866  -0.00271 
 N                    -0.70683   1.11837   0.011 
 C                    -0.06042  -0.00946   0.00323 
 C                     1.47933  -0.03134  -0.00048 
 C                     2.15636   1.13506  -0.00065 
 C                     1.36412   2.44832  -0.00006 
 C                     0.00906   2.40981   0.003 
 H                    -0.60345  -0.93142  -0.00043 
 H                     2.00665  -0.96238  -0.00309 
 H                     3.22632   1.14411  -0.00154 
 H                     1.87689   3.38745  -0.00223 
 H                    -0.54705   3.32394  -0.00021 
 H                    -2.39784   1.55861   0.778 
 
 ITRead=  0  0  0  0  0  0  0  0  0  0  0  0  0
 MicOpt= -1 -1 -1 -1 -1 -1 -1 -1 -1 -1 -1 -1 -1
 NAtoms=     13 NQM=       13 NQMF=       0 NMMI=      0 NMMIF=      0
                NMic=       0 NMicF=      0.
                    Isotopes and Nuclear Properties:
 (Nuclear quadrupole moments (NQMom) in fm**2, nuclear magnetic moments (NMagM)
  in nuclear magnetons)

  Atom         1           2           3           4           5           6           7           8           9          10
 IAtWgt=          16          14          12          12          12          12          12           1           1           1
 AtmWgt=  15.9949146  14.0030740  12.0000000  12.0000000  12.0000000  12.0000000  12.0000000   1.0078250   1.0078250   1.0078250
 NucSpn=           0           2           0           0           0           0           0           1           1           1
 AtZEff=  -0.0000000  -0.0000000  -0.0000000  -0.0000000  -0.0000000  -0.0000000  -0.0000000  -0.0000000  -0.0000000  -0.0000000
 NQMom=    0.0000000   2.0440000   0.0000000   0.0000000   0.0000000   0.0000000   0.0000000   0.0000000   0.0000000   0.0000000
 NMagM=    0.0000000   0.4037610   0.0000000   0.0000000   0.0000000   0.0000000   0.0000000   2.7928460   2.7928460   2.7928460
 AtZNuc=   8.0000000   7.0000000   6.0000000   6.0000000   6.0000000   6.0000000   6.0000000   1.0000000   1.0000000   1.0000000

  Atom        11          12          13
 IAtWgt=           1           1           1
 AtmWgt=   1.0078250   1.0078250   1.0078250
 NucSpn=           1           1           1
 AtZEff=  -0.0000000  -0.0000000  -0.0000000
 NQMom=    0.0000000   0.0000000   0.0000000
 NMagM=    2.7928460   2.7928460   2.7928460
 AtZNuc=   1.0000000   1.0000000   1.0000000
 Leave Link  101 at Mon Oct 14 10:44:19 2019, MaxMem= 10737418240 cpu:               8.2 elap:               0.4
 (Enter /apps/cent7/gaussian/g16-A.03/g16-haswell/g16/l103.exe)

 GradGradGradGradGradGradGradGradGradGradGradGradGradGradGradGradGradGrad
 Berny optimization.
 Initialization pass.
                           ----------------------------
                           !    Initial Parameters    !
                           ! (Angstroms and Degrees)  !
 --------------------------                            --------------------------
 ! Name  Definition              Value          Derivative Info.                !
 --------------------------------------------------------------------------------
 ! R1    R(1,2)                  1.36           estimate D2E/DX2                !
 ! R2    R(1,13)                 0.96           estimate D2E/DX2                !
 ! R3    R(2,3)                  1.3            estimate D2E/DX2                !
 ! R4    R(2,7)                  1.4766         estimate D2E/DX2                !
 ! R5    R(3,4)                  1.5399         estimate D2E/DX2                !
 ! R6    R(3,8)                  1.07           estimate D2E/DX2                !
 ! R7    R(4,5)                  1.3487         estimate D2E/DX2                !
 ! R8    R(4,9)                  1.07           estimate D2E/DX2                !
 ! R9    R(5,6)                  1.5337         estimate D2E/DX2                !
 ! R10   R(5,10)                 1.07           estimate D2E/DX2                !
 ! R11   R(6,7)                  1.3556         estimate D2E/DX2                !
 ! R12   R(6,11)                 1.07           estimate D2E/DX2                !
 ! R13   R(7,12)                 1.07           estimate D2E/DX2                !
 ! A1    A(2,1,13)             109.4712         estimate D2E/DX2                !
 ! A2    A(1,2,3)              119.4041         estimate D2E/DX2                !
 ! A3    A(1,2,7)              119.4041         estimate D2E/DX2                !
 ! A4    A(3,2,7)              121.1766         estimate D2E/DX2                !
 ! A5    A(2,3,4)              120.6336         estimate D2E/DX2                !
 ! A6    A(2,3,8)              119.6832         estimate D2E/DX2                !
 ! A7    A(4,3,8)              119.6832         estimate D2E/DX2                !
 ! A8    A(3,4,5)              119.3182         estimate D2E/DX2                !
 ! A9    A(3,4,9)              120.3409         estimate D2E/DX2                !
 ! A10   A(5,4,9)              120.3409         estimate D2E/DX2                !
 ! A11   A(4,5,6)              118.7665         estimate D2E/DX2                !
 ! A12   A(4,5,10)             120.6167         estimate D2E/DX2                !
 ! A13   A(6,5,10)             120.6167         estimate D2E/DX2                !
 ! A14   A(5,6,7)              119.473          estimate D2E/DX2                !
 ! A15   A(5,6,11)             120.2635         estimate D2E/DX2                !
 ! A16   A(7,6,11)             120.2635         estimate D2E/DX2                !
 ! A17   A(2,7,6)              120.6292         estimate D2E/DX2                !
 ! A18   A(2,7,12)             119.6854         estimate D2E/DX2                !
 ! A19   A(6,7,12)             119.6854         estimate D2E/DX2                !
 ! D1    D(13,1,2,3)           120.7007         estimate D2E/DX2                !
 ! D2    D(13,1,2,7)           -60.7007         estimate D2E/DX2                !
 ! D3    D(1,2,3,4)            179.1861         estimate D2E/DX2                !
 ! D4    D(1,2,3,8)             -0.8268         estimate D2E/DX2                !
 ! D5    D(7,2,3,4)              0.6131         estimate D2E/DX2                !
 ! D6    D(7,2,3,8)           -179.3998         estimate D2E/DX2                !
 ! D7    D(1,2,7,6)           -179.1953         estimate D2E/DX2                !
 ! D8    D(1,2,7,12)             0.8175         estimate D2E/DX2                !
 ! D9    D(3,2,7,6)             -0.6222         estimate D2E/DX2                !
 ! D10   D(3,2,7,12)           179.3905         estimate D2E/DX2                !
 ! D11   D(2,3,4,5)             -0.2472         estimate D2E/DX2                !
 ! D12   D(2,3,4,9)            179.7643         estimate D2E/DX2                !
 ! D13   D(8,3,4,5)            179.7657         estimate D2E/DX2                !
 ! D14   D(8,3,4,9)             -0.2229         estimate D2E/DX2                !
 ! D15   D(3,4,5,6)             -0.1255         estimate D2E/DX2                !
 ! D16   D(3,4,5,10)           179.8974         estimate D2E/DX2                !
 ! D17   D(9,4,5,6)            179.8631         estimate D2E/DX2                !
 ! D18   D(9,4,5,10)            -0.1141         estimate D2E/DX2                !
 ! D19   D(4,5,6,7)              0.1161         estimate D2E/DX2                !
 ! D20   D(4,5,6,11)          -179.8725         estimate D2E/DX2                !
 ! D21   D(10,5,6,7)          -179.9068         estimate D2E/DX2                !
 ! D22   D(10,5,6,11)            0.1046         estimate D2E/DX2                !
 ! D23   D(5,6,7,2)              0.2365         estimate D2E/DX2                !
 ! D24   D(5,6,7,12)          -179.7762         estimate D2E/DX2                !
 ! D25   D(11,6,7,2)          -179.7749         estimate D2E/DX2                !
 ! D26   D(11,6,7,12)            0.2124         estimate D2E/DX2                !
 --------------------------------------------------------------------------------
 Trust Radius=3.00D-01 FncErr=1.00D-07 GrdErr=1.00D-06 EigMax=2.50D+02 EigMin=1.00D-04
 Number of steps in this run=     68 maximum allowed number of steps=    100.
 GradGradGradGradGradGradGradGradGradGradGradGradGradGradGradGradGradGrad

 Leave Link  103 at Mon Oct 14 10:44:19 2019, MaxMem= 10737418240 cpu:               0.3 elap:               0.0
 (Enter /apps/cent7/gaussian/g16-A.03/g16-haswell/g16/l202.exe)
                          Input orientation:                          
 ---------------------------------------------------------------------
 Center     Atomic      Atomic             Coordinates (Angstroms)
 Number     Number       Type             X           Y           Z
 ---------------------------------------------------------------------
      1          8           0       -2.066727    1.108663   -0.002712
      2          7           0       -0.706831    1.118367    0.011004
      3          6           0       -0.060416   -0.009463    0.003226
      4          6           0        1.479331   -0.031344   -0.000482
      5          6           0        2.156358    1.135064   -0.000646
      6          6           0        1.364116    2.448325   -0.000058
      7          6           0        0.009057    2.409811    0.003001
      8          1           0       -0.603450   -0.931418   -0.000428
      9          1           0        2.006654   -0.962378   -0.003090
     10          1           0        3.226319    1.144108   -0.001544
     11          1           0        1.876895    3.387448   -0.002230
     12          1           0       -0.547051    3.323942   -0.000210
     13          1           0       -2.397837    1.558606    0.778004
 ---------------------------------------------------------------------
                    Distance matrix (angstroms):
                    1          2          3          4          5
     1  O    0.000000
     2  N    1.360000   0.000000
     3  C    2.296851   1.299967   0.000000
     4  C    3.724802   2.470076   1.539908   0.000000
     5  C    4.223168   2.863261   2.494803   1.348655   0.000000
     6  C    3.683122   2.461246   2.840779   2.482344   1.533722
     7  C    2.449878   1.476614   2.420272   2.849730   2.497178
     8  H    2.510600   2.052422   1.070000   2.268945   3.447736
     9  H    4.569644   3.419459   2.276152   1.070000   2.102779
    10  H    5.293165   3.933255   3.483300   2.105624   1.070000
    11  H    4.554670   3.438684   3.910526   3.441831   2.269656
    12  H    2.686426   2.211383   3.368740   3.919715   3.478449
    13  H    0.960000   1.908298   2.919359   4.262208   4.639653
                    6          7          8          9         10
     6  C    0.000000
     7  C    1.355610   0.000000
     8  H    3.910751   3.396909   0.000000
     9  H    3.470700   3.919450   2.610289   0.000000
    10  H    2.273496   3.457283   4.356023   2.434105   0.000000
    11  H    1.070000   2.108227   4.980434   4.351761   2.617924
    12  H    2.102205   1.070000   4.255733   4.989384   4.357752
    13  H    3.943256   2.668018   3.166386   5.134687   5.693034
                   11         12         13
    11  H    0.000000
    12  H    2.424778   0.000000
    13  H    4.714527   2.673469   0.000000
 Stoichiometry    C5H6NO(1+)
 Framework group  C1[X(C5H6NO)]
 Deg. of freedom    33
 Full point group                 C1      NOp   1
 Largest Abelian subgroup         C1      NOp   1
 Largest concise Abelian subgroup C1      NOp   1
                         Standard orientation:                         
 ---------------------------------------------------------------------
 Center     Atomic      Atomic             Coordinates (Angstroms)
 Number     Number       Type             X           Y           Z
 ---------------------------------------------------------------------
      1          8           0       -2.296746   -0.066702   -0.062627
      2          7           0       -0.937352   -0.056857   -0.023219
      3          6           0       -0.290970   -1.184682   -0.012511
      4          6           0        1.248570   -1.206509    0.013056
      5          6           0        1.925545   -0.040088    0.019252
      6          6           0        1.133509    1.273118   -0.002433
      7          6           0       -0.221368    1.234558   -0.024818
      8          1           0       -0.833890   -2.106668   -0.021341
      9          1           0        1.775795   -2.137518    0.025589
     10          1           0        2.995332   -0.030998    0.038563
     11          1           0        1.646290    2.212240   -0.000096
     12          1           0       -0.777263    2.148629   -0.043619
     13          1           0       -2.642552    0.387542    0.709176
 ---------------------------------------------------------------------
 Rotational constants (GHZ):           5.5193992           2.5173882           1.7357308
 Leave Link  202 at Mon Oct 14 10:44:19 2019, MaxMem= 10737418240 cpu:               0.4 elap:               0.0
 (Enter /apps/cent7/gaussian/g16-A.03/g16-haswell/g16/l301.exe)
 Standard basis: 6-311++G(d,p) (5D, 7F)
 Ernie: Thresh=  0.10000D-02 Tol=  0.10000D-05 Strict=F.
 There are   203 symmetry adapted cartesian basis functions of A   symmetry.
 There are   196 symmetry adapted basis functions of A   symmetry.
   196 basis functions,   306 primitive gaussians,   203 cartesian basis functions
    25 alpha electrons       25 beta electrons
       nuclear repulsion energy       280.7183330801 Hartrees.
 IExCor= 4336 DFT=T Ex+Corr=M062X ExCW=0 ScaHFX=  0.540000
 ScaDFX=  1.000000  1.000000  1.000000  1.000000 ScalE2=  1.000000  1.000000
 IRadAn=      5 IRanWt=     -1 IRanGd=            0 ICorTp=0 IEmpDi=  4
 NAtoms=   13 NActive=   13 NUniq=   13 SFac= 1.00D+00 NAtFMM=   60 NAOKFM=F Big=F
 Integral buffers will be    131072 words long.
 Raffenetti 2 integral format.
 Two-electron integral symmetry is turned on.
 Leave Link  301 at Mon Oct 14 10:44:19 2019, MaxMem= 10737418240 cpu:               1.3 elap:               0.1
 (Enter /apps/cent7/gaussian/g16-A.03/g16-haswell/g16/l302.exe)
 NPDir=0 NMtPBC=     1 NCelOv=     1 NCel=       1 NClECP=     1 NCelD=      1
         NCelK=      1 NCelE2=     1 NClLst=     1 CellRange=     0.0.
 One-electron integrals computed using PRISM.
 One-electron integral symmetry used in STVInt
 NBasis=   196 RedAO= T EigKep=  7.99D-06  NBF=   196
 NBsUse=   196 1.00D-06 EigRej= -1.00D+00 NBFU=   196
 Precomputing XC quadrature grid using
 IXCGrd= 4 IRadAn=           5 IRanWt=          -1 IRanGd=           0 AccXCQ= 0.00D+00.
 Generated NRdTot=       0 NPtTot=           0 NUsed=           0 NTot=          32
 NSgBfM=   203   203   203   203   203 MxSgAt=    13 MxSgA2=    13.
 Leave Link  302 at Mon Oct 14 10:44:19 2019, MaxMem= 10737418240 cpu:               4.3 elap:               0.2
 (Enter /apps/cent7/gaussian/g16-A.03/g16-haswell/g16/l303.exe)
 DipDrv:  MaxL=1.
 Leave Link  303 at Mon Oct 14 10:44:19 2019, MaxMem= 10737418240 cpu:               0.8 elap:               0.1
 (Enter /apps/cent7/gaussian/g16-A.03/g16-haswell/g16/l401.exe)
 ExpMin= 3.60D-02 ExpMax= 8.59D+03 ExpMxC= 1.30D+03 IAcc=3 IRadAn=         5 AccDes= 0.00D+00
 Harris functional with IExCor= 1009 and IRadAn=       5 diagonalized for initial guess.
 HarFok:  IExCor= 1009 AccDes= 0.00D+00 IRadAn=         5 IDoV= 1 UseB2=F ITyADJ=14
 ICtDFT=  3500011 ScaDFX=  1.000000  1.000000  1.000000  1.000000
 FoFCou: FMM=F IPFlag=           0 FMFlag=      100000 FMFlg1=           0
         NFxFlg=           0 DoJE=T BraDBF=F KetDBF=T FulRan=T
         wScrn=  0.000000 ICntrl=       500 IOpCl=  0 I1Cent=   200000004 NGrid=           0
         NMat0=    1 NMatS0=      1 NMatT0=    0 NMatD0=    1 NMtDS0=    0 NMtDT0=    0
 Petite list used in FoFCou.
 Harris En= -323.604769335779    
 JPrj=0 DoOrth=F DoCkMO=F.
 Leave Link  401 at Mon Oct 14 10:44:20 2019, MaxMem= 10737418240 cpu:               7.1 elap:               0.3
 (Enter /apps/cent7/gaussian/g16-A.03/g16-haswell/g16/l502.exe)
 Integral symmetry usage will be decided dynamically.
 Closed shell SCF:
 Using DIIS extrapolation, IDIIS=  1040.
 NGot= 10737418240 LenX= 10737328915 LenY= 10737287265
 Requested convergence on RMS density matrix=1.00D-08 within 128 cycles.
 Requested convergence on MAX density matrix=1.00D-06.
 Requested convergence on             energy=1.00D-06.
 No special actions if energy rises.
 Fock matrices will be formed incrementally for  20 cycles.

 Cycle   1  Pass 1  IDiag  1:
 FoFJK:  IHMeth= 1 ICntrl=       0 DoSepK=F KAlg= 0 I1Cent=           0 FoldK=F
 IRaf= 980000000 NMat=       1 IRICut=       1 DoRegI=T DoRafI=F ISym2E= 0 IDoP0=0 IntGTp=1.
 FoFCou: FMM=F IPFlag=           0 FMFlag=      100000 FMFlg1=           0
         NFxFlg=           0 DoJE=F BraDBF=F KetDBF=F FulRan=T
         wScrn=  0.000000 ICntrl=         0 IOpCl=  0 I1Cent=           0 NGrid=           0
         NMat0=    1 NMatS0=      1 NMatT0=    0 NMatD0=    1 NMtDS0=    0 NMtDT0=    0
 Symmetry not used in FoFCou.
 E= -323.556199953591    
 DIIS: error= 2.84D-02 at cycle   1 NSaved=   1.
 NSaved= 1 IEnMin= 1 EnMin= -323.556199953591     IErMin= 1 ErrMin= 2.84D-02
 ErrMax= 2.84D-02  0.00D+00 EMaxC= 1.00D-01 BMatC= 2.24D-01 BMatP= 2.24D-01
 IDIUse=3 WtCom= 7.16D-01 WtEn= 2.84D-01
 Coeff-Com:  0.100D+01
 Coeff-En:   0.100D+01
 Coeff:      0.100D+01
 Gap=     0.374 Goal=   None    Shift=    0.000
 GapD=    0.374 DampG=1.000 DampE=0.500 DampFc=0.5000 IDamp=-1.
 Damping current iteration by 5.00D-01
 RMSDP=1.11D-02 MaxDP=7.02D-01              OVMax= 2.74D-01

 Cycle   2  Pass 1  IDiag  1:
 RMSU=  4.88D-03    CP:  1.11D+00
 E= -323.618420649167     Delta-E=       -0.062220695577 Rises=F Damp=T
 DIIS: error= 8.22D-03 at cycle   2 NSaved=   2.
 NSaved= 2 IEnMin= 2 EnMin= -323.618420649167     IErMin= 2 ErrMin= 8.22D-03
 ErrMax= 8.22D-03  0.00D+00 EMaxC= 1.00D-01 BMatC= 3.08D-02 BMatP= 2.24D-01
 IDIUse=3 WtCom= 9.18D-01 WtEn= 8.22D-02
 Coeff-Com:  0.808D-01 0.919D+00
 Coeff-En:   0.220D+00 0.780D+00
 Coeff:      0.923D-01 0.908D+00
 Gap=     0.315 Goal=   None    Shift=    0.000
 RMSDP=2.51D-03 MaxDP=1.04D-01 DE=-6.22D-02 OVMax= 1.97D-01

 Cycle   3  Pass 1  IDiag  1:
 RMSU=  2.19D-03    CP:  1.06D+00  9.70D-01
 E= -323.713695508930     Delta-E=       -0.095274859763 Rises=F Damp=F
 DIIS: error= 9.51D-03 at cycle   3 NSaved=   3.
 NSaved= 3 IEnMin= 3 EnMin= -323.713695508930     IErMin= 2 ErrMin= 8.22D-03
 ErrMax= 9.51D-03  0.00D+00 EMaxC= 1.00D-01 BMatC= 9.22D-03 BMatP= 3.08D-02
 IDIUse=3 WtCom= 9.05D-01 WtEn= 9.51D-02
 Coeff-Com: -0.719D-01 0.344D+00 0.728D+00
 Coeff-En:   0.000D+00 0.000D+00 0.100D+01
 Coeff:     -0.650D-01 0.312D+00 0.753D+00
 Gap=     0.298 Goal=   None    Shift=    0.000
 RMSDP=8.59D-04 MaxDP=3.37D-02 DE=-9.53D-02 OVMax= 4.16D-02

 Cycle   4  Pass 1  IDiag  1:
 RMSU=  7.28D-04    CP:  1.05D+00  1.02D+00  8.74D-01
 E= -323.721247827282     Delta-E=       -0.007552318352 Rises=F Damp=F
 DIIS: error= 2.98D-03 at cycle   4 NSaved=   4.
 NSaved= 4 IEnMin= 4 EnMin= -323.721247827282     IErMin= 4 ErrMin= 2.98D-03
 ErrMax= 2.98D-03  0.00D+00 EMaxC= 1.00D-01 BMatC= 1.03D-03 BMatP= 9.22D-03
 IDIUse=3 WtCom= 9.70D-01 WtEn= 2.98D-02
 Coeff-Com: -0.208D-01 0.612D-01 0.312D+00 0.648D+00
 Coeff-En:   0.000D+00 0.000D+00 0.401D-01 0.960D+00
 Coeff:     -0.201D-01 0.594D-01 0.304D+00 0.657D+00
 Gap=     0.297 Goal=   None    Shift=    0.000
 RMSDP=2.84D-04 MaxDP=8.42D-03 DE=-7.55D-03 OVMax= 1.16D-02

 Cycle   5  Pass 1  IDiag  1:
 RMSU=  1.66D-04    CP:  1.05D+00  9.98D-01  9.36D-01  7.76D-01
 E= -323.722218393507     Delta-E=       -0.000970566224 Rises=F Damp=F
 DIIS: error= 5.66D-04 at cycle   5 NSaved=   5.
 NSaved= 5 IEnMin= 5 EnMin= -323.722218393507     IErMin= 5 ErrMin= 5.66D-04
 ErrMax= 5.66D-04  0.00D+00 EMaxC= 1.00D-01 BMatC= 4.94D-05 BMatP= 1.03D-03
 IDIUse=3 WtCom= 9.94D-01 WtEn= 5.66D-03
 Coeff-Com: -0.428D-02 0.524D-02 0.854D-01 0.277D+00 0.636D+00
 Coeff-En:   0.000D+00 0.000D+00 0.000D+00 0.000D+00 0.100D+01
 Coeff:     -0.425D-02 0.521D-02 0.850D-01 0.276D+00 0.638D+00
 Gap=     0.298 Goal=   None    Shift=    0.000
 RMSDP=6.73D-05 MaxDP=2.54D-03 DE=-9.71D-04 OVMax= 3.39D-03

 Cycle   6  Pass 1  IDiag  1:
 RMSU=  5.26D-05    CP:  1.05D+00  9.96D-01  9.34D-01  8.03D-01  8.12D-01
 E= -323.722265938570     Delta-E=       -0.000047545063 Rises=F Damp=F
 DIIS: error= 1.93D-04 at cycle   6 NSaved=   6.
 NSaved= 6 IEnMin= 6 EnMin= -323.722265938570     IErMin= 6 ErrMin= 1.93D-04
 ErrMax= 1.93D-04  0.00D+00 EMaxC= 1.00D-01 BMatC= 4.52D-06 BMatP= 4.94D-05
 IDIUse=3 WtCom= 9.98D-01 WtEn= 1.93D-03
 Coeff-Com:  0.858D-03-0.461D-02 0.192D-02 0.377D-01 0.247D+00 0.717D+00
 Coeff-En:   0.000D+00 0.000D+00 0.000D+00 0.000D+00 0.000D+00 0.100D+01
 Coeff:      0.857D-03-0.460D-02 0.192D-02 0.377D-01 0.247D+00 0.718D+00
 Gap=     0.298 Goal=   None    Shift=    0.000
 RMSDP=2.40D-05 MaxDP=7.70D-04 DE=-4.75D-05 OVMax= 9.81D-04

 Cycle   7  Pass 1  IDiag  1:
 RMSU=  2.02D-05    CP:  1.05D+00  9.98D-01  9.35D-01  8.15D-01  8.18D-01
                    CP:  8.88D-01
 E= -323.722271498696     Delta-E=       -0.000005560126 Rises=F Damp=F
 DIIS: error= 5.38D-05 at cycle   7 NSaved=   7.
 NSaved= 7 IEnMin= 7 EnMin= -323.722271498696     IErMin= 7 ErrMin= 5.38D-05
 ErrMax= 5.38D-05  0.00D+00 EMaxC= 1.00D-01 BMatC= 3.36D-07 BMatP= 4.52D-06
 IDIUse=1 WtCom= 1.00D+00 WtEn= 0.00D+00
 Coeff-Com:  0.102D-02-0.233D-02-0.119D-01-0.340D-01-0.413D-01 0.150D+00
 Coeff-Com:  0.939D+00
 Coeff:      0.102D-02-0.233D-02-0.119D-01-0.340D-01-0.413D-01 0.150D+00
 Coeff:      0.939D+00
 Gap=     0.298 Goal=   None    Shift=    0.000
 RMSDP=1.02D-05 MaxDP=3.29D-04 DE=-5.56D-06 OVMax= 5.41D-04

 Cycle   8  Pass 1  IDiag  1:
 RMSU=  6.31D-06    CP:  1.04D+00  9.97D-01  9.36D-01  8.17D-01  8.54D-01
                    CP:  9.15D-01  1.10D+00
 E= -323.722272137943     Delta-E=       -0.000000639247 Rises=F Damp=F
 DIIS: error= 3.87D-05 at cycle   8 NSaved=   8.
 NSaved= 8 IEnMin= 8 EnMin= -323.722272137943     IErMin= 8 ErrMin= 3.87D-05
 ErrMax= 3.87D-05  0.00D+00 EMaxC= 1.00D-01 BMatC= 4.58D-08 BMatP= 3.36D-07
 IDIUse=1 WtCom= 1.00D+00 WtEn= 0.00D+00
 Coeff-Com:  0.321D-03-0.593D-03-0.415D-02-0.141D-01-0.242D-01 0.260D-01
 Coeff-Com:  0.359D+00 0.657D+00
 Coeff:      0.321D-03-0.593D-03-0.415D-02-0.141D-01-0.242D-01 0.260D-01
 Coeff:      0.359D+00 0.657D+00
 Gap=     0.298 Goal=   None    Shift=    0.000
 RMSDP=2.63D-06 MaxDP=1.01D-04 DE=-6.39D-07 OVMax= 2.15D-04

 Cycle   9  Pass 1  IDiag  1:
 RMSU=  2.05D-06    CP:  1.04D+00  9.97D-01  9.36D-01  8.17D-01  8.51D-01
                    CP:  9.32D-01  1.11D+00  8.58D-01
 E= -323.722272205793     Delta-E=       -0.000000067850 Rises=F Damp=F
 DIIS: error= 1.20D-05 at cycle   9 NSaved=   9.
 NSaved= 9 IEnMin= 9 EnMin= -323.722272205793     IErMin= 9 ErrMin= 1.20D-05
 ErrMax= 1.20D-05  0.00D+00 EMaxC= 1.00D-01 BMatC= 1.15D-08 BMatP= 4.58D-08
 IDIUse=1 WtCom= 1.00D+00 WtEn= 0.00D+00
 Coeff-Com: -0.927D-04 0.263D-03 0.732D-03 0.939D-03-0.189D-02-0.265D-01
 Coeff-Com: -0.753D-01 0.290D+00 0.811D+00
 Coeff:     -0.927D-04 0.263D-03 0.732D-03 0.939D-03-0.189D-02-0.265D-01
 Coeff:     -0.753D-01 0.290D+00 0.811D+00
 Gap=     0.298 Goal=   None    Shift=    0.000
 RMSDP=1.34D-06 MaxDP=3.49D-05 DE=-6.78D-08 OVMax= 8.99D-05

 Cycle  10  Pass 1  IDiag  1:
 RMSU=  7.35D-07    CP:  1.04D+00  9.97D-01  9.36D-01  8.18D-01  8.54D-01
                    CP:  9.29D-01  1.14D+00  9.70D-01  9.22D-01
 E= -323.722272225775     Delta-E=       -0.000000019983 Rises=F Damp=F
 DIIS: error= 2.77D-06 at cycle  10 NSaved=  10.
 NSaved=10 IEnMin=10 EnMin= -323.722272225775     IErMin=10 ErrMin= 2.77D-06
 ErrMax= 2.77D-06  0.00D+00 EMaxC= 1.00D-01 BMatC= 5.00D-10 BMatP= 1.15D-08
 IDIUse=1 WtCom= 1.00D+00 WtEn= 0.00D+00
 Coeff-Com: -0.598D-04 0.135D-03 0.556D-03 0.149D-02 0.194D-02-0.928D-02
 Coeff-Com: -0.513D-01 0.235D-01 0.193D+00 0.840D+00
 Coeff:     -0.598D-04 0.135D-03 0.556D-03 0.149D-02 0.194D-02-0.928D-02
 Coeff:     -0.513D-01 0.235D-01 0.193D+00 0.840D+00
 Gap=     0.298 Goal=   None    Shift=    0.000
 RMSDP=3.30D-07 MaxDP=1.11D-05 DE=-2.00D-08 OVMax= 3.14D-05

 Cycle  11  Pass 1  IDiag  1:
 RMSU=  2.02D-07    CP:  1.04D+00  9.97D-01  9.36D-01  8.18D-01  8.54D-01
                    CP:  9.28D-01  1.14D+00  9.82D-01  9.85D-01  1.12D+00
 E= -323.722272227016     Delta-E=       -0.000000001241 Rises=F Damp=F
 DIIS: error= 1.02D-06 at cycle  11 NSaved=  11.
 NSaved=11 IEnMin=11 EnMin= -323.722272227016     IErMin=11 ErrMin= 1.02D-06
 ErrMax= 1.02D-06  0.00D+00 EMaxC= 1.00D-01 BMatC= 1.66D-10 BMatP= 5.00D-10
 IDIUse=1 WtCom= 1.00D+00 WtEn= 0.00D+00
 Coeff-Com: -0.173D-04 0.321D-04 0.140D-03 0.491D-03 0.982D-03-0.945D-03
 Coeff-Com: -0.120D-01-0.246D-01-0.253D-01 0.381D+00 0.680D+00
 Coeff:     -0.173D-04 0.321D-04 0.140D-03 0.491D-03 0.982D-03-0.945D-03
 Coeff:     -0.120D-01-0.246D-01-0.253D-01 0.381D+00 0.680D+00
 Gap=     0.298 Goal=   None    Shift=    0.000
 RMSDP=1.27D-07 MaxDP=5.03D-06 DE=-1.24D-09 OVMax= 9.33D-06

 Cycle  12  Pass 1  IDiag  1:
 RMSU=  7.77D-08    CP:  1.04D+00  9.97D-01  9.36D-01  8.18D-01  8.54D-01
                    CP:  9.27D-01  1.14D+00  9.88D-01  9.85D-01  1.19D+00
                    CP:  9.62D-01
 E= -323.722272227258     Delta-E=       -0.000000000242 Rises=F Damp=F
 DIIS: error= 2.50D-07 at cycle  12 NSaved=  12.
 NSaved=12 IEnMin=12 EnMin= -323.722272227258     IErMin=12 ErrMin= 2.50D-07
 ErrMax= 2.50D-07  0.00D+00 EMaxC= 1.00D-01 BMatC= 1.05D-11 BMatP= 1.66D-10
 IDIUse=1 WtCom= 1.00D+00 WtEn= 0.00D+00
 Coeff-Com:  0.366D-05-0.966D-05-0.595D-04-0.130D-03-0.110D-03 0.117D-02
 Coeff-Com:  0.589D-02-0.835D-02-0.394D-01-0.554D-01 0.125D+00 0.972D+00
 Coeff:      0.366D-05-0.966D-05-0.595D-04-0.130D-03-0.110D-03 0.117D-02
 Coeff:      0.589D-02-0.835D-02-0.394D-01-0.554D-01 0.125D+00 0.972D+00
 Gap=     0.298 Goal=   None    Shift=    0.000
 RMSDP=7.26D-08 MaxDP=4.31D-06 DE=-2.42D-10 OVMax= 4.02D-06

 Cycle  13  Pass 1  IDiag  1:
 RMSU=  3.31D-08    CP:  1.04D+00  9.97D-01  9.36D-01  8.18D-01  8.54D-01
                    CP:  9.28D-01  1.14D+00  9.88D-01  9.91D-01  1.22D+00
                    CP:  1.06D+00  9.90D-01
 E= -323.722272227280     Delta-E=       -0.000000000022 Rises=F Damp=F
 DIIS: error= 7.06D-08 at cycle  13 NSaved=  13.
 NSaved=13 IEnMin=13 EnMin= -323.722272227280     IErMin=13 ErrMin= 7.06D-08
 ErrMax= 7.06D-08  0.00D+00 EMaxC= 1.00D-01 BMatC= 4.02D-13 BMatP= 1.05D-11
 IDIUse=1 WtCom= 1.00D+00 WtEn= 0.00D+00
 Coeff-Com:  0.577D-06-0.149D-05-0.129D-04-0.374D-04-0.628D-04 0.162D-03
 Coeff-Com:  0.123D-02-0.102D-03-0.404D-02-0.229D-01-0.131D-01 0.142D+00
 Coeff-Com:  0.897D+00
 Coeff:      0.577D-06-0.149D-05-0.129D-04-0.374D-04-0.628D-04 0.162D-03
 Coeff:      0.123D-02-0.102D-03-0.404D-02-0.229D-01-0.131D-01 0.142D+00
 Coeff:      0.897D+00
 Gap=     0.298 Goal=   None    Shift=    0.000
 RMSDP=9.05D-09 MaxDP=2.19D-07 DE=-2.24D-11 OVMax= 7.00D-07

 SCF Done:  E(RM062X) =  -323.722272227     A.U. after   13 cycles
            NFock= 13  Conv=0.90D-08     -V/T= 2.0050
 KE= 3.220995009910D+02 PE=-1.305065106363D+03 EE= 3.785250000649D+02
 Leave Link  502 at Mon Oct 14 10:44:26 2019, MaxMem= 10737418240 cpu:             149.6 elap:               6.3
 (Enter /apps/cent7/gaussian/g16-A.03/g16-haswell/g16/l601.exe)
 Copying SCF densities to generalized density rwf, IOpCl= 0 IROHF=0.

 **********************************************************************

            Population analysis using the SCF density.

 **********************************************************************

 Orbital symmetries:
       Occupied  (A) (A) (A) (A) (A) (A) (A) (A) (A) (A) (A) (A)
                 (A) (A) (A) (A) (A) (A) (A) (A) (A) (A) (A) (A)
                 (A)
       Virtual   (A) (A) (A) (A) (A) (A) (A) (A) (A) (A) (A) (A)
                 (A) (A) (A) (A) (A) (A) (A) (A) (A) (A) (A) (A)
                 (A) (A) (A) (A) (A) (A) (A) (A) (A) (A) (A) (A)
                 (A) (A) (A) (A) (A) (A) (A) (A) (A) (A) (A) (A)
                 (A) (A) (A) (A) (A) (A) (A) (A) (A) (A) (A) (A)
                 (A) (A) (A) (A) (A) (A) (A) (A) (A) (A) (A) (A)
                 (A) (A) (A) (A) (A) (A) (A) (A) (A) (A) (A) (A)
                 (A) (A) (A) (A) (A) (A) (A) (A) (A) (A) (A) (A)
                 (A) (A) (A) (A) (A) (A) (A) (A) (A) (A) (A) (A)
                 (A) (A) (A) (A) (A) (A) (A) (A) (A) (A) (A) (A)
                 (A) (A) (A) (A) (A) (A) (A) (A) (A) (A) (A) (A)
                 (A) (A) (A) (A) (A) (A) (A) (A) (A) (A) (A) (A)
                 (A) (A) (A) (A) (A) (A) (A) (A) (A) (A) (A) (A)
                 (A) (A) (A) (A) (A) (A) (A) (A) (A) (A) (A) (A)
                 (A) (A) (A)
 The electronic state is 1-A.
 Alpha  occ. eigenvalues --  -19.89490 -15.11761 -10.83496 -10.80818 -10.77164
 Alpha  occ. eigenvalues --  -10.77124 -10.76924  -1.47572  -1.25549  -1.10984
 Alpha  occ. eigenvalues --   -1.07949  -0.95603  -0.93435  -0.88072  -0.79975
 Alpha  occ. eigenvalues --   -0.78814  -0.77631  -0.74732  -0.71495  -0.67393
 Alpha  occ. eigenvalues --   -0.64583  -0.63450  -0.61793  -0.55408  -0.52740
 Alpha virt. eigenvalues --   -0.22971  -0.19673  -0.14337  -0.12195  -0.10890
 Alpha virt. eigenvalues --   -0.09726  -0.08524  -0.08316  -0.07935  -0.06665
 Alpha virt. eigenvalues --   -0.05856  -0.04784  -0.04425  -0.03974  -0.03269
 Alpha virt. eigenvalues --   -0.01860  -0.01083  -0.00117   0.00206   0.00763
 Alpha virt. eigenvalues --    0.00828   0.01173   0.01630   0.01967   0.02690
 Alpha virt. eigenvalues --    0.04123   0.04744   0.05099   0.05871   0.06619
 Alpha virt. eigenvalues --    0.07912   0.08172   0.08739   0.09444   0.10207
 Alpha virt. eigenvalues --    0.10702   0.11997   0.12965   0.14405   0.15327
 Alpha virt. eigenvalues --    0.15882   0.16468   0.20885   0.21529   0.21846
 Alpha virt. eigenvalues --    0.22629   0.23115   0.29418   0.30495   0.33923
 Alpha virt. eigenvalues --    0.35818   0.37296   0.39462   0.39957   0.40738
 Alpha virt. eigenvalues --    0.42790   0.43731   0.44778   0.46825   0.48533
 Alpha virt. eigenvalues --    0.49894   0.51445   0.53696   0.56822   0.59534
 Alpha virt. eigenvalues --    0.61589   0.62567   0.64758   0.67262   0.68349
 Alpha virt. eigenvalues --    0.68851   0.72941   0.73715   0.76273   0.77863
 Alpha virt. eigenvalues --    0.81761   0.84801   0.87200   0.88246   0.88716
 Alpha virt. eigenvalues --    0.89277   0.91069   0.93817   0.95807   0.98197
 Alpha virt. eigenvalues --    1.00783   1.04565   1.16234   1.22511   1.23975
 Alpha virt. eigenvalues --    1.26980   1.29932   1.33414   1.39500   1.39675
 Alpha virt. eigenvalues --    1.40809   1.41070   1.41743   1.46308   1.46585
 Alpha virt. eigenvalues --    1.55014   1.58364   1.59266   1.61384   1.62542
 Alpha virt. eigenvalues --    1.65464   1.67588   1.70902   1.72636   1.75989
 Alpha virt. eigenvalues --    1.76402   1.81323   1.82864   1.86755   1.88833
 Alpha virt. eigenvalues --    1.91293   1.96343   2.01344   2.09839   2.12531
 Alpha virt. eigenvalues --    2.14811   2.23649   2.25772   2.31500   2.33160
 Alpha virt. eigenvalues --    2.36394   2.37927   2.43608   2.47774   2.53846
 Alpha virt. eigenvalues --    2.54265   2.56039   2.56549   2.58218   2.59994
 Alpha virt. eigenvalues --    2.63310   2.64487   2.67377   2.68631   2.72919
 Alpha virt. eigenvalues --    2.73488   2.81909   2.89488   2.94589   3.03422
 Alpha virt. eigenvalues --    3.07541   3.13521   3.17198   3.30595   3.37102
 Alpha virt. eigenvalues --    3.42315   3.44517   3.62453   3.66968   3.73782
 Alpha virt. eigenvalues --    3.84736   3.88332   3.94591   4.15358   4.35104
 Alpha virt. eigenvalues --    4.86753   4.95466   5.29746   5.70026  23.54255
 Alpha virt. eigenvalues --   23.61384  23.73523  24.00934  24.06543  35.34402
 Alpha virt. eigenvalues --   49.80927
          Condensed to atoms (all electrons):
               1          2          3          4          5          6
     1  O    7.564011   0.197519  -0.072568  -0.008526   0.054834   0.043468
     2  N    0.197519   6.991600  -0.186675   0.207828  -0.141158   0.173455
     3  C   -0.072568  -0.186675   7.143505  -0.420791  -0.003302   0.638036
     4  C   -0.008526   0.207828  -0.420791   5.879052  -0.337168   0.381709
     5  C    0.054834  -0.141158  -0.003302  -0.337168   6.097517  -0.424140
     6  C    0.043468   0.173455   0.638036   0.381709  -0.424140   7.219503
     7  C   -0.082825  -0.062211  -1.264951   0.080669   0.380202  -2.282060
     8  H    0.000770  -0.079927   0.463828  -0.054566   0.013984   0.003794
     9  H   -0.001957   0.023918  -0.096469   0.413392  -0.018718  -0.001018
    10  H    0.001049  -0.001050  -0.001844  -0.054469   0.412062  -0.058313
    11  H   -0.000367   0.021526   0.034816   0.002001  -0.011727   0.450942
    12  H   -0.004315  -0.076206  -0.032466   0.003715   0.024151  -0.181295
    13  H    0.286702  -0.010345   0.029705  -0.016054  -0.002151   0.028417
               7          8          9         10         11         12
     1  O   -0.082825   0.000770  -0.001957   0.001049  -0.000367  -0.004315
     2  N   -0.062211  -0.079927   0.023918  -0.001050   0.021526  -0.076206
     3  C   -1.264951   0.463828  -0.096469  -0.001844   0.034816  -0.032466
     4  C    0.080669  -0.054566   0.413392  -0.054469   0.002001   0.003715
     5  C    0.380202   0.013984  -0.018718   0.412062  -0.011727   0.024151
     6  C   -2.282060   0.003794  -0.001018  -0.058313   0.450942  -0.181295
     7  C    9.103801  -0.000096   0.024443   0.036266  -0.157551   0.606780
     8  H   -0.000096   0.372976  -0.004198   0.000300   0.000081   0.000126
     9  H    0.024443  -0.004198   0.381371  -0.001965  -0.000610   0.000385
    10  H    0.036266   0.000300  -0.001965   0.389734  -0.000763   0.001535
    11  H   -0.157551   0.000081  -0.000610  -0.000763   0.385077  -0.011506
    12  H    0.606780   0.000126   0.000385   0.001535  -0.011506   0.416357
    13  H   -0.049056   0.001161  -0.000292   0.000035   0.000791  -0.007293
              13
     1  O    0.286702
     2  N   -0.010345
     3  C    0.029705
     4  C   -0.016054
     5  C   -0.002151
     6  C    0.028417
     7  C   -0.049056
     8  H    0.001161
     9  H   -0.000292
    10  H    0.000035
    11  H    0.000791
    12  H   -0.007293
    13  H    0.412633
 Mulliken charges:
               1
     1  O    0.022206
     2  N   -0.058272
     3  C   -0.230824
     4  C   -0.076793
     5  C   -0.044386
     6  C    0.007502
     7  C   -0.333410
     8  H    0.281767
     9  H    0.281717
    10  H    0.277423
    11  H    0.287291
    12  H    0.260031
    13  H    0.325748
 Sum of Mulliken charges =   1.00000
 Mulliken charges with hydrogens summed into heavy atoms:
               1
     1  O    0.347954
     2  N   -0.058272
     3  C    0.050943
     4  C    0.204924
     5  C    0.233037
     6  C    0.294793
     7  C   -0.073379
 Electronic spatial extent (au):  <R**2>=            660.8563
 Charge=              1.0000 electrons
 Dipole moment (field-independent basis, Debye):
    X=              0.4719    Y=              0.4067    Z=              1.4126  Tot=              1.5439
 Quadrupole moment (field-independent basis, Debye-Ang):
   XX=            -22.0157   YY=            -24.5664   ZZ=            -40.6770
   XY=             -1.9799   XZ=             -4.1965   YZ=              0.6533
 Traceless Quadrupole moment (field-independent basis, Debye-Ang):
   XX=              7.0707   YY=              4.5200   ZZ=            -11.5906
   XY=             -1.9799   XZ=             -4.1965   YZ=              0.6533
 Octapole moment (field-independent basis, Debye-Ang**2):
  XXX=             -3.2457  YYY=             -0.1611  ZZZ=              1.2611  XYY=              0.3685
  XXY=              6.3174  XXZ=             12.6361  XZZ=             -9.3366  YZZ=             -0.1148
  YYZ=             -0.0181  XYZ=             -2.0879
 Hexadecapole moment (field-independent basis, Debye-Ang**3):
 XXXX=           -378.2519 YYYY=           -208.8176 ZZZZ=            -42.6716 XXXY=            -20.8551
 XXXZ=            -33.8657 YYYX=              1.5188 YYYZ=             -0.1050 ZZZX=             -4.3687
 ZZZY=              0.8944 XXYY=           -104.2782 XXZZ=            -89.2657 YYZZ=            -59.1883
 XXYZ=              5.2424 YYXZ=             -0.7525 ZZXY=             -0.7622
 N-N= 2.807183330801D+02 E-N=-1.305065104096D+03  KE= 3.220995009910D+02
 No NMR shielding tensors so no spin-rotation constants.
 Leave Link  601 at Mon Oct 14 10:44:26 2019, MaxMem= 10737418240 cpu:               2.3 elap:               0.1
 (Enter /apps/cent7/gaussian/g16-A.03/g16-haswell/g16/l701.exe)
 ... and contract with generalized density number  0.
 Compute integral first derivatives.
 Leave Link  701 at Mon Oct 14 10:44:26 2019, MaxMem= 10737418240 cpu:               2.6 elap:               0.1
 (Enter /apps/cent7/gaussian/g16-A.03/g16-haswell/g16/l702.exe)
 L702 exits ... SP integral derivatives will be done elsewhere.
 Leave Link  702 at Mon Oct 14 10:44:26 2019, MaxMem= 10737418240 cpu:               0.5 elap:               0.0
 (Enter /apps/cent7/gaussian/g16-A.03/g16-haswell/g16/l703.exe)
 Integral derivatives from FoFJK, PRISM(SPDF).
 Compute integral first derivatives, UseDBF=F ICtDFT=           0.
 Calling FoFJK, ICntrl=      2127 FMM=F ISym2X=0 I1Cent= 0 IOpClX= 0 NMat=1 NMatS=1 NMatT=0.
 FoFJK:  IHMeth= 1 ICntrl=    2127 DoSepK=F KAlg= 0 I1Cent=           0 FoldK=F
 IRaf=         0 NMat=       1 IRICut=       1 DoRegI=T DoRafI=F ISym2E= 0 IDoP0=0 IntGTp=1.
 FoFCou: FMM=F IPFlag=           0 FMFlag=      100000 FMFlg1=         800
         NFxFlg=           0 DoJE=F BraDBF=F KetDBF=F FulRan=T
         wScrn=  0.000000 ICntrl=      2127 IOpCl=  0 I1Cent=           0 NGrid=           0
         NMat0=    1 NMatS0=      1 NMatT0=    0 NMatD0=    1 NMtDS0=    0 NMtDT0=    0
 Symmetry not used in FoFCou.
 Leave Link  703 at Mon Oct 14 10:44:27 2019, MaxMem= 10737418240 cpu:              24.9 elap:               1.1
 (Enter /apps/cent7/gaussian/g16-A.03/g16-haswell/g16/l716.exe)
 Dipole        = 1.85667447D-01 1.60018137D-01 5.55760176D-01
 ***** Axes restored to original set *****
 -------------------------------------------------------------------
 Center     Atomic                   Forces (Hartrees/Bohr)
 Number     Number              X              Y              Z
 -------------------------------------------------------------------
      1        8           0.002928719   -0.007537473   -0.016725658
      2        7           0.035491104    0.055277675    0.009604159
      3        6           0.076561500   -0.005749519   -0.001412446
      4        6          -0.069904645    0.011466193   -0.001371535
      5        6          -0.042703803    0.055206726   -0.000022507
      6        6           0.017478813   -0.069302290    0.000381090
      7        6          -0.003496122   -0.038953446   -0.000809345
      8        1          -0.009764436   -0.005563284    0.000705945
      9        1          -0.003491329   -0.011364497   -0.000123747
     10        1           0.009049571    0.003536310    0.000117006
     11        1           0.003296587    0.007612335   -0.000090206
     12        1          -0.016327189    0.000025613   -0.000592744
     13        1           0.000881231    0.005345657    0.010339987
 -------------------------------------------------------------------
 Cartesian Forces:  Max     0.076561500 RMS     0.026801282
 Leave Link  716 at Mon Oct 14 10:44:28 2019, MaxMem= 10737418240 cpu:               0.6 elap:               0.0
 (Enter /apps/cent7/gaussian/g16-A.03/g16-haswell/g16/l103.exe)

 GradGradGradGradGradGradGradGradGradGradGradGradGradGradGradGradGradGrad
 Berny optimization.
 FormGI is forming the generalized inverse of G from B-inverse, IUseBI=4.
 Internal  Forces:  Max     0.074024532 RMS     0.015756963
 Search for a local minimum.
 Step number   1 out of a maximum of   68
 All quantities printed in internal units (Hartrees-Bohrs-Radians)
 RMS Force = .15757D-01 SwitMx=.10000D-02 MixMth= 1
 Mixed Optimization -- RFO/linear search
 Second derivative matrix not updated -- first step.
 ITU=  0
     Eigenvalues ---    0.00856   0.00962   0.01503   0.01572   0.01580
     Eigenvalues ---    0.01628   0.01768   0.01824   0.02245   0.02383
     Eigenvalues ---    0.16000   0.16000   0.16000   0.16000   0.16000
     Eigenvalues ---    0.16000   0.22000   0.22000   0.23505   0.24992
     Eigenvalues ---    0.28022   0.28756   0.34196   0.37230   0.37230
     Eigenvalues ---    0.37230   0.37230   0.37230   0.51590   0.52948
     Eigenvalues ---    0.53837   0.55473   0.64911
 RFO step:  Lambda=-4.29469824D-02 EMin= 8.56237956D-03
 Linear search not attempted -- first point.
 Maximum step size (   0.300) exceeded in Quadratic search.
    -- Step size scaled by   0.829
 Iteration  1 RMS(Cart)=  0.05131787 RMS(Int)=  0.00065229
 Iteration  2 RMS(Cart)=  0.00075524 RMS(Int)=  0.00011389
 Iteration  3 RMS(Cart)=  0.00000038 RMS(Int)=  0.00011389
 ITry= 1 IFail=0 DXMaxC= 1.44D-01 DCOld= 1.00D+10 DXMaxT= 3.00D-01 DXLimC= 3.00D+00 Rises=F
 Variable       Old X    -DE/DX   Delta X   Delta X   Delta X     New X
                                 (Linear)    (Quad)   (Total)
    R1        2.57003  -0.00373   0.00000  -0.00540  -0.00540   2.56462
    R2        1.81414   0.01061   0.00000   0.01473   0.01473   1.82886
    R3        2.45658  -0.00057   0.00000  -0.00072  -0.00062   2.45596
    R4        2.79040  -0.05903   0.00000  -0.12615  -0.12619   2.66421
    R5        2.91000  -0.07402   0.00000  -0.18551  -0.18536   2.72465
    R6        2.02201   0.00975   0.00000   0.01947   0.01947   2.04148
    R7        2.54859   0.00647   0.00000   0.00995   0.01000   2.55859
    R8        2.02201   0.00817   0.00000   0.01632   0.01632   2.03832
    R9        2.89831  -0.06074   0.00000  -0.15085  -0.15095   2.74736
   R10        2.02201   0.00908   0.00000   0.01814   0.01814   2.04014
   R11        2.56173  -0.01265   0.00000  -0.01896  -0.01911   2.54262
   R12        2.02201   0.00826   0.00000   0.01650   0.01650   2.03851
   R13        2.02201   0.00851   0.00000   0.01700   0.01700   2.03900
    A1        1.91063  -0.00878   0.00000  -0.03587  -0.03587   1.87477
    A2        2.08399  -0.00618   0.00000  -0.01695  -0.01710   2.06689
    A3        2.08400  -0.00458   0.00000  -0.01236  -0.01252   2.07147
    A4        2.11493   0.01071   0.00000   0.02870   0.02866   2.14359
    A5        2.10545  -0.00543   0.00000  -0.01488  -0.01461   2.09084
    A6        2.08887  -0.00294   0.00000  -0.01567  -0.01581   2.07306
    A7        2.08887   0.00837   0.00000   0.03056   0.03042   2.11928
    A8        2.08250  -0.00176   0.00000  -0.00068  -0.00046   2.08203
    A9        2.10034  -0.00786   0.00000  -0.03536  -0.03546   2.06488
   A10        2.10034   0.00961   0.00000   0.03603   0.03593   2.13627
   A11        2.07287   0.00217   0.00000   0.00996   0.00992   2.08278
   A12        2.10516   0.00241   0.00000   0.00932   0.00933   2.11449
   A13        2.10516  -0.00458   0.00000  -0.01927  -0.01925   2.08591
   A14        2.08520   0.00106   0.00000   0.00186   0.00161   2.08681
   A15        2.09899   0.00023   0.00000   0.00219   0.00230   2.10130
   A16        2.09899  -0.00129   0.00000  -0.00405  -0.00393   2.09506
   A17        2.10538  -0.00677   0.00000  -0.02502  -0.02520   2.08018
   A18        2.08890  -0.01070   0.00000  -0.04506  -0.04497   2.04393
   A19        2.08890   0.01747   0.00000   0.07008   0.07017   2.15907
    D1        2.10662   0.00052   0.00000   0.00776   0.00745   2.11408
    D2       -1.05943  -0.00143   0.00000  -0.02020  -0.01990  -1.07932
    D3        3.12739  -0.00200   0.00000  -0.02620  -0.02616   3.10123
    D4       -0.01443  -0.00173   0.00000  -0.02225  -0.02230  -0.03673
    D5        0.01070   0.00021   0.00000   0.00288   0.00302   0.01372
    D6       -3.13112   0.00048   0.00000   0.00683   0.00688  -3.12424
    D7       -3.12755   0.00159   0.00000   0.02072   0.02079  -3.10676
    D8        0.01427   0.00123   0.00000   0.01641   0.01662   0.03088
    D9       -0.01086  -0.00064   0.00000  -0.00842  -0.00852  -0.01938
   D10        3.13095  -0.00100   0.00000  -0.01273  -0.01270   3.11826
   D11       -0.00431   0.00039   0.00000   0.00424   0.00425  -0.00007
   D12        3.13748   0.00017   0.00000   0.00172   0.00176   3.13924
   D13        3.13750   0.00012   0.00000   0.00030   0.00029   3.13779
   D14       -0.00389  -0.00010   0.00000  -0.00222  -0.00220  -0.00609
   D15       -0.00219  -0.00037   0.00000  -0.00534  -0.00540  -0.00759
   D16        3.13980  -0.00020   0.00000  -0.00237  -0.00240   3.13740
   D17        3.13920  -0.00015   0.00000  -0.00282  -0.00281   3.13639
   D18       -0.00199   0.00002   0.00000   0.00014   0.00019  -0.00180
   D19        0.00203  -0.00005   0.00000  -0.00005  -0.00008   0.00194
   D20       -3.13937   0.00041   0.00000   0.00645   0.00646  -3.13290
   D21       -3.13997  -0.00022   0.00000  -0.00301  -0.00303   3.14019
   D22        0.00183   0.00025   0.00000   0.00349   0.00352   0.00534
   D23        0.00413   0.00055   0.00000   0.00686   0.00682   0.01095
   D24       -3.13769   0.00090   0.00000   0.01115   0.01127  -3.12642
   D25       -3.13766   0.00009   0.00000   0.00036   0.00029  -3.13737
   D26        0.00371   0.00044   0.00000   0.00465   0.00474   0.00845
         Item               Value     Threshold  Converged?
 Maximum Force            0.074025     0.000450     NO 
 RMS     Force            0.015757     0.000300     NO 
 Maximum Displacement     0.144154     0.001800     NO 
 RMS     Displacement     0.051479     0.001200     NO 
 Predicted change in Energy=-2.284313D-02
 Lowest energy point so far.  Saving SCF results.
 GradGradGradGradGradGradGradGradGradGradGradGradGradGradGradGradGradGrad

 Leave Link  103 at Mon Oct 14 10:44:28 2019, MaxMem= 10737418240 cpu:               1.2 elap:               0.1
 (Enter /apps/cent7/gaussian/g16-A.03/g16-haswell/g16/l202.exe)
                          Input orientation:                          
 ---------------------------------------------------------------------
 Center     Atomic      Atomic             Coordinates (Angstroms)
 Number     Number       Type             X           Y           Z
 ---------------------------------------------------------------------
      1          8           0       -2.002440    1.119700   -0.020932
      2          7           0       -0.646005    1.137150    0.019176
      3          6           0       -0.012130    0.002629    0.007794
      4          6           0        1.429585   -0.012515   -0.000995
      5          6           0        2.104412    1.161267    0.002685
      6          6           0        1.360633    2.410441    0.005790
      7          6           0        0.015433    2.382141    0.007236
      8          1           0       -0.585096   -0.913191    0.001697
      9          1           0        1.931063   -0.967460   -0.008146
     10          1           0        3.183746    1.184949    0.000209
     11          1           0        1.880857    3.355429    0.000656
     12          1           0       -0.602086    3.266884   -0.004084
     13          1           0       -2.321554    1.572307    0.772752
 ---------------------------------------------------------------------
                    Distance matrix (angstroms):
                    1          2          3          4          5
     1  O    0.000000
     2  N    1.357140   0.000000
     3  C    2.282544   1.299640   0.000000
     4  C    3.614015   2.372807   1.441822   0.000000
     5  C    4.107131   2.750573   2.412928   1.353946   0.000000
     6  C    3.602359   2.376561   2.771649   2.423946   1.453840
     7  C    2.380413   1.409838   2.379671   2.781056   2.419584
     8  H    2.478310   2.051320   1.080302   2.206845   3.396591
     9  H    4.452960   3.327374   2.171942   1.078634   2.135802
    10  H    5.186640   3.830097   3.407574   2.123912   1.079597
    11  H    4.480955   3.362460   3.850288   3.398044   2.205522
    12  H    2.563528   2.130314   3.317160   3.857740   3.429111
    13  H    0.967792   1.888042   2.895253   4.145044   4.511223
                    6          7          8          9         10
     6  C    0.000000
     7  C    1.345498   0.000000
     8  H    3.851286   3.349608   0.000000
     9  H    3.425755   3.858718   2.516764   0.000000
    10  H    2.196726   3.386964   4.313509   2.490411   0.000000
    11  H    1.078732   2.104077   4.929710   4.323190   2.531503
    12  H    2.141462   1.078994   4.180113   4.934221   4.320532
    13  H    3.853466   2.589084   3.128500   5.014477   5.572719
                   11         12         13
    11  H    0.000000
    12  H    2.484526   0.000000
    13  H    4.629894   2.536067   0.000000
 Stoichiometry    C5H6NO(1+)
 Framework group  C1[X(C5H6NO)]
 Deg. of freedom    33
 Full point group                 C1      NOp   1
 RotChk:  IX=0 Diff= 4.47D-03
 Largest Abelian subgroup         C1      NOp   1
 Largest concise Abelian subgroup C1      NOp   1
                         Standard orientation:                         
 ---------------------------------------------------------------------
 Center     Atomic      Atomic             Coordinates (Angstroms)
 Number     Number       Type             X           Y           Z
 ---------------------------------------------------------------------
      1          8           0       -2.243328   -0.060021   -0.073719
      2          7           0       -0.887727   -0.041438   -0.011836
      3          6           0       -0.253163   -1.175612   -0.005125
      4          6           0        1.188514   -1.189909    0.009471
      5          6           0        1.862585   -0.015704    0.015919
      6          6           0        1.118206    1.232992   -0.001637
      7          6           0       -0.226827    1.203856   -0.021715
      8          1           0       -0.825481   -2.091813   -0.014130
      9          1           0        1.690537   -2.144564    0.017032
     10          1           0        2.941806    0.008640    0.030707
     11          1           0        1.637956    2.178250   -0.004914
     12          1           0       -0.844541    2.088111   -0.049131
     13          1           0       -2.575453    0.397864    0.711556
 ---------------------------------------------------------------------
 Rotational constants (GHZ):           5.7262853           2.6672340           1.8274714
 Leave Link  202 at Mon Oct 14 10:44:28 2019, MaxMem= 10737418240 cpu:               0.3 elap:               0.0
 (Enter /apps/cent7/gaussian/g16-A.03/g16-haswell/g16/l301.exe)
 Standard basis: 6-311++G(d,p) (5D, 7F)
 Ernie: Thresh=  0.10000D-02 Tol=  0.10000D-05 Strict=F.
 There are   203 symmetry adapted cartesian basis functions of A   symmetry.
 There are   196 symmetry adapted basis functions of A   symmetry.
   196 basis functions,   306 primitive gaussians,   203 cartesian basis functions
    25 alpha electrons       25 beta electrons
       nuclear repulsion energy       286.7210029438 Hartrees.
 IExCor= 4336 DFT=T Ex+Corr=M062X ExCW=0 ScaHFX=  0.540000
 ScaDFX=  1.000000  1.000000  1.000000  1.000000 ScalE2=  1.000000  1.000000
 IRadAn=      5 IRanWt=     -1 IRanGd=            0 ICorTp=0 IEmpDi=  4
 NAtoms=   13 NActive=   13 NUniq=   13 SFac= 1.00D+00 NAtFMM=   60 NAOKFM=F Big=F
 Integral buffers will be    131072 words long.
 Raffenetti 2 integral format.
 Two-electron integral symmetry is turned on.
 Leave Link  301 at Mon Oct 14 10:44:28 2019, MaxMem= 10737418240 cpu:               1.7 elap:               0.1
 (Enter /apps/cent7/gaussian/g16-A.03/g16-haswell/g16/l302.exe)
 NPDir=0 NMtPBC=     1 NCelOv=     1 NCel=       1 NClECP=     1 NCelD=      1
         NCelK=      1 NCelE2=     1 NClLst=     1 CellRange=     0.0.
 One-electron integrals computed using PRISM.
 One-electron integral symmetry used in STVInt
 NBasis=   196 RedAO= T EigKep=  6.56D-06  NBF=   196
 NBsUse=   196 1.00D-06 EigRej= -1.00D+00 NBFU=   196
 Precomputing XC quadrature grid using
 IXCGrd= 4 IRadAn=           5 IRanWt=          -1 IRanGd=           0 AccXCQ= 0.00D+00.
 Generated NRdTot=       0 NPtTot=           0 NUsed=           0 NTot=          32
 NSgBfM=   203   203   203   203   203 MxSgAt=    13 MxSgA2=    13.
 Leave Link  302 at Mon Oct 14 10:44:28 2019, MaxMem= 10737418240 cpu:               3.3 elap:               0.2
 (Enter /apps/cent7/gaussian/g16-A.03/g16-haswell/g16/l303.exe)
 DipDrv:  MaxL=1.
 Leave Link  303 at Mon Oct 14 10:44:28 2019, MaxMem= 10737418240 cpu:               0.7 elap:               0.1
 (Enter /apps/cent7/gaussian/g16-A.03/g16-haswell/g16/l401.exe)
 Initial guess from the checkpoint file:  "3_p.chk"
 B after Tr=     0.000000    0.000000   -0.000000
         Rot=    1.000000    0.000251   -0.000000    0.000040 Ang=   0.03 deg.
 Guess basis will be translated and rotated to current coordinates.
 JPrj=2 DoOrth=T DoCkMO=T.
 Generating alternative initial guess.
 ExpMin= 3.60D-02 ExpMax= 8.59D+03 ExpMxC= 1.30D+03 IAcc=3 IRadAn=         5 AccDes= 0.00D+00
 Harris functional with IExCor= 1009 and IRadAn=       5 diagonalized for initial guess.
 HarFok:  IExCor= 1009 AccDes= 0.00D+00 IRadAn=         5 IDoV= 1 UseB2=F ITyADJ=14
 ICtDFT=  3500011 ScaDFX=  1.000000  1.000000  1.000000  1.000000
 FoFCou: FMM=F IPFlag=           0 FMFlag=      100000 FMFlg1=           0
         NFxFlg=           0 DoJE=T BraDBF=F KetDBF=T FulRan=T
         wScrn=  0.000000 ICntrl=       500 IOpCl=  0 I1Cent=   200000004 NGrid=           0
         NMat0=    1 NMatS0=      1 NMatT0=    0 NMatD0=    1 NMtDS0=    0 NMtDT0=    0
 Petite list used in FoFCou.
 Harris En= -323.632727128046    
 Leave Link  401 at Mon Oct 14 10:44:28 2019, MaxMem= 10737418240 cpu:               8.4 elap:               0.4
 (Enter /apps/cent7/gaussian/g16-A.03/g16-haswell/g16/l502.exe)
 Integral symmetry usage will be decided dynamically.
 Closed shell SCF:
 Using DIIS extrapolation, IDIIS=  1040.
 NGot= 10737418240 LenX= 10737328915 LenY= 10737287265
 Requested convergence on RMS density matrix=1.00D-08 within 128 cycles.
 Requested convergence on MAX density matrix=1.00D-06.
 Requested convergence on             energy=1.00D-06.
 No special actions if energy rises.
 Fock matrices will be formed incrementally for  20 cycles.

 Cycle   1  Pass 1  IDiag  1:
 FoFJK:  IHMeth= 1 ICntrl=       0 DoSepK=F KAlg= 0 I1Cent=           0 FoldK=F
 IRaf= 980000000 NMat=       1 IRICut=       1 DoRegI=T DoRafI=F ISym2E= 0 IDoP0=0 IntGTp=1.
 FoFCou: FMM=F IPFlag=           0 FMFlag=      100000 FMFlg1=           0
         NFxFlg=           0 DoJE=F BraDBF=F KetDBF=F FulRan=T
         wScrn=  0.000000 ICntrl=         0 IOpCl=  0 I1Cent=           0 NGrid=           0
         NMat0=    1 NMatS0=      1 NMatT0=    0 NMatD0=    1 NMtDS0=    0 NMtDT0=    0
 Symmetry not used in FoFCou.
 E= -323.740554248967    
 DIIS: error= 3.53D-03 at cycle   1 NSaved=   1.
 NSaved= 1 IEnMin= 1 EnMin= -323.740554248967     IErMin= 1 ErrMin= 3.53D-03
 ErrMax= 3.53D-03  0.00D+00 EMaxC= 1.00D-01 BMatC= 5.13D-03 BMatP= 5.13D-03
 IDIUse=3 WtCom= 9.65D-01 WtEn= 3.53D-02
 Coeff-Com:  0.100D+01
 Coeff-En:   0.100D+01
 Coeff:      0.100D+01
 Gap=     0.517 Goal=   None    Shift=    0.000
 GapD=    0.517 DampG=2.000 DampE=1.000 DampFc=2.0000 IDamp=-1.
 RMSDP=3.92D-03 MaxDP=2.28D-01              OVMax= 3.89D-02

 Cycle   2  Pass 1  IDiag  1:
 RMSU=  3.10D-03    CP:  1.09D+00
 E= -323.747553743375     Delta-E=       -0.006999494409 Rises=F Damp=F
 DIIS: error= 1.48D-03 at cycle   2 NSaved=   2.
 NSaved= 2 IEnMin= 2 EnMin= -323.747553743375     IErMin= 2 ErrMin= 1.48D-03
 ErrMax= 1.48D-03  0.00D+00 EMaxC= 1.00D-01 BMatC= 5.64D-04 BMatP= 5.13D-03
 IDIUse=3 WtCom= 9.85D-01 WtEn= 1.48D-02
 Coeff-Com:  0.995D-01 0.900D+00
 Coeff-En:   0.000D+00 0.100D+01
 Coeff:      0.980D-01 0.902D+00
 Gap=     0.308 Goal=   None    Shift=    0.000
 RMSDP=4.57D-04 MaxDP=2.32D-02 DE=-7.00D-03 OVMax= 1.30D-02

 Cycle   3  Pass 1  IDiag  1:
 RMSU=  4.20D-04    CP:  1.10D+00  1.03D+00
 E= -323.748089537578     Delta-E=       -0.000535794203 Rises=F Damp=F
 DIIS: error= 1.19D-03 at cycle   3 NSaved=   3.
 NSaved= 3 IEnMin= 3 EnMin= -323.748089537578     IErMin= 3 ErrMin= 1.19D-03
 ErrMax= 1.19D-03  0.00D+00 EMaxC= 1.00D-01 BMatC= 2.78D-04 BMatP= 5.64D-04
 IDIUse=3 WtCom= 9.88D-01 WtEn= 1.19D-02
 Coeff-Com: -0.390D-01 0.399D+00 0.640D+00
 Coeff-En:   0.000D+00 0.000D+00 0.100D+01
 Coeff:     -0.385D-01 0.394D+00 0.644D+00
 Gap=     0.308 Goal=   None    Shift=    0.000
 RMSDP=3.46D-04 MaxDP=2.35D-02 DE=-5.36D-04 OVMax= 9.10D-03

 Cycle   4  Pass 1  IDiag  1:
 RMSU=  1.93D-04    CP:  1.11D+00  1.08D+00  6.75D-01
 E= -323.748371931337     Delta-E=       -0.000282393759 Rises=F Damp=F
 DIIS: error= 5.50D-04 at cycle   4 NSaved=   4.
 NSaved= 4 IEnMin= 4 EnMin= -323.748371931337     IErMin= 4 ErrMin= 5.50D-04
 ErrMax= 5.50D-04  0.00D+00 EMaxC= 1.00D-01 BMatC= 3.68D-05 BMatP= 2.78D-04
 IDIUse=3 WtCom= 9.95D-01 WtEn= 5.50D-03
 Coeff-Com: -0.231D-01 0.592D-01 0.287D+00 0.676D+00
 Coeff-En:   0.000D+00 0.000D+00 0.000D+00 0.100D+01
 Coeff:     -0.230D-01 0.589D-01 0.286D+00 0.678D+00
 Gap=     0.309 Goal=   None    Shift=    0.000
 RMSDP=8.57D-05 MaxDP=5.51D-03 DE=-2.82D-04 OVMax= 3.87D-03

 Cycle   5  Pass 1  IDiag  1:
 RMSU=  5.36D-05    CP:  1.11D+00  1.07D+00  7.37D-01  8.38D-01
 E= -323.748416966573     Delta-E=       -0.000045035236 Rises=F Damp=F
 DIIS: error= 2.30D-04 at cycle   5 NSaved=   5.
 NSaved= 5 IEnMin= 5 EnMin= -323.748416966573     IErMin= 5 ErrMin= 2.30D-04
 ErrMax= 2.30D-04  0.00D+00 EMaxC= 1.00D-01 BMatC= 4.02D-06 BMatP= 3.68D-05
 IDIUse=3 WtCom= 9.98D-01 WtEn= 2.30D-03
 Coeff-Com:  0.239D-03-0.600D-01-0.902D-02 0.224D+00 0.845D+00
 Coeff-En:   0.000D+00 0.000D+00 0.000D+00 0.000D+00 0.100D+01
 Coeff:      0.239D-03-0.598D-01-0.900D-02 0.223D+00 0.845D+00
 Gap=     0.308 Goal=   None    Shift=    0.000
 RMSDP=3.08D-05 MaxDP=1.31D-03 DE=-4.50D-05 OVMax= 2.68D-03

 Cycle   6  Pass 1  IDiag  1:
 RMSU=  2.36D-05    CP:  1.11D+00  1.07D+00  7.58D-01  8.99D-01  1.06D+00
 E= -323.748427042145     Delta-E=       -0.000010075572 Rises=F Damp=F
 DIIS: error= 1.15D-04 at cycle   6 NSaved=   6.
 NSaved= 6 IEnMin= 6 EnMin= -323.748427042145     IErMin= 6 ErrMin= 1.15D-04
 ErrMax= 1.15D-04  0.00D+00 EMaxC= 1.00D-01 BMatC= 8.14D-07 BMatP= 4.02D-06
 IDIUse=3 WtCom= 9.99D-01 WtEn= 1.15D-03
 Coeff-Com:  0.356D-02-0.381D-01-0.482D-01-0.104D-01 0.365D+00 0.728D+00
 Coeff-En:   0.000D+00 0.000D+00 0.000D+00 0.000D+00 0.000D+00 0.100D+01
 Coeff:      0.356D-02-0.381D-01-0.482D-01-0.104D-01 0.364D+00 0.729D+00
 Gap=     0.308 Goal=   None    Shift=    0.000
 RMSDP=1.66D-05 MaxDP=6.96D-04 DE=-1.01D-05 OVMax= 9.57D-04

 Cycle   7  Pass 1  IDiag  1:
 RMSU=  1.11D-05    CP:  1.11D+00  1.07D+00  7.63D-01  9.40D-01  1.05D+00
                    CP:  1.13D+00
 E= -323.748428677548     Delta-E=       -0.000001635404 Rises=F Damp=F
 DIIS: error= 2.35D-05 at cycle   7 NSaved=   7.
 NSaved= 7 IEnMin= 7 EnMin= -323.748428677548     IErMin= 7 ErrMin= 2.35D-05
 ErrMax= 2.35D-05  0.00D+00 EMaxC= 1.00D-01 BMatC= 1.30D-07 BMatP= 8.14D-07
 IDIUse=1 WtCom= 1.00D+00 WtEn= 0.00D+00
 Coeff-Com:  0.161D-02-0.865D-02-0.235D-01-0.446D-01 0.297D-01 0.333D+00
 Coeff-Com:  0.713D+00
 Coeff:      0.161D-02-0.865D-02-0.235D-01-0.446D-01 0.297D-01 0.333D+00
 Coeff:      0.713D+00
 Gap=     0.308 Goal=   None    Shift=    0.000
 RMSDP=4.26D-06 MaxDP=1.58D-04 DE=-1.64D-06 OVMax= 3.56D-04

 Cycle   8  Pass 1  IDiag  1:
 RMSU=  2.74D-06    CP:  1.11D+00  1.07D+00  7.64D-01  9.42D-01  1.10D+00
                    CP:  1.21D+00  9.76D-01
 E= -323.748428877412     Delta-E=       -0.000000199863 Rises=F Damp=F
 DIIS: error= 6.31D-06 at cycle   8 NSaved=   8.
 NSaved= 8 IEnMin= 8 EnMin= -323.748428877412     IErMin= 8 ErrMin= 6.31D-06
 ErrMax= 6.31D-06  0.00D+00 EMaxC= 1.00D-01 BMatC= 4.14D-09 BMatP= 1.30D-07
 IDIUse=1 WtCom= 1.00D+00 WtEn= 0.00D+00
 Coeff-Com: -0.308D-04 0.245D-02 0.424D-03-0.760D-02-0.285D-01-0.369D-02
 Coeff-Com:  0.156D+00 0.881D+00
 Coeff:     -0.308D-04 0.245D-02 0.424D-03-0.760D-02-0.285D-01-0.369D-02
 Coeff:      0.156D+00 0.881D+00
 Gap=     0.308 Goal=   None    Shift=    0.000
 RMSDP=1.44D-06 MaxDP=5.46D-05 DE=-2.00D-07 OVMax= 6.26D-05

 Cycle   9  Pass 1  IDiag  1:
 RMSU=  7.99D-07    CP:  1.11D+00  1.07D+00  7.63D-01  9.42D-01  1.10D+00
                    CP:  1.24D+00  1.03D+00  9.50D-01
 E= -323.748428882512     Delta-E=       -0.000000005101 Rises=F Damp=F
 DIIS: error= 2.20D-06 at cycle   9 NSaved=   9.
 NSaved= 9 IEnMin= 9 EnMin= -323.748428882512     IErMin= 9 ErrMin= 2.20D-06
 ErrMax= 2.20D-06  0.00D+00 EMaxC= 1.00D-01 BMatC= 7.03D-10 BMatP= 4.14D-09
 IDIUse=1 WtCom= 1.00D+00 WtEn= 0.00D+00
 Coeff-Com: -0.663D-04 0.144D-02 0.102D-02-0.216D-02-0.145D-01-0.131D-01
 Coeff-Com:  0.492D-01 0.417D+00 0.561D+00
 Coeff:     -0.663D-04 0.144D-02 0.102D-02-0.216D-02-0.145D-01-0.131D-01
 Coeff:      0.492D-01 0.417D+00 0.561D+00
 Gap=     0.308 Goal=   None    Shift=    0.000
 RMSDP=2.78D-07 MaxDP=1.20D-05 DE=-5.10D-09 OVMax= 1.40D-05

 Cycle  10  Pass 1  IDiag  1:
 RMSU=  1.96D-07    CP:  1.11D+00  1.07D+00  7.63D-01  9.42D-01  1.10D+00
                    CP:  1.24D+00  1.04D+00  9.59D-01  1.04D+00
 E= -323.748428883239     Delta-E=       -0.000000000727 Rises=F Damp=F
 DIIS: error= 4.55D-07 at cycle  10 NSaved=  10.
 NSaved=10 IEnMin=10 EnMin= -323.748428883239     IErMin=10 ErrMin= 4.55D-07
 ErrMax= 4.55D-07  0.00D+00 EMaxC= 1.00D-01 BMatC= 3.48D-11 BMatP= 7.03D-10
 IDIUse=1 WtCom= 1.00D+00 WtEn= 0.00D+00
 Coeff-Com: -0.130D-04 0.712D-04 0.275D-03 0.440D-03-0.164D-03-0.322D-02
 Coeff-Com: -0.708D-02-0.727D-04 0.166D+00 0.844D+00
 Coeff:     -0.130D-04 0.712D-04 0.275D-03 0.440D-03-0.164D-03-0.322D-02
 Coeff:     -0.708D-02-0.727D-04 0.166D+00 0.844D+00
 Gap=     0.308 Goal=   None    Shift=    0.000
 RMSDP=1.18D-07 MaxDP=6.02D-06 DE=-7.27D-10 OVMax= 3.10D-06

 Cycle  11  Pass 1  IDiag  1:
 RMSU=  6.55D-08    CP:  1.11D+00  1.07D+00  7.63D-01  9.42D-01  1.10D+00
                    CP:  1.24D+00  1.04D+00  9.69D-01  1.08D+00  9.42D-01
 E= -323.748428883277     Delta-E=       -0.000000000038 Rises=F Damp=F
 DIIS: error= 1.25D-07 at cycle  11 NSaved=  11.
 NSaved=11 IEnMin=11 EnMin= -323.748428883277     IErMin=11 ErrMin= 1.25D-07
 ErrMax= 1.25D-07  0.00D+00 EMaxC= 1.00D-01 BMatC= 5.32D-12 BMatP= 3.48D-11
 IDIUse=1 WtCom= 1.00D+00 WtEn= 0.00D+00
 Coeff-Com: -0.182D-05-0.636D-04 0.567D-04 0.323D-03 0.797D-03-0.798D-03
 Coeff-Com: -0.651D-02-0.292D-01 0.389D-01 0.378D+00 0.619D+00
 Coeff:     -0.182D-05-0.636D-04 0.567D-04 0.323D-03 0.797D-03-0.798D-03
 Coeff:     -0.651D-02-0.292D-01 0.389D-01 0.378D+00 0.619D+00
 Gap=     0.308 Goal=   None    Shift=    0.000
 RMSDP=4.67D-08 MaxDP=2.76D-06 DE=-3.76D-11 OVMax= 9.50D-07

 Cycle  12  Pass 1  IDiag  1:
 RMSU=  1.83D-08    CP:  1.11D+00  1.07D+00  7.63D-01  9.42D-01  1.10D+00
                    CP:  1.24D+00  1.04D+00  9.67D-01  1.09D+00  9.93D-01
                    CP:  9.79D-01
 E= -323.748428883283     Delta-E=       -0.000000000006 Rises=F Damp=F
 DIIS: error= 4.80D-08 at cycle  12 NSaved=  12.
 NSaved=12 IEnMin=12 EnMin= -323.748428883283     IErMin=12 ErrMin= 4.80D-08
 ErrMax= 4.80D-08  0.00D+00 EMaxC= 1.00D-01 BMatC= 3.28D-13 BMatP= 5.32D-12
 IDIUse=1 WtCom= 1.00D+00 WtEn= 0.00D+00
 Coeff-Com:  0.149D-05-0.324D-04-0.190D-04 0.558D-04 0.338D-03 0.206D-03
 Coeff-Com: -0.958D-03-0.968D-02-0.824D-02 0.540D-02 0.188D+00 0.825D+00
 Coeff:      0.149D-05-0.324D-04-0.190D-04 0.558D-04 0.338D-03 0.206D-03
 Coeff:     -0.958D-03-0.968D-02-0.824D-02 0.540D-02 0.188D+00 0.825D+00
 Gap=     0.308 Goal=   None    Shift=    0.000
 RMSDP=1.27D-08 MaxDP=8.04D-07 DE=-6.14D-12 OVMax= 3.15D-07

 Cycle  13  Pass 1  IDiag  1:
 RMSU=  4.95D-09    CP:  1.11D+00  1.07D+00  7.63D-01  9.42D-01  1.10D+00
                    CP:  1.24D+00  1.04D+00  9.67D-01  1.10D+00  9.99D-01
                    CP:  1.03D+00  1.08D+00
 E= -323.748428883286     Delta-E=       -0.000000000004 Rises=F Damp=F
 DIIS: error= 1.18D-08 at cycle  13 NSaved=  13.
 NSaved=13 IEnMin=13 EnMin= -323.748428883286     IErMin=13 ErrMin= 1.18D-08
 ErrMax= 1.18D-08  0.00D+00 EMaxC= 1.00D-01 BMatC= 1.84D-14 BMatP= 3.28D-13
 IDIUse=1 WtCom= 1.00D+00 WtEn= 0.00D+00
 Coeff-Com:  0.246D-06 0.118D-06-0.662D-05-0.191D-04-0.888D-05 0.631D-04
 Coeff-Com:  0.307D-03 0.605D-03-0.226D-02-0.223D-01-0.399D-01 0.821D-01
 Coeff-Com:  0.981D+00
 Coeff:      0.246D-06 0.118D-06-0.662D-05-0.191D-04-0.888D-05 0.631D-04
 Coeff:      0.307D-03 0.605D-03-0.226D-02-0.223D-01-0.399D-01 0.821D-01
 Coeff:      0.981D+00
 Gap=     0.308 Goal=   None    Shift=    0.000
 RMSDP=3.89D-09 MaxDP=2.18D-07 DE=-3.52D-12 OVMax= 8.42D-08

 SCF Done:  E(RM062X) =  -323.748428883     A.U. after   13 cycles
            NFock= 13  Conv=0.39D-08     -V/T= 2.0038
 KE= 3.225158372314D+02 PE=-1.317333992568D+03 EE= 3.843487235095D+02
 Leave Link  502 at Mon Oct 14 10:44:34 2019, MaxMem= 10737418240 cpu:             144.9 elap:               6.1
 (Enter /apps/cent7/gaussian/g16-A.03/g16-haswell/g16/l701.exe)
 ... and contract with generalized density number  0.
 Compute integral first derivatives.
 Leave Link  701 at Mon Oct 14 10:44:35 2019, MaxMem= 10737418240 cpu:               2.5 elap:               0.1
 (Enter /apps/cent7/gaussian/g16-A.03/g16-haswell/g16/l702.exe)
 L702 exits ... SP integral derivatives will be done elsewhere.
 Leave Link  702 at Mon Oct 14 10:44:35 2019, MaxMem= 10737418240 cpu:               1.1 elap:               0.1
 (Enter /apps/cent7/gaussian/g16-A.03/g16-haswell/g16/l703.exe)
 Integral derivatives from FoFJK, PRISM(SPDF).
 Compute integral first derivatives, UseDBF=F ICtDFT=           0.
 Calling FoFJK, ICntrl=      2127 FMM=F ISym2X=0 I1Cent= 0 IOpClX= 0 NMat=1 NMatS=1 NMatT=0.
 FoFJK:  IHMeth= 1 ICntrl=    2127 DoSepK=F KAlg= 0 I1Cent=           0 FoldK=F
 IRaf=         0 NMat=       1 IRICut=       1 DoRegI=T DoRafI=F ISym2E= 0 IDoP0=0 IntGTp=1.
 FoFCou: FMM=F IPFlag=           0 FMFlag=      100000 FMFlg1=         800
         NFxFlg=           0 DoJE=F BraDBF=F KetDBF=F FulRan=T
         wScrn=  0.000000 ICntrl=      2127 IOpCl=  0 I1Cent=           0 NGrid=           0
         NMat0=    1 NMatS0=      1 NMatT0=    0 NMatD0=    1 NMtDS0=    0 NMtDT0=    0
 Symmetry not used in FoFCou.
 Leave Link  703 at Mon Oct 14 10:44:36 2019, MaxMem= 10737418240 cpu:              24.7 elap:               1.1
 (Enter /apps/cent7/gaussian/g16-A.03/g16-haswell/g16/l716.exe)
 Dipole        = 2.02125433D-01 2.17288393D-01 5.52008339D-01
 ***** Axes restored to original set *****
 -------------------------------------------------------------------
 Center     Atomic                   Forces (Hartrees/Bohr)
 Number     Number              X              Y              Z
 -------------------------------------------------------------------
      1        8          -0.005195741   -0.001613409   -0.004462844
      2        7           0.012360282    0.046882525    0.004739883
      3        6           0.043541689   -0.022697201   -0.001516072
      4        6          -0.036951071   -0.009086265   -0.000504820
      5        6          -0.010307785    0.037740718    0.000000753
      6        6           0.028078238   -0.029056502    0.000263369
      7        6          -0.022223227   -0.022309252   -0.000796690
      8        1          -0.005157933    0.001024126    0.000514989
      9        1          -0.000296300   -0.002373737   -0.000067346
     10        1           0.002333341    0.000527772   -0.000015458
     11        1           0.000320199    0.002245297    0.000006800
     12        1          -0.005432542   -0.001459646   -0.000529474
     13        1          -0.001069150    0.000175574    0.002366912
 -------------------------------------------------------------------
 Cartesian Forces:  Max     0.046882525 RMS     0.016426243
 Leave Link  716 at Mon Oct 14 10:44:36 2019, MaxMem= 10737418240 cpu:               0.5 elap:               0.0
 (Enter /apps/cent7/gaussian/g16-A.03/g16-haswell/g16/l103.exe)

 GradGradGradGradGradGradGradGradGradGradGradGradGradGradGradGradGradGrad
 Berny optimization.
 Using GEDIIS/GDIIS optimizer.
 FormGI is forming the generalized inverse of G from B-inverse, IUseBI=4.
 Internal  Forces:  Max     0.030646192 RMS     0.007982558
 Search for a local minimum.
 Step number   2 out of a maximum of   68
 All quantities printed in internal units (Hartrees-Bohrs-Radians)
 RMS Force = .79826D-02 SwitMx=.10000D-02 MixMth= 1
 Mixed Optimization -- RFO/linear search
 Update second derivatives using D2CorX and points    1    2
 DE= -2.62D-02 DEPred=-2.28D-02 R= 1.15D+00
 TightC=F SS=  1.41D+00  RLast= 3.05D-01 DXNew= 5.0454D-01 9.1452D-01
 Trust test= 1.15D+00 RLast= 3.05D-01 DXMaxT set to 5.05D-01
 ITU=  1  0
 Use linear search instead of GDIIS.
     Eigenvalues ---    0.00867   0.00961   0.01515   0.01570   0.01603
     Eigenvalues ---    0.01674   0.01785   0.01823   0.02249   0.02392
     Eigenvalues ---    0.15162   0.16000   0.16000   0.16000   0.16000
     Eigenvalues ---    0.16589   0.21045   0.22003   0.22013   0.23702
     Eigenvalues ---    0.25105   0.28245   0.32337   0.37228   0.37230
     Eigenvalues ---    0.37230   0.37230   0.37387   0.51867   0.53078
     Eigenvalues ---    0.55204   0.56457   0.70177
 RFO step:  Lambda=-5.30471132D-03 EMin= 8.66647683D-03
 Quartic linear search produced a step of  0.53270.
 Iteration  1 RMS(Cart)=  0.02872667 RMS(Int)=  0.00041999
 Iteration  2 RMS(Cart)=  0.00040166 RMS(Int)=  0.00014593
 Iteration  3 RMS(Cart)=  0.00000004 RMS(Int)=  0.00014593
 ITry= 1 IFail=0 DXMaxC= 7.07D-02 DCOld= 1.00D+10 DXMaxT= 5.05D-01 DXLimC= 3.00D+00 Rises=F
 Variable       Old X    -DE/DX   Delta X   Delta X   Delta X     New X
                                 (Linear)    (Quad)   (Total)
    R1        2.56462   0.00634  -0.00288   0.02140   0.01852   2.58314
    R2        1.82886   0.00237   0.00784  -0.00231   0.00554   1.83440
    R3        2.45596   0.01990  -0.00033   0.04570   0.04546   2.50143
    R4        2.66421  -0.03065  -0.06722  -0.04815  -0.11542   2.54878
    R5        2.72465  -0.03032  -0.09874  -0.02597  -0.12454   2.60010
    R6        2.04148   0.00186   0.01037  -0.00525   0.00513   2.04660
    R7        2.55859   0.01636   0.00533   0.03920   0.04458   2.60317
    R8        2.03832   0.00196   0.00869  -0.00277   0.00592   2.04424
    R9        2.74736  -0.02774  -0.08041  -0.03723  -0.11775   2.62961
   R10        2.04014   0.00234   0.00966  -0.00242   0.00724   2.04738
   R11        2.54262   0.01339  -0.01018   0.04829   0.03795   2.58057
   R12        2.03851   0.00212   0.00879  -0.00225   0.00654   2.04504
   R13        2.03900   0.00192   0.00905  -0.00340   0.00565   2.04465
    A1        1.87477   0.00055  -0.01911   0.03718   0.01807   1.89284
    A2        2.06689  -0.00361  -0.00911  -0.00902  -0.01821   2.04868
    A3        2.07147   0.00062  -0.00667   0.01289   0.00612   2.07760
    A4        2.14359   0.00292   0.01527  -0.00340   0.01184   2.15543
    A5        2.09084  -0.00201  -0.00778   0.00093  -0.00661   2.08423
    A6        2.07306  -0.00401  -0.00842  -0.02620  -0.03478   2.03828
    A7        2.11928   0.00603   0.01620   0.02531   0.04136   2.16064
    A8        2.08203  -0.00067  -0.00025  -0.00111  -0.00113   2.08090
    A9        2.06488  -0.00105  -0.01889   0.01965   0.00064   2.06552
   A10        2.13627   0.00173   0.01914  -0.01853   0.00050   2.13677
   A11        2.08278   0.00109   0.00528  -0.00025   0.00499   2.08777
   A12        2.11449  -0.00006   0.00497  -0.00816  -0.00317   2.11133
   A13        2.08591  -0.00103  -0.01026   0.00841  -0.00183   2.08408
   A14        2.08681   0.00039   0.00086  -0.00158  -0.00099   2.08582
   A15        2.10130   0.00062   0.00123   0.00557   0.00692   2.10822
   A16        2.09506  -0.00101  -0.00209  -0.00397  -0.00594   2.08912
   A17        2.08018  -0.00172  -0.01342   0.00536  -0.00828   2.07190
   A18        2.04393  -0.00453  -0.02396  -0.00101  -0.02487   2.01906
   A19        2.15907   0.00625   0.03738  -0.00434   0.03314   2.19221
    D1        2.11408  -0.00028   0.00397  -0.04137  -0.03756   2.07651
    D2       -1.07932  -0.00150  -0.01060  -0.03156  -0.04200  -1.12132
    D3        3.10123  -0.00105  -0.01394   0.01953   0.00564   3.10686
    D4       -0.03673  -0.00105  -0.01188   0.00525  -0.00632  -0.04305
    D5        0.01372   0.00031   0.00161   0.00879   0.01052   0.02424
    D6       -3.12424   0.00030   0.00366  -0.00549  -0.00144  -3.12567
    D7       -3.10676   0.00096   0.01107  -0.01577  -0.00446  -3.11122
    D8        0.03088   0.00077   0.00885  -0.01407  -0.00496   0.02592
    D9       -0.01938  -0.00053  -0.00454  -0.00565  -0.01014  -0.02952
   D10        3.11826  -0.00072  -0.00676  -0.00395  -0.01063   3.10762
   D11       -0.00007   0.00011   0.00226  -0.00916  -0.00679  -0.00686
   D12        3.13924   0.00003   0.00094  -0.00486  -0.00386   3.13538
   D13        3.13779   0.00009   0.00015   0.00539   0.00588  -3.13951
   D14       -0.00609   0.00002  -0.00117   0.00969   0.00882   0.00272
   D15       -0.00759  -0.00017  -0.00288   0.00642   0.00364  -0.00395
   D16        3.13740  -0.00005  -0.00128   0.00524   0.00400   3.14140
   D17        3.13639  -0.00009  -0.00150   0.00188   0.00058   3.13697
   D18       -0.00180   0.00004   0.00010   0.00070   0.00094  -0.00086
   D19        0.00194  -0.00004  -0.00005  -0.00334  -0.00338  -0.00144
   D20       -3.13290   0.00027   0.00344  -0.00561  -0.00214  -3.13505
   D21        3.14019  -0.00017  -0.00161  -0.00220  -0.00373   3.13646
   D22        0.00534   0.00014   0.00187  -0.00448  -0.00249   0.00285
   D23        0.01095   0.00041   0.00363   0.00274   0.00636   0.01731
   D24       -3.12642   0.00064   0.00600   0.00091   0.00706  -3.11935
   D25       -3.13737   0.00010   0.00016   0.00504   0.00519  -3.13218
   D26        0.00845   0.00034   0.00253   0.00321   0.00589   0.01434
         Item               Value     Threshold  Converged?
 Maximum Force            0.030646     0.000450     NO 
 RMS     Force            0.007983     0.000300     NO 
 Maximum Displacement     0.070703     0.001800     NO 
 RMS     Displacement     0.028818     0.001200     NO 
 Predicted change in Energy=-8.398012D-03
 Lowest energy point so far.  Saving SCF results.
 GradGradGradGradGradGradGradGradGradGradGradGradGradGradGradGradGradGrad

 Leave Link  103 at Mon Oct 14 10:44:36 2019, MaxMem= 10737418240 cpu:               0.5 elap:               0.0
 (Enter /apps/cent7/gaussian/g16-A.03/g16-haswell/g16/l202.exe)
                          Input orientation:                          
 ---------------------------------------------------------------------
 Center     Atomic      Atomic             Coordinates (Angstroms)
 Number     Number       Type             X           Y           Z
 ---------------------------------------------------------------------
[...]
 ! A2    A(1,2,3)              117.873          -DE/DX =    0.0                 !
 ! A3    A(1,2,7)              117.876          -DE/DX =    0.0                 !
 ! A4    A(3,2,7)              123.9053         -DE/DX =    0.0                 !
 ! A5    A(2,3,4)              118.8192         -DE/DX =    0.0                 !
 ! A6    A(2,3,8)              115.7925         -DE/DX =    0.0                 !
 ! A7    A(4,3,8)              125.3869         -DE/DX =    0.0                 !
 ! A8    A(3,4,5)              119.2292         -DE/DX =    0.0                 !
 ! A9    A(3,4,9)              119.0317         -DE/DX =    0.0                 !
 ! A10   A(5,4,9)              121.736          -DE/DX =    0.0                 !
 ! A11   A(4,5,6)              119.9609         -DE/DX =    0.0                 !
 ! A12   A(4,5,10)             120.0174         -DE/DX =    0.0                 !
 ! A13   A(6,5,10)             120.0194         -DE/DX =    0.0                 !
 ! A14   A(5,6,7)              119.2289         -DE/DX =    0.0                 !
 ! A15   A(5,6,11)             121.7372         -DE/DX =    0.0                 !
 ! A16   A(7,6,11)             119.0308         -DE/DX =    0.0                 !
 ! A17   A(2,7,6)              118.8184         -DE/DX =    0.0                 !
 ! A18   A(2,7,12)             115.7916         -DE/DX =    0.0                 !
 ! A19   A(6,7,12)             125.3886         -DE/DX =    0.0                 !
 ! D1    D(13,1,2,3)            93.2614         -DE/DX =    0.0                 !
 ! D2    D(13,1,2,7)           -93.2228         -DE/DX =    0.0                 !
 ! D3    D(1,2,3,4)            175.3827         -DE/DX =    0.0                 !
 ! D4    D(1,2,3,8)             -4.2249         -DE/DX =    0.0                 !
 ! D5    D(7,2,3,4)              2.2907         -DE/DX =    0.0                 !
 ! D6    D(7,2,3,8)           -177.3169         -DE/DX =    0.0                 !
 ! D7    D(1,2,7,6)           -175.3818         -DE/DX =    0.0                 !
 ! D8    D(1,2,7,12)             4.2187         -DE/DX =    0.0                 !
 ! D9    D(3,2,7,6)             -2.29           -DE/DX =    0.0                 !
 ! D10   D(3,2,7,12)           177.3105         -DE/DX =    0.0                 !
 ! D11   D(2,3,4,5)             -0.9695         -DE/DX =    0.0                 !
 ! D12   D(2,3,4,9)            179.6596         -DE/DX =    0.0                 !
 ! D13   D(8,3,4,5)            178.5971         -DE/DX =    0.0                 !
 ! D14   D(8,3,4,9)             -0.7738         -DE/DX =    0.0                 !
 ! D15   D(3,4,5,6)             -0.2154         -DE/DX =    0.0                 !
 ! D16   D(3,4,5,10)          -179.6671         -DE/DX =    0.0                 !
 ! D17   D(9,4,5,6)            179.1379         -DE/DX =    0.0                 !
 ! D18   D(9,4,5,10)            -0.3139         -DE/DX =    0.0                 !
 ! D19   D(4,5,6,7)              0.216          -DE/DX =    0.0                 !
 ! D20   D(4,5,6,11)          -179.1333         -DE/DX =    0.0                 !
 ! D21   D(10,5,6,7)           179.6677         -DE/DX =    0.0                 !
 ! D22   D(10,5,6,11)            0.3184         -DE/DX =    0.0                 !
 ! D23   D(5,6,7,2)              0.9683         -DE/DX =    0.0                 !
 ! D24   D(5,6,7,12)          -178.5906         -DE/DX =    0.0                 !
 ! D25   D(11,6,7,2)          -179.6646         -DE/DX =    0.0                 !
 ! D26   D(11,6,7,12)            0.7765         -DE/DX =    0.0                 !
 --------------------------------------------------------------------------------
 GradGradGradGradGradGradGradGradGradGradGradGradGradGradGradGradGradGrad

 Leave Link  103 at Mon Oct 14 10:46:31 2019, MaxMem= 10737418240 cpu:               0.5 elap:               0.0
 (Enter /apps/cent7/gaussian/g16-A.03/g16-haswell/g16/l9999.exe)

 ----------------------------------------------------------------------

 Electric dipole moment (input orientation):
 (Debye = 10**-18 statcoulomb cm , SI units = C m)
                  (au)            (Debye)         (10**-30 SI)
   Tot        0.665438D+00      0.169137D+01      0.564182D+01
   x          0.210452D+00      0.534917D+00      0.178429D+01
   y          0.508801D-02      0.129324D-01      0.431379D-01
   z          0.631262D+00      0.160451D+01      0.535206D+01

 Dipole polarizability, Alpha (input orientation).
 (esu units = cm**3 , SI units = C**2 m**2 J**-1)
 Alpha(0;0):
               (au)            (10**-24 esu)      (10**-40 SI)
   iso        0.598140D+02      0.886353D+01      0.986200D+01
   aniso      0.389827D+02      0.577664D+01      0.642738D+01
   xx         0.765207D+02      0.113392D+02      0.126166D+02
   yx        -0.102914D+00     -0.152502D-01     -0.169681D-01
   yy         0.686409D+02      0.101715D+02      0.113174D+02
   zx        -0.137879D+01     -0.204316D+00     -0.227332D+00
   zy        -0.375458D+00     -0.556372D-01     -0.619047D-01
   zz         0.342804D+02      0.507983D+01      0.565208D+01

 ----------------------------------------------------------------------

 Dipole orientation:
     8         -3.51334269          2.33526556         -1.29089871
     7         -1.12205898          2.30438847         -0.29900924
     6         -0.00496066          0.04748698          0.03798732
     6          2.46717175         -0.02041292          0.86202258
     6          3.74376780          2.24157325          1.28307470
     6          2.52556267          4.53575686          0.86357434
     6          0.05244505          4.53175031          0.03951980
     1         -1.15739155         -1.58799205         -0.38593349
     1          3.36893517         -1.83283321          1.14540481
     1          5.68898255          2.21640339          1.92056133
     1          3.47346144          6.32431165          1.14803340
     1         -1.05770594          6.19645132         -0.38347680
     1         -4.68630221          2.35037523          0.11950734

 Electric dipole moment (dipole orientation):
 (Debye = 10**-18 statcoulomb cm , SI units = C m)
                  (au)            (Debye)         (10**-30 SI)
   Tot        0.665438D+00      0.169137D+01      0.564182D+01
   x          0.000000D+00      0.000000D+00      0.000000D+00
   y          0.000000D+00      0.000000D+00      0.000000D+00
   z          0.665438D+00      0.169137D+01      0.564182D+01

 Dipole polarizability, Alpha (dipole orientation).
 (esu units = cm**3 , SI units = C**2 m**2 J**-1)
 Alpha(0;0):
               (au)            (10**-24 esu)      (10**-40 SI)
   iso        0.598140D+02      0.886353D+01      0.986200D+01
   aniso      0.389827D+02      0.577664D+01      0.642738D+01
   xx         0.731231D+02      0.108357D+02      0.120564D+02
   yx        -0.617983D-01     -0.915757D-02     -0.101892D-01
   yy         0.686449D+02      0.101721D+02      0.113180D+02
   zx         0.115707D+02      0.171460D+01      0.190775D+01
   zy        -0.137592D+00     -0.203891D-01     -0.226859D-01
   zz         0.376741D+02      0.558272D+01      0.621162D+01

 ----------------------------------------------------------------------
 1\1\GINC-BROWN-A335\Freq\RM062X\6-311++G(d,p)\C5H6N1O1(1+)\FINEJ\14-Oc
 t-2019\0\\#P Geom=AllCheck Guess=TCheck SCRF=Check GenChk RM062X/6-311
 ++G(d,p) Freq\\Title Card Required\\1,1\O,-1.9813276999,1.2328162293,-
 0.069491213\N,-0.6148456124,1.2189202794,0.0283598175\C,0.0038359932,0
 .0252852328,0.019707678\C,1.3828378363,-0.0089340086,0.0199150943\C,2.
 0926896494,1.1888869288,0.0084813996\C,1.4094186989,2.4019828026,-0.00
 75130705\C,0.0299662547,2.3981525026,-0.0072743415\H,-0.6445745467,-0.
 8411054935,0.0063862533\H,1.8841533574,-0.9674423188,0.0185882946\H,3.
 1759222762,1.1768699867,0.0030528094\H,1.9317103792,3.3489453391,-0.03
 0590518\H,-0.599231629,3.2780654245,-0.040560724\H,-2.3341376073,1.247
 288655,0.8347752403\\Version=ES64L-G16RevA.03\State=1-A\HF=-323.757075
 5\RMSD=2.573e-09\RMSF=1.265e-05\ZeroPoint=0.106101\Thermal=0.106101\Di
 pole=0.2104525,0.005088,0.6312615\DipoleDeriv=-0.604042,0.0039407,0.09
 57919,0.0054445,-0.3474781,0.0017593,0.2195659,0.0003669,-0.1081455,0.
 3322122,-0.0013334,-0.0008654,-0.0022727,0.2134574,-0.0029725,-0.07915
 19,-0.0021115,-0.0471922,0.2393733,0.2571544,0.0000832,-0.1414362,-0.0
 195261,0.0134905,0.0121954,0.0121449,0.1030023,-0.2226645,-0.3885793,0
 .0045985,-0.1530955,-0.0883067,0.0038671,0.0101002,-0.0003312,-0.07743
 13,0.2694148,0.0003259,-0.0004762,0.0002755,0.2997346,-0.0030564,-0.00
 18234,-0.0030487,0.0296469,-0.2107038,0.3912533,-0.0043451,0.1560122,-
 0.100372,-0.0034923,0.006568,0.0005294,-0.077348,0.2367188,-0.2626864,
 0.0057312,0.1360533,-0.0173722,-0.0107965,0.0088175,-0.0096311,0.10349
 85,0.1126869,0.0306693,0.0031887,0.039318,0.1819245,0.0041124,-0.00225
 49,0.0013646,0.1636563,0.1116135,-0.0181826,0.0003079,-0.0203504,0.115
 1718,0.0010388,0.0012692,-0.0007653,0.1578076,0.1098456,-0.0000202,-0.
 0007044,-0.0000295,0.1088743,0.0003808,-0.0017466,0.0003864,0.1415755,
 0.1124629,0.0182421,-0.0001203,0.0204356,0.1143375,-0.0000631,0.000841
 5,0.0017277,0.1577927,0.111167,-0.0290271,0.0037731,-0.0378056,0.18329
 59,-0.0046271,-0.0014271,-0.0017385,0.1637943,0.4019153,-0.0017568,-0.
 1069631,-0.0025492,0.356259,0.0003589,-0.1729537,0.0011064,0.2893429\P
 olar=76.5207392,-0.1029135,68.6409446,-1.3787918,-0.3754585,34.280412\
 Quadrupole=4.8756116,2.8199694,-7.695581,-0.0665302,-3.750679,-0.07817
 8\PG=C01 [X(C5H6N1O1)]\NImag=0\\0.46869814,-0.00600257,0.06420359,-0.1
 3181005,0.00697224,0.53376967,-0.29887128,0.00261925,0.01781901,0.7373
 5717,0.00201589,-0.08006623,-0.00020417,0.00018919,0.76628270,-0.03367
 897,0.00036167,-0.07910066,-0.00925046,-0.00665350,0.17125670,-0.04258
 837,0.04051560,0.00225184,-0.17302002,0.01261673,-0.00172868,0.7821966
 2,0.00441450,0.00648761,0.00284216,0.10971364,-0.30601326,-0.00168906,
 0.07720186,0.73712922,-0.00273248,0.00209265,0.00226089,0.00039369,-0.
 00553449,-0.06372485,0.00256233,0.00385150,0.13942072,0.00180948,0.000
 34808,0.00046656,-0.03401391,0.10736055,0.00014671,-0.36829655,-0.0395
 6156,-0.00086003,0.71460413,0.00349931,-0.00452789,-0.00129788,0.03470
 435,0.03765064,0.00137412,0.03447729,-0.14134492,-0.00055232,-0.044952
 29,0.75706790,0.00017484,-0.00097338,0.00812576,0.00182354,-0.00056409
 ,0.00201618,-0.00052707,0.00031145,-0.06017226,-0.00138212,-0.00205023
 ,0.13001283,-0.00164308,0.00001518,-0.00023989,0.00259652,-0.00109252,
 0.00032430,-0.02745352,-0.03218733,0.00004953,-0.19275114,-0.12826627,
 0.00180588,0.76915081,0.00001690,-0.00005511,-0.00001104,-0.00109609,-
 0.09691357,0.00102666,-0.07930280,0.05303353,-0.00011441,-0.05924076,-
 0.29579840,0.00167418,-0.00104995,0.67936961,-0.00008911,-0.00001232,-
 0.00120802,0.00001812,0.00103097,-0.00634286,0.00093880,-0.00024787,0.
 00205456,0.00108781,0.00196935,-0.05910675,-0.00201748,-0.00606838,0.1
 4419559,0.00172306,-0.00047250,0.00050655,-0.03710317,-0.10568124,0.00
 253064,-0.05257700,0.04789503,-0.00072116,0.07315950,0.01645735,-0.000
 38930,-0.18868296,0.05692166,-0.00021645,0.71652094,-0.00363190,-0.004
 38417,0.00157214,-0.03300591,0.04070692,-0.00224918,0.02290949,-0.0218
 4896,0.00085036,-0.01920494,-0.05131743,0.00041288,0.12594652,-0.29989
 409,0.00345433,0.04576270,0.75489919,0.00027920,0.00125448,0.00806701,
 0.00259862,-0.00033212,0.00205322,-0.00051021,0.00020479,-0.00189124,0
 .00002220,0.00081428,0.00233770,-0.00106277,0.00375112,-0.05914013,-0.
 00253996,-0.01217046,0.13024501,-0.04354985,-0.03935306,0.00309266,-0.
 17577355,-0.01550129,-0.00131331,0.06489197,-0.03894993,0.00158553,-0.
 05412052,-0.02220348,0.00000543,-0.02496081,0.08102162,-0.00089296,-0.
 36799244,-0.02948435,0.00022005,0.77869103,-0.00337481,0.00733648,-0.0
 0300492,-0.11252022,-0.30294147,0.00719416,0.03574176,-0.08204173,0.00
 198387,-0.04718965,-0.02031826,0.00023830,0.03389772,0.05052107,-0.000
 88553,0.04452666,-0.14152289,0.00154335,-0.07807235,0.74003534,-0.0026
 9006,-0.00213820,0.00237355,0.00309812,0.01097306,-0.06401443,0.000717
 91,0.00000502,0.00653809,0.00034455,-0.00041161,-0.00187811,-0.0007141
 5,-0.00100796,0.00207160,-0.00178189,0.00243281,-0.06022547,0.00411212
 ,-0.01757698,0.13991514,0.00156637,0.00005561,0.00024017,0.01153011,0.
 01951860,-0.00005608,-0.16926365,-0.15148397,-0.00170688,-0.00643416,-
 0.02160555,-0.00009105,-0.00517636,0.00076143,-0.00013397,-0.00089414,
 0.00069518,0.00006093,-0.00187253,0.00371414,-0.00014839,0.16925194,-0
 .00253098,0.00278213,-0.00030627,-0.01691934,-0.02844768,-0.00018977,-
 0.13899865,-0.24527715,-0.00287486,0.00375658,0.00987171,0.00005713,0.
 00213534,-0.00023966,-0.00020613,-0.00072738,0.00081228,0.00003012,0.0
 0556494,-0.00071757,-0.00020599,0.14800807,0.26173347,0.00024398,0.000
 17351,-0.00435304,-0.00079795,-0.00020267,0.00303847,-0.00240303,-0.00
 323476,-0.03885098,0.00035058,0.00016851,0.00604671,0.00010615,-0.0000
 2068,0.00802976,-0.00002043,-0.00005111,-0.00162943,0.00016122,0.00037
 161,0.00566414,0.00155562,0.00365115,0.02616365,-0.00113426,0.00120193
 ,0.00027756,-0.00515650,-0.00096885,-0.00013338,-0.00908879,0.02842689
 ,0.00014073,-0.12357314,0.12204320,0.00013767,0.01353338,-0.01651767,-
 0.00002046,-0.00156920,-0.00373556,0.00009806,-0.00082327,-0.00112670,
 0.00003067,0.00064585,-0.00019936,-0.00000930,0.12608465,-0.00061966,0
 .00036410,0.00008624,-0.00172490,0.00228993,-0.00011081,-0.00214717,0.
 00509407,0.00013748,0.12384007,-0.29248982,-0.00039778,0.01294685,-0.0
 1534122,0.00005561,-0.00298989,-0.00290224,0.00000524,-0.00127474,-0.0
 0019418,0.00004653,0.00005493,0.00034081,-0.00001238,-0.12901509,0.302
 55710,0.00016426,-0.00007920,0.00040846,-0.00007049,0.00049423,0.00898
 017,0.00044362,-0.00028902,0.00098914,-0.00002805,-0.00065096,-0.03931
 910,0.00000205,0.00039799,0.00389106,0.00010211,-0.00000165,0.00753897
 ,-0.00020889,-0.00019636,-0.00117343,0.00003732,0.00009841,-0.00384430
 ,-0.00027985,0.00026668,0.02746601,0.00024013,0.00000152,-0.00004396,0
 .00083953,-0.00003260,-0.00009937,-0.00020029,-0.00190938,0.00011952,-
 0.00776615,0.00213523,-0.00002312,-0.35327568,0.00324726,0.00155556,-0
 .00719865,-0.00186590,0.00001769,-0.00008364,0.00181203,0.00007844,-0.
 00027350,0.00026101,-0.00000364,0.00054923,0.00011254,-0.00001324,0.36
 691552,0.00000169,0.00043171,-0.00002097,-0.00003381,-0.00201454,0.000
 01993,-0.00347460,-0.00459347,0.00008769,-0.02757120,0.00502470,0.0002
 2557,0.00324744,-0.06067094,0.00014477,0.02784194,0.00445438,-0.000195
 87,0.00337457,-0.00470646,0.00021020,-0.00119226,0.00042998,-0.0000097
 6,0.00039506,0.00083801,-0.00002962,-0.00341004,0.05960037,-0.00003778
 ,-0.00002088,-0.00145387,-0.00021670,0.00002179,-0.00036146,0.00001047
 ,0.00006741,0.00852622,0.00039054,-0.00003938,0.00606066,0.00155854,0.
 00014581,-0.04642234,-0.00023710,0.00006652,0.00606448,-0.00006696,0.0
 0023256,0.00852349,0.00002963,-0.00001658,-0.00085145,-0.00005168,-0.0
 0002238,-0.00382189,-0.00163528,-0.00033539,0.02849777,-0.00114636,-0.
 00116219,0.00030218,-0.00509383,0.00112842,-0.00015269,-0.00077005,0.0
 0113984,0.00000363,-0.00142158,0.00370414,0.00001625,0.01359831,0.0158
 7525,-0.00038601,-0.12906500,-0.12560369,0.00303633,-0.00966062,-0.028
 09102,0.00078079,0.00003390,-0.00010410,-0.00001428,0.00060665,0.00071
 913,0.00001312,0.00053813,-0.00038959,-0.00004365,0.13184739,0.0006566
 0,0.00037590,-0.00009159,0.00188544,0.00222177,0.00026753,0.00128231,-
 0.00024441,-0.00006869,0.00295894,-0.00304411,0.00023333,-0.01358122,-
 0.01540644,0.00038824,-0.12740288,-0.28684136,0.00607551,0.00248130,0.
 00566666,-0.00024797,-0.00008941,-0.00000892,-0.00000843,-0.00074435,-
 0.00055981,-0.00002488,-0.00010620,0.00084791,-0.00008299,0.13273084,0
 .29663833,0.00015127,0.00007678,0.00040874,-0.00012081,-0.00033896,0.0
 0898481,-0.00023398,0.00017972,-0.00117647,0.00003778,0.00023945,0.007
 53425,0.00030001,0.00003560,0.00389191,0.00291725,0.00633423,-0.039473
 54,0.00039620,0.00018001,0.00098760,0.00000463,0.00001700,-0.00076169,
 0.00003031,0.00002836,-0.00038124,-0.00001123,-0.00007625,-0.00382109,
 -0.00334214,-0.00643639,0.02761989,0.00162179,-0.00002384,0.00024555,0
 .01145327,-0.02039341,0.00041120,-0.00207610,-0.00368660,-0.00005821,-
 0.00089255,-0.00065614,0.00007508,-0.00523800,-0.00065406,-0.00011142,
 -0.00603112,0.02194654,-0.00059042,-0.16291388,0.14959930,-0.00503237,
 0.00076504,-0.00071915,-0.00003018,0.00003813,0.00008843,0.00000210,-0
 .00025257,0.00120766,0.00000238,0.00064886,-0.00006097,0.00003562,0.16
 278565,0.00256093,0.00272658,0.00013860,0.01601944,-0.02834612,0.00090
 286,-0.00553034,-0.00051456,0.00035189,0.00076430,0.00080995,-0.000087
 31,-0.00202223,-0.00016890,0.00039688,-0.00339736,0.00946391,-0.000132
 38,0.13709983,-0.25137978,0.00773441,0.00068754,-0.00063231,0.00001270
 ,0.00010271,-0.00001375,-0.00003418,-0.00024598,0.00040910,-0.00001271
 ,0.00019244,0.00033349,-0.00019465,-0.14576178,0.26790902,0.00018039,-
 0.00033898,-0.00435162,-0.00115918,0.00093683,0.00301249,0.00027896,-0
 .00023280,0.00566522,-0.00003621,-0.00000338,-0.00162860,0.00015667,0.
 00020495,0.00801980,0.00042786,-0.00025987,0.00605253,-0.00543845,0.00
 811036,-0.03909827,-0.00004573,0.00003362,0.00137219,-0.00001654,-0.00
 000835,-0.00076104,0.00000208,-0.00001928,-0.00085139,-0.00001468,-0.0
 0008270,-0.00383969,0.00477415,-0.00917191,0.02645381,-0.08672578,0.00
 225698,0.10689182,-0.03474434,0.00084054,0.04300009,-0.00175425,-0.001
 01299,0.00122380,-0.00030342,0.00066287,-0.00162602,0.00030253,0.00001
 721,0.00026759,-0.00028982,-0.00072818,-0.00162973,-0.00183189,0.00108
 313,0.00120426,0.00012112,0.00047302,0.00086125,-0.00011274,0.00000949
 ,-0.00016405,-0.00003206,0.00000315,0.00029760,-0.00011578,-0.00001039
 ,-0.00016490,0.00009146,-0.00046951,0.00089068,0.12539497,0.00299411,0
 .00432530,-0.00667453,0.00016896,-0.00440909,-0.00025461,0.00470853,0.
 00013404,-0.00021066,-0.00130812,-0.00158406,0.00091997,0.00001046,0.0
 0156411,-0.00001991,0.00126592,-0.00162553,-0.00084805,-0.00470307,0.0
 0026278,0.00018667,0.00087569,-0.00064709,-0.00083769,0.00013779,0.000
 01702,0.00004856,0.00000053,-0.00005074,-0.00000379,-0.00013947,0.0000
 2098,-0.00004491,-0.00088599,-0.00059663,0.00083150,-0.00312533,0.0025
 8890,0.16984451,-0.00736837,-0.46494688,-0.01413549,0.00037313,0.01420
 220,-0.00180094,-0.00176853,0.00036097,-0.00054031,0.00044007,-0.00002
 927,-0.00026884,-0.00001385,0.00006582,-0.00057811,-0.00039101,0.00000
 089,-0.00165264,0.00180957,0.00031609,0.00025380,-0.00008785,-0.000024
 03,-0.00020381,-0.00007443,0.00002719,0.00005655,-0.00000103,-0.000089
 13,-0.00019885,0.00007903,0.00002654,0.00027652,0.00009581,-0.00004545
 ,-0.15105240,0.00690745,0.45013505\\0.00004203,-0.00000283,0.00001029,
 -0.00003560,-0.00001108,-0.00000649,0.00001271,0.00002740,-0.00000936,
 -0.00002789,-0.00000228,0.00000835,0.00000155,0.00001767,-0.00000677,0
 .00000704,-0.00001577,0.00001128,-0.00000125,-0.00001006,0.00000145,0.
 00000458,-0.00000726,0.00000137,-0.00000226,-0.00000420,-0.00000106,0.
 00000129,-0.00000159,-0.00000139,-0.00000256,0.00000490,-0.00000453,0.
 00000202,0.00000416,-0.00000248,-0.00000166,0.00000094,-0.00000067\\\@


 THE NUMBERS ARE MEANINGLESS, BUT THE TRENDS ARE IMPORTANT.
     -- LARRY BURGGRAF
 Job cpu time:       0 days  0 hours 17 minutes 23.5 seconds.
 Elapsed time:       0 days  0 hours  0 minutes 44.4 seconds.
 File lengths (MBytes):  RWF=     56 Int=      0 D2E=      0 Chk=      4 Scr=      1
 Normal termination of Gaussian 16 at Mon Oct 14 10:46:32 2019.
real 133.38
user 3038.47
sys 16.53
Machine:
brown-a335
brown-a335
brown-a335
brown-a335
brown-a335
brown-a335
brown-a335
brown-a335
brown-a335
brown-a335
brown-a335
brown-a335
brown-a335
brown-a335
brown-a335
brown-a335
brown-a335
brown-a335
brown-a335
brown-a335
brown-a335
brown-a335
brown-a335
brown-a335
