Title Card Required                                                     
Freq      RM062X                                                      6-311++G(d,p)       
Number of atoms                            I               19
Info1-9                                    I   N=           9
          48          48        1002           0           0         100
           6          18        -502
Full Title                                 C   N=           2
Title Card Required     
Route                                      C   N=           6
#p opt freq m062x/6-311++g(d,p) geom=connectivity temperatur
e=0.001     
Charge                                     I                1
Multiplicity                               I                1
Number of electrons                        I               76
Number of alpha electrons                  I               38
Number of beta electrons                   I               38
Number of basis functions                  I              298
Number of independent functions            I              297
Number of point charges in /Mol/           I                0
Number of translation vectors              I                0
Atomic numbers                             I   N=          19
           8           7           6           6           6           6
           6           6           6           6           6           1
           1           1           1           1           1           1
           1
Nuclear charges                            R   N=          19
  8.00000000E+00  7.00000000E+00  6.00000000E+00  6.00000000E+00  6.00000000E+00
  6.00000000E+00  6.00000000E+00  6.00000000E+00  6.00000000E+00  6.00000000E+00
  6.00000000E+00  1.00000000E+00  1.00000000E+00  1.00000000E+00  1.00000000E+00
  1.00000000E+00  1.00000000E+00  1.00000000E+00  1.00000000E+00
Current cartesian coordinates              R   N=          57
 -3.16824203E+00 -3.83781710E+00 -1.29964296E-01 -2.45212279E+00 -1.35383217E+00
  2.48527432E-02 -4.28298599E+00  3.62648575E-01 -3.88670856E-02 -3.68926705E+00
  2.92561732E+00 -3.47337894E-02 -1.18649025E+00  3.63493134E+00  1.42356216E-02
  7.51585759E-01  1.80531496E+00  3.00120774E-02  9.07508597E-02 -7.94167646E-01
 -3.91449611E-03  1.93967275E+00 -2.69905677E+00 -5.29631206E-02  4.43458630E+00
 -1.98242632E+00 -4.55615201E-02  5.15066399E+00  5.91431434E-01  1.69073187E-02
  3.35204103E+00  2.44884334E+00  4.49154031E-02 -6.18600494E+00 -3.86887409E-01
 -8.75643236E-02 -5.20735445E+00  4.29146184E+00 -7.30783927E-02 -6.75837673E-01
  5.61975946E+00  2.68597964E-02  1.40194820E+00 -4.66712681E+00 -1.49293379E-01
  5.88569883E+00 -3.42502727E+00 -9.98498799E-02  7.13649583E+00  1.08219366E+00
  2.53965752E-02  3.87475101E+00  4.42829572E+00  7.35821705E-02 -3.08224545E+00
 -4.52212465E+00  1.56951015E+00
Number of symbols in /Mol/                 I                0
Force Field                                I                0
Atom Types                                 C   N=          19
                                                            
                                                            
                                                            
                                                
Int Atom Types                             I   N=          19
           0           0           0           0           0           0
           0           0           0           0           0           0
           0           0           0           0           0           0
           0
MM charges                                 R   N=          19
  0.00000000E+00  0.00000000E+00  0.00000000E+00  0.00000000E+00  0.00000000E+00
  0.00000000E+00  0.00000000E+00  0.00000000E+00  0.00000000E+00  0.00000000E+00
  0.00000000E+00  0.00000000E+00  0.00000000E+00  0.00000000E+00  0.00000000E+00
  0.00000000E+00  0.00000000E+00  0.00000000E+00  0.00000000E+00
Integer atomic weights                     I   N=          19
          16          14          12          12          12          12
          12          12          12          12          12           1
           1           1           1           1           1           1
           1
Real atomic weights                        R   N=          19
  1.59949146E+01  1.40030740E+01  1.20000000E+01  1.20000000E+01  1.20000000E+01
  1.20000000E+01  1.20000000E+01  1.20000000E+01  1.20000000E+01  1.20000000E+01
  1.20000000E+01  1.00782504E+00  1.00782504E+00  1.00782504E+00  1.00782504E+00
  1.00782504E+00  1.00782504E+00  1.00782504E+00  1.00782504E+00
Atom fragment info                         I   N=          19
           0           0           0           0           0           0
           0           0           0           0           0           0
           0           0           0           0           0           0
           0
Atom residue num                           I   N=          19
           0           0           0           0           0           0
           0           0           0           0           0           0
           0           0           0           0           0           0
           0
Nuclear spins                              I   N=          19
           0           2           0           0           0           0
           0           0           0           0           0           1
           1           1           1           1           1           1
           1
Nuclear ZEff                               R   N=          19
 -5.60000000E+00 -4.55000000E+00 -3.60000000E+00 -3.60000000E+00 -3.60000000E+00
 -3.60000000E+00 -3.60000000E+00 -3.60000000E+00 -3.60000000E+00 -3.60000000E+00
 -3.60000000E+00 -1.00000000E+00 -1.00000000E+00 -1.00000000E+00 -1.00000000E+00
 -1.00000000E+00 -1.00000000E+00 -1.00000000E+00 -1.00000000E+00
Nuclear ZNuc                               R   N=          19
  8.00000000E+00  7.00000000E+00  6.00000000E+00  6.00000000E+00  6.00000000E+00
  6.00000000E+00  6.00000000E+00  6.00000000E+00  6.00000000E+00  6.00000000E+00
  6.00000000E+00  1.00000000E+00  1.00000000E+00  1.00000000E+00  1.00000000E+00
  1.00000000E+00  1.00000000E+00  1.00000000E+00  1.00000000E+00
Nuclear QMom                               R   N=          19
  0.00000000E+00  2.04400000E+00  0.00000000E+00  0.00000000E+00  0.00000000E+00
  0.00000000E+00  0.00000000E+00  0.00000000E+00  0.00000000E+00  0.00000000E+00
  0.00000000E+00  0.00000000E+00  0.00000000E+00  0.00000000E+00  0.00000000E+00
  0.00000000E+00  0.00000000E+00  0.00000000E+00  0.00000000E+00
Nuclear GFac                               R   N=          19
  0.00000000E+00  4.03761000E-01  0.00000000E+00  0.00000000E+00  0.00000000E+00
  0.00000000E+00  0.00000000E+00  0.00000000E+00  0.00000000E+00  0.00000000E+00
  0.00000000E+00  2.79284600E+00  2.79284600E+00  2.79284600E+00  2.79284600E+00
  2.79284600E+00  2.79284600E+00  2.79284600E+00  2.79284600E+00
MicOpt                                     I   N=          19
          -1          -1          -1          -1          -1          -1
          -1          -1          -1          -1          -1          -1
          -1          -1          -1          -1          -1          -1
          -1
Number of residues                         I                0
Number of secondary structures             I                0
Redundant internal dimensions              I   N=           4
          97          20          31          46
Redundant internal coordinate indices      I   N=         388
           1           2           0           0           1          19
           0           0           2           3           0           0
           2           7           0           0           3           4
           0           0           3          12           0           0
           4           5           0           0           4          13
           0           0           5           6           0           0
           5          14           0           0           6           7
           0           0           6          11           0           0
           7           8           0           0           8           9
           0           0           8          15           0           0
           9          10           0           0           9          16
           0           0          10          11           0           0
          10          17           0           0          11          18
           0           0           2           1          19           0
           1           2           3           0           1           2
           7           0           3           2           7           0
           2           3           4           0           2           3
          12           0           4           3          12           0
           3           4           5           0           3           4
          13           0           5           4          13           0
           4           5           6           0           4           5
          14           0           6           5          14           0
           5           6           7           0           5           6
          11           0           7           6          11           0
           2           7           6           0           2           7
           8           0           6           7           8           0
           7           8           9           0           7           8
          15           0           9           8          15           0
           8           9          10           0           8           9
          16           0          10           9          16           0
           9          10          11           0           9          10
          17           0          11          10          17           0
           6          11          10           0           6          11
          18           0          10          11          18           0
          19           1           2           3          19           1
           2           7           1           2           3           4
           1           2           3          12           7           2
           3           4           7           2           3          12
           1           2           7           6           1           2
           7           8           3           2           7           6
           3           2           7           8           2           3
           4           5           2           3           4          13
          12           3           4           5          12           3
           4          13           3           4           5           6
           3           4           5          14          13           4
           5           6          13           4           5          14
           4           5           6           7           4           5
           6          11          14           5           6           7
          14           5           6          11           5           6
           7           2           5           6           7           8
          11           6           7           2          11           6
           7           8           5           6          11          10
           5           6          11          18           7           6
          11          10           7           6          11          18
           2           7           8           9           2           7
           8          15           6           7           8           9
           6           7           8          15           7           8
           9          10           7           8           9          16
          15           8           9          10          15           8
           9          16           8           9          10          11
           8           9          10          17          16           9
          10          11          16           9          10          17
           9          10          11           6           9          10
          11          18          17          10          11           6
          17          10          11          18
Redundant internal coordinates             R   N=          97
  2.58978304E+00  1.83408986E+00  2.51046339E+00  2.60389292E+00  2.63084170E+00
  2.04588777E+00  2.60181016E+00  2.04244729E+00  2.66531116E+00  2.04950435E+00
  2.68238021E+00  2.67893981E+00  2.65509331E+00  2.59580577E+00  2.04248057E+00
  2.67234229E+00  2.04689333E+00  2.58569295E+00  2.04559227E+00  2.04750561E+00
  1.86450596E+00  2.04049716E+00  2.06636280E+00  2.17118784E+00  2.09608990E+00
  2.01360162E+00  2.17349145E+00  2.07453811E+00  2.07568400E+00  2.13296190E+00
  2.10881813E+00  2.09880162E+00  2.07553716E+00  2.07833132E+00  2.14239743E+00
  2.06236328E+00  2.03615102E+00  2.12474540E+00  2.12227855E+00  2.06142657E+00
  2.10464209E+00  2.11669564E+00  2.12176041E+00  2.07914441E+00  2.08226372E+00
  2.10102228E+00  2.08437585E+00  2.09774736E+00  2.09740928E+00  2.07159147E+00
  2.11418096E+00 -1.78541911E+00  1.46008974E+00 -3.07809142E+00  6.57227769E-02
 -4.73168608E-02  3.09649733E+00  3.08729658E+00 -5.91092953E-02  5.80405888E-02
 -3.08836529E+00  9.62591885E-03 -3.13366076E+00 -3.13440331E+00  5.49531777E-03
  1.29207149E-02 -3.13685851E+00 -3.12691960E+00  6.48648088E-03 -6.21566928E-04
  3.12601309E+00 -3.13413508E+00 -7.50042295E-03 -3.25242766E-02  3.11387428E+00
  3.12333817E+00 -1.34485727E-02 -3.12236832E+00  1.63760913E-02  4.39612837E-03
 -3.14004477E+00 -3.12692491E+00  4.54525581E-02  9.61765853E-03 -3.10119018E+00
  3.21776767E-03 -3.13210601E+00  3.11380236E+00 -2.15214169E-02 -1.21675197E-02
  3.13899638E+00  3.12314531E+00 -8.87610025E-03  8.01590117E-03 -3.13065784E+00
  3.13996371E+00  1.28996335E-03
ZRed-IntVec                                I   N=          97
           0           0           0           0           0           0
           0           0           0           0           0           0
           0           0           0           0           0           0
           0           0           0           0           0           0
           0           0           0           0           0           0
           0           0           0           0           0           0
           0           0           0           0           0           0
           0           0           0           0           0           0
           0           0           0           0           0           0
           0           0           0           0           0           0
           0           0           0           0           0           0
           0           0           0           0           0           0
           0           0           0           0           0           0
           0           0           0           0           0           0
           0           0           0           0           0           0
           0           0           0           0           0           0
           0
ZRed-FPVec                                 R   N=          97
  0.00000000E+00  0.00000000E+00  0.00000000E+00  0.00000000E+00  0.00000000E+00
  0.00000000E+00  0.00000000E+00  0.00000000E+00  0.00000000E+00  0.00000000E+00
  0.00000000E+00  0.00000000E+00  0.00000000E+00  0.00000000E+00  0.00000000E+00
  0.00000000E+00  0.00000000E+00  0.00000000E+00  0.00000000E+00  0.00000000E+00
  0.00000000E+00  0.00000000E+00  0.00000000E+00  0.00000000E+00  0.00000000E+00
  0.00000000E+00  0.00000000E+00  0.00000000E+00  0.00000000E+00  0.00000000E+00
  0.00000000E+00  0.00000000E+00  0.00000000E+00  0.00000000E+00  0.00000000E+00
  0.00000000E+00  0.00000000E+00  0.00000000E+00  0.00000000E+00  0.00000000E+00
  0.00000000E+00  0.00000000E+00  0.00000000E+00  0.00000000E+00  0.00000000E+00
  0.00000000E+00  0.00000000E+00  0.00000000E+00  0.00000000E+00  0.00000000E+00
  0.00000000E+00  0.00000000E+00  0.00000000E+00  0.00000000E+00  0.00000000E+00
  0.00000000E+00  0.00000000E+00  0.00000000E+00  0.00000000E+00  0.00000000E+00
  0.00000000E+00  0.00000000E+00  0.00000000E+00  0.00000000E+00  0.00000000E+00
  0.00000000E+00  0.00000000E+00  0.00000000E+00  0.00000000E+00  0.00000000E+00
  0.00000000E+00  0.00000000E+00  0.00000000E+00  0.00000000E+00  0.00000000E+00
  0.00000000E+00  0.00000000E+00  0.00000000E+00  0.00000000E+00  0.00000000E+00
  0.00000000E+00  0.00000000E+00  0.00000000E+00  0.00000000E+00  0.00000000E+00
  0.00000000E+00  0.00000000E+00  0.00000000E+00  0.00000000E+00  0.00000000E+00
  0.00000000E+00  0.00000000E+00  0.00000000E+00  0.00000000E+00  0.00000000E+00
  0.00000000E+00  0.00000000E+00
ZRed-Constraint1                           R   N=          97
  2.58978304E+00  1.83408986E+00  2.51046339E+00  2.60389292E+00  2.63084170E+00
  2.04588777E+00  2.60181016E+00  2.04244729E+00  2.66531116E+00  2.04950435E+00
  2.68238021E+00  2.67893981E+00  2.65509331E+00  2.59580577E+00  2.04248057E+00
  2.67234229E+00  2.04689333E+00  2.58569295E+00  2.04559227E+00  2.04750561E+00
  1.86450596E+00  2.04049716E+00  2.06636280E+00  2.17118784E+00  2.09608990E+00
  2.01360162E+00  2.17349145E+00  2.07453811E+00  2.07568400E+00  2.13296190E+00
  2.10881813E+00  2.09880162E+00  2.07553716E+00  2.07833132E+00  2.14239743E+00
  2.06236328E+00  2.03615102E+00  2.12474540E+00  2.12227855E+00  2.06142657E+00
  2.10464209E+00  2.11669564E+00  2.12176041E+00  2.07914441E+00  2.08226372E+00
  2.10102228E+00  2.08437585E+00  2.09774736E+00  2.09740928E+00  2.07159147E+00
  2.11418096E+00 -1.78541911E+00  1.46008974E+00 -3.07809142E+00  6.57227769E-02
 -4.73168608E-02  3.09649733E+00  3.08729658E+00 -5.91092953E-02  5.80405888E-02
 -3.08836529E+00  9.62591885E-03 -3.13366076E+00 -3.13440331E+00  5.49531777E-03
  1.29207149E-02 -3.13685851E+00 -3.12691960E+00  6.48648088E-03 -6.21566928E-04
  3.12601309E+00 -3.13413508E+00 -7.50042295E-03 -3.25242766E-02  3.11387428E+00
  3.12333817E+00 -1.34485727E-02 -3.12236832E+00  1.63760913E-02  4.39612837E-03
 -3.14004477E+00 -3.12692491E+00  4.54525581E-02  9.61765853E-03 -3.10119018E+00
  3.21776767E-03 -3.13210601E+00  3.11380236E+00 -2.15214169E-02 -1.21675197E-02
  3.13899638E+00  3.12314531E+00 -8.87610025E-03  8.01590117E-03 -3.13065784E+00
  3.13996371E+00  1.28996335E-03
ZRed-Constraint2                           R   N=          97
  2.47565610E+00  1.81413708E+00  2.57216740E+00  2.59107439E+00  2.65364448E+00
  2.05981750E+00  2.65197981E+00  2.05983914E+00  2.66806357E+00  2.05984395E+00
  2.69744803E+00  2.67100889E+00  2.67475179E+00  2.65405120E+00  2.05980155E+00
  2.65442841E+00  2.05989045E+00  2.65821548E+00  2.05983351E+00  2.05961826E+00
  1.91063323E+00  2.03662812E+00  2.11857638E+00  2.12798081E+00  2.10446119E+00
  2.06191140E+00  2.11681272E+00  2.07979843E+00  2.10225137E+00  2.10113551E+00
  2.09670274E+00  2.08790435E+00  2.09857821E+00  2.07071748E+00  2.11727790E+00
  2.09518992E+00  2.08670997E+00  2.12466799E+00  2.07180734E+00  2.10981747E+00
  2.09352137E+00  2.07984646E+00  2.09535725E+00  2.09379870E+00  2.09402936E+00
  2.09737014E+00  2.09170467E+00  2.09411050E+00  2.09682849E+00  2.09733339E+00
  2.08902343E+00 -1.04719755E+00  2.09439510E+00  3.14159265E+00  0.00000000E+00
  0.00000000E+00  3.14159265E+00  3.14159265E+00  0.00000000E+00  0.00000000E+00
  3.14159265E+00  0.00000000E+00  3.14159265E+00  3.14159265E+00  0.00000000E+00
  0.00000000E+00  3.14159265E+00  3.14159265E+00  0.00000000E+00  0.00000000E+00
  3.14159265E+00  3.14159265E+00  0.00000000E+00  0.00000000E+00  3.14159265E+00
  3.14159265E+00  0.00000000E+00  3.14159265E+00  0.00000000E+00  0.00000000E+00
  3.14159265E+00  3.14159265E+00  0.00000000E+00  0.00000000E+00  3.14159265E+00
  0.00000000E+00  3.14159265E+00  3.14159265E+00  0.00000000E+00  0.00000000E+00
  3.14159265E+00  3.14159265E+00  0.00000000E+00  0.00000000E+00  3.14159265E+00
  3.14159265E+00  0.00000000E+00
SymInf integers                            I   N=          26
           1           1           1           1           1           0
           0           0           0           0           0           0
           0           0           0           0           0           0
           0           0           0           0           0           0
           0           0
RotTr to input orientation                 R   N=          12
 -2.31166776E-01  9.72912215E-01  1.93465529E-03 -9.72850083E-01 -2.31128281E-01
 -1.19345641E-02 -1.11641297E-02 -4.64100427E-03  9.99926909E-01 -2.02978410E+00
  1.96019793E+00  2.13137922E-02
Number of contracted shells                I              106
Number of primitive shells                 I              199
Pure/Cartesian d shells                    I                0
Pure/Cartesian f shells                    I                0
Highest angular momentum                   I                2
Largest degree of contraction              I                6
Shell types                                I   N=         106
           0          -1          -1          -1          -1          -2
           0          -1          -1          -1          -1          -2
           0          -1          -1          -1          -1          -2
           0          -1          -1          -1          -1          -2
           0          -1          -1          -1          -1          -2
           0          -1          -1          -1          -1          -2
           0          -1          -1          -1          -1          -2
           0          -1          -1          -1          -1          -2
           0          -1          -1          -1          -1          -2
           0          -1          -1          -1          -1          -2
           0          -1          -1          -1          -1          -2
           0           0           0           0           1           0
           0           0           0           1           0           0
           0           0           1           0           0           0
           0           1           0           0           0           0
           1           0           0           0           0           1
           0           0           0           0           1           0
           0           0           0           1
Number of primitives per shell             I   N=         106
           6           3           1           1           1           1
           6           3           1           1           1           1
           6           3           1           1           1           1
           6           3           1           1           1           1
           6           3           1           1           1           1
           6           3           1           1           1           1
           6           3           1           1           1           1
           6           3           1           1           1           1
           6           3           1           1           1           1
           6           3           1           1           1           1
           6           3           1           1           1           1
           3           1           1           1           1           3
           1           1           1           1           3           1
           1           1           1           3           1           1
           1           1           3           1           1           1
           1           3           1           1           1           1
           3           1           1           1           1           3
           1           1           1           1
Shell to atom map                          I   N=         106
           1           1           1           1           1           1
           2           2           2           2           2           2
           3           3           3           3           3           3
           4           4           4           4           4           4
           5           5           5           5           5           5
           6           6           6           6           6           6
           7           7           7           7           7           7
           8           8           8           8           8           8
           9           9           9           9           9           9
          10          10          10          10          10          10
          11          11          11          11          11          11
          12          12          12          12          12          13
          13          13          13          13          14          14
          14          14          14          15          15          15
          15          15          16          16          16          16
          16          17          17          17          17          17
          18          18          18          18          18          19
          19          19          19          19
Primitive exponents                        R   N=         199
  8.58850000E+03  1.29723000E+03  2.99296000E+02  8.73771000E+01  2.56789000E+01
  3.74004000E+00  4.21175000E+01  9.62837000E+00  2.85332000E+00  9.05661000E-01
  2.55611000E-01  8.45000000E-02  1.29200000E+00  6.29348000E+03  9.49044000E+02
  2.18776000E+02  6.36916000E+01  1.88282000E+01  2.72023000E+00  3.06331000E+01
  7.02614000E+00  2.11205000E+00  6.84009000E-01  2.00878000E-01  6.39000000E-02
  9.13000000E-01  4.56324000E+03  6.82024000E+02  1.54973000E+02  4.44553000E+01
  1.30290000E+01  1.82773000E+00  2.09642000E+01  4.80331000E+00  1.45933000E+00
  4.83456000E-01  1.45585000E-01  4.38000000E-02  6.26000000E-01  4.56324000E+03
  6.82024000E+02  1.54973000E+02  4.44553000E+01  1.30290000E+01  1.82773000E+00
  2.09642000E+01  4.80331000E+00  1.45933000E+00  4.83456000E-01  1.45585000E-01
  4.38000000E-02  6.26000000E-01  4.56324000E+03  6.82024000E+02  1.54973000E+02
  4.44553000E+01  1.30290000E+01  1.82773000E+00  2.09642000E+01  4.80331000E+00
  1.45933000E+00  4.83456000E-01  1.45585000E-01  4.38000000E-02  6.26000000E-01
  4.56324000E+03  6.82024000E+02  1.54973000E+02  4.44553000E+01  1.30290000E+01
  1.82773000E+00  2.09642000E+01  4.80331000E+00  1.45933000E+00  4.83456000E-01
  1.45585000E-01  4.38000000E-02  6.26000000E-01  4.56324000E+03  6.82024000E+02
  1.54973000E+02  4.44553000E+01  1.30290000E+01  1.82773000E+00  2.09642000E+01
  4.80331000E+00  1.45933000E+00  4.83456000E-01  1.45585000E-01  4.38000000E-02
  6.26000000E-01  4.56324000E+03  6.82024000E+02  1.54973000E+02  4.44553000E+01
  1.30290000E+01  1.82773000E+00  2.09642000E+01  4.80331000E+00  1.45933000E+00
  4.83456000E-01  1.45585000E-01  4.38000000E-02  6.26000000E-01  4.56324000E+03
  6.82024000E+02  1.54973000E+02  4.44553000E+01  1.30290000E+01  1.82773000E+00
  2.09642000E+01  4.80331000E+00  1.45933000E+00  4.83456000E-01  1.45585000E-01
  4.38000000E-02  6.26000000E-01  4.56324000E+03  6.82024000E+02  1.54973000E+02
  4.44553000E+01  1.30290000E+01  1.82773000E+00  2.09642000E+01  4.80331000E+00
  1.45933000E+00  4.83456000E-01  1.45585000E-01  4.38000000E-02  6.26000000E-01
  4.56324000E+03  6.82024000E+02  1.54973000E+02  4.44553000E+01  1.30290000E+01
  1.82773000E+00  2.09642000E+01  4.80331000E+00  1.45933000E+00  4.83456000E-01
  1.45585000E-01  4.38000000E-02  6.26000000E-01  3.38650000E+01  5.09479000E+00
  1.15879000E+00  3.25840000E-01  1.02741000E-01  3.60000000E-02  7.50000000E-01
  3.38650000E+01  5.09479000E+00  1.15879000E+00  3.25840000E-01  1.02741000E-01
  3.60000000E-02  7.50000000E-01  3.38650000E+01  5.09479000E+00  1.15879000E+00
  3.25840000E-01  1.02741000E-01  3.60000000E-02  7.50000000E-01  3.38650000E+01
  5.09479000E+00  1.15879000E+00  3.25840000E-01  1.02741000E-01  3.60000000E-02
  7.50000000E-01  3.38650000E+01  5.09479000E+00  1.15879000E+00  3.25840000E-01
  1.02741000E-01  3.60000000E-02  7.50000000E-01  3.38650000E+01  5.09479000E+00
  1.15879000E+00  3.25840000E-01  1.02741000E-01  3.60000000E-02  7.50000000E-01
  3.38650000E+01  5.09479000E+00  1.15879000E+00  3.25840000E-01  1.02741000E-01
  3.60000000E-02  7.50000000E-01  3.38650000E+01  5.09479000E+00  1.15879000E+00
  3.25840000E-01  1.02741000E-01  3.60000000E-02  7.50000000E-01
Contraction coefficients                   R   N=         199
  1.89515008E-03  1.43859006E-02  7.07320031E-02  2.40001011E-01  5.94797026E-01
  2.80802012E-01  1.13889012E-01  9.20811101E-01 -3.27447036E-03  1.00000000E+00
  1.00000000E+00  1.00000000E+00  1.00000000E+00  1.96978815E-03  1.49612859E-02
  7.35005308E-02  2.48936766E-01  6.02459433E-01  2.56201759E-01  1.11906080E-01
  9.21666655E-01 -2.56919183E-03  1.00000000E+00  1.00000000E+00  1.00000000E+00
  1.00000000E+00  1.96665025E-03  1.52306019E-02  7.61269097E-02  2.60801033E-01
  6.16462078E-01  2.21006028E-01  1.14660081E-01  9.19999648E-01 -3.03068213E-03
  1.00000000E+00  1.00000000E+00  1.00000000E+00  1.00000000E+00  1.96665025E-03
  1.52306019E-02  7.61269097E-02  2.60801033E-01  6.16462078E-01  2.21006028E-01
  1.14660081E-01  9.19999648E-01 -3.03068213E-03  1.00000000E+00  1.00000000E+00
  1.00000000E+00  1.00000000E+00  1.96665025E-03  1.52306019E-02  7.61269097E-02
  2.60801033E-01  6.16462078E-01  2.21006028E-01  1.14660081E-01  9.19999648E-01
 -3.03068213E-03  1.00000000E+00  1.00000000E+00  1.00000000E+00  1.00000000E+00
  1.96665025E-03  1.52306019E-02  7.61269097E-02  2.60801033E-01  6.16462078E-01
  2.21006028E-01  1.14660081E-01  9.19999648E-01 -3.03068213E-03  1.00000000E+00
  1.00000000E+00  1.00000000E+00  1.00000000E+00  1.96665025E-03  1.52306019E-02
  7.61269097E-02  2.60801033E-01  6.16462078E-01  2.21006028E-01  1.14660081E-01
  9.19999648E-01 -3.03068213E-03  1.00000000E+00  1.00000000E+00  1.00000000E+00
  1.00000000E+00  1.96665025E-03  1.52306019E-02  7.61269097E-02  2.60801033E-01