 Entering Gaussian System, Link 0=/apps/cent7/gaussian/g16-A.03/g16-haswell/g16/g16
 Initial command:
 /apps/cent7/gaussian/g16-A.03/g16-haswell/g16/l1.exe "/scratch/brown/finej/gaussian/Gau-261625.inp" -scrdir="/scratch/brown/finej/gaussian/"
 Entering Link 1 = /apps/cent7/gaussian/g16-A.03/g16-haswell/g16/l1.exe PID=    261627.
  
 Copyright (c) 1988,1990,1992,1993,1995,1998,2003,2009,2016,
            Gaussian, Inc.  All Rights Reserved.
  
 This is part of the Gaussian(R) 16 program.  It is based on
 the Gaussian(R) 09 system (copyright 2009, Gaussian, Inc.),
 the Gaussian(R) 03 system (copyright 2003, Gaussian, Inc.),
 the Gaussian(R) 98 system (copyright 1998, Gaussian, Inc.),
 the Gaussian(R) 94 system (copyright 1995, Gaussian, Inc.),
 the Gaussian 92(TM) system (copyright 1992, Gaussian, Inc.),
 the Gaussian 90(TM) system (copyright 1990, Gaussian, Inc.),
 the Gaussian 88(TM) system (copyright 1988, Gaussian, Inc.),
 the Gaussian 86(TM) system (copyright 1986, Carnegie Mellon
 University), and the Gaussian 82(TM) system (copyright 1983,
 Carnegie Mellon University). Gaussian is a federally registered
 trademark of Gaussian, Inc.
  
 This software contains proprietary and confidential information,
 including trade secrets, belonging to Gaussian, Inc.
  
 This software is provided under written license and may be
 used, copied, transmitted, or stored only in accord with that
 written license.
  
 The following legend is applicable only to US Government
 contracts under FAR:
  
                    RESTRICTED RIGHTS LEGEND
  
 Use, reproduction and disclosure by the US Government is
 subject to restrictions as set forth in subparagraphs (a)
 and (c) of the Commercial Computer Software - Restricted
 Rights clause in FAR 52.227-19.
  
 Gaussian, Inc.
 340 Quinnipiac St., Bldg. 40, Wallingford CT 06492
  
  
 ---------------------------------------------------------------
 Warning -- This program may not be used in any manner that
 competes with the business of Gaussian, Inc. or will provide
 assistance to any competitor of Gaussian, Inc.  The licensee
 of this program is prohibited from giving any competitor of
 Gaussian, Inc. access to this program.  By using this program,
 the user acknowledges that Gaussian, Inc. is engaged in the
 business of creating and licensing software in the field of
 computational chemistry and represents and warrants to the
 licensee that it is not a competitor of Gaussian, Inc. and that
 it will not use this program in any manner prohibited above.
 ---------------------------------------------------------------
  

 Cite this work as:
 Gaussian 16, Revision A.03,
 M. J. Frisch, G. W. Trucks, H. B. Schlegel, G. E. Scuseria, 
 M. A. Robb, J. R. Cheeseman, G. Scalmani, V. Barone, 
 G. A. Petersson, H. Nakatsuji, X. Li, M. Caricato, A. V. Marenich, 
 J. Bloino, B. G. Janesko, R. Gomperts, B. Mennucci, H. P. Hratchian, 
 J. V. Ortiz, A. F. Izmaylov, J. L. Sonnenberg, D. Williams-Young, 
 F. Ding, F. Lipparini, F. Egidi, J. Goings, B. Peng, A. Petrone, 
 T. Henderson, D. Ranasinghe, V. G. Zakrzewski, J. Gao, N. Rega, 
 G. Zheng, W. Liang, M. Hada, M. Ehara, K. Toyota, R. Fukuda, 
 J. Hasegawa, M. Ishida, T. Nakajima, Y. Honda, O. Kitao, H. Nakai, 
 T. Vreven, K. Throssell, J. A. Montgomery, Jr., J. E. Peralta, 
 F. Ogliaro, M. J. Bearpark, J. J. Heyd, E. N. Brothers, K. N. Kudin, 
 V. N. Staroverov, T. A. Keith, R. Kobayashi, J. Normand, 
 K. Raghavachari, A. P. Rendell, J. C. Burant, S. S. Iyengar, 
 J. Tomasi, M. Cossi, J. M. Millam, M. Klene, C. Adamo, R. Cammi, 
 J. W. Ochterski, R. L. Martin, K. Morokuma, O. Farkas, 
 J. B. Foresman, and D. J. Fox, Gaussian, Inc., Wallingford CT, 2016.
 
 ******************************************
 Gaussian 16:  ES64L-G16RevA.03 25-Dec-2016
                14-Oct-2019 
 ******************************************
 %chk=4_p.chk
 %nprocshared=24
 Will use up to   24 processors via shared memory.
 %mem=80GB
 -------------------------------------------------------------------
 #p opt freq m062x/6-311++g(d,p) geom=connectivity temperature=0.001
 -------------------------------------------------------------------
 1/18=20,19=15,26=3,38=1,57=2,112=-1000/1,3;
 2/9=110,12=2,17=6,18=5,40=1/2;
 3/5=4,6=6,7=1111,11=2,25=1,30=1,71=1,74=-55/1,2,3;
 4//1;
 5/5=2,38=5/2;
 6/7=2,8=2,9=2,10=2,28=1/1;
 7//1,2,3,16;
 1/18=20,19=15,26=3/3(2);
 2/9=110/2;
 99//99;
 2/9=110/2;
 3/5=4,6=6,7=1111,11=2,25=1,30=1,71=1,74=-55/1,2,3;
 4/5=5,16=3,69=1/1;
 5/5=2,38=5/2;
 7//1,2,3,16;
 1/18=20,19=15,26=3/3(-5);
 2/9=110/2;
 6/7=2,8=2,9=2,10=2,19=2,28=1/1;
 99/9=1/99;
 Leave Link    1 at Mon Oct 14 10:44:26 2019, MaxMem= 10737418240 cpu:               2.6 elap:               0.1
 (Enter /apps/cent7/gaussian/g16-A.03/g16-haswell/g16/l101.exe)
 -------------------
 Title Card Required
 -------------------
 Symbolic Z-matrix:
 Charge =  1 Multiplicity = 1
 O                     1.3035   -0.0831    0. 
 N                    -0.0047   -0.0133    0. 
 C                    -0.68     -1.1951    0. 
 C                    -2.0841   -1.2155    0. 
 C                    -2.7857   -0.0001    0. 
 C                    -2.0825    1.2242    0. 
 C                    -0.6554    1.1936    0. 
 C                     0.0509    2.4202    0. 
 C                    -0.6339    3.6464    0. 
 C                    -2.0384    3.6678    0. 
 C                    -2.7638    2.4626    0. 
 H                    -0.1005   -2.1183    0. 
 H                    -2.6228   -2.1631    0. 
 H                    -3.8757   -0.0071    0. 
 H                     1.1409    2.4205    0. 
 H                    -0.0749    4.5822    0. 
 H                    -2.5664    4.6214    0. 
 H                    -3.8534    2.4883    0. 
 H                     1.59893  -0.55206   0.78384 
 
 ITRead=  0  0  0  0  0  0  0  0  0  0  0  0  0  0  0  0  0  0  0
 MicOpt= -1 -1 -1 -1 -1 -1 -1 -1 -1 -1 -1 -1 -1 -1 -1 -1 -1 -1 -1
 NAtoms=     19 NQM=       19 NQMF=       0 NMMI=      0 NMMIF=      0
                NMic=       0 NMicF=      0.
                    Isotopes and Nuclear Properties:
 (Nuclear quadrupole moments (NQMom) in fm**2, nuclear magnetic moments (NMagM)
  in nuclear magnetons)

  Atom         1           2           3           4           5           6           7           8           9          10
 IAtWgt=          16          14          12          12          12          12          12          12          12          12
 AtmWgt=  15.9949146  14.0030740  12.0000000  12.0000000  12.0000000  12.0000000  12.0000000  12.0000000  12.0000000  12.0000000
 NucSpn=           0           2           0           0           0           0           0           0           0           0
 AtZEff=  -0.0000000  -0.0000000  -0.0000000  -0.0000000  -0.0000000  -0.0000000  -0.0000000  -0.0000000  -0.0000000  -0.0000000
 NQMom=    0.0000000   2.0440000   0.0000000   0.0000000   0.0000000   0.0000000   0.0000000   0.0000000   0.0000000   0.0000000
 NMagM=    0.0000000   0.4037610   0.0000000   0.0000000   0.0000000   0.0000000   0.0000000   0.0000000   0.0000000   0.0000000
 AtZNuc=   8.0000000   7.0000000   6.0000000   6.0000000   6.0000000   6.0000000   6.0000000   6.0000000   6.0000000   6.0000000

  Atom        11          12          13          14          15          16          17          18          19
 IAtWgt=          12           1           1           1           1           1           1           1           1
 AtmWgt=  12.0000000   1.0078250   1.0078250   1.0078250   1.0078250   1.0078250   1.0078250   1.0078250   1.0078250
 NucSpn=           0           1           1           1           1           1           1           1           1
 AtZEff=  -0.0000000  -0.0000000  -0.0000000  -0.0000000  -0.0000000  -0.0000000  -0.0000000  -0.0000000  -0.0000000
 NQMom=    0.0000000   0.0000000   0.0000000   0.0000000   0.0000000   0.0000000   0.0000000   0.0000000   0.0000000
 NMagM=    0.0000000   2.7928460   2.7928460   2.7928460   2.7928460   2.7928460   2.7928460   2.7928460   2.7928460
 AtZNuc=   6.0000000   1.0000000   1.0000000   1.0000000   1.0000000   1.0000000   1.0000000   1.0000000   1.0000000
 Leave Link  101 at Mon Oct 14 10:44:26 2019, MaxMem= 10737418240 cpu:               8.9 elap:               0.4
 (Enter /apps/cent7/gaussian/g16-A.03/g16-haswell/g16/l103.exe)

 GradGradGradGradGradGradGradGradGradGradGradGradGradGradGradGradGradGrad
 Berny optimization.
 Initialization pass.
                           ----------------------------
                           !    Initial Parameters    !
                           ! (Angstroms and Degrees)  !
 --------------------------                            --------------------------
 ! Name  Definition              Value          Derivative Info.                !
 --------------------------------------------------------------------------------
 ! R1    R(1,2)                  1.3101         estimate D2E/DX2                !
 ! R2    R(1,19)                 0.96           estimate D2E/DX2                !
 ! R3    R(2,3)                  1.3611         estimate D2E/DX2                !
 ! R4    R(2,7)                  1.3711         estimate D2E/DX2                !
 ! R5    R(3,4)                  1.4042         estimate D2E/DX2                !
 ! R6    R(3,12)                 1.09           estimate D2E/DX2                !
 ! R7    R(4,5)                  1.4034         estimate D2E/DX2                !
 ! R8    R(4,13)                 1.09           estimate D2E/DX2                !
 ! R9    R(5,6)                  1.4119         estimate D2E/DX2                !
 ! R10   R(5,14)                 1.09           estimate D2E/DX2                !
 ! R11   R(6,7)                  1.4274         estimate D2E/DX2                !
 ! R12   R(6,11)                 1.4134         estimate D2E/DX2                !
 ! R13   R(7,8)                  1.4154         estimate D2E/DX2                !
 ! R14   R(8,9)                  1.4045         estimate D2E/DX2                !
 ! R15   R(8,15)                 1.09           estimate D2E/DX2                !
 ! R16   R(9,10)                 1.4047         estimate D2E/DX2                !
 ! R17   R(9,16)                 1.09           estimate D2E/DX2                !
 ! R18   R(10,11)                1.4067         estimate D2E/DX2                !
 ! R19   R(10,17)                1.09           estimate D2E/DX2                !
 ! R20   R(11,18)                1.0899         estimate D2E/DX2                !
 ! A1    A(2,1,19)             109.4712         estimate D2E/DX2                !
 ! A2    A(1,2,3)              116.6902         estimate D2E/DX2                !
 ! A3    A(1,2,7)              121.3855         estimate D2E/DX2                !
 ! A4    A(3,2,7)              121.9243         estimate D2E/DX2                !
 ! A5    A(2,3,4)              120.5767         estimate D2E/DX2                !
 ! A6    A(2,3,12)             118.1388         estimate D2E/DX2                !
 ! A7    A(4,3,12)             121.2844         estimate D2E/DX2                !
 ! A8    A(3,4,5)              119.1637         estimate D2E/DX2                !
 ! A9    A(3,4,13)             120.4501         estimate D2E/DX2                !
 ! A10   A(5,4,13)             120.3862         estimate D2E/DX2                !
 ! A11   A(4,5,6)              120.1322         estimate D2E/DX2                !
 ! A12   A(4,5,14)             119.6281         estimate D2E/DX2                !
 ! A13   A(6,5,14)             120.2397         estimate D2E/DX2                !
 ! A14   A(5,6,7)              118.6434         estimate D2E/DX2                !
 ! A15   A(5,6,11)             121.3111         estimate D2E/DX2                !
 ! A16   A(7,6,11)             120.0455         estimate D2E/DX2                !
 ! A17   A(2,7,6)              119.5597         estimate D2E/DX2                !
 ! A18   A(2,7,8)              121.7345         estimate D2E/DX2                !
 ! A19   A(6,7,8)              118.7058         estimate D2E/DX2                !
 ! A20   A(7,8,9)              120.8836         estimate D2E/DX2                !
 ! A21   A(7,8,15)             119.9499         estimate D2E/DX2                !
 ! A22   A(9,8,15)             119.1664         estimate D2E/DX2                !
 ! A23   A(8,9,10)             120.0551         estimate D2E/DX2                !
 ! A24   A(8,9,16)             119.9658         estimate D2E/DX2                !
 ! A25   A(10,9,16)            119.979          estimate D2E/DX2                !
 ! A26   A(9,10,11)            120.1705         estimate D2E/DX2                !
 ! A27   A(9,10,17)            119.8458         estimate D2E/DX2                !
 ! A28   A(11,10,17)           119.9837         estimate D2E/DX2                !
 ! A29   A(6,11,10)            120.1394         estimate D2E/DX2                !
 ! A30   A(6,11,18)            120.1684         estimate D2E/DX2                !
 ! A31   A(10,11,18)           119.6922         estimate D2E/DX2                !
 ! D1    D(19,1,2,3)           -60.0            estimate D2E/DX2                !
 ! D2    D(19,1,2,7)           120.0            estimate D2E/DX2                !
 ! D3    D(1,2,3,4)            180.0            estimate D2E/DX2                !
 ! D4    D(1,2,3,12)             0.0            estimate D2E/DX2                !
 ! D5    D(7,2,3,4)              0.0            estimate D2E/DX2                !
 ! D6    D(7,2,3,12)           180.0            estimate D2E/DX2                !
 ! D7    D(1,2,7,6)            180.0            estimate D2E/DX2                !
 ! D8    D(1,2,7,8)              0.0            estimate D2E/DX2                !
 ! D9    D(3,2,7,6)              0.0            estimate D2E/DX2                !
 ! D10   D(3,2,7,8)            180.0            estimate D2E/DX2                !
 ! D11   D(2,3,4,5)              0.0            estimate D2E/DX2                !
 ! D12   D(2,3,4,13)           180.0            estimate D2E/DX2                !
 ! D13   D(12,3,4,5)           180.0            estimate D2E/DX2                !
 ! D14   D(12,3,4,13)            0.0            estimate D2E/DX2                !
 ! D15   D(3,4,5,6)              0.0            estimate D2E/DX2                !
 ! D16   D(3,4,5,14)           180.0            estimate D2E/DX2                !
 ! D17   D(13,4,5,6)           180.0            estimate D2E/DX2                !
 ! D18   D(13,4,5,14)            0.0            estimate D2E/DX2                !
 ! D19   D(4,5,6,7)              0.0            estimate D2E/DX2                !
 ! D20   D(4,5,6,11)           180.0            estimate D2E/DX2                !
 ! D21   D(14,5,6,7)           180.0            estimate D2E/DX2                !
 ! D22   D(14,5,6,11)            0.0            estimate D2E/DX2                !
 ! D23   D(5,6,7,2)              0.0            estimate D2E/DX2                !
 ! D24   D(5,6,7,8)            180.0            estimate D2E/DX2                !
 ! D25   D(11,6,7,2)           180.0            estimate D2E/DX2                !
 ! D26   D(11,6,7,8)             0.0            estimate D2E/DX2                !
 ! D27   D(5,6,11,10)          180.0            estimate D2E/DX2                !
 ! D28   D(5,6,11,18)            0.0            estimate D2E/DX2                !
 ! D29   D(7,6,11,10)            0.0            estimate D2E/DX2                !
 ! D30   D(7,6,11,18)          180.0            estimate D2E/DX2                !
 ! D31   D(2,7,8,9)            180.0            estimate D2E/DX2                !
 ! D32   D(2,7,8,15)             0.0            estimate D2E/DX2                !
 ! D33   D(6,7,8,9)              0.0            estimate D2E/DX2                !
 ! D34   D(6,7,8,15)           180.0            estimate D2E/DX2                !
 ! D35   D(7,8,9,10)             0.0            estimate D2E/DX2                !
 ! D36   D(7,8,9,16)           180.0            estimate D2E/DX2                !
 ! D37   D(15,8,9,10)          180.0            estimate D2E/DX2                !
 ! D38   D(15,8,9,16)            0.0            estimate D2E/DX2                !
 ! D39   D(8,9,10,11)            0.0            estimate D2E/DX2                !
 ! D40   D(8,9,10,17)          180.0            estimate D2E/DX2                !
 ! D41   D(16,9,10,11)         180.0            estimate D2E/DX2                !
 ! D42   D(16,9,10,17)           0.0            estimate D2E/DX2                !
 ! D43   D(9,10,11,6)            0.0            estimate D2E/DX2                !
 ! D44   D(9,10,11,18)         180.0            estimate D2E/DX2                !
 ! D45   D(17,10,11,6)         180.0            estimate D2E/DX2                !
 ! D46   D(17,10,11,18)          0.0            estimate D2E/DX2                !
 --------------------------------------------------------------------------------
 Trust Radius=3.00D-01 FncErr=1.00D-07 GrdErr=1.00D-06 EigMax=2.50D+02 EigMin=1.00D-04
 Number of steps in this run=    107 maximum allowed number of steps=    114.
 GradGradGradGradGradGradGradGradGradGradGradGradGradGradGradGradGradGrad

 Leave Link  103 at Mon Oct 14 10:44:26 2019, MaxMem= 10737418240 cpu:               0.3 elap:               0.0
 (Enter /apps/cent7/gaussian/g16-A.03/g16-haswell/g16/l202.exe)
                          Input orientation:                          
 ---------------------------------------------------------------------
 Center     Atomic      Atomic             Coordinates (Angstroms)
 Number     Number       Type             X           Y           Z
 ---------------------------------------------------------------------
      1          8           0        1.303500   -0.083100    0.000000
      2          7           0       -0.004700   -0.013300    0.000000
      3          6           0       -0.680000   -1.195100    0.000000
      4          6           0       -2.084100   -1.215500    0.000000
      5          6           0       -2.785700   -0.000100    0.000000
      6          6           0       -2.082500    1.224200    0.000000
      7          6           0       -0.655400    1.193600    0.000000
      8          6           0        0.050900    2.420200    0.000000
      9          6           0       -0.633900    3.646400    0.000000
     10          6           0       -2.038400    3.667800    0.000000
     11          6           0       -2.763800    2.462600    0.000000
     12          1           0       -0.100500   -2.118300    0.000000
     13          1           0       -2.622800   -2.163100    0.000000
     14          1           0       -3.875700   -0.007100    0.000000
     15          1           0        1.140900    2.420500    0.000000
     16          1           0       -0.074900    4.582200    0.000000
     17          1           0       -2.566400    4.621400    0.000000
     18          1           0       -3.853400    2.488300    0.000000
     19          1           0        1.598934   -0.552055    0.783837
 ---------------------------------------------------------------------
                    Distance matrix (angstroms):
                    1          2          3          4          5
     1  O    0.000000
     2  N    1.310061   0.000000
     3  C    2.273943   1.361132   0.000000
     4  C    3.571857   2.401914   1.404248   0.000000
     5  C    4.090042   2.781031   2.421156   1.403367   0.000000
     6  C    3.629605   2.418400   2.796430   2.439701   1.411878
     7  C    2.338216   1.371138   2.388827   2.800883   2.441945
     8  C    2.799199   2.434135   3.688443   4.216223   3.728827
     9  C    4.202700   3.713394   4.841719   5.073574   4.234053
    10  C    5.023698   4.205524   5.049064   4.883514   3.743254
    11  C    4.798283   3.707117   4.209631   3.740376   2.462797
    12  H    2.472500   2.107179   1.090008   2.179385   3.420098
    13  H    4.443223   3.387637   2.170598   1.090020   2.169125
    14  H    5.179758   3.871005   3.409376   2.161032   1.090022
    15  H    2.508875   2.689941   4.048239   4.860156   4.612753
    16  H    4.864670   4.596036   5.808902   6.135977   5.324088
    17  H    6.091670   5.295541   6.114751   5.856792   4.626700
    18  H    5.762440   4.590261   4.861883   4.104699   2.707788
    19  H    0.960000   1.864483   2.494283   3.823519   4.488214
                    6          7          8          9         10
     6  C    0.000000
     7  C    1.427428   0.000000
     8  C    2.445774   1.415418   0.000000
     9  C    2.822321   2.452894   1.404463   0.000000
    10  C    2.443998   2.834494   2.433450   1.404663   0.000000
    11  C    1.413437   2.460836   2.815019   2.436772   1.406667
    12  H    3.885953   3.358064   4.541025   5.789325   6.102000
    13  H    3.430120   3.890771   5.306158   6.140522   5.860112
    14  H    2.175239   3.436861   4.616273   4.884397   4.108596
    15  H    3.438232   2.175311   1.090000   2.157022   3.415217
    16  H    3.912368   3.437963   2.165657   1.090047   2.165978
    17  H    3.431490   3.924504   3.419874   2.164528   1.090017
    18  H    2.175784   3.450138   3.904894   3.421458   2.164589
    19  H    4.162023   2.956980   3.441672   4.819437   5.625991
                   11         12         13         14         15
    11  C    0.000000
    12  H    5.298850   0.000000
    13  H    4.627848   2.522698   0.000000
    14  H    2.708457   4.325425   2.493611   0.000000
    15  H    3.904927   4.705505   5.930837   5.573107   0.000000
    16  H    3.423870   6.700549   7.210469   5.958838   2.480144
    17  H    2.167806   7.176644   6.784734   4.810123   4.311384
    18  H    1.089903   5.941803   4.811434   2.495500   4.994760
    19  H    5.360596   2.440409   4.586164   5.557247   3.108099
                   16         17         18         19
    16  H    0.000000
    17  H    2.491808   0.000000
    18  H    4.319893   2.491282   0.000000
    19  H    5.456803   6.687977   6.291749   0.000000
 Stoichiometry    C9H8NO(1+)
 Framework group  C1[X(C9H8NO)]
 Deg. of freedom    51
 Full point group                 C1      NOp   1
 Largest Abelian subgroup         C1      NOp   1
 Largest concise Abelian subgroup C1      NOp   1
                         Standard orientation:                         
 ---------------------------------------------------------------------
 Center     Atomic      Atomic             Coordinates (Angstroms)
 Number     Number       Type             X           Y           Z
 ---------------------------------------------------------------------
      1          8           0       -1.711855   -1.996748   -0.045842
      2          7           0       -1.310013   -0.749963   -0.028251
      3          6           0       -2.279930    0.204983   -0.023734
      4          6           0       -1.940779    1.567534   -0.005210
      5          6           0       -0.586457    1.935040    0.008638
      6          6           0        0.417417    0.942258    0.003911
      7          6           0        0.023082   -0.429489   -0.015108
      8          6           0        1.028387   -1.425856   -0.019868
      9          6           0        2.388856   -1.077351   -0.006201
     10          6           0        2.768520    0.274900    0.012484
     11          6           0        1.788785    1.284260    0.017577
     12          1           0       -3.320557   -0.119193   -0.034870
     13          1           0       -2.719194    2.330554   -0.001625
     14          1           0       -0.314632    2.990527    0.023051
     15          1           0        0.750084   -2.479630   -0.034306
     16          1           0        3.150675   -1.856979   -0.010100
     17          1           0        3.825373    0.541519    0.023052
     18          1           0        2.092122    2.331000    0.032107
     19          1           0       -2.246226   -2.171737    0.732250
 ---------------------------------------------------------------------
 Rotational constants (GHZ):           1.9919570           1.1221745           0.7190187
 Leave Link  202 at Mon Oct 14 10:44:26 2019, MaxMem= 10737418240 cpu:               1.0 elap:               0.1
 (Enter /apps/cent7/gaussian/g16-A.03/g16-haswell/g16/l301.exe)
 Standard basis: 6-311++G(d,p) (5D, 7F)
 Ernie: Thresh=  0.10000D-02 Tol=  0.10000D-05 Strict=F.
 There are   309 symmetry adapted cartesian basis functions of A   symmetry.
 There are   298 symmetry adapted basis functions of A   symmetry.
   298 basis functions,   468 primitive gaussians,   309 cartesian basis functions
    38 alpha electrons       38 beta electrons
       nuclear repulsion energy       571.3805323435 Hartrees.
 IExCor= 4336 DFT=T Ex+Corr=M062X ExCW=0 ScaHFX=  0.540000
 ScaDFX=  1.000000  1.000000  1.000000  1.000000 ScalE2=  1.000000  1.000000
 IRadAn=      5 IRanWt=     -1 IRanGd=            0 ICorTp=0 IEmpDi=  4
 NAtoms=   19 NActive=   19 NUniq=   19 SFac= 1.00D+00 NAtFMM=   60 NAOKFM=F Big=F
 Integral buffers will be    131072 words long.
 Raffenetti 2 integral format.
 Two-electron integral symmetry is turned on.
 Leave Link  301 at Mon Oct 14 10:44:26 2019, MaxMem= 10737418240 cpu:               1.8 elap:               0.1
 (Enter /apps/cent7/gaussian/g16-A.03/g16-haswell/g16/l302.exe)
 NPDir=0 NMtPBC=     1 NCelOv=     1 NCel=       1 NClECP=     1 NCelD=      1
         NCelK=      1 NCelE2=     1 NClLst=     1 CellRange=     0.0.
 One-electron integrals computed using PRISM.
 One-electron integral symmetry used in STVInt
 NBasis=   298 RedAO= T EigKep=  1.62D-06  NBF=   298
 NBsUse=   297 1.00D-06 EigRej=  4.25D-07 NBFU=   297
 Precomputing XC quadrature grid using
 IXCGrd= 4 IRadAn=           5 IRanWt=          -1 IRanGd=           0 AccXCQ= 0.00D+00.
 Generated NRdTot=       0 NPtTot=           0 NUsed=           0 NTot=          32
 NSgBfM=   309   309   309   309   309 MxSgAt=    19 MxSgA2=    19.
 Leave Link  302 at Mon Oct 14 10:44:27 2019, MaxMem= 10737418240 cpu:               4.6 elap:               0.2
 (Enter /apps/cent7/gaussian/g16-A.03/g16-haswell/g16/l303.exe)
 DipDrv:  MaxL=1.
 Leave Link  303 at Mon Oct 14 10:44:27 2019, MaxMem= 10737418240 cpu:               1.0 elap:               0.1
 (Enter /apps/cent7/gaussian/g16-A.03/g16-haswell/g16/l401.exe)
 ExpMin= 3.60D-02 ExpMax= 8.59D+03 ExpMxC= 1.30D+03 IAcc=3 IRadAn=         5 AccDes= 0.00D+00
 Harris functional with IExCor= 1009 and IRadAn=       5 diagonalized for initial guess.
 HarFok:  IExCor= 1009 AccDes= 0.00D+00 IRadAn=         5 IDoV= 1 UseB2=F ITyADJ=14
 ICtDFT=  3500011 ScaDFX=  1.000000  1.000000  1.000000  1.000000
 FoFCou: FMM=F IPFlag=           0 FMFlag=      100000 FMFlg1=           0
         NFxFlg=           0 DoJE=T BraDBF=F KetDBF=T FulRan=T
         wScrn=  0.000000 ICntrl=       500 IOpCl=  0 I1Cent=   200000004 NGrid=           0
         NMat0=    1 NMatS0=      1 NMatT0=    0 NMatD0=    1 NMtDS0=    0 NMtDT0=    0
 Petite list used in FoFCou.
 Harris En= -477.162494725498    
 JPrj=0 DoOrth=F DoCkMO=F.
 Leave Link  401 at Mon Oct 14 10:44:27 2019, MaxMem= 10737418240 cpu:              11.3 elap:               0.5
 (Enter /apps/cent7/gaussian/g16-A.03/g16-haswell/g16/l502.exe)
 Integral symmetry usage will be decided dynamically.
 Closed shell SCF:
 Using DIIS extrapolation, IDIIS=  1040.
 NGot= 10737418240 LenX= 10737216881 LenY= 10737120959
 Requested convergence on RMS density matrix=1.00D-08 within 128 cycles.
 Requested convergence on MAX density matrix=1.00D-06.
 Requested convergence on             energy=1.00D-06.
 No special actions if energy rises.
 Fock matrices will be formed incrementally for  20 cycles.

 Cycle   1  Pass 1  IDiag  1:
 FoFJK:  IHMeth= 1 ICntrl=       0 DoSepK=F KAlg= 0 I1Cent=           0 FoldK=F
 IRaf= 940000000 NMat=       1 IRICut=       1 DoRegI=T DoRafI=F ISym2E= 0 IDoP0=0 IntGTp=1.
 FoFCou: FMM=F IPFlag=           0 FMFlag=      100000 FMFlg1=           0
         NFxFlg=           0 DoJE=F BraDBF=F KetDBF=F FulRan=T
         wScrn=  0.000000 ICntrl=         0 IOpCl=  0 I1Cent=           0 NGrid=           0
         NMat0=    1 NMatS0=      1 NMatT0=    0 NMatD0=    1 NMtDS0=    0 NMtDT0=    0
 Symmetry not used in FoFCou.
 E= -477.113693192697    
 DIIS: error= 2.72D-02 at cycle   1 NSaved=   1.
 NSaved= 1 IEnMin= 1 EnMin= -477.113693192697     IErMin= 1 ErrMin= 2.72D-02
 ErrMax= 2.72D-02  0.00D+00 EMaxC= 1.00D-01 BMatC= 3.28D-01 BMatP= 3.28D-01
 IDIUse=3 WtCom= 7.28D-01 WtEn= 2.72D-01
 Coeff-Com:  0.100D+01
 Coeff-En:   0.100D+01
 Coeff:      0.100D+01
 Gap=     0.263 Goal=   None    Shift=    0.000
 GapD=    0.263 DampG=1.000 DampE=0.500 DampFc=0.5000 IDamp=-1.
 Damping current iteration by 5.00D-01
 RMSDP=4.45D-02 MaxDP=5.04D+00              OVMax= 2.86D-01

 Cycle   2  Pass 1  IDiag  1:
 RMSU=  2.03D-02    CP:  1.09D+00
 E= -477.214389565646     Delta-E=       -0.100696372949 Rises=F Damp=T
 DIIS: error= 8.91D-03 at cycle   2 NSaved=   2.
 NSaved= 2 IEnMin= 2 EnMin= -477.214389565646     IErMin= 2 ErrMin= 8.91D-03
 ErrMax= 8.91D-03  0.00D+00 EMaxC= 1.00D-01 BMatC= 4.57D-02 BMatP= 3.28D-01
 IDIUse=3 WtCom= 9.11D-01 WtEn= 8.91D-02
 Coeff-Com:  0.596D-01 0.940D+00
 Coeff-En:   0.188D+00 0.812D+00
 Coeff:      0.710D-01 0.929D+00
 Gap=     0.242 Goal=   None    Shift=    0.000
 RMSDP=1.14D-02 MaxDP=7.78D-01 DE=-1.01D-01 OVMax= 2.77D-01

 Cycle   3  Pass 1  IDiag  1:
 RMSU=  8.09D-03    CP:  1.01D+00  9.82D-01
 E= -477.353871862212     Delta-E=       -0.139482296565 Rises=F Damp=F
 DIIS: error= 8.04D-03 at cycle   3 NSaved=   3.
 NSaved= 3 IEnMin= 3 EnMin= -477.353871862212     IErMin= 3 ErrMin= 8.04D-03
 ErrMax= 8.04D-03  0.00D+00 EMaxC= 1.00D-01 BMatC= 2.08D-02 BMatP= 4.57D-02
 IDIUse=3 WtCom= 9.20D-01 WtEn= 8.04D-02
 Coeff-Com: -0.845D-01 0.415D+00 0.670D+00
 Coeff-En:   0.000D+00 0.000D+00 0.100D+01
 Coeff:     -0.778D-01 0.381D+00 0.696D+00
 Gap=     0.220 Goal=   None    Shift=    0.000
 RMSDP=4.31D-03 MaxDP=4.32D-01 DE=-1.39D-01 OVMax= 6.53D-02

 Cycle   4  Pass 1  IDiag  1:
 RMSU=  2.88D-03    CP:  9.88D-01  9.74D-01  7.23D-01
 E= -477.371574771083     Delta-E=       -0.017702908871 Rises=F Damp=F
 DIIS: error= 2.95D-03 at cycle   4 NSaved=   4.
 NSaved= 4 IEnMin= 4 EnMin= -477.371574771083     IErMin= 4 ErrMin= 2.95D-03
 ErrMax= 2.95D-03  0.00D+00 EMaxC= 1.00D-01 BMatC= 2.39D-03 BMatP= 2.08D-02
 IDIUse=3 WtCom= 9.71D-01 WtEn= 2.95D-02
 Coeff-Com: -0.287D-01 0.848D-01 0.314D+00 0.630D+00
 Coeff-En:   0.000D+00 0.000D+00 0.557D-01 0.944D+00
 Coeff:     -0.278D-01 0.823D-01 0.306D+00 0.639D+00
 Gap=     0.219 Goal=   None    Shift=    0.000
 RMSDP=2.23D-03 MaxDP=1.82D-01 DE=-1.77D-02 OVMax= 2.16D-02

 Cycle   5  Pass 1  IDiag  1:
 RMSU=  9.12D-04    CP:  9.74D-01  9.83D-01  8.38D-01  5.82D-01
 E= -477.373855662189     Delta-E=       -0.002280891106 Rises=F Damp=F
 DIIS: error= 7.69D-04 at cycle   5 NSaved=   5.
 NSaved= 5 IEnMin= 5 EnMin= -477.373855662189     IErMin= 5 ErrMin= 7.69D-04
 ErrMax= 7.69D-04  0.00D+00 EMaxC= 1.00D-01 BMatC= 1.40D-04 BMatP= 2.39D-03
 IDIUse=3 WtCom= 9.92D-01 WtEn= 7.69D-03
 Coeff-Com: -0.757D-02 0.131D-01 0.100D+00 0.292D+00 0.602D+00
 Coeff-En:   0.000D+00 0.000D+00 0.000D+00 0.000D+00 0.100D+01
 Coeff:     -0.751D-02 0.130D-01 0.993D-01 0.290D+00 0.605D+00
 Gap=     0.221 Goal=   None    Shift=    0.000
 RMSDP=4.86D-04 MaxDP=6.93D-02 DE=-2.28D-03 OVMax= 6.93D-03

 Cycle   6  Pass 1  IDiag  1:
 RMSU=  2.55D-04    CP:  9.77D-01  9.73D-01  8.43D-01  6.20D-01  8.59D-01
 E= -477.373999602454     Delta-E=       -0.000143940266 Rises=F Damp=F
 DIIS: error= 3.21D-04 at cycle   6 NSaved=   6.
 NSaved= 6 IEnMin= 6 EnMin= -477.373999602454     IErMin= 6 ErrMin= 3.21D-04
 ErrMax= 3.21D-04  0.00D+00 EMaxC= 1.00D-01 BMatC= 1.57D-05 BMatP= 1.40D-04
 IDIUse=3 WtCom= 9.97D-01 WtEn= 3.21D-03
 Coeff-Com:  0.131D-02-0.641D-02 0.111D-02 0.333D-01 0.264D+00 0.707D+00
 Coeff-En:   0.000D+00 0.000D+00 0.000D+00 0.000D+00 0.000D+00 0.100D+01
 Coeff:      0.131D-02-0.639D-02 0.111D-02 0.332D-01 0.263D+00 0.708D+00
 Gap=     0.221 Goal=   None    Shift=    0.000
 RMSDP=1.41D-04 MaxDP=9.38D-03 DE=-1.44D-04 OVMax= 1.69D-03

 Cycle   7  Pass 1  IDiag  1:
 RMSU=  9.74D-05    CP:  9.78D-01  9.74D-01  8.40D-01  6.35D-01  8.09D-01
                    CP:  8.88D-01
 E= -477.374018429423     Delta-E=       -0.000018826968 Rises=F Damp=F
 DIIS: error= 6.84D-05 at cycle   7 NSaved=   7.
 NSaved= 7 IEnMin= 7 EnMin= -477.374018429423     IErMin= 7 ErrMin= 6.84D-05
 ErrMax= 6.84D-05  0.00D+00 EMaxC= 1.00D-01 BMatC= 1.14D-06 BMatP= 1.57D-05
 IDIUse=1 WtCom= 1.00D+00 WtEn= 0.00D+00
 Coeff-Com:  0.160D-02-0.411D-02-0.107D-01-0.247D-01 0.155D-01 0.199D+00
 Coeff-Com:  0.823D+00
 Coeff:      0.160D-02-0.411D-02-0.107D-01-0.247D-01 0.155D-01 0.199D+00
 Coeff:      0.823D+00
 Gap=     0.221 Goal=   None    Shift=    0.000
 RMSDP=4.35D-05 MaxDP=3.89D-03 DE=-1.88D-05 OVMax= 5.75D-04

 Cycle   8  Pass 1  IDiag  1:
 RMSU=  2.34D-05    CP:  9.78D-01  9.74D-01  8.41D-01  6.34D-01  8.27D-01
                    CP:  9.10D-01  9.91D-01
 E= -477.374019858401     Delta-E=       -0.000001428978 Rises=F Damp=F
 DIIS: error= 5.36D-05 at cycle   8 NSaved=   8.
 NSaved= 8 IEnMin= 8 EnMin= -477.374019858401     IErMin= 8 ErrMin= 5.36D-05
 ErrMax= 5.36D-05  0.00D+00 EMaxC= 1.00D-01 BMatC= 3.76D-07 BMatP= 1.14D-06
 IDIUse=1 WtCom= 1.00D+00 WtEn= 0.00D+00
 Coeff-Com:  0.714D-03-0.139D-02-0.557D-02-0.181D-01-0.274D-01 0.262D-02
 Coeff-Com:  0.434D+00 0.615D+00
 Coeff:      0.714D-03-0.139D-02-0.557D-02-0.181D-01-0.274D-01 0.262D-02
 Coeff:      0.434D+00 0.615D+00
 Gap=     0.221 Goal=   None    Shift=    0.000
 RMSDP=1.35D-05 MaxDP=1.14D-03 DE=-1.43D-06 OVMax= 3.03D-04

 Cycle   9  Pass 1  IDiag  1:
 RMSU=  6.96D-06    CP:  9.78D-01  9.74D-01  8.41D-01  6.33D-01  8.31D-01
                    CP:  9.19D-01  1.06D+00  7.96D-01
 E= -477.374020283921     Delta-E=       -0.000000425520 Rises=F Damp=F
 DIIS: error= 1.20D-05 at cycle   9 NSaved=   9.
 NSaved= 9 IEnMin= 9 EnMin= -477.374020283921     IErMin= 9 ErrMin= 1.20D-05
 ErrMax= 1.20D-05  0.00D+00 EMaxC= 1.00D-01 BMatC= 1.29D-08 BMatP= 3.76D-07
 IDIUse=1 WtCom= 1.00D+00 WtEn= 0.00D+00
 Coeff-Com:  0.260D-04 0.311D-04-0.408D-05-0.132D-02-0.402D-02-0.151D-01
 Coeff-Com:  0.751D-02 0.127D+00 0.886D+00
 Coeff:      0.260D-04 0.311D-04-0.408D-05-0.132D-02-0.402D-02-0.151D-01
 Coeff:      0.751D-02 0.127D+00 0.886D+00
 Gap=     0.221 Goal=   None    Shift=    0.000
 RMSDP=4.19D-06 MaxDP=3.22D-04 DE=-4.26D-07 OVMax= 8.91D-05

 Cycle  10  Pass 1  IDiag  1:
 RMSU=  2.81D-06    CP:  9.78D-01  9.74D-01  8.41D-01  6.32D-01  8.30D-01
                    CP:  9.13D-01  1.06D+00  8.16D-01  1.11D+00
 E= -477.374020301782     Delta-E=       -0.000000017861 Rises=F Damp=F
 DIIS: error= 3.88D-06 at cycle  10 NSaved=  10.
 NSaved=10 IEnMin=10 EnMin= -477.374020301782     IErMin=10 ErrMin= 3.88D-06
 ErrMax= 3.88D-06  0.00D+00 EMaxC= 1.00D-01 BMatC= 4.94D-09 BMatP= 1.29D-08
 IDIUse=1 WtCom= 1.00D+00 WtEn= 0.00D+00
 Coeff-Com: -0.659D-04 0.171D-03 0.623D-03 0.130D-02 0.993D-03-0.995D-02
 Coeff-Com: -0.526D-01-0.849D-02 0.477D+00 0.591D+00
 Coeff:     -0.659D-04 0.171D-03 0.623D-03 0.130D-02 0.993D-03-0.995D-02
 Coeff:     -0.526D-01-0.849D-02 0.477D+00 0.591D+00
 Gap=     0.221 Goal=   None    Shift=    0.000
 RMSDP=1.13D-06 MaxDP=4.96D-05 DE=-1.79D-08 OVMax= 2.57D-05

 Cycle  11  Pass 1  IDiag  1:
 RMSU=  7.84D-07    CP:  9.78D-01  9.74D-01  8.41D-01  6.32D-01  8.30D-01
                    CP:  9.12D-01  1.07D+00  8.25D-01  1.17D+00  9.14D-01
 E= -477.374020307227     Delta-E=       -0.000000005445 Rises=F Damp=F
 DIIS: error= 1.04D-06 at cycle  11 NSaved=  11.
 NSaved=11 IEnMin=11 EnMin= -477.374020307227     IErMin=11 ErrMin= 1.04D-06
 ErrMax= 1.04D-06  0.00D+00 EMaxC= 1.00D-01 BMatC= 1.73D-10 BMatP= 4.94D-09
 IDIUse=1 WtCom= 1.00D+00 WtEn= 0.00D+00
 Coeff-Com: -0.194D-04 0.402D-04 0.182D-03 0.526D-03 0.914D-03-0.178D-02
 Coeff-Com: -0.171D-01-0.165D-01 0.445D-01 0.147D+00 0.842D+00
 Coeff:     -0.194D-04 0.402D-04 0.182D-03 0.526D-03 0.914D-03-0.178D-02
 Coeff:     -0.171D-01-0.165D-01 0.445D-01 0.147D+00 0.842D+00
 Gap=     0.221 Goal=   None    Shift=    0.000
 RMSDP=6.10D-07 MaxDP=4.63D-05 DE=-5.45D-09 OVMax= 1.18D-05

 Cycle  12  Pass 1  IDiag  1:
 RMSU=  2.53D-07    CP:  9.78D-01  9.74D-01  8.41D-01  6.32D-01  8.30D-01
                    CP:  9.12D-01  1.07D+00  8.32D-01  1.19D+00  9.58D-01
                    CP:  8.72D-01
 E= -477.374020307513     Delta-E=       -0.000000000286 Rises=F Damp=F
 DIIS: error= 6.35D-07 at cycle  12 NSaved=  12.
 NSaved=12 IEnMin=12 EnMin= -477.374020307513     IErMin=12 ErrMin= 6.35D-07
 ErrMax= 6.35D-07  0.00D+00 EMaxC= 1.00D-01 BMatC= 3.03D-11 BMatP= 1.73D-10
 IDIUse=1 WtCom= 1.00D+00 WtEn= 0.00D+00
 Coeff-Com:  0.820D-06-0.321D-05 0.803D-05 0.462D-04 0.289D-03 0.209D-03
 Coeff-Com: -0.240D-03-0.319D-02-0.207D-01-0.910D-02 0.301D+00 0.732D+00
 Coeff:      0.820D-06-0.321D-05 0.803D-05 0.462D-04 0.289D-03 0.209D-03
 Coeff:     -0.240D-03-0.319D-02-0.207D-01-0.910D-02 0.301D+00 0.732D+00
 Gap=     0.221 Goal=   None    Shift=    0.000
 RMSDP=2.03D-07 MaxDP=2.40D-05 DE=-2.86D-10 OVMax= 4.09D-06

 Cycle  13  Pass 1  IDiag  1:
 RMSU=  8.37D-08    CP:  9.78D-01  9.74D-01  8.41D-01  6.32D-01  8.30D-01
                    CP:  9.12D-01  1.07D+00  8.30D-01  1.20D+00  9.68D-01
                    CP:  9.41D-01  8.80D-01
 E= -477.374020307561     Delta-E=       -0.000000000048 Rises=F Damp=F
 DIIS: error= 1.60D-07 at cycle  13 NSaved=  13.
 NSaved=13 IEnMin=13 EnMin= -477.374020307561     IErMin=13 ErrMin= 1.60D-07
 ErrMax= 1.60D-07  0.00D+00 EMaxC= 1.00D-01 BMatC= 7.37D-12 BMatP= 3.03D-11
 IDIUse=1 WtCom= 1.00D+00 WtEn= 0.00D+00
 Coeff-Com:  0.357D-05-0.842D-05-0.251D-04-0.643D-04-0.880D-05 0.279D-03
 Coeff-Com:  0.238D-02 0.782D-03-0.173D-01-0.335D-01-0.127D-01 0.325D+00
 Coeff-Com:  0.735D+00
 Coeff:      0.357D-05-0.842D-05-0.251D-04-0.643D-04-0.880D-05 0.279D-03
 Coeff:      0.238D-02 0.782D-03-0.173D-01-0.335D-01-0.127D-01 0.325D+00
 Coeff:      0.735D+00
 Gap=     0.221 Goal=   None    Shift=    0.000
 RMSDP=9.08D-08 MaxDP=5.40D-06 DE=-4.77D-11 OVMax= 2.62D-06

 Cycle  14  Pass 1  IDiag  1:
 RMSU=  4.85D-08    CP:  9.78D-01  9.74D-01  8.41D-01  6.32D-01  8.30D-01
                    CP:  9.12D-01  1.07D+00  8.29D-01  1.20D+00  9.77D-01
                    CP:  9.55D-01  9.40D-01  8.73D-01
 E= -477.374020307575     Delta-E=       -0.000000000013 Rises=F Damp=F
 DIIS: error= 6.01D-08 at cycle  14 NSaved=  14.
 NSaved=14 IEnMin=14 EnMin= -477.374020307575     IErMin=14 ErrMin= 6.01D-08
 ErrMax= 6.01D-08  0.00D+00 EMaxC= 1.00D-01 BMatC= 6.55D-13 BMatP= 7.37D-12
 IDIUse=1 WtCom= 1.00D+00 WtEn= 0.00D+00
 Coeff-Com:  0.134D-05-0.291D-05-0.912D-05-0.305D-04-0.259D-04 0.510D-04
 Coeff-Com:  0.908D-03 0.703D-03-0.321D-02-0.114D-01-0.355D-01 0.401D-01
 Coeff-Com:  0.206D+00 0.803D+00
 Coeff:      0.134D-05-0.291D-05-0.912D-05-0.305D-04-0.259D-04 0.510D-04
 Coeff:      0.908D-03 0.703D-03-0.321D-02-0.114D-01-0.355D-01 0.401D-01
 Coeff:      0.206D+00 0.803D+00
 Gap=     0.221 Goal=   None    Shift=    0.000
 RMSDP=2.98D-08 MaxDP=3.72D-06 DE=-1.34D-11 OVMax= 9.49D-07

 Cycle  15  Pass 1  IDiag  1:
 RMSU=  1.25D-08    CP:  9.78D-01  9.74D-01  8.41D-01  6.32D-01  8.30D-01
                    CP:  9.12D-01  1.07D+00  8.28D-01  1.20D+00  9.76D-01
                    CP:  9.57D-01  9.58D-01  9.82D-01  1.11D+00
 E= -477.374020307566     Delta-E=        0.000000000008 Rises=F Damp=F
 DIIS: error= 3.54D-08 at cycle  15 NSaved=  15.
 NSaved=15 IEnMin=14 EnMin= -477.374020307575     IErMin=15 ErrMin= 3.54D-08
 ErrMax= 3.54D-08  0.00D+00 EMaxC= 1.00D-01 BMatC= 1.65D-13 BMatP= 6.55D-13
 IDIUse=1 WtCom= 1.00D+00 WtEn= 0.00D+00
 Coeff-Com: -0.146D-06 0.449D-06 0.202D-05 0.508D-06-0.494D-05-0.498D-04
 Coeff-Com: -0.135D-03 0.112D-03 0.254D-02 0.204D-02-0.119D-01-0.516D-01
 Coeff-Com: -0.882D-01 0.352D+00 0.795D+00
 Coeff:     -0.146D-06 0.449D-06 0.202D-05 0.508D-06-0.494D-05-0.498D-04
 Coeff:     -0.135D-03 0.112D-03 0.254D-02 0.204D-02-0.119D-01-0.516D-01
 Coeff:     -0.882D-01 0.352D+00 0.795D+00
 Gap=     0.221 Goal=   None    Shift=    0.000
 RMSDP=1.50D-08 MaxDP=1.08D-06 DE= 8.41D-12 OVMax= 5.25D-07

 Cycle  16  Pass 1  IDiag  1:
 RMSU=  5.53D-09    CP:  9.78D-01  9.74D-01  8.41D-01  6.32D-01  8.30D-01
                    CP:  9.12D-01  1.07D+00  8.28D-01  1.20D+00  9.76D-01
                    CP:  9.61D-01  9.58D-01  9.92D-01  1.28D+00  1.09D+00
 E= -477.374020307577     Delta-E=       -0.000000000011 Rises=F Damp=F
 DIIS: error= 5.65D-09 at cycle  16 NSaved=  16.
 NSaved=16 IEnMin=16 EnMin= -477.374020307577     IErMin=16 ErrMin= 5.65D-09
 ErrMax= 5.65D-09  0.00D+00 EMaxC= 1.00D-01 BMatC= 1.14D-14 BMatP= 1.65D-13
 IDIUse=1 WtCom= 1.00D+00 WtEn= 0.00D+00
 Coeff-Com: -0.922D-07 0.224D-06 0.102D-05 0.228D-05 0.167D-05-0.143D-04
 Coeff-Com: -0.927D-04-0.444D-04 0.640D-03 0.116D-02 0.186D-02-0.115D-01
 Coeff-Com: -0.361D-01-0.457D-01 0.176D+00 0.913D+00
 Coeff:     -0.922D-07 0.224D-06 0.102D-05 0.228D-05 0.167D-05-0.143D-04
 Coeff:     -0.927D-04-0.444D-04 0.640D-03 0.116D-02 0.186D-02-0.115D-01
 Coeff:     -0.361D-01-0.457D-01 0.176D+00 0.913D+00
 Gap=     0.221 Goal=   None    Shift=    0.000
 RMSDP=4.08D-09 MaxDP=3.31D-07 DE=-1.14D-11 OVMax= 1.26D-07

 SCF Done:  E(RM062X) =  -477.374020308     A.U. after   16 cycles
            NFock= 16  Conv=0.41D-08     -V/T= 2.0044
 KE= 4.752842498638D+02 PE=-2.239742591690D+03 EE= 7.157037891753D+02
 Leave Link  502 at Mon Oct 14 10:44:47 2019, MaxMem= 10737418240 cpu:             461.6 elap:              19.3
 (Enter /apps/cent7/gaussian/g16-A.03/g16-haswell/g16/l601.exe)
 Copying SCF densities to generalized density rwf, IOpCl= 0 IROHF=0.

 **********************************************************************

            Population analysis using the SCF density.

 **********************************************************************

 Orbital symmetries:
       Occupied  (A) (A) (A) (A) (A) (A) (A) (A) (A) (A) (A) (A)
                 (A) (A) (A) (A) (A) (A) (A) (A) (A) (A) (A) (A)
                 (A) (A) (A) (A) (A) (A) (A) (A) (A) (A) (A) (A)
                 (A) (A)
       Virtual   (A) (A) (A) (A) (A) (A) (A) (A) (A) (A) (A) (A)
                 (A) (A) (A) (A) (A) (A) (A) (A) (A) (A) (A) (A)
                 (A) (A) (A) (A) (A) (A) (A) (A) (A) (A) (A) (A)
                 (A) (A) (A) (A) (A) (A) (A) (A) (A) (A) (A) (A)
                 (A) (A) (A) (A) (A) (A) (A) (A) (A) (A) (A) (A)
                 (A) (A) (A) (A) (A) (A) (A) (A) (A) (A) (A) (A)
                 (A) (A) (A) (A) (A) (A) (A) (A) (A) (A) (A) (A)
                 (A) (A) (A) (A) (A) (A) (A) (A) (A) (A) (A) (A)
                 (A) (A) (A) (A) (A) (A) (A) (A) (A) (A) (A) (A)
                 (A) (A) (A) (A) (A) (A) (A) (A) (A) (A) (A) (A)
                 (A) (A) (A) (A) (A) (A) (A) (A) (A) (A) (A) (A)
                 (A) (A) (A) (A) (A) (A) (A) (A) (A) (A) (A) (A)
                 (A) (A) (A) (A) (A) (A) (A) (A) (A) (A) (A) (A)
                 (A) (A) (A) (A) (A) (A) (A) (A) (A) (A) (A) (A)
                 (A) (A) (A) (A) (A) (A) (A) (A) (A) (A) (A) (A)
                 (A) (A) (A) (A) (A) (A) (A) (A) (A) (A) (A) (A)
                 (A) (A) (A) (A) (A) (A) (A) (A) (A) (A) (A) (A)
                 (A) (A) (A) (A) (A) (A) (A) (A) (A) (A) (A) (A)
                 (A) (A) (A) (A) (A) (A) (A) (A) (A) (A) (A) (A)
                 (A) (A) (A) (A) (A) (A) (A) (A) (A) (A) (A) (A)
                 (A) (A) (A) (A) (A) (A) (A) (A) (A) (A) (A) (A)
                 (A) (A) (A) (A) (A) (A) (A)
 The electronic state is 1-A.
 Alpha  occ. eigenvalues --  -19.87498 -15.08654 -10.80180 -10.78912 -10.75583
 Alpha  occ. eigenvalues --  -10.74661 -10.74240 -10.72089 -10.72063 -10.71964
 Alpha  occ. eigenvalues --  -10.71198  -1.48414  -1.23962  -1.13160  -1.09748
 Alpha  occ. eigenvalues --   -1.04507  -1.00939  -0.94409  -0.91465  -0.89822
 Alpha  occ. eigenvalues --   -0.83656  -0.80238  -0.77912  -0.77751  -0.74632
 Alpha  occ. eigenvalues --   -0.70811  -0.68615  -0.67197  -0.66279  -0.64943
 Alpha  occ. eigenvalues --   -0.63510  -0.61533  -0.58463  -0.57887  -0.57540
 Alpha  occ. eigenvalues --   -0.54518  -0.48502  -0.45361
 Alpha virt. eigenvalues --   -0.23295  -0.17134  -0.13769  -0.13126  -0.10910
 Alpha virt. eigenvalues --   -0.10115  -0.08868  -0.08333  -0.07787  -0.07578
 Alpha virt. eigenvalues --   -0.05958  -0.05690  -0.05402  -0.04162  -0.03832
 Alpha virt. eigenvalues --   -0.03234  -0.02559  -0.02145  -0.01537  -0.00476
 Alpha virt. eigenvalues --   -0.00243   0.00045   0.00120   0.01000   0.01472
 Alpha virt. eigenvalues --    0.02053   0.02253   0.02880   0.03312   0.03624
 Alpha virt. eigenvalues --    0.03797   0.04572   0.04791   0.05416   0.05587
 Alpha virt. eigenvalues --    0.06015   0.06577   0.07247   0.07665   0.08365
 Alpha virt. eigenvalues --    0.08837   0.09122   0.09385   0.10207   0.11061
 Alpha virt. eigenvalues --    0.11227   0.11831   0.12403   0.13194   0.13249
 Alpha virt. eigenvalues --    0.13568   0.13785   0.13935   0.14845   0.16570
 Alpha virt. eigenvalues --    0.17000   0.17309   0.17607   0.18290   0.18648
 Alpha virt. eigenvalues --    0.19176   0.19186   0.20565   0.21840   0.22298
 Alpha virt. eigenvalues --    0.23987   0.24466   0.26303   0.26558   0.27411
 Alpha virt. eigenvalues --    0.29000   0.34077   0.35557   0.36455   0.38104
 Alpha virt. eigenvalues --    0.38824   0.41066   0.42983   0.43383   0.43662
 Alpha virt. eigenvalues --    0.44378   0.44902   0.45026   0.46362   0.46555
 Alpha virt. eigenvalues --    0.47819   0.48468   0.48924   0.50008   0.51133
 Alpha virt. eigenvalues --    0.51575   0.54592   0.55532   0.59115   0.59155
 Alpha virt. eigenvalues --    0.60882   0.61494   0.63140   0.64339   0.65766
 Alpha virt. eigenvalues --    0.66363   0.68530   0.69413   0.71002   0.72569
 Alpha virt. eigenvalues --    0.73644   0.73773   0.75668   0.76180   0.77158
 Alpha virt. eigenvalues --    0.78294   0.78689   0.79558   0.81383   0.83188
 Alpha virt. eigenvalues --    0.83494   0.85192   0.85835   0.89658   0.90719
 Alpha virt. eigenvalues --    0.91577   0.92179   0.92980   0.96212   0.96673
 Alpha virt. eigenvalues --    0.97362   0.98070   0.98868   1.02758   1.03950
 Alpha virt. eigenvalues --    1.07610   1.09615   1.14762   1.17947   1.22034
 Alpha virt. eigenvalues --    1.26135   1.30821   1.33065   1.36502   1.37800
 Alpha virt. eigenvalues --    1.38069   1.38505   1.40204   1.42967   1.43681
 Alpha virt. eigenvalues --    1.45229   1.45585   1.46308   1.47569   1.50008
 Alpha virt. eigenvalues --    1.51466   1.53642   1.56450   1.59460   1.60139
 Alpha virt. eigenvalues --    1.60814   1.62606   1.64251   1.65408   1.66176
 Alpha virt. eigenvalues --    1.68621   1.72100   1.75148   1.76333   1.76966
 Alpha virt. eigenvalues --    1.77584   1.80162   1.81294   1.81524   1.84629
 Alpha virt. eigenvalues --    1.84773   1.86621   1.89362   1.90252   1.91440
 Alpha virt. eigenvalues --    1.94833   1.95517   2.01525   2.04221   2.05392
 Alpha virt. eigenvalues --    2.06073   2.10425   2.13436   2.16483   2.23012
 Alpha virt. eigenvalues --    2.29066   2.31171   2.34440   2.35081   2.36033
 Alpha virt. eigenvalues --    2.39116   2.43502   2.45199   2.47169   2.50848
 Alpha virt. eigenvalues --    2.54453   2.55946   2.57532   2.59276   2.59906
 Alpha virt. eigenvalues --    2.60309   2.60346   2.61916   2.62550   2.64609
 Alpha virt. eigenvalues --    2.65871   2.67870   2.68383   2.70871   2.72029
 Alpha virt. eigenvalues --    2.73185   2.75996   2.79019   2.80176   2.81442
 Alpha virt. eigenvalues --    2.87078   2.96171   2.96918   3.06155   3.10366
 Alpha virt. eigenvalues --    3.14329   3.18651   3.20804   3.22819   3.26724
 Alpha virt. eigenvalues --    3.27036   3.34322   3.36384   3.39159   3.42524
 Alpha virt. eigenvalues --    3.52152   3.55092   3.62601   3.70188   3.80058
 Alpha virt. eigenvalues --    3.83810   3.89438   3.91686   3.96766   4.02772
 Alpha virt. eigenvalues --    4.05225   4.33570   4.47312   4.66797   5.01390
 Alpha virt. eigenvalues --    5.04441   5.35852   5.85363  23.51871  23.72707
 Alpha virt. eigenvalues --   23.82065  23.83636  23.88025  23.91797  23.95244
 Alpha virt. eigenvalues --   23.97684  24.04488  35.44187  49.85401
          Condensed to atoms (all electrons):
               1          2          3          4          5          6
     1  O    7.530202   0.158973  -0.063625   0.022438   0.116753   0.383267
     2  N    0.158973   7.579043   0.232630  -0.121765  -0.051655   0.681491
     3  C   -0.063625   0.232630  11.581975  -4.114059   4.760529  -1.437407
     4  C    0.022438  -0.121765  -4.114059  10.365300  -6.052686   2.293374
     5  C    0.116753  -0.051655   4.760529  -6.052686  25.512606 -10.904948
     6  C    0.383267   0.681491  -1.437407   2.293374 -10.904948  27.592423
     7  C   -0.332267  -1.307284  -4.665336   3.530797  -8.530235  -7.346944
     8  C   -0.144044  -0.266129  -0.672395   0.770729  -1.491227  -4.094641
     9  C    0.014386   0.024863   0.188464  -0.137163   1.177239  -0.366079
    10  C   -0.009532   0.057604  -0.172300  -0.150323  -1.175946   0.289242
    11  C   -0.011544   0.040574  -0.021505  -0.161594   1.665516  -3.081506
    12  H    0.001304  -0.070685   0.553897  -0.113170   0.039107  -0.029797
    13  H    0.001442   0.016083  -0.254715   0.447515  -0.062358   0.077271
    14  H    0.000574   0.004067   0.131970  -0.105828   0.555160  -0.131249
    15  H    0.007238  -0.042579  -0.037755   0.034338  -0.090317  -0.080761
    16  H    0.001481  -0.005358   0.001567  -0.000611   0.011206   0.079390
    17  H    0.000039   0.002376  -0.000217  -0.000515  -0.015494   0.035431
    18  H   -0.000914  -0.009280  -0.050131   0.081488  -0.193604  -0.073995
    19  H    0.274739  -0.007643  -0.081771   0.057024  -0.020229  -0.066225
               7          8          9         10         11         12
     1  O   -0.332267  -0.144044   0.014386  -0.009532  -0.011544   0.001304
     2  N   -1.307284  -0.266129   0.024863   0.057604   0.040574  -0.070685
     3  C   -4.665336  -0.672395   0.188464  -0.172300  -0.021505   0.553897
     4  C    3.530797   0.770729  -0.137163  -0.150323  -0.161594  -0.113170
     5  C   -8.530235  -1.491227   1.177239  -1.175946   1.665516   0.039107
     6  C   -7.346944  -4.094641  -0.366079   0.289242  -3.081506  -0.029797
     7  C   30.718434   0.293477  -0.768444   1.275287  -4.537638  -0.025247
     8  C    0.293477   9.997100   0.037668  -0.698027   2.554709  -0.012596
     9  C   -0.768444   0.037668   6.616122  -0.188922  -0.795311   0.007017
    10  C    1.275287  -0.698027  -0.188922   6.970470  -0.162549  -0.001248
    11  C   -4.537638   2.554709  -0.795311  -0.162549  10.114787  -0.026973
    12  H   -0.025247  -0.012596   0.007017  -0.001248  -0.026973   0.397977
    13  H    0.089727   0.000015  -0.003796   0.006408   0.005549  -0.008218
    14  H   -0.151781  -0.040392   0.007421   0.020446   0.040337   0.002870
    15  H    0.021077   0.461180  -0.050452   0.023635   0.058731  -0.001086
    16  H    0.034146  -0.099461   0.404788  -0.031701  -0.063650   0.000046
    17  H    0.005552  -0.012064  -0.027917   0.397198  -0.043349  -0.000001
    18  H    0.115774   0.081029  -0.026566  -0.036473   0.456659  -0.000668
    19  H    0.088324   0.024140  -0.006236  -0.000453   0.000064  -0.009528
              13         14         15         16         17         18
     1  O    0.001442   0.000574   0.007238   0.001481   0.000039  -0.000914
     2  N    0.016083   0.004067  -0.042579  -0.005358   0.002376  -0.009280
     3  C   -0.254715   0.131970  -0.037755   0.001567  -0.000217  -0.050131
     4  C    0.447515  -0.105828   0.034338  -0.000611  -0.000515   0.081488
     5  C   -0.062358   0.555160  -0.090317   0.011206  -0.015494  -0.193604
     6  C    0.077271  -0.131249  -0.080761   0.079390   0.035431  -0.073995
     7  C    0.089727  -0.151781   0.021077   0.034146   0.005552   0.115774
     8  C    0.000015  -0.040392   0.461180  -0.099461  -0.012064   0.081029
     9  C   -0.003796   0.007421  -0.050452   0.404788  -0.027917  -0.026566
    10  C    0.006408   0.020446   0.023635  -0.031701   0.397198  -0.036473
    11  C    0.005549   0.040337   0.058731  -0.063650  -0.043349   0.456659
    12  H   -0.008218   0.002870  -0.001086   0.000046  -0.000001  -0.000668
    13  H    0.400106  -0.008377   0.000589  -0.000049  -0.000091   0.002462
    14  H   -0.008377   0.404293  -0.001031   0.000091   0.001003  -0.006160
    15  H    0.000589  -0.001031   0.427994  -0.007918   0.000619   0.001800
    16  H   -0.000049   0.000091  -0.007918   0.415536  -0.004411  -0.001220
    17  H   -0.000091   0.001003   0.000619  -0.004411   0.414359  -0.006477
    18  H    0.002462  -0.006160   0.001800  -0.001220  -0.006477   0.438784
    19  H    0.001410  -0.000202  -0.002864  -0.000068  -0.000020   0.000095
              19
     1  O    0.274739
     2  N   -0.007643
     3  C   -0.081771
     4  C    0.057024
     5  C   -0.020229
     6  C   -0.066225
     7  C    0.088324
     8  C    0.024140
     9  C   -0.006236
    10  C   -0.000453
    11  C    0.000064
    12  H   -0.009528
    13  H    0.001410
    14  H   -0.000202
    15  H   -0.002864
    16  H   -0.000068
    17  H   -0.000020
    18  H    0.000095
    19  H    0.430613
 Mulliken charges:
               1
     1  O    0.049088
     2  N    0.084675
     3  C    0.120184
     4  C   -0.645288
     5  C    0.750584
     6  C    2.181664
     7  C   -2.507420
     8  C   -0.689072
     9  C   -0.107082
    10  C   -0.412816
    11  C   -0.031307
    12  H    0.297002
    13  H    0.289029
    14  H    0.276789
    15  H    0.277563
    16  H    0.266196
    17  H    0.253980
    18  H    0.227398
    19  H    0.318831
 Sum of Mulliken charges =   1.00000
 Mulliken charges with hydrogens summed into heavy atoms:
               1
     1  O    0.367920
     2  N    0.084675
     3  C    0.417187
     4  C   -0.356259
     5  C    1.027373
     6  C    2.181664
     7  C   -2.507420
     8  C   -0.411509
     9  C    0.159114
    10  C   -0.158835
    11  C    0.196091
 Electronic spatial extent (au):  <R**2>=           1512.2510
 Charge=              1.0000 electrons
 Dipole moment (field-independent basis, Debye):
    X=             -2.5816    Y=              0.7507    Z=              1.3696  Tot=              3.0173
 Quadrupole moment (field-independent basis, Debye-Ang):
   XX=            -27.7054   YY=            -42.1925   ZZ=            -64.7679
   XY=              0.3478   XZ=             -3.4343   YZ=             -3.3713
 Traceless Quadrupole moment (field-independent basis, Debye-Ang):
   XX=             17.1832   YY=              2.6961   ZZ=            -19.8793
   XY=              0.3478   XZ=             -3.4343   YZ=             -3.3713
 Octapole moment (field-independent basis, Debye-Ang**2):
  XXX=            -20.3412  YYY=              4.8878  ZZZ=              1.3267  XYY=             -9.6886
  XXY=            -10.0308  XXZ=              8.2983  XZZ=             -9.8145  YZZ=             -7.8306
  YYZ=              8.2581  XYZ=              8.8358
 Hexadecapole moment (field-independent basis, Debye-Ang**3):
 XXXX=           -865.4197 YYYY=           -564.2693 ZZZZ=            -70.2806 XXXY=             18.0702
 XXXZ=            -18.7281 YYYX=             11.3371 YYYZ=            -18.3590 ZZZX=             -3.9060
 ZZZY=             -3.8194 XXYY=           -229.8407 XXZZ=           -229.3269 YYZZ=           -133.6800
 XXYZ=            -19.8391 YYXZ=            -19.6468 ZZXY=             15.4300
 N-N= 5.713805323435D+02 E-N=-2.239742591855D+03  KE= 4.752842498638D+02
 No NMR shielding tensors so no spin-rotation constants.
 Leave Link  601 at Mon Oct 14 10:44:47 2019, MaxMem= 10737418240 cpu:               2.7 elap:               0.1
 (Enter /apps/cent7/gaussian/g16-A.03/g16-haswell/g16/l701.exe)
 ... and contract with generalized density number  0.
 Compute integral first derivatives.
 Leave Link  701 at Mon Oct 14 10:44:47 2019, MaxMem= 10737418240 cpu:               3.1 elap:               0.2
 (Enter /apps/cent7/gaussian/g16-A.03/g16-haswell/g16/l702.exe)
 L702 exits ... SP integral derivatives will be done elsewhere.
 Leave Link  702 at Mon Oct 14 10:44:47 2019, MaxMem= 10737418240 cpu:               0.4 elap:               0.0
 (Enter /apps/cent7/gaussian/g16-A.03/g16-haswell/g16/l703.exe)
 Integral derivatives from FoFJK, PRISM(SPDF).
 Compute integral first derivatives, UseDBF=F ICtDFT=           0.
 Calling FoFJK, ICntrl=      2127 FMM=F ISym2X=0 I1Cent= 0 IOpClX= 0 NMat=1 NMatS=1 NMatT=0.
 FoFJK:  IHMeth= 1 ICntrl=    2127 DoSepK=F KAlg= 0 I1Cent=           0 FoldK=F
 IRaf=         0 NMat=       1 IRICut=       1 DoRegI=T DoRafI=F ISym2E= 0 IDoP0=0 IntGTp=1.
 FoFCou: FMM=F IPFlag=           0 FMFlag=      100000 FMFlg1=         800
         NFxFlg=           0 DoJE=F BraDBF=F KetDBF=F FulRan=T
         wScrn=  0.000000 ICntrl=      2127 IOpCl=  0 I1Cent=           0 NGrid=           0
         NMat0=    1 NMatS0=      1 NMatT0=    0 NMatD0=    1 NMtDS0=    0 NMtDT0=    0
 Symmetry not used in FoFCou.
 Leave Link  703 at Mon Oct 14 10:44:50 2019, MaxMem= 10737418240 cpu:              73.2 elap:               3.1
 (Enter /apps/cent7/gaussian/g16-A.03/g16-haswell/g16/l716.exe)
 Dipole        =-1.01568482D+00 2.95333842D-01 5.38830857D-01
 ***** Axes restored to original set *****
 -------------------------------------------------------------------
 Center     Atomic                   Forces (Hartrees/Bohr)
 Number     Number              X              Y              Z
 -------------------------------------------------------------------
      1        8           0.047954027    0.014806647   -0.012052604
      2        7          -0.066555061   -0.040550176    0.008074704
      3        6          -0.012853279    0.013640037   -0.002373676
      4        6          -0.002084762    0.016125860    0.000350783
      5        6           0.011466620   -0.016773874   -0.000108023
      6        6          -0.005890642   -0.012016021   -0.001147218
      7        6           0.005762500    0.029870840   -0.000578240
      8        6           0.003263727    0.013799938    0.000430658
      9        6           0.009584460   -0.024643577    0.000115561
     10        6          -0.019779131   -0.020120982   -0.000027055
     11        6           0.015018822    0.030246732    0.000109951
     12        1           0.002180327    0.007463265   -0.000912235
     13        1           0.005992507    0.003961757    0.000054991
     14        1           0.004074224    0.001112299    0.000034712
     15        1          -0.005310286   -0.002047889   -0.000359942
     16        1          -0.001189870   -0.005485813   -0.000029425
     17        1           0.001677652   -0.004956345   -0.000033035
     18        1           0.004898623   -0.002599298   -0.000091384
     19        1           0.001789544   -0.001833400    0.008541476
 -------------------------------------------------------------------
 Cartesian Forces:  Max     0.066555061 RMS     0.015735228
 Leave Link  716 at Mon Oct 14 10:44:50 2019, MaxMem= 10737418240 cpu:               0.6 elap:               0.0
 (Enter /apps/cent7/gaussian/g16-A.03/g16-haswell/g16/l103.exe)

 GradGradGradGradGradGradGradGradGradGradGradGradGradGradGradGradGradGrad
 Berny optimization.
 FormGI is forming the generalized inverse of G from B-inverse, IUseBI=4.
 Internal  Forces:  Max     0.048978569 RMS     0.008578640
 Search for a local minimum.
 Step number   1 out of a maximum of  107
 All quantities printed in internal units (Hartrees-Bohrs-Radians)
 RMS Force = .85786D-02 SwitMx=.10000D-02 MixMth= 1
 Mixed Optimization -- RFO/linear search
 Second derivative matrix not updated -- first step.
 ITU=  0
     Eigenvalues ---    0.01852   0.01885   0.01909   0.01952   0.01955
     Eigenvalues ---    0.01956   0.01985   0.02012   0.02014   0.02021
     Eigenvalues ---    0.02028   0.02038   0.02107   0.02138   0.02187
     Eigenvalues ---    0.02485   0.16000   0.16000   0.16000   0.16000
     Eigenvalues ---    0.16000   0.16000   0.16000   0.16000   0.22000
     Eigenvalues ---    0.22085   0.22574   0.23536   0.24500   0.24931
     Eigenvalues ---    0.25000   0.34807   0.34810   0.34810   0.34811
     Eigenvalues ---    0.34812   0.34813   0.34824   0.37157   0.40077
     Eigenvalues ---    0.41744   0.42349   0.43424   0.43902   0.44179
     Eigenvalues ---    0.44667   0.44783   0.49420   0.51600   0.55473
     Eigenvalues ---    0.64475
 RFO step:  Lambda=-1.69149236D-02 EMin= 1.85232673D-02
 Linear search not attempted -- first point.
 Iteration  1 RMS(Cart)=  0.04362880 RMS(Int)=  0.00105770
 Iteration  2 RMS(Cart)=  0.00165242 RMS(Int)=  0.00040848
 Iteration  3 RMS(Cart)=  0.00000247 RMS(Int)=  0.00040848
 Iteration  4 RMS(Cart)=  0.00000000 RMS(Int)=  0.00040848
 ITry= 1 IFail=0 DXMaxC= 2.52D-01 DCOld= 1.00D+10 DXMaxT= 3.00D-01 DXLimC= 3.00D+00 Rises=F
 Variable       Old X    -DE/DX   Delta X   Delta X   Delta X     New X
                                 (Linear)    (Quad)   (Total)
    R1        2.47566   0.04898   0.00000   0.07402   0.07402   2.54968
    R2        1.81414   0.00842   0.00000   0.01473   0.01473   1.82887
    R3        2.57217  -0.02272   0.00000  -0.04291  -0.04285   2.52932
    R4        2.59107  -0.00290   0.00000  -0.00489  -0.00482   2.58625
    R5        2.65364  -0.01464   0.00000  -0.03354  -0.03356   2.62009
    R6        2.05982  -0.00516   0.00000  -0.01414  -0.01414   2.04567
    R7        2.65198  -0.02030   0.00000  -0.04419  -0.04426   2.60771
    R8        2.05984  -0.00641   0.00000  -0.01755  -0.01755   2.04229
    R9        2.66806  -0.00381   0.00000  -0.00700  -0.00705   2.66102
   R10        2.05984  -0.00408   0.00000  -0.01118  -0.01118   2.04867
   R11        2.69745  -0.00579   0.00000  -0.00975  -0.00975   2.68770
   R12        2.67101  -0.00286   0.00000  -0.00565  -0.00568   2.66533
   R13        2.67475  -0.01326   0.00000  -0.02893  -0.02891   2.64584
   R14        2.65405  -0.02615   0.00000  -0.05680  -0.05677   2.59728
   R15        2.05980  -0.00531   0.00000  -0.01454  -0.01454   2.04526
   R16        2.65443   0.00484   0.00000   0.00909   0.00911   2.66354
   R17        2.05989  -0.00532   0.00000  -0.01457  -0.01457   2.04532
   R18        2.65822  -0.03021   0.00000  -0.06600  -0.06602   2.59220
   R19        2.05983  -0.00515   0.00000  -0.01411  -0.01411   2.04573
   R20        2.05962  -0.00496   0.00000  -0.01358  -0.01358   2.04603
    A1        1.91063  -0.00178   0.00000  -0.01005  -0.01005   1.90058
    A2        2.03663   0.01711   0.00000   0.06430   0.06372   2.10035
    A3        2.11858  -0.02206   0.00000  -0.08247  -0.08284   2.03574
    A4        2.12798   0.00495   0.00000   0.01817   0.01793   2.14591
    A5        2.10446   0.00242   0.00000   0.00411   0.00420   2.10866
    A6        2.06191  -0.00719   0.00000  -0.03588  -0.03593   2.02598
    A7        2.11681   0.00477   0.00000   0.03177   0.03171   2.14853
    A8        2.07980   0.00082   0.00000  -0.00158  -0.00165   2.07815
    A9        2.10225  -0.00375   0.00000  -0.01812  -0.01810   2.08415
   A10        2.10114   0.00293   0.00000   0.01969   0.01971   2.12084
   A11        2.09670   0.00046   0.00000   0.00390   0.00380   2.10050
   A12        2.08790   0.00089   0.00000   0.00439   0.00443   2.09234
   A13        2.09858  -0.00135   0.00000  -0.00829  -0.00825   2.09032
   A14        2.07072   0.00006   0.00000   0.00474   0.00474   2.07546
   A15        2.11728   0.00730   0.00000   0.02143   0.02146   2.13873
   A16        2.09519  -0.00736   0.00000  -0.02617  -0.02620   2.06899
   A17        2.08671  -0.00872   0.00000  -0.02935  -0.02924   2.05747
   A18        2.12467  -0.00183   0.00000  -0.01214  -0.01221   2.11246
   A19        2.07181   0.01055   0.00000   0.04149   0.04145   2.11325
   A20        2.10982  -0.00996   0.00000  -0.04062  -0.04056   2.06925
   A21        2.09352   0.00287   0.00000   0.00838   0.00835   2.10187
   A22        2.07985   0.00709   0.00000   0.03224   0.03221   2.11205
   A23        2.09536   0.00595   0.00000   0.02266   0.02271   2.11807
   A24        2.09380  -0.00483   0.00000  -0.02179  -0.02181   2.07199
   A25        2.09403  -0.00113   0.00000  -0.00087  -0.00090   2.09313
   A26        2.09737   0.00161   0.00000   0.00441   0.00441   2.10178
   A27        2.09170   0.00015   0.00000   0.00320   0.00320   2.09490
   A28        2.09411  -0.00176   0.00000  -0.00761  -0.00761   2.08650
   A29        2.09683  -0.00079   0.00000  -0.00177  -0.00181   2.09501
   A30        2.09733  -0.00216   0.00000  -0.01355  -0.01353   2.08380
   A31        2.08902   0.00295   0.00000   0.01532   0.01534   2.10436
    D1       -1.04720  -0.00337   0.00000  -0.08244  -0.08207  -1.12927
    D2        2.09440  -0.00136   0.00000  -0.03080  -0.03116   2.06323
    D3        3.14159   0.00108   0.00000   0.02782   0.02976  -3.11184
    D4       -0.00000   0.00084   0.00000   0.02147   0.02325   0.02325
    D5        0.00000  -0.00093   0.00000  -0.02413  -0.02447  -0.02447
    D6        3.14159  -0.00117   0.00000  -0.03047  -0.03098   3.11061
    D7        3.14159  -0.00149   0.00000  -0.03875  -0.03687   3.10472
    D8        0.00000  -0.00133   0.00000  -0.03426  -0.03263  -0.03263
    D9       -0.00000   0.00062   0.00000   0.01561   0.01548   0.01548
   D10        3.14159   0.00077   0.00000   0.02010   0.01972  -3.12187
   D11        0.00000   0.00059   0.00000   0.01532   0.01558   0.01558
   D12        3.14159   0.00022   0.00000   0.00560   0.00564  -3.13595
   D13        3.14159   0.00083   0.00000   0.02186   0.02256  -3.11904
   D14        0.00000   0.00046   0.00000   0.01214   0.01262   0.01262
   D15       -0.00000   0.00005   0.00000   0.00130   0.00112   0.00112
   D16        3.14159  -0.00022   0.00000  -0.00565  -0.00583   3.13577
   D17        3.14159   0.00042   0.00000   0.01102   0.01127  -3.13032
   D18        0.00000   0.00015   0.00000   0.00407   0.00432   0.00432
   D19       -0.00000  -0.00035   0.00000  -0.00932  -0.00936  -0.00936
   D20        3.14159  -0.00031   0.00000  -0.00798  -0.00776   3.13383
   D21        3.14159  -0.00008   0.00000  -0.00233  -0.00242   3.13917
   D22       -0.00000  -0.00004   0.00000  -0.00099  -0.00082  -0.00082
   D23        0.00000   0.00003   0.00000   0.00123   0.00150   0.00150
   D24        3.14159  -0.00012   0.00000  -0.00312  -0.00274   3.13886
   D25        3.14159  -0.00001   0.00000  -0.00009  -0.00003   3.14156
   D26       -0.00000  -0.00016   0.00000  -0.00445  -0.00427  -0.00427
   D27        3.14159   0.00005   0.00000   0.00114   0.00077  -3.14082
   D28       -0.00000  -0.00004   0.00000  -0.00130  -0.00155  -0.00155
   D29        0.00000   0.00009   0.00000   0.00251   0.00236   0.00236
   D30        3.14159   0.00000   0.00000   0.00006   0.00005  -3.14154
   D31        3.14159  -0.00002   0.00000  -0.00062  -0.00072   3.14087
   D32        0.00000   0.00011   0.00000   0.00288   0.00287   0.00287
   D33       -0.00000   0.00014   0.00000   0.00384   0.00366   0.00366
   D34        3.14159   0.00027   0.00000   0.00734   0.00725  -3.13434
   D35        0.00000  -0.00004   0.00000  -0.00125  -0.00115  -0.00115
   D36        3.14159   0.00003   0.00000   0.00069   0.00078  -3.14081
   D37        3.14159  -0.00017   0.00000  -0.00472  -0.00477   3.13683
   D38       -0.00000  -0.00010   0.00000  -0.00278  -0.00283  -0.00283
   D39       -0.00000  -0.00003   0.00000  -0.00079  -0.00070  -0.00070
   D40        3.14159   0.00004   0.00000   0.00117   0.00115  -3.14044
   D41        3.14159  -0.00010   0.00000  -0.00273  -0.00266   3.13893
   D42        0.00000  -0.00003   0.00000  -0.00077  -0.00080  -0.00080
   D43       -0.00000   0.00001   0.00000   0.00014   0.00006   0.00006
   D44        3.14159   0.00010   0.00000   0.00258   0.00240  -3.13919
   D45        3.14159  -0.00007   0.00000  -0.00181  -0.00179   3.13980
   D46        0.00000   0.00002   0.00000   0.00062   0.00055   0.00055
         Item               Value     Threshold  Converged?
 Maximum Force            0.048979     0.000450     NO 
 RMS     Force            0.008579     0.000300     NO 
 Maximum Displacement     0.252345     0.001800     NO 
 RMS     Displacement     0.044336     0.001200     NO 
 Predicted change in Energy=-8.952454D-03
 Lowest energy point so far.  Saving SCF results.
 GradGradGradGradGradGradGradGradGradGradGradGradGradGradGradGradGradGrad

 Leave Link  103 at Mon Oct 14 10:44:50 2019, MaxMem= 10737418240 cpu:               2.3 elap:               0.1
 (Enter /apps/cent7/gaussian/g16-A.03/g16-haswell/g16/l202.exe)
                          Input orientation:                          
 ---------------------------------------------------------------------
 Center     Atomic      Atomic             Coordinates (Angstroms)
 Number     Number       Type             X           Y           Z
 ---------------------------------------------------------------------
      1          8           0        1.298848   -0.003479   -0.018676
      2          7           0       -0.049820   -0.016200    0.018203
      3          6           0       -0.715804   -1.177045   -0.001201
      4          6           0       -2.102089   -1.200738    0.000901
      5          6           0       -2.793060   -0.006256    0.004583
      6          6           0       -2.097477    1.218100    0.004813
      7          6           0       -0.675334    1.201064    0.012854
      8          6           0        0.061804    2.391423    0.010138
      9          6           0       -0.618585    3.585602    0.003899
     10          6           0       -2.027450    3.627010   -0.001135
     11          6           0       -2.756528    2.465074   -0.000731
     12          1           0       -0.109241   -2.073368   -0.024554
     13          1           0       -2.616696   -2.151029   -0.009728
     14          1           0       -3.877157   -0.009380    0.000783
     15          1           0        1.143811    2.366117    0.009562
     16          1           0       -0.051268    4.507337    0.001047
     17          1           0       -2.541418    4.579753   -0.007094
     18          1           0       -3.838837    2.494079   -0.006828
     19          1           0        1.638335   -0.418520    0.787003
 ---------------------------------------------------------------------
                    Distance matrix (angstroms):
                    1          2          3          4          5
     1  O    0.000000
     2  N    1.349232   0.000000
     3  C    2.331606   1.338459   0.000000
     4  C    3.605578   2.369650   1.386490   0.000000
     5  C    4.091976   2.743292   2.384487   1.379943   0.000000
     6  C    3.609409   2.390936   2.765100   2.418846   1.408149
     7  C    2.312859   1.368586   2.378495   2.793640   2.437714
     8  C    2.695676   2.410223   3.652228   4.193584   3.728155
     9  C    4.069222   3.646461   4.763642   5.010973   4.198784
    10  C    4.923923   4.145403   4.979896   4.828325   3.713059
    11  C    4.747648   3.671968   4.174876   3.723771   2.471605
    12  H    2.503436   2.058471   1.082524   2.175678   3.387726
    13  H    4.465819   3.338732   2.135910   1.080734   2.152060
    14  H    5.176045   3.827383   3.370104   2.137803   1.084108
    15  H    2.374830   2.664631   4.001535   4.822696   4.596426
    16  H    4.708573   4.523569   5.723094   6.065310   5.281094
    17  H    5.979448   5.227952   6.039340   5.797168   4.592923
    18  H    5.712596   4.545193   4.819806   4.082650   2.710250
    19  H    0.967796   1.898100   2.595880   3.901358   4.518784
                    6          7          8          9         10
     6  C    0.000000
     7  C    1.422267   0.000000
     8  C    2.457480   1.400120   0.000000
     9  C    2.791450   2.385231   1.374420   0.000000
    10  C    2.409935   2.777342   2.427299   1.409483   0.000000
    11  C    1.410434   2.435010   2.819315   2.413795   1.371732
    12  H    3.845479   3.323216   4.468201   5.681918   6.014514
    13  H    3.408934   3.873748   5.273389   6.074667   5.808014
    14  H    2.161940   3.423008   4.612955   4.852030   4.079797
    15  H    3.438592   2.160243   1.082304   2.143179   3.412750
    16  H    3.873766   3.364675   2.118952   1.082336   2.163395
    17  H    3.390861   3.859820   3.400860   2.164658   1.082552
    18  H    2.158841   3.417606   3.902029   3.400230   2.136513
    19  H    4.152907   2.928383   3.314325   4.662610   5.515927
                   11         12         13         14         15
    11  C    0.000000
    12  H    5.254156   0.000000
    13  H    4.618230   2.508701   0.000000
    14  H    2.716382   4.296263   2.485062   0.000000
    15  H    3.901608   4.613061   5.877618   5.554564   0.000000
    16  H    3.389583   6.581010   7.135501   5.919303   2.452164
    17  H    2.125602   7.083771   6.731204   4.779582   4.298997
    18  H    1.082715   5.896760   4.803194   2.503764   4.984318
    19  H    5.315116   2.539916   4.662795   5.586250   2.933116
                   16         17         18         19
    16  H    0.000000
    17  H    2.491216   0.000000
    18  H    4.289400   2.456285   0.000000
    19  H    5.266550   6.563814   6.254024   0.000000
 Stoichiometry    C9H8NO(1+)
 Framework group  C1[X(C9H8NO)]
 Deg. of freedom    51
 Full point group                 C1      NOp   1
 RotChk:  IX=0 Diff= 1.89D-02
 Largest Abelian subgroup         C1      NOp   1
 Largest concise Abelian subgroup C1      NOp   1
                         Standard orientation:                         
 ---------------------------------------------------------------------
 Center     Atomic      Atomic             Coordinates (Angstroms)
 Number     Number       Type             X           Y           Z
 ---------------------------------------------------------------------
      1          8           0       -1.608934   -2.040906   -0.064242
      2          7           0       -1.294169   -0.730023   -0.010045
      3          6           0       -2.258542    0.198018   -0.024080
      4          6           0       -1.945090    1.548465   -0.004203
      5          6           0       -0.618664    1.928712    0.011667
      6          6           0        0.400246    0.956768    0.006323
      7          6           0        0.038522   -0.418693   -0.003986
      8          6           0        1.014385   -1.422659   -0.012904
      9          6           0        2.338004   -1.052487   -0.007092
     10          6           0        2.720131    0.304144    0.006120
     11          6           0        1.769899    1.293419    0.012701
     12          1           0       -3.275127   -0.172497   -0.057710
     13          1           0       -2.741996    2.278453   -0.010830
     14          1           0       -0.358565    2.981107    0.021810
     15          1           0        0.727237   -2.466074   -0.027474
     16          1           0        3.094494   -1.826512   -0.014701
     17          1           0        3.769147    0.571491    0.009405
     18          1           0        2.060746    2.336308    0.020613
     19          1           0       -2.098625   -2.278981    0.735853
 ---------------------------------------------------------------------
 Rotational constants (GHZ):           1.9804987           1.1625673           0.7338674
 Leave Link  202 at Mon Oct 14 10:44:50 2019, MaxMem= 10737418240 cpu:               0.2 elap:               0.0
 (Enter /apps/cent7/gaussian/g16-A.03/g16-haswell/g16/l301.exe)
 Standard basis: 6-311++G(d,p) (5D, 7F)
 Ernie: Thresh=  0.10000D-02 Tol=  0.10000D-05 Strict=F.
 There are   309 symmetry adapted cartesian basis functions of A   symmetry.
 There are   298 symmetry adapted basis functions of A   symmetry.
   298 basis functions,   468 primitive gaussians,   309 cartesian basis functions
    38 alpha electrons       38 beta electrons
       nuclear repulsion energy       575.6535581057 Hartrees.
 IExCor= 4336 DFT=T Ex+Corr=M062X ExCW=0 ScaHFX=  0.540000
 ScaDFX=  1.000000  1.000000  1.000000  1.000000 ScalE2=  1.000000  1.000000
 IRadAn=      5 IRanWt=     -1 IRanGd=            0 ICorTp=0 IEmpDi=  4
 NAtoms=   19 NActive=   19 NUniq=   19 SFac= 1.00D+00 NAtFMM=   60 NAOKFM=F Big=F
 Integral buffers will be    131072 words long.
 Raffenetti 2 integral format.
 Two-electron integral symmetry is turned on.
 Leave Link  301 at Mon Oct 14 10:44:50 2019, MaxMem= 10737418240 cpu:               1.2 elap:               0.1
 (Enter /apps/cent7/gaussian/g16-A.03/g16-haswell/g16/l302.exe)
 NPDir=0 NMtPBC=     1 NCelOv=     1 NCel=       1 NClECP=     1 NCelD=      1
         NCelK=      1 NCelE2=     1 NClLst=     1 CellRange=     0.0.
 One-electron integrals computed using PRISM.
 One-electron integral symmetry used in STVInt
 NBasis=   298 RedAO= T EigKep=  1.49D-06  NBF=   298
 NBsUse=   297 1.00D-06 EigRej=  3.92D-07 NBFU=   297
 Precomputing XC quadrature grid using
 IXCGrd= 4 IRadAn=           5 IRanWt=          -1 IRanGd=           0 AccXCQ= 0.00D+00.
 Generated NRdTot=       0 NPtTot=           0 NUsed=           0 NTot=          32
 NSgBfM=   309   309   309   309   309 MxSgAt=    19 MxSgA2=    19.
 Leave Link  302 at Mon Oct 14 10:44:51 2019, MaxMem= 10737418240 cpu:               4.4 elap:               0.2
 (Enter /apps/cent7/gaussian/g16-A.03/g16-haswell/g16/l303.exe)
 DipDrv:  MaxL=1.
 Leave Link  303 at Mon Oct 14 10:44:51 2019, MaxMem= 10737418240 cpu:               0.8 elap:               0.1
 (Enter /apps/cent7/gaussian/g16-A.03/g16-haswell/g16/l401.exe)
 Initial guess from the checkpoint file:  "4_p.chk"
 B after Tr=    -0.000000   -0.000000    0.000000
         Rot=    0.999979   -0.000397   -0.000203   -0.006443 Ang=  -0.74 deg.
 Guess basis will be translated and rotated to current coordinates.
 JPrj=2 DoOrth=T DoCkMO=T.
 Generating alternative initial guess.
 ExpMin= 3.60D-02 ExpMax= 8.59D+03 ExpMxC= 1.30D+03 IAcc=3 IRadAn=         5 AccDes= 0.00D+00
 Harris functional with IExCor= 1009 and IRadAn=       5 diagonalized for initial guess.
 HarFok:  IExCor= 1009 AccDes= 0.00D+00 IRadAn=         5 IDoV= 1 UseB2=F ITyADJ=14
 ICtDFT=  3500011 ScaDFX=  1.000000  1.000000  1.000000  1.000000
 FoFCou: FMM=F IPFlag=           0 FMFlag=      100000 FMFlg1=           0
         NFxFlg=           0 DoJE=T BraDBF=F KetDBF=T FulRan=T
         wScrn=  0.000000 ICntrl=       500 IOpCl=  0 I1Cent=   200000004 NGrid=           0
         NMat0=    1 NMatS0=      1 NMatT0=    0 NMatD0=    1 NMtDS0=    0 NMtDT0=    0
 Petite list used in FoFCou.
 Harris En= -477.181551783629    
 Leave Link  401 at Mon Oct 14 10:44:51 2019, MaxMem= 10737418240 cpu:              13.5 elap:               0.6
 (Enter /apps/cent7/gaussian/g16-A.03/g16-haswell/g16/l502.exe)
 Integral symmetry usage will be decided dynamically.
 Closed shell SCF:
 Using DIIS extrapolation, IDIIS=  1040.
 NGot= 10737418240 LenX= 10737216881 LenY= 10737120959
 Requested convergence on RMS density matrix=1.00D-08 within 128 cycles.
 Requested convergence on MAX density matrix=1.00D-06.
 Requested convergence on             energy=1.00D-06.
 No special actions if energy rises.
 Fock matrices will be formed incrementally for  20 cycles.

 Cycle   1  Pass 1  IDiag  1:
 FoFJK:  IHMeth= 1 ICntrl=       0 DoSepK=F KAlg= 0 I1Cent=           0 FoldK=F
 IRaf= 940000000 NMat=       1 IRICut=       1 DoRegI=T DoRafI=F ISym2E= 0 IDoP0=0 IntGTp=1.
 FoFCou: FMM=F IPFlag=           0 FMFlag=      100000 FMFlg1=           0
         NFxFlg=           0 DoJE=F BraDBF=F KetDBF=F FulRan=T
         wScrn=  0.000000 ICntrl=         0 IOpCl=  0 I1Cent=           0 NGrid=           0
         NMat0=    1 NMatS0=      1 NMatT0=    0 NMatD0=    1 NMtDS0=    0 NMtDT0=    0
 Symmetry not used in FoFCou.
 E= -477.374689055490    
[...]
 0010100,-0.02916139,0.03286614,0.00048530,-0.19457619,0.13923994,0.002
 23415,0.75819466,-0.00154719,-0.00206720,-0.00009136,-0.00889980,-0.07
 586284,-0.00238015,0.08475744,0.04496804,0.00201162,0.07014688,-0.3275
 9715,-0.00663667,-0.04031645,0.68913489,0.00011159,-0.00026342,-0.0012
 3158,-0.00007310,-0.00120624,-0.00155821,0.00106043,0.00118074,0.00157
 100,0.00123496,-0.00596846,-0.05815413,0.00170435,0.01046182,0.1454714
 4,0.00381226,0.00001763,0.00008754,-0.02288388,0.05855321,0.00023588,-
 0.02866541,-0.02376455,-0.00081008,0.04543541,-0.00244168,0.00055772,-
 0.18401812,-0.07988753,-0.00239904,0.66643266,0.00418405,-0.00529439,0
 .00101230,0.03595393,0.04237747,0.00011034,-0.03790180,-0.02540741,-0.
 00080678,0.03214972,-0.06092030,-0.00082388,-0.10974405,-0.23766285,-0
 .00318131,0.00487254,0.71236680,-0.00010874,0.00102734,0.00586106,-0.0
 0159036,0.00170962,-0.00296082,-0.00047766,-0.00066391,-0.00315785,0.0
 0078884,-0.00116893,0.00525410,-0.00247179,-0.00255667,-0.05928625,0.0
 0139250,0.00473826,0.14169675,-0.03866893,0.03504231,-0.00237327,-0.16
 288655,0.02797506,-0.00089179,0.05177967,0.01440859,0.00058064,-0.0321
 3996,0.01660954,0.00033331,-0.01935331,-0.04952218,-0.00073558,-0.2783
 1056,-0.00248535,0.00041879,0.69476293,0.00502369,0.00442841,-0.002205
 89,0.06999914,-0.23647169,0.00073013,-0.03271062,-0.07793758,0.0002465
 9,0.04275577,-0.01267901,0.00013327,-0.03166201,0.03963453,0.00072661,
 -0.00164541,-0.14251457,-0.00171767,0.03928782,0.69482405,0.00147346,-
 0.00201385,0.00165241,-0.00034373,0.00494269,-0.05486606,-0.00118685,-
 0.00215629,0.00367868,0.00076382,-0.00074637,-0.00255973,-0.00023659,0
 .00037794,-0.00133625,0.00070530,0.00010363,-0.05877239,-0.00083480,-0
 .00197259,0.14211240,0.00216718,-0.00109109,0.00030308,0.02166747,0.01
 394243,0.00057504,-0.00218908,0.00678652,0.00000604,-0.00225469,0.0005
 4043,-0.00021199,-0.00686031,0.00015925,0.00005936,-0.02035007,-0.0221
 1204,-0.00015361,-0.19887093,-0.12106945,0.00099315,0.77191672,-0.0055
 9141,-0.00343487,-0.00067841,-0.00034588,-0.08056599,0.00119931,0.0142
 1930,0.01591274,0.00005141,-0.01212696,-0.00089008,-0.00019835,0.00182
 478,-0.00481315,-0.00022065,-0.04784956,0.03333521,0.00117519,-0.07502
 894,-0.20912769,0.00005669,-0.04571906,0.68253248,0.00025194,0.0002482
 8,-0.00200647,-0.00036054,0.00004066,0.00115993,-0.00005000,-0.0001626
 9,0.00457315,-0.00001328,-0.00005848,-0.00180236,0.00002803,-0.0001095
 1,0.00579215,-0.00010784,0.00075140,0.00427034,0.00275774,0.00193382,-
 0.05590481,-0.01425078,-0.00162146,0.12524531,-0.00056357,0.00233375,-
 0.00030101,0.00037302,-0.03356047,0.00048539,0.01101786,0.01249047,0.0
 0003175,-0.01210736,0.00218223,-0.00006668,-0.00224994,-0.01036214,-0.
 00041637,-0.02940403,0.03251208,0.00072066,0.05175925,0.03985374,-0.00
 028213,-0.19791890,0.07595386,0.00153229,0.66824973,0.00086746,0.00105
 954,0.00049034,-0.00886798,0.01849855,-0.00011018,-0.00860439,-0.01052
 444,-0.00012743,0.00987976,-0.00267183,0.00020153,0.00176320,0.0081145
 7,0.00018603,0.01763346,-0.02158584,-0.00019948,-0.01251265,-0.0721164
 4,0.00028182,0.14789735,-0.33127008,-0.00034941,0.01394288,0.76994808,
 0.00029035,0.00023243,0.00059515,0.00022541,0.00037346,0.00649184,-0.0
 0022984,0.00001544,0.00003641,0.00010122,-0.00006635,0.00081970,0.0000
 8829,0.00021507,-0.00150856,0.00002757,-0.00029076,-0.00359541,-0.0002
 8321,0.00019417,-0.00018751,0.00071397,0.00045203,-0.05946589,-0.00820
 380,-0.00469227,0.14448889,0.00094684,0.00049661,0.00032817,-0.0030683
 2,0.02848861,0.00030883,-0.01862893,-0.01583239,-0.00037986,0.02118166
 ,-0.00834897,0.00011376,0.00073773,0.02775865,0.00061512,0.04117795,-0
 .03970825,-0.00067434,-0.03465480,-0.04253953,0.00015896,-0.02028920,0
 .07664299,0.00015461,-0.29966918,-0.02826092,0.00372471,0.66361709,0.0
 0028942,-0.00028492,0.00016211,-0.00169074,0.01109933,-0.00016193,-0.0
 0641197,-0.00605004,0.00001532,0.00736645,-0.00377472,-0.00006650,0.00
 620388,0.00779561,0.00037569,0.00272974,-0.05989274,-0.00063179,-0.020
 46744,-0.02222493,0.00021714,0.03263634,0.03499477,-0.00079787,0.04427
 390,-0.13326762,0.00021839,-0.00670661,0.78681653,0.00000522,-0.000096
 50,-0.00080320,-0.00000296,-0.00031077,-0.00106592,0.00022256,0.000150
 12,0.00073694,-0.00022858,0.00008411,-0.00098855,-0.00011065,-0.000414
 83,0.00722891,-0.00008410,0.00021891,0.00288351,0.00011440,0.00038379,
 -0.00387799,-0.00007045,-0.00083342,0.00509132,0.00289781,0.00080781,-
 0.06410297,-0.00462737,0.00067552,0.13835244,-0.00137264,0.00236149,-0
 .00025660,-0.00586207,-0.00190083,0.00022644,-0.00287786,-0.00185988,0
 .00000417,-0.00007113,-0.00632684,-0.00019644,0.01579169,-0.01210085,0
 .00010826,-0.16993474,0.10376534,0.00064673,-0.01847342,0.03152955,-0.
 00002468,-0.00027798,-0.00299258,-0.00020186,-0.03244255,-0.02785429,0
 .00033723,-0.21109069,-0.15589390,0.00035616,0.76665169,-0.00168295,0.
 00041056,-0.00041345,-0.00121534,-0.02603330,-0.00044688,0.02268637,0.
 01499993,0.00046958,-0.02908676,0.01267472,-0.00017185,0.00774129,-0.0
 6836488,-0.00106464,0.07148698,-0.23114113,-0.00007275,0.05210313,0.04
 069236,-0.00032453,-0.00453841,-0.06413844,-0.00001187,-0.07309941,0.0
 4134043,0.00029676,-0.08903222,-0.33195147,-0.00010163,0.05119295,0.68
 598165,-0.00000542,-0.00000233,0.00006457,0.00009563,-0.00044395,0.006
 72121,0.00016975,0.00023415,-0.00106744,-0.00019457,0.00002623,0.00669
 399,0.00005858,-0.00073616,0.00199902,0.00099865,-0.00083590,-0.061229
 78,-0.00040806,0.00023946,0.00125733,0.00011186,-0.00019483,-0.0007672
 1,0.00022110,0.00008614,0.00382873,0.00008176,0.00014375,-0.06071755,-
 0.00209189,0.00151886,0.13625163,0.00133928,-0.00071070,-0.00023513,0.
 01129424,-0.02016968,-0.00021960,-0.15945090,0.14761243,0.00305294,-0.
 00536791,0.02186243,0.00038955,-0.00538709,-0.00026041,-0.00001952,-0.
 00066049,-0.00107912,-0.00007805,-0.00233007,-0.00310754,-0.00011832,0
 .00094695,-0.00040840,0.00005044,0.00010224,-0.00041262,-0.00000761,-0
 .00041485,-0.00016347,0.00002318,-0.00000800,0.00051668,0.00000984,0.1
 5940660,0.00279213,0.00251307,-0.00009942,0.01577265,-0.02919270,-0.00
 062073,0.13469660,-0.25392559,-0.00552603,-0.00310165,0.00900101,0.000
 01528,-0.00198840,0.00004778,-0.00027817,0.00031294,0.00055052,0.00004
 304,-0.00475752,0.00029843,-0.00047556,0.00088382,-0.00099169,-0.00004
 229,-0.00082853,-0.00001804,0.00004294,0.00028120,0.00025960,-0.000003
 58,0.00017581,-0.00014699,0.00002994,-0.14388643,0.27146100,0.00014225
 ,0.00072249,-0.00539879,0.00164288,-0.00128353,0.00494658,0.00273575,-
 0.00570631,-0.04108706,-0.00013705,0.00042408,0.00652442,-0.00027656,-
 0.00006738,0.00672846,-0.00004615,-0.00004322,-0.00118200,-0.00044865,
 0.00007357,0.00608038,0.00012019,-0.00000332,0.00156841,-0.00005246,-0
 .00005194,-0.00053045,-0.00003623,0.00000976,0.00024435,0.00000415,0.0
 0005305,-0.00070650,-0.00270329,0.00673555,0.02701679,-0.00126322,-0.0
 0118217,-0.00040787,-0.00480245,0.00197374,0.00005898,-0.01037429,-0.0
 2861967,-0.00092623,-0.12743409,-0.12540608,-0.00398999,0.01360438,0.0
 1611322,0.00048000,-0.00187081,0.00346603,-0.00002015,-0.00056621,0.00
 078305,-0.00000572,0.00009483,-0.00001532,0.00001779,-0.00005286,0.000
 02387,0.00000516,-0.00000984,0.00028823,0.00000210,0.00084503,0.000274
 95,-0.00000436,0.00067077,0.00020389,0.00005808,0.13070185,0.00062407,
 0.00033689,0.00009843,0.00190070,0.00201707,-0.00019807,0.00268939,0.0
 0551139,0.00025127,-0.12728956,-0.28849121,-0.00814437,-0.01362755,-0.
 01649189,-0.00058620,0.00353260,-0.00220982,-0.00029609,0.00056545,-0.
 00061622,0.00004087,-0.00011865,0.00054256,0.00000943,0.00039277,-0.00
 013707,-0.00000098,0.00001530,-0.00048084,0.00002345,-0.00090545,-0.00
 013435,0.00000546,-0.00010276,0.00029065,0.00007581,0.13248339,0.29912
 011,-0.00030451,-0.00008114,0.00088523,0.00003612,0.00024599,0.0065794
 2,-0.00038824,-0.00023959,-0.00002876,-0.00396748,-0.00832712,-0.03680
 082,-0.00031471,-0.00021266,0.00322022,0.00013363,-0.00028575,0.008401
 67,0.00010105,-0.00016672,-0.00055562,0.00001114,0.00006668,-0.0005569
 2,0.00006335,-0.00005236,0.00004130,-0.00007229,-0.00004758,-0.0006626
 8,-0.00004749,0.00009949,0.00000724,0.00001835,0.00014379,-0.00321056,
 0.00444948,0.00865080,0.02684935,0.00013803,0.00005290,0.00001494,0.00
 087085,-0.00012320,0.00008620,-0.00036810,0.00191255,-0.00002649,-0.00
 722946,-0.00217292,-0.00013018,-0.34901949,0.00533151,-0.00146468,-0.0
 0993157,0.00194489,-0.00003940,0.00022521,-0.00163397,-0.00012201,-0.0
 0061158,0.00021718,0.00003033,-0.00010665,0.00013384,-0.00000873,0.000
 18596,-0.00002759,0.00000070,0.00112706,0.00124873,0.00002308,-0.00029
 411,-0.00025996,-0.00000542,0.00054704,-0.00010399,0.00001861,0.364227
 26,0.00004554,0.00034484,0.00003754,-0.00013443,-0.00165098,-0.0000452
 6,0.00331994,-0.00474904,-0.00027771,0.02774855,0.00459595,0.00012253,
 0.00457337,-0.06029702,-0.00031206,-0.02723144,0.00467536,-0.00021405,
 -0.00179470,-0.00441332,-0.00018764,-0.00141448,0.00032028,0.00004812,
 -0.00037957,0.00036920,-0.00000291,0.00083343,0.00021417,-0.00000455,-
 0.00134999,0.00113228,0.00007399,0.00120303,0.00038832,0.00005571,-0.0
 0038360,0.00084876,0.00012788,-0.00567166,0.05927179,0.00012461,0.0001
 2233,-0.00150854,0.00009573,-0.00015830,-0.00043670,0.00003118,-0.0003
 6974,0.00939239,0.00044208,-0.00004166,0.00694665,-0.00157564,-0.00040
 211,-0.04527624,-0.00053977,0.00006531,0.00534502,-0.00004257,-0.00003
 860,0.00669258,-0.00001291,0.00004669,-0.00058251,0.00001848,-0.000016
 36,-0.00006585,-0.00001688,-0.00000004,0.00000696,0.00001388,0.0000822
 1,-0.00326012,0.00003928,0.00003419,-0.00098005,0.00005020,0.00014823,
 -0.00449567,0.00165197,0.00060076,0.02755703,0.00057718,0.00404021,-0.
 00018660,-0.00188772,0.00119234,0.00001149,-0.00061064,-0.00049155,0.0
 0000249,0.00044274,-0.00022767,-0.00000560,-0.00054584,0.00067694,0.00
 001738,0.00100429,-0.00246779,0.00033918,-0.01020351,0.00070489,0.0004
 8996,-0.35444331,0.00699893,0.01035933,-0.00793295,-0.00125391,0.00039
 531,0.00067750,0.00198507,0.00039603,0.00059029,0.00039747,-0.00009057
 ,0.00001540,-0.00003882,-0.00000225,0.00001310,-0.00001492,-0.00000277
 ,-0.00001948,-0.00014315,-0.00001723,0.37161414,0.00151815,-0.00184608
 ,0.00047157,-0.00076852,0.00194747,-0.00000446,-0.00070041,-0.00056408
 ,-0.00010145,0.00068617,-0.00026706,0.00004601,-0.00156711,0.00107299,
 -0.00005260,-0.00125853,-0.00491029,-0.00010444,-0.02642240,0.00510640
 ,0.00065504,0.00806550,-0.05733329,0.00026859,0.02832737,0.00430223,-0
 .00076160,0.00187265,-0.00466340,0.00007762,0.00000877,-0.00090951,0.0
 0004591,-0.00000235,-0.00002368,-0.00000858,0.00006844,-0.00002673,0.0
 0000426,-0.00015983,-0.00037209,0.00002006,-0.01100090,0.05904122,-0.0
 0018014,-0.00015532,-0.00090841,0.00007524,-0.00000452,-0.00226969,-0.
 00003656,-0.00009610,-0.00009531,0.00003343,0.00000873,-0.00021074,0.0
 0001811,-0.00000497,0.00046865,0.00008906,-0.00023365,0.00511002,-0.00
 021306,-0.00039913,0.00221135,0.01232544,0.00051123,-0.03598174,-0.000
 36045,0.00000025,0.00429057,-0.00010558,0.00021241,0.00871261,0.000020
 89,0.00021904,-0.00143939,-0.00001897,-0.00001050,0.00016687,-0.000003
 87,-0.00000034,0.00001595,-0.00000622,0.00000015,0.00012001,-0.0114116
 2,-0.00105388,0.02555771,-0.00001672,-0.00006179,-0.00002824,0.0010465
 1,0.00049922,0.00005085,0.00000103,0.00041272,-0.00002887,-0.00032667,
 0.00010771,0.00001269,0.00000046,-0.00050986,-0.00003045,-0.00039720,0
 .00135745,-0.00000896,-0.00131040,0.00385814,0.00009072,0.01186684,0.0
 1544213,-0.00024616,-0.13935739,-0.13028752,0.00282757,-0.01015396,-0.
 02683604,0.00049331,-0.00579266,0.00081006,0.00017513,0.00006748,0.000
 06756,0.00000458,0.00000572,-0.00000945,0.00000148,0.00002354,0.000059
 61,0.00000281,0.00067908,-0.00024805,-0.00011606,0.14321204,-0.0000248
 3,0.00001716,0.00003750,-0.00120108,-0.00091181,-0.00006830,0.00074028
 ,-0.00006323,0.00001719,-0.00026115,0.00031131,0.00000751,-0.00013847,
 -0.00036284,-0.00001064,0.00082989,0.00033015,-0.00002802,0.00274805,-
 0.00308507,0.00017110,-0.01456994,-0.01716482,0.00044178,-0.12925026,-
 0.27127621,0.00414632,0.00344824,0.00659990,-0.00007532,0.00141133,0.0
 0104914,0.00006938,-0.00006316,-0.00006691,-0.00000690,-0.00001751,-0.
 00000667,-0.00000006,-0.00000803,-0.00002835,0.00000003,-0.00008301,0.
 00085086,-0.00003704,0.13642208,0.28316682,-0.00007530,-0.00007232,0.0
 0042699,0.00000894,0.00002087,0.00035833,-0.00001432,-0.00006637,-0.00
 075024,0.00008615,-0.00001884,0.00032026,0.00001048,0.00009777,-0.0008
 2626,0.00002058,-0.00018178,-0.00110962,-0.00000170,-0.00003563,0.0092
 6827,0.00016308,0.00029564,0.00571772,0.00318249,0.00404958,-0.0438849
 4,-0.00014578,0.00033000,0.00544406,0.00018680,0.00013937,0.00600836,-
 0.00000797,0.00000518,-0.00028117,-0.00000239,-0.00000338,0.00009564,0
 .00000131,0.00000079,0.00001769,-0.00027218,-0.00004443,-0.00511708,-0
 .00311635,-0.00459811,0.02767182,0.00014110,0.00019836,0.00001226,-0.0
 0007580,0.00045652,0.00000356,-0.00021885,-0.00018800,-0.00000004,0.00
 000171,-0.00028125,-0.00000760,0.00075009,-0.00051346,0.00000757,-0.00
 174553,-0.00365747,0.00005288,-0.00076562,-0.00134863,-0.00004338,-0.0
 0550911,-0.00061677,0.00022169,-0.00933373,0.02819204,-0.00000157,-0.1
 2101919,0.11952485,0.00063729,0.01238909,-0.01748927,-0.00004026,0.000
 00389,0.00002095,0.00000054,0.00005894,-0.00007607,-0.00000409,0.00000
 544,0.00001231,0.00000018,-0.00037222,0.00126438,-0.00005358,0.0009062
 3,-0.00020955,-0.00005719,0.12415273,0.00006616,0.00002113,0.00001030,
 0.00013420,0.00036976,0.00002068,-0.00042629,-0.00012169,-0.00001150,0
 .00004230,-0.00049817,-0.00001077,0.00080373,-0.00028436,0.00000612,-0
 .00316811,-0.00250515,-0.00001387,-0.00073706,0.00007209,0.00000182,-0
 .00101808,0.00135949,0.00001554,-0.00255181,0.00488187,0.00001422,0.11
 904958,-0.29089293,-0.00080359,0.01314628,-0.01718035,-0.00006823,0.00
 000676,-0.00000598,-0.00000098,0.00006958,-0.00006596,-0.00000280,-0.0
 0000086,-0.00001060,0.00000088,-0.00020113,0.00015979,-0.00000055,0.00
 019276,0.00044163,-0.00000885,-0.12546929,0.30349524,-0.00002009,0.000
 00778,-0.00003904,-0.00001088,0.00000603,-0.00102264,-0.00001041,0.000
 00399,0.00006162,0.00000479,0.00000833,-0.00074226,-0.00000860,0.00003
 466,-0.00026781,-0.00006855,0.00000356,0.01001231,0.00006672,0.0000498
 2,-0.00042379,0.00017785,0.00002061,0.00574080,0.00012048,-0.00025728,
 0.00385754,0.00063206,-0.00064393,-0.04215983,-0.00009319,-0.00004435,
 0.00491701,-0.00000299,-0.00000771,0.00012468,0.00000132,-0.00000307,0
 .00006734,-0.00000094,-0.00000441,0.00022238,0.00000356,-0.00000248,-0
 .00013563,-0.00006795,-0.00004535,-0.00286374,-0.00072602,0.00085106,0
 .02770366,-0.00004504,0.00013679,-0.00004442,-0.00026083,-0.00067762,0
 .00004114,-0.00003116,0.00002226,-0.00001018,0.00016379,0.00001969,-0.
 00000225,0.00089961,-0.00112606,-0.00004419,-0.00917544,-0.00136528,0.
 00004483,0.00109896,0.00222046,-0.00001518,0.00049536,-0.00061106,0.00
 001051,-0.00012567,-0.00248775,0.00001076,-0.00971621,0.00285915,0.000
 05586,-0.34909825,0.00794926,0.00087571,0.00002958,0.00001035,0.000001
 99,-0.00000517,0.00002145,0.00000229,0.00025146,0.00071113,0.00002152,
 -0.00006841,0.00000112,-0.00000670,-0.00051477,0.00026577,0.00000791,0
 .00062450,0.00005072,-0.00001051,0.36548419,0.00043429,-0.00044839,0.0
 0008678,0.00134045,0.00023985,-0.00005850,0.00050765,0.00038918,0.0000
 1938,-0.00070248,0.00028661,0.00000960,0.00155606,0.00137001,0.0000335
 1,0.02813138,0.00153872,-0.00011875,0.00077377,-0.00486969,0.00003372,
 -0.00000834,-0.00059381,-0.00003589,-0.00235452,-0.00474214,0.00000098
 ,-0.02769957,0.00601112,0.00006939,0.00775667,-0.05896666,-0.00018476,
 -0.00004938,-0.00001254,-0.00000116,-0.00001720,-0.00001102,-0.0000039
 1,-0.00065397,-0.00061348,-0.00001726,0.00001326,0.00013960,0.00000705
 ,-0.00129642,0.00023630,0.00003714,0.00028944,0.00079016,0.00001058,-0
 .00802798,0.05930882,-0.00006494,0.00005662,0.00036688,-0.00003328,-0.
 00001165,0.00027221,0.00004047,0.00002336,0.00011918,-0.00005963,0.000
 02245,-0.00006322,0.00006996,0.00001018,-0.00302402,-0.00011738,0.0002
 5514,0.00252290,0.00024753,-0.00001447,0.00517059,-0.00001764,-0.00010
 970,-0.00146510,0.00000364,-0.00001286,0.00903080,0.00012144,0.0001802
 7,0.00565454,0.00081120,-0.00049595,-0.03857660,-0.00000203,0.00000109
 ,0.00000870,-0.00000002,-0.00000570,0.00013088,-0.00000116,-0.00001785
 ,0.00032759,-0.00003897,-0.00002265,-0.00086562,-0.00004733,0.00001006
 ,-0.00050346,-0.00002764,0.00000716,-0.00508299,-0.00096710,0.00017094
 ,0.02595466,-0.08084367,-0.01077664,-0.09817542,-0.03470874,-0.0073560
 5,-0.04327338,-0.00305435,0.00148622,-0.00159893,-0.00026744,-0.001036
 86,0.00169999,0.00029347,0.00010204,-0.00021607,-0.00051474,0.00031511
 ,0.00121866,-0.00109175,-0.00029909,-0.00146198,0.00041983,0.00000676,
 -0.00018423,-0.00023730,0.00020819,-0.00001277,0.00019044,0.00004073,-
 0.00008050,-0.00009286,-0.00026352,0.00001407,0.00003699,-0.00035657,-
 0.00100235,-0.00016273,0.00002330,0.00026609,-0.00002141,-0.00000388,-
 0.00028691,0.00047036,0.00031555,-0.00004936,0.00006084,-0.00003864,0.
 00002545,0.00000633,0.00001057,0.00001335,-0.00000653,0.00000688,0.000
 08289,0.11952326,-0.01876398,-0.00627216,-0.06527463,0.00178300,-0.003
 54320,0.00466541,-0.00455378,-0.00039784,-0.00080639,0.00141151,-0.001
 77693,0.00068394,0.00026299,0.00166577,0.00017386,-0.00085354,-0.00112
 973,-0.00090703,0.00421451,0.00099992,0.00099435,0.00074791,0.00132640
 ,-0.00056815,0.00012368,-0.00090474,-0.00038734,-0.00075880,-0.0003074
 3,0.00015346,-0.00016356,0.00068601,-0.00000711,-0.00078533,-0.0004262
 6,-0.00097672,-0.00010684,0.00000436,0.00008082,-0.00002562,-0.0000260
 8,-0.00007661,-0.00008626,-0.00170433,0.00103714,0.00001967,-0.0000373
 6,0.00005336,-0.00010908,-0.00002598,0.00001214,0.00002761,-0.00005263
 ,-0.00004643,0.01761591,0.01192222,-0.15825231,-0.06400931,-0.46172007
 ,0.01090617,0.00236287,0.01341938,0.00193587,-0.00182251,0.00046250,0.
 00087161,0.00035908,-0.00012624,0.00025924,0.00040342,-0.00001054,-0.0
 0007554,-0.00057582,-0.00006357,0.00161252,0.00183947,0.00036016,-0.00
 084280,-0.00001534,-0.00062613,0.00040546,-0.00023394,-0.00013934,-0.0
 0018109,-0.00019073,0.00002305,0.00019625,0.00026955,0.00001550,-0.000
 17009,0.00001298,-0.00003307,0.00023748,-0.00006554,0.00001679,-0.0000
 2189,-0.00000102,-0.00002260,0.00001308,0.00056752,0.00036986,0.000031
 22,-0.00003114,0.00000739,0.00002541,-0.00000663,0.00003037,0.00002803
 ,-0.00005884,0.00002208,0.14302139,0.06119593,0.44801446\\0.00001987,-
 0.00001523,-0.00001431,-0.00001739,0.00002960,0.00001616,-0.00002172,-
 0.00002368,-0.00000301,0.00001457,-0.00000975,-0.00000283,0.00000660,0
 .00001826,0.00000365,-0.00001451,0.00000108,-0.00000562,0.00001593,-0.
 00000928,0.00000416,-0.00000149,0.00000335,-0.00000251,-0.00000036,-0.
 00000349,-0.00000060,-0.00000473,0.00000110,0.00000067,0.00000386,0.00
 000515,0.00000132,0.00000015,0.00000323,-0.00000394,-0.00000264,0.0000
 0145,0.00000060,-0.00000131,0.00000038,0.00000102,-0.00000140,-0.00000
 579,-0.00000063,0.00000253,-0.00000121,-0.00000032,0.00000071,-0.00000
 075,0.00000141,0.00000015,0.00000106,0.00000069,0.00000118,0.00000453,
 0.00000407\\\@


 ARTHROPOD AXIOM: A COMPUTER SYSTEM IS LIKE A SPIDER'S WEB.
 YOU CANNOT PULL ON ONE END WITHOUT MAKING THE OTHER END MOVE.
     -- GREG WETTSTEIN
 Job cpu time:       0 days  0 hours 59 minutes 34.2 seconds.
 Elapsed time:       0 days  0 hours  2 minutes 31.5 seconds.
 File lengths (MBytes):  RWF=    158 Int=      0 D2E=      0 Chk=      9 Scr=      1
 Normal termination of Gaussian 16 at Mon Oct 14 10:50:32 2019.
real 366.12
user 8578.52
sys 21.21
Machine:
brown-a206
brown-a206
brown-a206
brown-a206
brown-a206
brown-a206
brown-a206
brown-a206
brown-a206
brown-a206
brown-a206
brown-a206
brown-a206
brown-a206
brown-a206
brown-a206
brown-a206
brown-a206
brown-a206
brown-a206
brown-a206
brown-a206
brown-a206
brown-a206
