Title Card Required                                                     
Freq      RM062X                                                      6-311++G(d,p)       
Number of atoms                            I               19
Info1-9                                    I   N=           9
          48          48        1002           0           0         100
           6          18        -502
Full Title                                 C   N=           2
Title Card Required     
Route                                      C   N=           6
#P opt freq m062x/6-311++g(d,p) geom=connectivity temperatur
e=0.001     
Charge                                     I                0
Multiplicity                               I                1
Number of electrons                        I               62
Number of alpha electrons                  I               31
Number of beta electrons                   I               31
Number of basis functions                  I              253
Number of independent functions            I              253
Number of point charges in /Mol/           I                0
Number of translation vectors              I                0
Atomic numbers                             I   N=          19
           6           6           6           6           6           6
           7           8           1           1           1           1
           1           1           1           1           1           1
           1
Nuclear charges                            R   N=          19
  6.00000000E+00  6.00000000E+00  6.00000000E+00  6.00000000E+00  6.00000000E+00
  6.00000000E+00  7.00000000E+00  8.00000000E+00  1.00000000E+00  1.00000000E+00
  1.00000000E+00  1.00000000E+00  1.00000000E+00  1.00000000E+00  1.00000000E+00
  1.00000000E+00  1.00000000E+00  1.00000000E+00  1.00000000E+00
Current cartesian coordinates              R   N=          57
 -1.85836407E+00 -1.30958042E+00  2.67074311E+00 -9.50573772E-01 -8.44785095E-01
 -2.72223011E-02 -3.11950448E+00 -9.23682189E-01 -1.90290923E+00  1.32206580E+00
 -2.48541241E+00 -7.61479737E-01  3.66013275E+00 -9.08800422E-01 -2.61323413E-02
  2.63716729E+00  1.72482279E+00 -5.23387038E-02  1.88521633E-01  1.78004463E+00
 -5.99312133E-02 -1.25954728E+00  3.66781814E+00  2.43055608E-02 -2.82664629E+00
 -3.12879802E+00  2.77428606E+00 -2.71036525E-01 -1.33050513E+00  3.99236168E+00
 -3.16761884E+00  1.82169535E-01  3.22892819E+00 -3.89918951E+00 -2.83413320E+00
 -1.96438616E+00 -4.59373654E+00  3.99365557E-01 -1.33912418E+00 -2.46718408E+00
 -4.10078991E-01 -3.79198789E+00  1.26746578E+00 -4.32207231E+00  1.71335256E-01
  1.31475837E+00 -2.79551758E+00 -2.80192118E+00  4.36631206E+00 -1.40260379E+00
  1.85730675E+00  5.22351408E+00 -1.16244525E+00 -1.34648968E+00  3.66454716E+00
  3.48638810E+00  4.08003845E-02
Number of symbols in /Mol/                 I                0
Force Field                                I                0
Atom Types                                 C   N=          19
                                                            
                                                            
                                                            
                                                
Int Atom Types                             I   N=          19
           0           0           0           0           0           0
           0           0           0           0           0           0
           0           0           0           0           0           0
           0
MM charges                                 R   N=          19
  0.00000000E+00  0.00000000E+00  0.00000000E+00  0.00000000E+00  0.00000000E+00
  0.00000000E+00  0.00000000E+00  0.00000000E+00  0.00000000E+00  0.00000000E+00
  0.00000000E+00  0.00000000E+00  0.00000000E+00  0.00000000E+00  0.00000000E+00
  0.00000000E+00  0.00000000E+00  0.00000000E+00  0.00000000E+00
Integer atomic weights                     I   N=          19
          12          12          12          12          12          12
          14          16           1           1           1           1
           1           1           1           1           1           1
           1
Real atomic weights                        R   N=          19
  1.20000000E+01  1.20000000E+01  1.20000000E+01  1.20000000E+01  1.20000000E+01
  1.20000000E+01  1.40030740E+01  1.59949146E+01  1.00782504E+00  1.00782504E+00
  1.00782504E+00  1.00782504E+00  1.00782504E+00  1.00782504E+00  1.00782504E+00
  1.00782504E+00  1.00782504E+00  1.00782504E+00  1.00782504E+00
Atom fragment info                         I   N=          19
           0           0           0           0           0           0
           0           0           0           0           0           0
           0           0           0           0           0           0
           0
Atom residue num                           I   N=          19
           0           0           0           0           0           0
           0           0           0           0           0           0
           0           0           0           0           0           0
           0
Nuclear spins                              I   N=          19
           0           0           0           0           0           0
           2           0           1           1           1           1
           1           1           1           1           1           1
           1
Nuclear ZEff                               R   N=          19
 -3.60000000E+00 -3.60000000E+00 -3.60000000E+00 -3.60000000E+00 -3.60000000E+00
 -3.60000000E+00 -4.55000000E+00 -5.60000000E+00 -1.00000000E+00 -1.00000000E+00
 -1.00000000E+00 -1.00000000E+00 -1.00000000E+00 -1.00000000E+00 -1.00000000E+00
 -1.00000000E+00 -1.00000000E+00 -1.00000000E+00 -1.00000000E+00
Nuclear ZNuc                               R   N=          19
  6.00000000E+00  6.00000000E+00  6.00000000E+00  6.00000000E+00  6.00000000E+00
  6.00000000E+00  7.00000000E+00  8.00000000E+00  1.00000000E+00  1.00000000E+00
  1.00000000E+00  1.00000000E+00  1.00000000E+00  1.00000000E+00  1.00000000E+00
  1.00000000E+00  1.00000000E+00  1.00000000E+00  1.00000000E+00
Nuclear QMom                               R   N=          19
  0.00000000E+00  0.00000000E+00  0.00000000E+00  0.00000000E+00  0.00000000E+00
  0.00000000E+00  2.04400000E+00  0.00000000E+00  0.00000000E+00  0.00000000E+00
  0.00000000E+00  0.00000000E+00  0.00000000E+00  0.00000000E+00  0.00000000E+00
  0.00000000E+00  0.00000000E+00  0.00000000E+00  0.00000000E+00
Nuclear GFac                               R   N=          19
  0.00000000E+00  0.00000000E+00  0.00000000E+00  0.00000000E+00  0.00000000E+00
  0.00000000E+00  4.03761000E-01  0.00000000E+00  2.79284600E+00  2.79284600E+00
  2.79284600E+00  2.79284600E+00  2.79284600E+00  2.79284600E+00  2.79284600E+00
  2.79284600E+00  2.79284600E+00  2.79284600E+00  2.79284600E+00
MicOpt                                     I   N=          19
          -1          -1          -1          -1          -1          -1
          -1          -1          -1          -1          -1          -1
          -1          -1          -1          -1          -1          -1
          -1
Number of residues                         I                0
Number of secondary structures             I                0
Redundant internal dimensions              I   N=           4
         107          19          36          52
Redundant internal coordinate indices      I   N=         428
           1           2           0           0           1           9
           0           0           1          10           0           0
           1          11           0           0           2           3
           0           0           2           4           0           0
           2           7           0           0           3          12
           0           0           3          13           0           0
           3          14           0           0           4           5
           0           0           4          15           0           0
           4          16           0           0           5           6
           0           0           5          17           0           0
           5          18           0           0           6           7
           0           0           6          19           0           0
           7           8           0           0           2           1
           9           0           2           1          10           0
           2           1          11           0           9           1
          10           0           9           1          11           0
          10           1          11           0           1           2
           3           0           1           2           4           0
           1           2           7           0           3           2
           4           0           3           2           7           0
           4           2           7           0           2           3
          12           0           2           3          13           0
           2           3          14           0          12           3
          13           0          12           3          14           0
          13           3          14           0           2           4
           5           0           2           4          15           0
           2           4          16           0           5           4
          15           0           5           4          16           0
          15           4          16           0           4           5
           6           0           4           5          17           0
           4           5          18           0           6           5
          17           0           6           5          18           0
          17           5          18           0           5           6
           7           0           5           6          19           0
           7           6          19           0           2           7
           6           0           2           7           8           0
           6           7           8           0           9           1
           2           3           9           1           2           4
           9           1           2           7          10           1
           2           3          10           1           2           4
          10           1           2           7          11           1
           2           3          11           1           2           4
          11           1           2           7           1           2
           3          12           1           2           3          13
           1           2           3          14           4           2
           3          12           4           2           3          13
           4           2           3          14           7           2
           3          12           7           2           3          13
           7           2           3          14           1           2
           4           5           1           2           4          15
           1           2           4          16           3           2
           4           5           3           2           4          15
           3           2           4          16           7           2
           4           5           7           2           4          15
           7           2           4          16           1           2
           7           6           1           2           7           8
           3           2           7           6           3           2
           7           8           4           2           7           6
           4           2           7           8           2           4
           5           6           2           4           5          17
           2           4           5          18          15           4
           5           6          15           4           5          17
          15           4           5          18          16           4
           5           6          16           4           5          17
          16           4           5          18           4           5
           6           7           4           5           6          19
          17           5           6           7          17           5
           6          19          18           5           6           7
          18           5           6          19           5           6
           7           2           5           6           7           8
          19           6           7           2          19           6
           7           8
Redundant internal coordinates             R   N=         107
  2.88429112E+00  2.06345446E+00  2.06560457E+00  2.06180420E+00  2.86856874E+00
  2.89753043E+00  2.86152744E+00  2.06434281E+00  2.05953128E+00  2.06347482E+00
  2.91427491E+00  2.06069031E+00  2.06388466E+00  2.82544091E+00  2.07120105E+00
  2.06199912E+00  2.44928003E+00  2.04139575E+00  2.38069070E+00  1.91420844E+00
  1.93720041E+00  1.91399785E+00  1.89606530E+00  1.90320043E+00  1.89872834E+00
  1.94897701E+00  1.97431059E+00  1.85854838E+00  1.99518978E+00  1.89519428E+00
  1.77650447E+00  1.90762934E+00  1.92256815E+00  1.93129678E+00  1.90954777E+00
  1.89914689E+00  1.89336117E+00  1.83277921E+00  1.94890850E+00  1.91009759E+00
  1.97057858E+00  1.91090217E+00  1.88969117E+00  1.78386286E+00  1.95412494E+00
  1.96076555E+00  1.93275408E+00  1.96408123E+00  1.86967457E+00  1.96384419E+00
  2.24171120E+00  2.07582069E+00  1.95762441E+00  2.07696150E+00  2.24703847E+00
  1.00304437E+00 -1.27717391E+00  3.06910986E+00  3.09827550E+00  8.18057221E-01
 -1.11884432E+00 -1.08649832E+00  2.91646871E+00  9.79567166E-01 -1.14513485E+00
  9.53411998E-01  3.04692864E+00  1.12428094E+00 -3.06035752E+00 -9.66840876E-01
  3.09400067E+00 -1.09063778E+00  1.00287886E+00 -1.57300882E+00  5.68355126E-01
  2.66037689E+00  2.45334915E+00 -1.68847221E+00  4.03549560E-01  4.14014113E-01
  2.55537806E+00 -1.63578548E+00  1.79918530E+00 -1.28759062E+00 -2.38291987E+00
  8.13489523E-01 -2.72339651E-01  2.92406974E+00 -4.14312106E-01  1.65474576E+00
 -2.52360104E+00 -2.54162123E+00 -4.72563357E-01  1.63227514E+00  1.63493961E+00
 -2.57918782E+00 -4.74349320E-01  2.63700331E-01 -2.94404522E+00 -1.82044105E+00
  1.25499871E+00  2.37069120E+00 -8.37054347E-01  4.85013879E-03  3.08496361E+00
 -3.07754559E+00  2.56787911E-03
ZRed-IntVec                                I   N=         107
           0           0           0           0           0           0
           0           0           0           0           0           0
           0           0           0           0           0           0
           0           0           0           0           0           0
           0           0           0           0           0           0
           0           0           0           0           0           0
           0           0           0           0           0           0
           0           0           0           0           0           0
           0           0           0           0           0           0
           0           0           0           0           0           0
           0           0           0           0           0           0
           0           0           0           0           0           0
           0           0           0           0           0           0
           0           0           0           0           0           0
           0           0           0           0           0           0
           0           0           0           0           0           0
           0           0           0           0           0           0
           0           0           0           0           0
ZRed-FPVec                                 R   N=         107
  0.00000000E+00  0.00000000E+00  0.00000000E+00  0.00000000E+00  0.00000000E+00
  0.00000000E+00  0.00000000E+00  0.00000000E+00  0.00000000E+00  0.00000000E+00
  0.00000000E+00  0.00000000E+00  0.00000000E+00  0.00000000E+00  0.00000000E+00
  0.00000000E+00  0.00000000E+00  0.00000000E+00  0.00000000E+00  0.00000000E+00
  0.00000000E+00  0.00000000E+00  0.00000000E+00  0.00000000E+00  0.00000000E+00
  0.00000000E+00  0.00000000E+00  0.00000000E+00  0.00000000E+00  0.00000000E+00
  0.00000000E+00  0.00000000E+00  0.00000000E+00  0.00000000E+00  0.00000000E+00
  0.00000000E+00  0.00000000E+00  0.00000000E+00  0.00000000E+00  0.00000000E+00
  0.00000000E+00  0.00000000E+00  0.00000000E+00  0.00000000E+00  0.00000000E+00
  0.00000000E+00  0.00000000E+00  0.00000000E+00  0.00000000E+00  0.00000000E+00
  0.00000000E+00  0.00000000E+00  0.00000000E+00  0.00000000E+00  0.00000000E+00
  0.00000000E+00  0.00000000E+00  0.00000000E+00  0.00000000E+00  0.00000000E+00
  0.00000000E+00  0.00000000E+00  0.00000000E+00  0.00000000E+00  0.00000000E+00
  0.00000000E+00  0.00000000E+00  0.00000000E+00  0.00000000E+00  0.00000000E+00
  0.00000000E+00  0.00000000E+00  0.00000000E+00  0.00000000E+00  0.00000000E+00
  0.00000000E+00  0.00000000E+00  0.00000000E+00  0.00000000E+00  0.00000000E+00
  0.00000000E+00  0.00000000E+00  0.00000000E+00  0.00000000E+00  0.00000000E+00
  0.00000000E+00  0.00000000E+00  0.00000000E+00  0.00000000E+00  0.00000000E+00
  0.00000000E+00  0.00000000E+00  0.00000000E+00  0.00000000E+00  0.00000000E+00
  0.00000000E+00  0.00000000E+00  0.00000000E+00  0.00000000E+00  0.00000000E+00
  0.00000000E+00  0.00000000E+00  0.00000000E+00  0.00000000E+00  0.00000000E+00
  0.00000000E+00  0.00000000E+00
ZRed-Constraint1                           R   N=         107
  2.88429112E+00  2.06345446E+00  2.06560457E+00  2.06180420E+00  2.86856874E+00
  2.89753043E+00  2.86152744E+00  2.06434281E+00  2.05953128E+00  2.06347482E+00
  2.91427491E+00  2.06069031E+00  2.06388466E+00  2.82544091E+00  2.07120105E+00
  2.06199912E+00  2.44928003E+00  2.04139575E+00  2.38069070E+00  1.91420844E+00
  1.93720041E+00  1.91399785E+00  1.89606530E+00  1.90320043E+00  1.89872834E+00
  1.94897701E+00  1.97431059E+00  1.85854838E+00  1.99518978E+00  1.89519428E+00
  1.77650447E+00  1.90762934E+00  1.92256815E+00  1.93129678E+00  1.90954777E+00
  1.89914689E+00  1.89336117E+00  1.83277921E+00  1.94890850E+00  1.91009759E+00
  1.97057858E+00  1.91090217E+00  1.88969117E+00  1.78386286E+00  1.95412494E+00
  1.96076555E+00  1.93275408E+00  1.96408123E+00  1.86967457E+00  1.96384419E+00
  2.24171120E+00  2.07582069E+00  1.95762441E+00  2.07696150E+00  2.24703847E+00
  1.00304437E+00 -1.27717391E+00  3.06910986E+00  3.09827550E+00  8.18057221E-01
 -1.11884432E+00 -1.08649832E+00  2.91646871E+00  9.79567166E-01 -1.14513485E+00
  9.53411998E-01  3.04692864E+00  1.12428094E+00 -3.06035752E+00 -9.66840876E-01
  3.09400067E+00 -1.09063778E+00  1.00287886E+00 -1.57300882E+00  5.68355126E-01
  2.66037689E+00  2.45334915E+00 -1.68847221E+00  4.03549560E-01  4.14014113E-01
  2.55537806E+00 -1.63578548E+00  1.79918530E+00 -1.28759062E+00 -2.38291987E+00
  8.13489523E-01 -2.72339651E-01  2.92406974E+00 -4.14312106E-01  1.65474576E+00
 -2.52360104E+00 -2.54162123E+00 -4.72563357E-01  1.63227514E+00  1.63493961E+00
 -2.57918782E+00 -4.74349320E-01  2.63700331E-01 -2.94404522E+00 -1.82044105E+00
  1.25499871E+00  2.37069120E+00 -8.37054347E-01  4.85013879E-03  3.08496361E+00
 -3.07754559E+00  2.56787911E-03
ZRed-Constraint2                           R   N=         107
  2.95175833E+00  2.05990764E+00  2.05974684E+00  2.05987085E+00  2.95147235E+00
  2.95844857E+00  2.64690198E+00  2.05977004E+00  2.05977562E+00  2.05982877E+00
  2.91105705E+00  2.05988193E+00  2.05975622E+00  2.69672340E+00  2.05984034E+00
  2.05991648E+00  2.41689820E+00  2.05978592E+00  2.41163194E+00  1.91065062E+00
  1.91074490E+00  1.91068953E+00  1.91060679E+00  1.91051819E+00  1.91058937E+00
  1.92175252E+00  1.94299757E+00  1.92009220E+00  1.95117318E+00  1.93298079E+00
  1.79146179E+00  1.91064959E+00  1.91067884E+00  1.91072338E+00  1.91054715E+00
  1.91056099E+00  1.91063946E+00  1.83056759E+00  1.88479363E+00  1.88485300E+00
  1.87605097E+00  1.87611609E+00  2.09453473E+00  1.79616034E+00  1.90715084E+00
  1.90700151E+00  1.86760097E+00  1.86749578E+00  2.09439569E+00  1.99133434E+00
  2.23009025E+00  2.06176072E+00  2.01382748E+00  2.15704989E+00  2.11228756E+00
  4.14790255E-01 -1.75930383E+00  2.54999475E+00  2.50923200E+00  3.35137912E-01
 -1.63874881E+00 -1.67950906E+00  2.42958216E+00  4.55695434E-01 -4.34453946E-01
  1.65987366E+00 -2.52882578E+00  1.73492791E+00 -2.45392979E+00 -3.59443923E-01
 -2.56203032E+00 -4.67702711E-01  1.62678315E+00 -2.00582963E+00 -8.99781718E-03
  2.28042358E+00  2.11990692E+00 -2.16644657E+00  1.22974829E-01  4.75795531E-02
  2.04441137E+00 -1.94935254E+00  2.03571779E+00 -1.09906399E+00 -2.11891818E+00
  1.02948534E+00 -3.38651184E-02  3.11453840E+00 -4.55889360E-02  1.93456870E+00
 -2.02556744E+00 -2.04853393E+00 -6.83762978E-02  2.25467287E+00  1.95745204E+00
 -2.34557563E+00 -2.25264654E-02  2.86977023E-02 -3.11294794E+00 -1.98018693E+00
  1.16135274E+00  2.03737364E+00 -1.10427200E+00  3.87417819E-03  3.13884610E+00
 -3.13767098E+00 -2.69906522E-03
SymInf integers                            I   N=          26
           1           1           1           1           1           0
           0           0           0           0           0           0
           0           0           0           0           0           0
           0           0           0           0           0           0
           0           0
RotTr to input orientation                 R   N=          12
 -5.54490888E-01  8.23650673E-01 -1.18909314E-01  8.13857357E-01  5.66538118E-01
  1.29115312E-01  1.73712572E-01 -2.51819561E-02 -9.84474383E-01 -1.25306958E+00
 -9.87403033E-01  5.92559893E-02
Number of contracted shells                I              103
Number of primitive shells                 I              181
Pure/Cartesian d shells                    I                0
Pure/Cartesian f shells                    I                0
Highest angular momentum                   I                2
Largest degree of contraction              I                6
Shell types                                I   N=         103
           0          -1          -1          -1          -1          -2
           0          -1          -1          -1          -1          -2
           0          -1          -1          -1          -1          -2
           0          -1          -1          -1          -1          -2
           0          -1          -1          -1          -1          -2
           0          -1          -1          -1          -1          -2
           0          -1          -1          -1          -1          -2
           0          -1          -1          -1          -1          -2
           0           0           0           0           1           0
           0           0           0           1           0           0
           0           0           1           0           0           0
           0           1           0           0           0           0
           1           0           0           0           0           1
           0           0           0           0           1           0
           0           0           0           1           0           0
           0           0           1           0           0           0
           0           1           0           0           0           0
           1
Number of primitives per shell             I   N=         103
           6           3           1           1           1           1
           6           3           1           1           1           1
           6           3           1           1           1           1
           6           3           1           1           1           1
           6           3           1           1           1           1
           6           3           1           1           1           1
           6           3           1           1           1           1
           6           3           1           1           1           1
           3           1           1           1           1           3
           1           1           1           1           3           1
           1           1           1           3           1           1
           1           1           3           1           1           1
           1           3           1           1           1           1
           3           1           1           1           1           3
           1           1           1           1           3           1
           1           1           1           3           1           1
           1           1           3           1           1           1
           1
Shell to atom map                          I   N=         103
           1           1           1           1           1           1
           2           2           2           2           2           2
           3           3           3           3           3           3
           4           4           4           4           4           4
           5           5           5           5           5           5
           6           6           6           6           6           6
           7           7           7           7           7           7
           8           8           8           8           8           8
           9           9           9           9           9          10
          10          10          10          10          11          11
          11          11          11          12          12          12
          12          12          13          13          13          13
          13          14          14          14          14          14
          15          15          15          15          15          16
          16          16          16          16          17          17
          17          17          17          18          18          18
          18          18          19          19          19          19
          19
Primitive exponents                        R   N=         181
  4.56324000E+03  6.82024000E+02  1.54973000E+02  4.44553000E+01  1.30290000E+01
  1.82773000E+00  2.09642000E+01  4.80331000E+00  1.45933000E+00  4.83456000E-01
  1.45585000E-01  4.38000000E-02  6.26000000E-01  4.56324000E+03  6.82024000E+02
  1.54973000E+02  4.44553000E+01  1.30290000E+01  1.82773000E+00  2.09642000E+01
  4.80331000E+00  1.45933000E+00  4.83456000E-01  1.45585000E-01  4.38000000E-02
  6.26000000E-01  4.56324000E+03  6.82024000E+02  1.54973000E+02  4.44553000E+01
  1.30290000E+01  1.82773000E+00  2.09642000E+01  4.80331000E+00  1.45933000E+00
  4.83456000E-01  1.45585000E-01  4.38000000E-02  6.26000000E-01  4.56324000E+03
  6.82024000E+02  1.54973000E+02  4.44553000E+01  1.30290000E+01  1.82773000E+00
  2.09642000E+01  4.80331000E+00  1.45933000E+00  4.83456000E-01  1.45585000E-01
  4.38000000E-02  6.26000000E-01  4.56324000E+03  6.82024000E+02  1.54973000E+02
  4.44553000E+01  1.30290000E+01  1.82773000E+00  2.09642000E+01  4.80331000E+00
  1.45933000E+00  4.83456000E-01  1.45585000E-01  4.38000000E-02  6.26000000E-01
  4.56324000E+03  6.82024000E+02  1.54973000E+02  4.44553000E+01  1.30290000E+01
  1.82773000E+00  2.09642000E+01  4.80331000E+00  1.45933000E+00  4.83456000E-01
  1.45585000E-01  4.38000000E-02  6.26000000E-01  6.29348000E+03  9.49044000E+02
  2.18776000E+02  6.36916000E+01  1.88282000E+01  2.72023000E+00  3.06331000E+01
  7.02614000E+00  2.11205000E+00  6.84009000E-01  2.00878000E-01  6.39000000E-02
  9.13000000E-01  8.58850000E+03  1.29723000E+03  2.99296000E+02  8.73771000E+01
  2.56789000E+01  3.74004000E+00  4.21175000E+01  9.62837000E+00  2.85332000E+00
  9.05661000E-01  2.55611000E-01  8.45000000E-02  1.29200000E+00  3.38650000E+01
  5.09479000E+00  1.15879000E+00  3.25840000E-01  1.02741000E-01  3.60000000E-02
  7.50000000E-01  3.38650000E+01  5.09479000E+00  1.15879000E+00  3.25840000E-01
  1.02741000E-01  3.60000000E-02  7.50000000E-01  3.38650000E+01  5.09479000E+00
  1.15879000E+00  3.25840000E-01  1.02741000E-01  3.60000000E-02  7.50000000E-01
  3.38650000E+01  5.09479000E+00  1.15879000E+00  3.25840000E-01  1.02741000E-01
  3.60000000E-02  7.50000000E-01  3.38650000E+01  5.09479000E+00  1.15879000E+00
  3.25840000E-01  1.02741000E-01  3.60000000E-02  7.50000000E-01  3.38650000E+01
  5.09479000E+00  1.15879000E+00  3.25840000E-01  1.02741000E-01  3.60000000E-02
  7.50000000E-01  3.38650000E+01  5.09479000E+00  1.15879000E+00  3.25840000E-01
  1.02741000E-01  3.60000000E-02  7.50000000E-01  3.38650000E+01  5.09479000E+00
  1.15879000E+00  3.25840000E-01  1.02741000E-01  3.60000000E-02  7.50000000E-01
  3.38650000E+01  5.09479000E+00  1.15879000E+00  3.25840000E-01  1.02741000E-01
  3.60000000E-02  7.50000000E-01  3.38650000E+01  5.09479000E+00  1.15879000E+00
  3.25840000E-01  1.02741000E-01  3.60000000E-02  7.50000000E-01  3.38650000E+01
  5.09479000E+00  1.15879000E+00  3.25840000E-01  1.02741000E-01  3.60000000E-02
  7.50000000E-01
Contraction coefficients                   R   N=         181
  1.96665025E-03  1.52306019E-02  7.61269097E-02  2.60801033E-01  6.16462078E-01
  2.21006028E-01  1.14660081E-01  9.19999648E-01 -3.03068213E-03  1.00000000E+00
  1.00000000E+00  1.00000000E+00  1.00000000E+00  1.96665025E-03  1.52306019E-02
  7.61269097E-02  2.60801033E-01  6.16462078E-01  2.21006028E-01  1.14660081E-01
  9.19999648E-01 -3.03068213E-03  1.00000000E+00  1.00000000E+00  1.00000000E+00
  1.00000000E+00  1.96665025E-03  1.52306019E-02  7.61269097E-02  2.60801033E-01
  6.16462078E-01  2.21006028E-01  1.14660081E-01  9.19999648E-01 -3.03068213E-03
  1.00000000E+00  1.00000000E+00  1.00000000E+00  1.00000000E+00  1.96665025E-03