 Entering Gaussian System, Link 0=/apps/cent7/gaussian/g16-A.03/g16-haswell/g16/g16
 Initial command:
 /apps/cent7/gaussian/g16-A.03/g16-haswell/g16/l1.exe "/scratch/brown/finej/gaussian/Gau-399876.inp" -scrdir="/scratch/brown/finej/gaussian/"
 Entering Link 1 = /apps/cent7/gaussian/g16-A.03/g16-haswell/g16/l1.exe PID=    399879.
  
 Copyright (c) 1988,1990,1992,1993,1995,1998,2003,2009,2016,
            Gaussian, Inc.  All Rights Reserved.
  
 This is part of the Gaussian(R) 16 program.  It is based on
 the Gaussian(R) 09 system (copyright 2009, Gaussian, Inc.),
 the Gaussian(R) 03 system (copyright 2003, Gaussian, Inc.),
 the Gaussian(R) 98 system (copyright 1998, Gaussian, Inc.),
 the Gaussian(R) 94 system (copyright 1995, Gaussian, Inc.),
 the Gaussian 92(TM) system (copyright 1992, Gaussian, Inc.),
 the Gaussian 90(TM) system (copyright 1990, Gaussian, Inc.),
 the Gaussian 88(TM) system (copyright 1988, Gaussian, Inc.),
 the Gaussian 86(TM) system (copyright 1986, Carnegie Mellon
 University), and the Gaussian 82(TM) system (copyright 1983,
 Carnegie Mellon University). Gaussian is a federally registered
 trademark of Gaussian, Inc.
  
 This software contains proprietary and confidential information,
 including trade secrets, belonging to Gaussian, Inc.
  
 This software is provided under written license and may be
 used, copied, transmitted, or stored only in accord with that
 written license.
  
 The following legend is applicable only to US Government
 contracts under FAR:
  
                    RESTRICTED RIGHTS LEGEND
  
 Use, reproduction and disclosure by the US Government is
 subject to restrictions as set forth in subparagraphs (a)
 and (c) of the Commercial Computer Software - Restricted
 Rights clause in FAR 52.227-19.
  
 Gaussian, Inc.
 340 Quinnipiac St., Bldg. 40, Wallingford CT 06492
  
  
 ---------------------------------------------------------------
 Warning -- This program may not be used in any manner that
 competes with the business of Gaussian, Inc. or will provide
 assistance to any competitor of Gaussian, Inc.  The licensee
 of this program is prohibited from giving any competitor of
 Gaussian, Inc. access to this program.  By using this program,
 the user acknowledges that Gaussian, Inc. is engaged in the
 business of creating and licensing software in the field of
 computational chemistry and represents and warrants to the
 licensee that it is not a competitor of Gaussian, Inc. and that
 it will not use this program in any manner prohibited above.
 ---------------------------------------------------------------
  

 Cite this work as:
 Gaussian 16, Revision A.03,
 M. J. Frisch, G. W. Trucks, H. B. Schlegel, G. E. Scuseria, 
 M. A. Robb, J. R. Cheeseman, G. Scalmani, V. Barone, 
 G. A. Petersson, H. Nakatsuji, X. Li, M. Caricato, A. V. Marenich, 
 J. Bloino, B. G. Janesko, R. Gomperts, B. Mennucci, H. P. Hratchian, 
 J. V. Ortiz, A. F. Izmaylov, J. L. Sonnenberg, D. Williams-Young, 
 F. Ding, F. Lipparini, F. Egidi, J. Goings, B. Peng, A. Petrone, 
 T. Henderson, D. Ranasinghe, V. G. Zakrzewski, J. Gao, N. Rega, 
 G. Zheng, W. Liang, M. Hada, M. Ehara, K. Toyota, R. Fukuda, 
 J. Hasegawa, M. Ishida, T. Nakajima, Y. Honda, O. Kitao, H. Nakai, 
 T. Vreven, K. Throssell, J. A. Montgomery, Jr., J. E. Peralta, 
 F. Ogliaro, M. J. Bearpark, J. J. Heyd, E. N. Brothers, K. N. Kudin, 
 V. N. Staroverov, T. A. Keith, R. Kobayashi, J. Normand, 
 K. Raghavachari, A. P. Rendell, J. C. Burant, S. S. Iyengar, 
 J. Tomasi, M. Cossi, J. M. Millam, M. Klene, C. Adamo, R. Cammi, 
 J. W. Ochterski, R. L. Martin, K. Morokuma, O. Farkas, 
 J. B. Foresman, and D. J. Fox, Gaussian, Inc., Wallingford CT, 2016.
 
 ******************************************
 Gaussian 16:  ES64L-G16RevA.03 25-Dec-2016
                13-Oct-2019 
 ******************************************
 %chk=5_p.chk
 %nprocshared=24
 Will use up to   24 processors via shared memory.
 %mem=80GB
 -------------------------------------------------------------------
 #P opt freq m062x/6-311++g(d,p) geom=connectivity temperature=0.001
 -------------------------------------------------------------------
 1/18=20,19=15,26=3,38=1,57=2,112=-1000/1,3;
 2/9=110,12=2,17=6,18=5,40=1/2;
 3/5=4,6=6,7=1111,11=2,25=1,30=1,71=1,74=-55/1,2,3;
 4//1;
 5/5=2,38=5/2;
 6/7=2,8=2,9=2,10=2,28=1/1;
 7//1,2,3,16;
 1/18=20,19=15,26=3/3(2);
 2/9=110/2;
 99//99;
 2/9=110/2;
 3/5=4,6=6,7=1111,11=2,25=1,30=1,71=1,74=-55/1,2,3;
 4/5=5,16=3,69=1/1;
 5/5=2,38=5/2;
 7//1,2,3,16;
 1/18=20,19=15,26=3/3(-5);
 2/9=110/2;
 6/7=2,8=2,9=2,10=2,19=2,28=1/1;
 99/9=1/99;
 Leave Link    1 at Sun Oct 13 23:48:57 2019, MaxMem= 10737418240 cpu:               1.7 elap:               0.1
 (Enter /apps/cent7/gaussian/g16-A.03/g16-haswell/g16/l101.exe)
 -------------------
 Title Card Required
 -------------------
 Symbolic Z-matrix:
 Charge =  1 Multiplicity = 1
 C                    -0.4364   -1.9519   -1.3354 
 C                    -0.7338   -1.1583   -0.0233 
 C                    -0.4103   -2.0416    1.2235 
 C                    -2.2086   -0.6337    0.0029 
 C                    -2.0832    0.9013   -0.03 
 C                    -0.6712    1.1065   -0.0054 
 N                     0.0134    0.0262    0.0003 
 O                     1.2891    0.056     0.0187 
 H                    -0.4826   -3.0217   -1.1314 
 H                    -1.1774   -1.694    -2.092 
 H                     0.5585   -1.694    -1.6985 
 H                    -0.481    -3.0946    0.951 
 H                     0.5994   -1.8234    1.5713 
 H                    -1.1235   -1.8234    2.0184 
 H                    -2.6924   -0.9428   -0.9237 
 H                    -2.6459   -0.9062    0.9634 
 H                    -2.4424    1.2711   -0.9904 
 H                    -2.4815    1.3146    0.8967 
 H                    -0.1345    2.0551    0.0085 
 H                     1.63382  -0.70636  -0.45202 
 
 ITRead=  0  0  0  0  0  0  0  0  0  0  0  0  0  0  0  0  0  0  0  0
 MicOpt= -1 -1 -1 -1 -1 -1 -1 -1 -1 -1 -1 -1 -1 -1 -1 -1 -1 -1 -1 -1
 NAtoms=     20 NQM=       20 NQMF=       0 NMMI=      0 NMMIF=      0
                NMic=       0 NMicF=      0.
                    Isotopes and Nuclear Properties:
 (Nuclear quadrupole moments (NQMom) in fm**2, nuclear magnetic moments (NMagM)
  in nuclear magnetons)

  Atom         1           2           3           4           5           6           7           8           9          10
 IAtWgt=          12          12          12          12          12          12          14          16           1           1
 AtmWgt=  12.0000000  12.0000000  12.0000000  12.0000000  12.0000000  12.0000000  14.0030740  15.9949146   1.0078250   1.0078250
 NucSpn=           0           0           0           0           0           0           2           0           1           1
 AtZEff=  -0.0000000  -0.0000000  -0.0000000  -0.0000000  -0.0000000  -0.0000000  -0.0000000  -0.0000000  -0.0000000  -0.0000000
 NQMom=    0.0000000   0.0000000   0.0000000   0.0000000   0.0000000   0.0000000   2.0440000   0.0000000   0.0000000   0.0000000
 NMagM=    0.0000000   0.0000000   0.0000000   0.0000000   0.0000000   0.0000000   0.4037610   0.0000000   2.7928460   2.7928460
 AtZNuc=   6.0000000   6.0000000   6.0000000   6.0000000   6.0000000   6.0000000   7.0000000   8.0000000   1.0000000   1.0000000

  Atom        11          12          13          14          15          16          17          18          19          20
 IAtWgt=           1           1           1           1           1           1           1           1           1           1
 AtmWgt=   1.0078250   1.0078250   1.0078250   1.0078250   1.0078250   1.0078250   1.0078250   1.0078250   1.0078250   1.0078250
 NucSpn=           1           1           1           1           1           1           1           1           1           1
 AtZEff=  -0.0000000  -0.0000000  -0.0000000  -0.0000000  -0.0000000  -0.0000000  -0.0000000  -0.0000000  -0.0000000  -0.0000000
 NQMom=    0.0000000   0.0000000   0.0000000   0.0000000   0.0000000   0.0000000   0.0000000   0.0000000   0.0000000   0.0000000
 NMagM=    2.7928460   2.7928460   2.7928460   2.7928460   2.7928460   2.7928460   2.7928460   2.7928460   2.7928460   2.7928460
 AtZNuc=   1.0000000   1.0000000   1.0000000   1.0000000   1.0000000   1.0000000   1.0000000   1.0000000   1.0000000   1.0000000
 Leave Link  101 at Sun Oct 13 23:48:58 2019, MaxMem= 10737418240 cpu:               9.1 elap:               0.4
 (Enter /apps/cent7/gaussian/g16-A.03/g16-haswell/g16/l103.exe)

 GradGradGradGradGradGradGradGradGradGradGradGradGradGradGradGradGradGrad
 Berny optimization.
 Initialization pass.
                           ----------------------------
                           !    Initial Parameters    !
                           ! (Angstroms and Degrees)  !
 --------------------------                            --------------------------
 ! Name  Definition              Value          Derivative Info.                !
 --------------------------------------------------------------------------------
 ! R1    R(1,2)                  1.562          estimate D2E/DX2                !
 ! R2    R(1,9)                  1.0901         estimate D2E/DX2                !
 ! R3    R(1,10)                 1.09           estimate D2E/DX2                !
 ! R4    R(1,11)                 1.09           estimate D2E/DX2                !
 ! R5    R(2,3)                  1.5619         estimate D2E/DX2                !
 ! R6    R(2,4)                  1.5655         estimate D2E/DX2                !
 ! R7    R(2,7)                  1.4007         estimate D2E/DX2                !
 ! R8    R(3,12)                 1.09           estimate D2E/DX2                !
 ! R9    R(3,13)                 1.09           estimate D2E/DX2                !
 ! R10   R(3,14)                 1.09           estimate D2E/DX2                !
 ! R11   R(4,5)                  1.5405         estimate D2E/DX2                !
 ! R12   R(4,15)                 1.09           estimate D2E/DX2                !
 ! R13   R(4,16)                 1.09           estimate D2E/DX2                !
 ! R14   R(5,6)                  1.427          estimate D2E/DX2                !
 ! R15   R(5,17)                 1.09           estimate D2E/DX2                !
 ! R16   R(5,18)                 1.0901         estimate D2E/DX2                !
 ! R17   R(6,7)                  1.279          estimate D2E/DX2                !
 ! R18   R(6,19)                 1.09           estimate D2E/DX2                !
 ! R19   R(7,8)                  1.2762         estimate D2E/DX2                !
 ! R20   R(8,20)                 0.96           estimate D2E/DX2                !
 ! A1    A(2,1,9)              109.4722         estimate D2E/DX2                !
 ! A2    A(2,1,10)             109.4776         estimate D2E/DX2                !
 ! A3    A(2,1,11)             109.4744         estimate D2E/DX2                !
 ! A4    A(9,1,10)             109.4697         estimate D2E/DX2                !
 ! A5    A(9,1,11)             109.4646         estimate D2E/DX2                !
 ! A6    A(10,1,11)            109.4687         estimate D2E/DX2                !
 ! A7    A(1,2,3)              110.1083         estimate D2E/DX2                !
 ! A8    A(1,2,4)              111.3256         estimate D2E/DX2                !
 ! A9    A(1,2,7)              110.0132         estimate D2E/DX2                !
 ! A10   A(3,2,4)              111.794          estimate D2E/DX2                !
 ! A11   A(3,2,7)              110.7516         estimate D2E/DX2                !
 ! A12   A(4,2,7)              102.6432         estimate D2E/DX2                !
 ! A13   A(2,3,12)             109.4722         estimate D2E/DX2                !
 ! A14   A(2,3,13)             109.4738         estimate D2E/DX2                !
 ! A15   A(2,3,14)             109.4764         estimate D2E/DX2                !
 ! A16   A(12,3,13)            109.4663         estimate D2E/DX2                !
 ! A17   A(12,3,14)            109.4671         estimate D2E/DX2                !
 ! A18   A(13,3,14)            109.4716         estimate D2E/DX2                !
 ! A19   A(2,4,5)              104.8838         estimate D2E/DX2                !
 ! A20   A(2,4,15)             107.9907         estimate D2E/DX2                !
 ! A21   A(2,4,16)             107.9941         estimate D2E/DX2                !
 ! A22   A(5,4,15)             107.4898         estimate D2E/DX2                !
 ! A23   A(5,4,16)             107.4935         estimate D2E/DX2                !
 ! A24   A(15,4,16)            120.008          estimate D2E/DX2                !
 ! A25   A(4,5,6)              102.9124         estimate D2E/DX2                !
 ! A26   A(4,5,17)             109.2717         estimate D2E/DX2                !
 ! A27   A(4,5,18)             109.2631         estimate D2E/DX2                !
 ! A28   A(6,5,17)             107.0057         estimate D2E/DX2                !
 ! A29   A(6,5,18)             106.9996         estimate D2E/DX2                !
 ! A30   A(17,5,18)            120.0            estimate D2E/DX2                !
 ! A31   A(5,6,7)              114.0951         estimate D2E/DX2                !
 ! A32   A(5,6,19)             127.7748         estimate D2E/DX2                !
 ! A33   A(7,6,19)             118.1302         estimate D2E/DX2                !
 ! A34   A(2,7,6)              115.3838         estimate D2E/DX2                !
 ! A35   A(2,7,8)              123.5899         estimate D2E/DX2                !
 ! A36   A(6,7,8)              121.0252         estimate D2E/DX2                !
 ! A37   A(7,8,20)             109.4712         estimate D2E/DX2                !
 ! D1    D(9,1,2,3)             23.7657         estimate D2E/DX2                !
 ! D2    D(9,1,2,4)           -100.8007         estimate D2E/DX2                !
 ! D3    D(9,1,2,7)            146.1039         estimate D2E/DX2                !
 ! D4    D(10,1,2,3)           143.7684         estimate D2E/DX2                !
 ! D5    D(10,1,2,4)            19.202          estimate D2E/DX2                !
 ! D6    D(10,1,2,7)           -93.8934         estimate D2E/DX2                !
 ! D7    D(11,1,2,3)           -96.2288         estimate D2E/DX2                !
 ! D8    D(11,1,2,4)           139.2048         estimate D2E/DX2                !
 ! D9    D(11,1,2,7)            26.1094         estimate D2E/DX2                !
 ! D10   D(1,2,3,12)           -24.8924         estimate D2E/DX2                !
 ! D11   D(1,2,3,13)            95.1038         estimate D2E/DX2                !
 ! D12   D(1,2,3,14)          -144.891          estimate D2E/DX2                !
 ! D13   D(4,2,3,12)            99.404          estimate D2E/DX2                !
 ! D14   D(4,2,3,13)          -140.5998         estimate D2E/DX2                !
 ! D15   D(4,2,3,14)           -20.5946         estimate D2E/DX2                !
 ! D16   D(7,2,3,12)          -146.7935         estimate D2E/DX2                !
 ! D17   D(7,2,3,13)           -26.7974         estimate D2E/DX2                !
 ! D18   D(7,2,3,14)            93.2078         estimate D2E/DX2                !
 ! D19   D(1,2,4,5)           -114.9256         estimate D2E/DX2                !
 ! D20   D(1,2,4,15)            -0.5155         estimate D2E/DX2                !
 ! D21   D(1,2,4,16)           130.6586         estimate D2E/DX2                !
 ! D22   D(3,2,4,5)            121.4617         estimate D2E/DX2                !
 ! D23   D(3,2,4,15)          -124.1282         estimate D2E/DX2                !
 ! D24   D(3,2,4,16)             7.0459         estimate D2E/DX2                !
 ! D25   D(7,2,4,5)              2.7261         estimate D2E/DX2                !
 ! D26   D(7,2,4,15)           117.1361         estimate D2E/DX2                !
 ! D27   D(7,2,4,16)          -111.6897         estimate D2E/DX2                !
 ! D28   D(1,2,7,6)            116.638          estimate D2E/DX2                !
 ! D29   D(1,2,7,8)            -62.9717         estimate D2E/DX2                !
 ! D30   D(3,2,7,6)           -121.4051         estimate D2E/DX2                !
 ! D31   D(3,2,7,8)             58.9852         estimate D2E/DX2                !
 ! D32   D(4,2,7,6)             -1.9403         estimate D2E/DX2                !
 ! D33   D(4,2,7,8)            178.4499         estimate D2E/DX2                !
 ! D34   D(2,4,5,6)             -2.6121         estimate D2E/DX2                !
 ! D35   D(2,4,5,17)           110.8426         estimate D2E/DX2                !
 ! D36   D(2,4,5,18)          -116.0565         estimate D2E/DX2                !
 ! D37   D(15,4,5,6)          -117.3723         estimate D2E/DX2                !
 ! D38   D(15,4,5,17)           -3.9177         estimate D2E/DX2                !
 ! D39   D(15,4,5,18)          129.1832         estimate D2E/DX2                !
 ! D40   D(16,4,5,6)           112.1537         estimate D2E/DX2                !
 ! D41   D(16,4,5,17)         -134.3916         estimate D2E/DX2                !
 ! D42   D(16,4,5,18)           -1.2907         estimate D2E/DX2                !
 ! D43   D(4,5,6,7)              1.6443         estimate D2E/DX2                !
 ! D44   D(4,5,6,19)          -178.3588         estimate D2E/DX2                !
 ! D45   D(17,5,6,7)          -113.4564         estimate D2E/DX2                !
 ! D46   D(17,5,6,19)           66.5406         estimate D2E/DX2                !
 ! D47   D(18,5,6,7)           116.7329         estimate D2E/DX2                !
 ! D48   D(18,5,6,19)          -63.2701         estimate D2E/DX2                !
 ! D49   D(5,6,7,2)              0.222          estimate D2E/DX2                !
 ! D50   D(5,6,7,8)            179.8426         estimate D2E/DX2                !
 ! D51   D(19,6,7,2)          -179.7753         estimate D2E/DX2                !
 ! D52   D(19,6,7,8)            -0.1546         estimate D2E/DX2                !
 ! D53   D(2,7,8,20)            31.0733         estimate D2E/DX2                !
 ! D54   D(6,7,8,20)          -148.5153         estimate D2E/DX2                !
 --------------------------------------------------------------------------------
 Trust Radius=3.00D-01 FncErr=1.00D-07 GrdErr=1.00D-06 EigMax=2.50D+02 EigMin=1.00D-04
 Number of steps in this run=    120 maximum allowed number of steps=    120.
 GradGradGradGradGradGradGradGradGradGradGradGradGradGradGradGradGradGrad

 Leave Link  103 at Sun Oct 13 23:48:58 2019, MaxMem= 10737418240 cpu:               1.1 elap:               0.1
 (Enter /apps/cent7/gaussian/g16-A.03/g16-haswell/g16/l202.exe)
                          Input orientation:                          
 ---------------------------------------------------------------------
 Center     Atomic      Atomic             Coordinates (Angstroms)
 Number     Number       Type             X           Y           Z
 ---------------------------------------------------------------------
      1          6           0       -0.436400   -1.951900   -1.335400
      2          6           0       -0.733800   -1.158300   -0.023300
      3          6           0       -0.410300   -2.041600    1.223500
      4          6           0       -2.208600   -0.633700    0.002900
      5          6           0       -2.083200    0.901300   -0.030000
      6          6           0       -0.671200    1.106500   -0.005400
      7          7           0        0.013400    0.026200    0.000300
      8          8           0        1.289100    0.056000    0.018700
      9          1           0       -0.482600   -3.021700   -1.131400
     10          1           0       -1.177400   -1.694000   -2.092000
     11          1           0        0.558500   -1.694000   -1.698500
     12          1           0       -0.481000   -3.094600    0.951000
     13          1           0        0.599400   -1.823400    1.571300
     14          1           0       -1.123500   -1.823400    2.018400
     15          1           0       -2.692400   -0.942800   -0.923700
     16          1           0       -2.645900   -0.906200    0.963400
     17          1           0       -2.442400    1.271100   -0.990400
     18          1           0       -2.481500    1.314600    0.896700
     19          1           0       -0.134500    2.055100    0.008500
     20          1           0        1.633818   -0.706360   -0.452019
 ---------------------------------------------------------------------
                    Distance matrix (angstroms):
                    1          2          3          4          5
     1  C    0.000000
     2  C    1.562003   0.000000
     3  C    2.560605   1.561852   0.000000
     4  C    2.582516   1.565544   2.589581   0.000000
     5  C    3.543553   2.462291   3.609781   1.540465   0.000000
     6  C    3.343328   2.265736   3.389513   2.322060   1.427045
     7  N    2.428846   1.400680   2.439577   2.317921   2.272102
     8  O    2.973651   2.359748   2.956253   3.565086   3.476969
     9  H    1.090056   2.182486   2.551740   3.157255   4.377777
    10  H    1.089971   2.182493   3.420791   2.564413   3.436262
    11  H    1.090037   2.182501   3.097981   3.416993   4.061780
    12  H    2.556438   2.182298   1.089983   3.152701   4.415498
    13  H    3.088414   2.182322   1.089986   3.429304   4.145418
    14  H    3.425871   2.182376   1.090014   2.579742   3.541321
    15  H    2.505457   2.166397   3.320513   1.090043   2.137880
    16  H    3.355572   2.166393   2.520852   1.089976   2.137880
    17  H    3.811927   3.123553   4.472669   2.160919   1.090021
    18  H    4.453620   3.164821   3.957366   2.160839   1.090061
    19  H    4.237129   3.268962   4.281967   3.395816   2.264988
    20  H    2.572457   2.448197   2.961191   3.869937   4.071719
                    6          7          8          9         10
     6  C    0.000000
     7  N    1.278967   0.000000
     8  O    2.224164   1.276181   0.000000
     9  H    4.283163   3.288838   3.732812   0.000000
    10  H    3.528872   2.958853   3.687977   1.779968   0.000000
    11  H    3.495933   2.478335   2.558330   1.779966   1.779941
    12  H    4.312785   3.299645   3.732120   2.083676   3.421477
    13  H    3.561562   2.496489   2.533456   3.148211   4.073516
    14  H    3.589520   2.964168   3.653982   3.430440   4.112790
    15  H    3.021284   3.018955   4.211658   3.041082   2.055347
    16  H    2.981438   2.978054   4.159629   3.680135   3.480315
    17  H    2.033339   2.926126   4.052017   4.721105   3.406694
    18  H    2.033292   2.947547   4.070919   5.187706   4.436742
    19  H    1.089992   2.034300   2.454209   5.214829   4.422159
    20  H    2.966318   1.834937   0.960000   3.209608   3.401164
                   11         12         13         14         15
    11  H    0.000000
    12  H    3.172080   0.000000
    13  H    3.272615   1.779884   0.000000
    14  H    4.081815   1.779915   1.779967   0.000000
    15  H    3.425342   3.610406   4.223320   3.448602   0.000000
    16  H    4.239637   3.078318   3.426773   2.066877   1.888028
    17  H    4.277689   5.164829   5.038927   4.513126   2.228969
    18  H    5.002833   4.842106   4.449053   3.598530   2.907609
    19  H    4.177302   5.246692   4.245435   4.478904   4.049599
    20  H    1.919755   3.484912   2.532118   3.866982   4.358274
                   16         17         18         19         20
    16  H    0.000000
    17  H    2.932470   0.000000
    18  H    2.227875   1.888006   0.000000
    19  H    3.998532   2.634172   2.616419   0.000000
    20  H    4.512132   4.562429   4.779034   3.311297   0.000000
 Stoichiometry    C6H12NO(1+)
 Framework group  C1[X(C6H12NO)]
 Deg. of freedom    54
 Full point group                 C1      NOp   1
 Largest Abelian subgroup         C1      NOp   1
 Largest concise Abelian subgroup C1      NOp   1
                         Standard orientation:                         
 ---------------------------------------------------------------------
 Center     Atomic      Atomic             Coordinates (Angstroms)
 Number     Number       Type             X           Y           Z
 ---------------------------------------------------------------------
      1          6           0       -1.315937   -0.600795    1.300195
      2          6           0       -0.478064   -0.427374   -0.006613
      3          6           0       -1.388315   -0.631973   -1.259197
      4          6           0        0.757370   -1.388817   -0.022608
      5          6           0        1.983929   -0.457670    0.016776
      6          6           0        1.397919    0.843131   -0.014301
      7          7           0        0.119038    0.839468   -0.028633
      8          8           0       -0.541615    1.931050   -0.053609
      9          1           0       -2.191700   -1.215363    1.091464
     10          1           0       -0.705193   -1.085427    2.061877
     11          1           0       -1.635872    0.377419    1.659249
     12          1           0       -2.239958   -1.257243   -0.991232
     13          1           0       -1.744877    0.335997   -1.611288
     14          1           0       -0.815510   -1.117516   -2.049307
     15          1           0        0.750623   -1.961135    0.905077
     16          1           0        0.769227   -1.905902   -0.982051
     17          1           0        2.482362   -0.559829    0.980764
     18          1           0        2.552807   -0.573060   -0.905881
     19          1           0        1.909241    1.805670   -0.026611
     20          1           0       -1.372907    1.812695    0.411735
 ---------------------------------------------------------------------
 Rotational constants (GHZ):           2.5979059           2.2491244           1.6803231
 Leave Link  202 at Sun Oct 13 23:48:58 2019, MaxMem= 10737418240 cpu:               0.3 elap:               0.0
 (Enter /apps/cent7/gaussian/g16-A.03/g16-haswell/g16/l301.exe)
 Standard basis: 6-311++G(d,p) (5D, 7F)
 Ernie: Thresh=  0.10000D-02 Tol=  0.10000D-05 Strict=F.
 There are   268 symmetry adapted cartesian basis functions of A   symmetry.
 There are   260 symmetry adapted basis functions of A   symmetry.
   260 basis functions,   396 primitive gaussians,   268 cartesian basis functions
    31 alpha electrons       31 beta electrons
       nuclear repulsion energy       422.4959104036 Hartrees.
 IExCor= 4336 DFT=T Ex+Corr=M062X ExCW=0 ScaHFX=  0.540000
 ScaDFX=  1.000000  1.000000  1.000000  1.000000 ScalE2=  1.000000  1.000000
 IRadAn=      5 IRanWt=     -1 IRanGd=            0 ICorTp=0 IEmpDi=  4
 NAtoms=   20 NActive=   20 NUniq=   20 SFac= 1.00D+00 NAtFMM=   60 NAOKFM=F Big=F
 Integral buffers will be    131072 words long.
 Raffenetti 2 integral format.
 Two-electron integral symmetry is turned on.
 Leave Link  301 at Sun Oct 13 23:48:58 2019, MaxMem= 10737418240 cpu:               1.3 elap:               0.1
 (Enter /apps/cent7/gaussian/g16-A.03/g16-haswell/g16/l302.exe)
 NPDir=0 NMtPBC=     1 NCelOv=     1 NCel=       1 NClECP=     1 NCelD=      1
         NCelK=      1 NCelE2=     1 NClLst=     1 CellRange=     0.0.
 One-electron integrals computed using PRISM.
 One-electron integral symmetry used in STVInt
 NBasis=   260 RedAO= T EigKep=  3.65D-06  NBF=   260
 NBsUse=   260 1.00D-06 EigRej= -1.00D+00 NBFU=   260
 Precomputing XC quadrature grid using
 IXCGrd= 4 IRadAn=           5 IRanWt=          -1 IRanGd=           0 AccXCQ= 0.00D+00.
 Generated NRdTot=       0 NPtTot=           0 NUsed=           0 NTot=          32
 NSgBfM=   268   268   268   268   268 MxSgAt=    20 MxSgA2=    20.
 Leave Link  302 at Sun Oct 13 23:48:58 2019, MaxMem= 10737418240 cpu:               4.8 elap:               0.2
 (Enter /apps/cent7/gaussian/g16-A.03/g16-haswell/g16/l303.exe)
 DipDrv:  MaxL=1.
 Leave Link  303 at Sun Oct 13 23:48:58 2019, MaxMem= 10737418240 cpu:               0.9 elap:               0.1
 (Enter /apps/cent7/gaussian/g16-A.03/g16-haswell/g16/l401.exe)
 ExpMin= 3.60D-02 ExpMax= 8.59D+03 ExpMxC= 1.30D+03 IAcc=3 IRadAn=         5 AccDes= 0.00D+00
 Harris functional with IExCor= 1009 and IRadAn=       5 diagonalized for initial guess.
 HarFok:  IExCor= 1009 AccDes= 0.00D+00 IRadAn=         5 IDoV= 1 UseB2=F ITyADJ=14
 ICtDFT=  3500011 ScaDFX=  1.000000  1.000000  1.000000  1.000000
 FoFCou: FMM=F IPFlag=           0 FMFlag=      100000 FMFlg1=           0
         NFxFlg=           0 DoJE=T BraDBF=F KetDBF=T FulRan=T
         wScrn=  0.000000 ICntrl=       500 IOpCl=  0 I1Cent=   200000004 NGrid=           0
         NMat0=    1 NMatS0=      1 NMatT0=    0 NMatD0=    1 NMtDS0=    0 NMtDT0=    0
 Petite list used in FoFCou.
 Harris En= -365.351868642362    
 JPrj=0 DoOrth=F DoCkMO=F.
 Leave Link  401 at Sun Oct 13 23:48:59 2019, MaxMem= 10737418240 cpu:              11.0 elap:               0.5
 (Enter /apps/cent7/gaussian/g16-A.03/g16-haswell/g16/l502.exe)
 Integral symmetry usage will be decided dynamically.
 Closed shell SCF:
 Using DIIS extrapolation, IDIIS=  1040.
 NGot= 10737418240 LenX= 10737265392 LenY= 10737193127
 Requested convergence on RMS density matrix=1.00D-08 within 128 cycles.
 Requested convergence on MAX density matrix=1.00D-06.
 Requested convergence on             energy=1.00D-06.
 No special actions if energy rises.
 Fock matrices will be formed incrementally for  20 cycles.

 Cycle   1  Pass 1  IDiag  1:
 FoFJK:  IHMeth= 1 ICntrl=       0 DoSepK=F KAlg= 0 I1Cent=           0 FoldK=F
 IRaf= 990000000 NMat=       1 IRICut=       1 DoRegI=T DoRafI=F ISym2E= 0 IDoP0=0 IntGTp=1.
 FoFCou: FMM=F IPFlag=           0 FMFlag=      100000 FMFlg1=           0
         NFxFlg=           0 DoJE=F BraDBF=F KetDBF=F FulRan=T
         wScrn=  0.000000 ICntrl=         0 IOpCl=  0 I1Cent=           0 NGrid=           0
         NMat0=    1 NMatS0=      1 NMatT0=    0 NMatD0=    1 NMtDS0=    0 NMtDT0=    0
 Symmetry not used in FoFCou.
 E= -365.193132923506    
 DIIS: error= 2.58D-02 at cycle   1 NSaved=   1.
 NSaved= 1 IEnMin= 1 EnMin= -365.193132923506     IErMin= 1 ErrMin= 2.58D-02
 ErrMax= 2.58D-02  0.00D+00 EMaxC= 1.00D-01 BMatC= 3.21D-01 BMatP= 3.21D-01
 IDIUse=3 WtCom= 7.42D-01 WtEn= 2.58D-01
 Coeff-Com:  0.100D+01
 Coeff-En:   0.100D+01
 Coeff:      0.100D+01
 Gap=     0.338 Goal=   None    Shift=    0.000
 GapD=    0.338 DampG=1.000 DampE=0.500 DampFc=0.5000 IDamp=-1.
 Damping current iteration by 5.00D-01
 RMSDP=1.29D-02 MaxDP=7.26D-01              OVMax= 1.56D-01

 Cycle   2  Pass 1  IDiag  1:
 RMSU=  6.11D-03    CP:  1.09D+00
 E= -365.316370494481     Delta-E=       -0.123237570975 Rises=F Damp=T
 DIIS: error= 7.37D-03 at cycle   2 NSaved=   2.
 NSaved= 2 IEnMin= 2 EnMin= -365.316370494481     IErMin= 2 ErrMin= 7.37D-03
 ErrMax= 7.37D-03  0.00D+00 EMaxC= 1.00D-01 BMatC= 2.68D-02 BMatP= 3.21D-01
 IDIUse=3 WtCom= 9.26D-01 WtEn= 7.37D-02
 Coeff-Com: -0.703D-01 0.107D+01
 Coeff-En:   0.000D+00 0.100D+01
 Coeff:     -0.651D-01 0.107D+01
 Gap=     0.377 Goal=   None    Shift=    0.000
 RMSDP=3.89D-03 MaxDP=2.57D-01 DE=-1.23D-01 OVMax= 1.15D-01

 Cycle   3  Pass 1  IDiag  1:
 RMSU=  2.97D-03    CP:  1.09D+00  1.41D+00
 E= -365.432517596586     Delta-E=       -0.116147102105 Rises=F Damp=F
 DIIS: error= 8.17D-03 at cycle   3 NSaved=   3.
 NSaved= 3 IEnMin= 3 EnMin= -365.432517596586     IErMin= 2 ErrMin= 7.37D-03
 ErrMax= 8.17D-03  0.00D+00 EMaxC= 1.00D-01 BMatC= 1.12D-02 BMatP= 2.68D-02
 IDIUse=3 WtCom= 9.18D-01 WtEn= 8.17D-02
 Coeff-Com: -0.892D-01 0.432D+00 0.658D+00
 Coeff-En:   0.000D+00 0.000D+00 0.100D+01
 Coeff:     -0.819D-01 0.396D+00 0.686D+00
 Gap=     0.332 Goal=   None    Shift=    0.000
 RMSDP=7.69D-04 MaxDP=2.41D-02 DE=-1.16D-01 OVMax= 4.75D-02

 Cycle   4  Pass 1  IDiag  1:
 RMSU=  7.10D-04    CP:  1.09D+00  1.45D+00  9.37D-01
 E= -365.439171901482     Delta-E=       -0.006654304897 Rises=F Damp=F
 DIIS: error= 3.67D-03 at cycle   4 NSaved=   4.
 NSaved= 4 IEnMin= 4 EnMin= -365.439171901482     IErMin= 4 ErrMin= 3.67D-03
 ErrMax= 3.67D-03  0.00D+00 EMaxC= 1.00D-01 BMatC= 2.78D-03 BMatP= 1.12D-02
 IDIUse=3 WtCom= 9.63D-01 WtEn= 3.67D-02
 Coeff-Com: -0.303D-01 0.840D-01 0.370D+00 0.576D+00
 Coeff-En:   0.000D+00 0.000D+00 0.204D+00 0.796D+00
 Coeff:     -0.291D-01 0.809D-01 0.364D+00 0.584D+00
 Gap=     0.328 Goal=   None    Shift=    0.000
 RMSDP=4.61D-04 MaxDP=3.09D-02 DE=-6.65D-03 OVMax= 1.63D-02

 Cycle   5  Pass 1  IDiag  1:
 RMSU=  2.41D-04    CP:  1.08D+00  1.43D+00  9.82D-01  6.92D-01
 E= -365.441447006083     Delta-E=       -0.002275104600 Rises=F Damp=F
 DIIS: error= 4.69D-04 at cycle   5 NSaved=   5.
 NSaved= 5 IEnMin= 5 EnMin= -365.441447006083     IErMin= 5 ErrMin= 4.69D-04
 ErrMax= 4.69D-04  0.00D+00 EMaxC= 1.00D-01 BMatC= 3.04D-05 BMatP= 2.78D-03
 IDIUse=3 WtCom= 9.95D-01 WtEn= 4.69D-03
 Coeff-Com: -0.564D-02 0.104D-01 0.968D-01 0.189D+00 0.710D+00
 Coeff-En:   0.000D+00 0.000D+00 0.000D+00 0.000D+00 0.100D+01
 Coeff:     -0.561D-02 0.103D-01 0.964D-01 0.188D+00 0.711D+00
 Gap=     0.331 Goal=   None    Shift=    0.000
 RMSDP=9.87D-05 MaxDP=8.44D-03 DE=-2.28D-03 OVMax= 2.95D-03

 Cycle   6  Pass 1  IDiag  1:
 RMSU=  6.49D-05    CP:  1.08D+00  1.43D+00  9.84D-01  7.19D-01  8.20D-01
 E= -365.441475228531     Delta-E=       -0.000028222448 Rises=F Damp=F
 DIIS: error= 1.23D-04 at cycle   6 NSaved=   6.
 NSaved= 6 IEnMin= 6 EnMin= -365.441475228531     IErMin= 6 ErrMin= 1.23D-04
 ErrMax= 1.23D-04  0.00D+00 EMaxC= 1.00D-01 BMatC= 5.50D-06 BMatP= 3.04D-05
 IDIUse=3 WtCom= 9.99D-01 WtEn= 1.23D-03
 Coeff-Com:  0.622D-03-0.351D-02 0.901D-02 0.213D-01 0.307D+00 0.665D+00
 Coeff-En:   0.000D+00 0.000D+00 0.000D+00 0.000D+00 0.000D+00 0.100D+01
 Coeff:      0.621D-03-0.350D-02 0.900D-02 0.213D-01 0.307D+00 0.666D+00
 Gap=     0.330 Goal=   None    Shift=    0.000
 RMSDP=4.36D-05 MaxDP=2.76D-03 DE=-2.82D-05 OVMax= 3.64D-04

 Cycle   7  Pass 1  IDiag  1:
 RMSU=  2.88D-05    CP:  1.08D+00  1.44D+00  9.89D-01  7.16D-01  8.52D-01
                    CP:  9.29D-01
 E= -365.441480135475     Delta-E=       -0.000004906944 Rises=F Damp=F
 DIIS: error= 2.71D-05 at cycle   7 NSaved=   7.
 NSaved= 7 IEnMin= 7 EnMin= -365.441480135475     IErMin= 7 ErrMin= 2.71D-05
 ErrMax= 2.71D-05  0.00D+00 EMaxC= 1.00D-01 BMatC= 3.16D-07 BMatP= 5.50D-06
 IDIUse=1 WtCom= 1.00D+00 WtEn= 0.00D+00
 Coeff-Com:  0.992D-03-0.237D-02-0.895D-02-0.211D-01-0.245D-02 0.114D+00
 Coeff-Com:  0.920D+00
 Coeff:      0.992D-03-0.237D-02-0.895D-02-0.211D-01-0.245D-02 0.114D+00
 Coeff:      0.920D+00
 Gap=     0.330 Goal=   None    Shift=    0.000
 RMSDP=1.71D-05 MaxDP=1.32D-03 DE=-4.91D-06 OVMax= 2.56D-04

 Cycle   8  Pass 1  IDiag  1:
 RMSU=  7.25D-06    CP:  1.08D+00  1.43D+00  9.90D-01  7.18D-01  8.79D-01
                    CP:  9.23D-01  1.03D+00
 E= -365.441480459741     Delta-E=       -0.000000324266 Rises=F Damp=F
 DIIS: error= 1.86D-05 at cycle   8 NSaved=   8.
 NSaved= 8 IEnMin= 8 EnMin= -365.441480459741     IErMin= 8 ErrMin= 1.86D-05
 ErrMax= 1.86D-05  0.00D+00 EMaxC= 1.00D-01 BMatC= 8.31D-08 BMatP= 3.16D-07
 IDIUse=1 WtCom= 1.00D+00 WtEn= 0.00D+00
 Coeff-Com:  0.401D-03-0.796D-03-0.465D-02-0.123D-01-0.258D-01-0.973D-02
 Coeff-Com:  0.450D+00 0.603D+00
 Coeff:      0.401D-03-0.796D-03-0.465D-02-0.123D-01-0.258D-01-0.973D-02
 Coeff:      0.450D+00 0.603D+00
 Gap=     0.330 Goal=   None    Shift=    0.000
 RMSDP=6.11D-06 MaxDP=4.95D-04 DE=-3.24D-07 OVMax= 5.89D-05

 Cycle   9  Pass 1  IDiag  1:
 RMSU=  2.32D-06    CP:  1.08D+00  1.43D+00  9.91D-01  7.17D-01  8.77D-01
                    CP:  9.50D-01  1.11D+00  7.47D-01
 E= -365.441480525007     Delta-E=       -0.000000065266 Rises=F Damp=F
 DIIS: error= 3.14D-06 at cycle   9 NSaved=   9.
 NSaved= 9 IEnMin= 9 EnMin= -365.441480525007     IErMin= 9 ErrMin= 3.14D-06
 ErrMax= 3.14D-06  0.00D+00 EMaxC= 1.00D-01 BMatC= 3.37D-09 BMatP= 8.31D-08
 IDIUse=1 WtCom= 1.00D+00 WtEn= 0.00D+00
 Coeff-Com: -0.458D-04 0.120D-03 0.522D-03 0.458D-03-0.198D-04-0.135D-01
 Coeff-Com: -0.526D-01 0.429D-01 0.102D+01
 Coeff:     -0.458D-04 0.120D-03 0.522D-03 0.458D-03-0.198D-04-0.135D-01
 Coeff:     -0.526D-01 0.429D-01 0.102D+01
 Gap=     0.330 Goal=   None    Shift=    0.000
 RMSDP=9.95D-07 MaxDP=3.47D-05 DE=-6.53D-08 OVMax= 3.33D-05

 Cycle  10  Pass 1  IDiag  1:
 RMSU=  5.01D-07    CP:  1.08D+00  1.43D+00  9.91D-01  7.17D-01  8.78D-01
                    CP:  9.47D-01  1.13D+00  7.92D-01  1.17D+00
 E= -365.441480529438     Delta-E=       -0.000000004431 Rises=F Damp=F
 DIIS: error= 8.82D-07 at cycle  10 NSaved=  10.
 NSaved=10 IEnMin=10 EnMin= -365.441480529438     IErMin=10 ErrMin= 8.82D-07
 ErrMax= 8.82D-07  0.00D+00 EMaxC= 1.00D-01 BMatC= 3.81D-10 BMatP= 3.37D-09
 IDIUse=1 WtCom= 1.00D+00 WtEn= 0.00D+00
 Coeff-Com: -0.387D-04 0.911D-04 0.474D-03 0.840D-03 0.149D-02-0.536D-02
 Coeff-Com: -0.498D-01-0.259D-01 0.386D+00 0.692D+00
 Coeff:     -0.387D-04 0.911D-04 0.474D-03 0.840D-03 0.149D-02-0.536D-02
 Coeff:     -0.498D-01-0.259D-01 0.386D+00 0.692D+00
 Gap=     0.330 Goal=   None    Shift=    0.000
 RMSDP=4.57D-07 MaxDP=3.07D-05 DE=-4.43D-09 OVMax= 6.55D-06

 Cycle  11  Pass 1  IDiag  1:
 RMSU=  2.30D-07    CP:  1.08D+00  1.43D+00  9.91D-01  7.17D-01  8.78D-01
                    CP:  9.47D-01  1.14D+00  8.03D-01  1.19D+00  1.11D+00
 E= -365.441480529818     Delta-E=       -0.000000000381 Rises=F Damp=F
 DIIS: error= 3.08D-07 at cycle  11 NSaved=  11.
 NSaved=11 IEnMin=11 EnMin= -365.441480529818     IErMin=11 ErrMin= 3.08D-07
 ErrMax= 3.08D-07  0.00D+00 EMaxC= 1.00D-01 BMatC= 2.18D-11 BMatP= 3.81D-10
 IDIUse=1 WtCom= 1.00D+00 WtEn= 0.00D+00
 Coeff-Com: -0.235D-05 0.546D-05 0.656D-04 0.143D-03 0.484D-03 0.262D-03
 Coeff-Com: -0.583D-02-0.108D-01-0.215D-01 0.169D+00 0.868D+00
 Coeff:     -0.235D-05 0.546D-05 0.656D-04 0.143D-03 0.484D-03 0.262D-03
 Coeff:     -0.583D-02-0.108D-01-0.215D-01 0.169D+00 0.868D+00
 Gap=     0.330 Goal=   None    Shift=    0.000
 RMSDP=1.02D-07 MaxDP=3.74D-06 DE=-3.81D-10 OVMax= 2.06D-06

 Cycle  12  Pass 1  IDiag  1:
 RMSU=  5.08D-08    CP:  1.08D+00  1.43D+00  9.91D-01  7.17D-01  8.78D-01
                    CP:  9.46D-01  1.14D+00  8.06D-01  1.20D+00  1.20D+00
                    CP:  1.17D+00
 E= -365.441480529844     Delta-E=       -0.000000000026 Rises=F Damp=F
 DIIS: error= 6.77D-08 at cycle  12 NSaved=  12.
 NSaved=12 IEnMin=12 EnMin= -365.441480529844     IErMin=12 ErrMin= 6.77D-08
 ErrMax= 6.77D-08  0.00D+00 EMaxC= 1.00D-01 BMatC= 1.12D-12 BMatP= 2.18D-11
 IDIUse=1 WtCom= 1.00D+00 WtEn= 0.00D+00
 Coeff-Com:  0.255D-05-0.575D-05-0.197D-04-0.313D-04-0.443D-05 0.428D-03
 Coeff-Com:  0.221D-02-0.717D-03-0.322D-01-0.667D-02 0.217D+00 0.820D+00
 Coeff:      0.255D-05-0.575D-05-0.197D-04-0.313D-04-0.443D-05 0.428D-03
 Coeff:      0.221D-02-0.717D-03-0.322D-01-0.667D-02 0.217D+00 0.820D+00
 Gap=     0.330 Goal=   None    Shift=    0.000
 RMSDP=3.31D-08 MaxDP=2.17D-06 DE=-2.63D-11 OVMax= 4.86D-07

 Cycle  13  Pass 1  IDiag  1:
 RMSU=  1.34D-08    CP:  1.08D+00  1.43D+00  9.91D-01  7.17D-01  8.78D-01
                    CP:  9.46D-01  1.14D+00  8.06D-01  1.20D+00  1.22D+00
                    CP:  1.19D+00  1.04D+00
 E= -365.441480529846     Delta-E=       -0.000000000001 Rises=F Damp=F
 DIIS: error= 1.41D-08 at cycle  13 NSaved=  13.
 NSaved=13 IEnMin=13 EnMin= -365.441480529846     IErMin=13 ErrMin= 1.41D-08
 ErrMax= 1.41D-08  0.00D+00 EMaxC= 1.00D-01 BMatC= 5.30D-14 BMatP= 1.12D-12
 IDIUse=1 WtCom= 1.00D+00 WtEn= 0.00D+00
 Coeff-Com:  0.478D-06-0.114D-05-0.532D-05-0.104D-04-0.184D-04 0.786D-04
 Coeff-Com:  0.620D-03 0.264D-03-0.461D-02-0.879D-02-0.234D-02 0.160D+00
 Coeff-Com:  0.855D+00
 Coeff:      0.478D-06-0.114D-05-0.532D-05-0.104D-04-0.184D-04 0.786D-04
 Coeff:      0.620D-03 0.264D-03-0.461D-02-0.879D-02-0.234D-02 0.160D+00
 Coeff:      0.855D+00
 Gap=     0.330 Goal=   None    Shift=    0.000
 RMSDP=5.53D-09 MaxDP=3.23D-07 DE=-1.48D-12 OVMax= 1.01D-07

 SCF Done:  E(RM062X) =  -365.441480530     A.U. after   13 cycles
            NFock= 13  Conv=0.55D-08     -V/T= 2.0026
 KE= 3.645087229282D+02 PE=-1.683451522815D+03 EE= 5.310054089534D+02
 Leave Link  502 at Sun Oct 13 23:49:13 2019, MaxMem= 10737418240 cpu:             340.9 elap:              14.3
 (Enter /apps/cent7/gaussian/g16-A.03/g16-haswell/g16/l601.exe)
 Copying SCF densities to generalized density rwf, IOpCl= 0 IROHF=0.

 **********************************************************************

            Population analysis using the SCF density.

 **********************************************************************

 Orbital symmetries:
       Occupied  (A) (A) (A) (A) (A) (A) (A) (A) (A) (A) (A) (A)
                 (A) (A) (A) (A) (A) (A) (A) (A) (A) (A) (A) (A)
                 (A) (A) (A) (A) (A) (A) (A)
       Virtual   (A) (A) (A) (A) (A) (A) (A) (A) (A) (A) (A) (A)
                 (A) (A) (A) (A) (A) (A) (A) (A) (A) (A) (A) (A)
                 (A) (A) (A) (A) (A) (A) (A) (A) (A) (A) (A) (A)
                 (A) (A) (A) (A) (A) (A) (A) (A) (A) (A) (A) (A)
                 (A) (A) (A) (A) (A) (A) (A) (A) (A) (A) (A) (A)
                 (A) (A) (A) (A) (A) (A) (A) (A) (A) (A) (A) (A)
                 (A) (A) (A) (A) (A) (A) (A) (A) (A) (A) (A) (A)
                 (A) (A) (A) (A) (A) (A) (A) (A) (A) (A) (A) (A)
                 (A) (A) (A) (A) (A) (A) (A) (A) (A) (A) (A) (A)
                 (A) (A) (A) (A) (A) (A) (A) (A) (A) (A) (A) (A)
                 (A) (A) (A) (A) (A) (A) (A) (A) (A) (A) (A) (A)
                 (A) (A) (A) (A) (A) (A) (A) (A) (A) (A) (A) (A)
                 (A) (A) (A) (A) (A) (A) (A) (A) (A) (A) (A) (A)
                 (A) (A) (A) (A) (A) (A) (A) (A) (A) (A) (A) (A)
                 (A) (A) (A) (A) (A) (A) (A) (A) (A) (A) (A) (A)
                 (A) (A) (A) (A) (A) (A) (A) (A) (A) (A) (A) (A)
                 (A) (A) (A) (A) (A) (A) (A) (A) (A) (A) (A) (A)
                 (A) (A) (A) (A) (A) (A) (A) (A) (A) (A) (A) (A)
                 (A) (A) (A) (A) (A) (A) (A) (A) (A) (A) (A) (A)
                 (A)
 The electronic state is 1-A.
 Alpha  occ. eigenvalues --  -19.89285 -15.09282 -10.81163 -10.77831 -10.73170
 Alpha  occ. eigenvalues --  -10.72085 -10.70730 -10.69631  -1.52163  -1.27500
 Alpha  occ. eigenvalues --   -1.10380  -1.07189  -0.96345  -0.95240  -0.92944
 Alpha  occ. eigenvalues --   -0.90326  -0.80255  -0.79555  -0.75223  -0.73039
 Alpha  occ. eigenvalues --   -0.69743  -0.68301  -0.66600  -0.65920  -0.62803
 Alpha  occ. eigenvalues --   -0.62400  -0.60652  -0.60146  -0.58534  -0.56257
 Alpha  occ. eigenvalues --   -0.52655
 Alpha virt. eigenvalues --   -0.19625  -0.13965  -0.12307  -0.10677  -0.10372
 Alpha virt. eigenvalues --   -0.08625  -0.08383  -0.07951  -0.07644  -0.06875
 Alpha virt. eigenvalues --   -0.06539  -0.06215  -0.04495  -0.03791  -0.03429
 Alpha virt. eigenvalues --   -0.03364  -0.02045  -0.01782  -0.01361   0.00025
 Alpha virt. eigenvalues --    0.00111   0.00314   0.00912   0.01370   0.01796
 Alpha virt. eigenvalues --    0.02590   0.02632   0.03329   0.03870   0.04024
 Alpha virt. eigenvalues --    0.04531   0.04759   0.04880   0.05203   0.05739
 Alpha virt. eigenvalues --    0.05902   0.06781   0.07137   0.08549   0.09048
 Alpha virt. eigenvalues --    0.10023   0.10844   0.10991   0.12207   0.12529
 Alpha virt. eigenvalues --    0.12725   0.13372   0.13854   0.14822   0.16765
 Alpha virt. eigenvalues --    0.16835   0.17620   0.18272   0.19018   0.19533
 Alpha virt. eigenvalues --    0.20017   0.20178   0.21467   0.21730   0.22964
 Alpha virt. eigenvalues --    0.23230   0.25637   0.28841   0.29594   0.32375
 Alpha virt. eigenvalues --    0.33526   0.34741   0.35349   0.36183   0.39173
 Alpha virt. eigenvalues --    0.39877   0.41679   0.42485   0.43202   0.46915
 Alpha virt. eigenvalues --    0.47097   0.47987   0.49884   0.52632   0.54071
 Alpha virt. eigenvalues --    0.54577   0.54961   0.55078   0.55988   0.57374
 Alpha virt. eigenvalues --    0.58009   0.58151   0.58438   0.60099   0.60774
 Alpha virt. eigenvalues --    0.61946   0.63192   0.63442   0.65507   0.66551
 Alpha virt. eigenvalues --    0.71260   0.72646   0.80028   0.80994   0.83531
 Alpha virt. eigenvalues --    0.84278   0.89294   0.93389   0.94888   0.96237
 Alpha virt. eigenvalues --    0.98841   1.06044   1.06591   1.10019   1.13783
 Alpha virt. eigenvalues --    1.15849   1.17219   1.19015   1.22269   1.24501
 Alpha virt. eigenvalues --    1.26909   1.30232   1.31823   1.33630   1.34959
 Alpha virt. eigenvalues --    1.35468   1.38627   1.42767   1.43938   1.44741
 Alpha virt. eigenvalues --    1.45195   1.46499   1.47250   1.47614   1.47821
 Alpha virt. eigenvalues --    1.49645   1.51179   1.53098   1.56600   1.59222
 Alpha virt. eigenvalues --    1.59805   1.61520   1.62998   1.66266   1.67716
 Alpha virt. eigenvalues --    1.68286   1.69031   1.70268   1.72125   1.73868
 Alpha virt. eigenvalues --    1.76457   1.78478   1.82973   1.84488   1.89984
 Alpha virt. eigenvalues --    1.93187   1.93463   1.94352   1.97442   1.99313
 Alpha virt. eigenvalues --    2.01620   2.05132   2.07183   2.10342   2.11789
 Alpha virt. eigenvalues --    2.16170   2.18154   2.19058   2.19934   2.23274
 Alpha virt. eigenvalues --    2.34952   2.37039   2.37760   2.38558   2.39296
 Alpha virt. eigenvalues --    2.39548   2.40894   2.42841   2.45066   2.46526
 Alpha virt. eigenvalues --    2.48582   2.49626   2.52799   2.54214   2.55451
 Alpha virt. eigenvalues --    2.55944   2.57651   2.60121   2.61818   2.62805
 Alpha virt. eigenvalues --    2.67326   2.72198   2.73423   2.79431   2.80194
 Alpha virt. eigenvalues --    2.84960   2.88118   2.92965   2.96203   3.01373
 Alpha virt. eigenvalues --    3.03656   3.04029   3.12603   3.19399   3.26711
 Alpha virt. eigenvalues --    3.31713   3.41527   3.54762   3.58849   3.64621
 Alpha virt. eigenvalues --    3.66354   3.68940   3.71885   3.73531   3.78336
 Alpha virt. eigenvalues --    3.82054   3.92255   3.95217   4.12576   4.19512
 Alpha virt. eigenvalues --    4.23994   4.54787   4.89224   4.95327   5.37573
 Alpha virt. eigenvalues --    5.89612  23.68490  23.79247  23.84135  23.89058
 Alpha virt. eigenvalues --   23.90113  23.93179  35.42832  49.85325
          Condensed to atoms (all electrons):
               1          2          3          4          5          6
     1  C    6.578120  -0.194804  -0.147904  -1.050053   0.462334  -0.412638
     2  C   -0.194804  10.053542  -0.001561  -2.464789   1.792734  -2.132145
     3  C   -0.147904  -0.001561   5.924590  -0.350731   0.189827  -0.201554
     4  C   -1.050053  -2.464789  -0.350731   9.459047  -2.391850   2.418383
     5  C    0.462334   1.792734   0.189827  -2.391850   7.908531  -2.247218
     6  C   -0.412638  -2.132145  -0.201554   2.418383  -2.247218   8.449588
     7  N    0.191540  -0.391107  -0.047770  -0.270859   0.246947  -0.423340
     8  O   -0.176479   0.125342  -0.035316   0.114375  -0.008255  -0.061993
     9  H    0.452329  -0.077215  -0.030114   0.011417   0.005394  -0.004147
    10  H    0.377648   0.070808   0.054662  -0.131362   0.050636  -0.057537
    11  H    0.404084  -0.211833  -0.004023   0.057130  -0.053063   0.066485
    12  H   -0.033596  -0.117344   0.459737   0.020617  -0.000622   0.000970
    13  H   -0.086263   0.043321   0.330637   0.095114  -0.027855   0.027300
    14  H    0.087415   0.094781   0.330734  -0.151320   0.056266  -0.051934
    15  H    0.016529  -0.029494  -0.016008   0.391467   0.008402  -0.051615
    16  H   -0.044985  -0.054172   0.023687   0.454621  -0.014132  -0.040458
    17  H   -0.023550  -0.003383   0.009837  -0.012269   0.451199  -0.118482
    18  H    0.015905  -0.022927  -0.015626  -0.016344   0.435169  -0.093789
    19  H   -0.003779  -0.061326  -0.002055   0.072845  -0.139537   0.557311
    20  H    0.053768  -0.154072  -0.015668   0.019811  -0.038292   0.083252
               7          8          9         10         11         12
     1  C    0.191540  -0.176479   0.452329   0.377648   0.404084  -0.033596
     2  C   -0.391107   0.125342  -0.077215   0.070808  -0.211833  -0.117344
     3  C   -0.047770  -0.035316  -0.030114   0.054662  -0.004023   0.459737
     4  C   -0.270859   0.114375   0.011417  -0.131362   0.057130   0.020617
     5  C    0.246947  -0.008255   0.005394   0.050636  -0.053063  -0.000622
     6  C   -0.423340  -0.061993  -0.004147  -0.057537   0.066485   0.000970
     7  N    7.405894   0.144648   0.009348  -0.013288   0.108406   0.026257
     8  O    0.144648   7.529790   0.005822  -0.000155  -0.052053   0.000004
     9  H    0.009348   0.005822   0.489310  -0.032233  -0.039271   0.002085
    10  H   -0.013288  -0.000155  -0.032233   0.511503  -0.018692   0.007068
    11  H    0.108406  -0.052053  -0.039271  -0.018692   0.577625   0.002898
    12  H    0.026257   0.000004   0.002085   0.007068   0.002898   0.505326
    13  H   -0.043761   0.047453   0.004025  -0.004099  -0.006447  -0.028511
    14  H    0.004406  -0.013002   0.005462  -0.005111  -0.000042  -0.034728
    15  H    0.009890   0.002260  -0.002972  -0.009171   0.003830  -0.004964
    16  H    0.002751   0.004697  -0.004286   0.002411   0.001684  -0.001063
    17  H    0.023497   0.003009   0.000550   0.000628   0.000774   0.000616
    18  H    0.029891  -0.002161   0.000096  -0.003092   0.000992   0.000323
    19  H   -0.093632  -0.008713   0.000049  -0.000316   0.001830   0.000256
    20  H    0.038294   0.249585  -0.001526   0.000000   0.027992   0.000697
              13         14         15         16         17         18
     1  C   -0.086263   0.087415   0.016529  -0.044985  -0.023550   0.015905
     2  C    0.043321   0.094781  -0.029494  -0.054172  -0.003383  -0.022927
     3  C    0.330637   0.330734  -0.016008   0.023687   0.009837  -0.015626
     4  C    0.095114  -0.151320   0.391467   0.454621  -0.012269  -0.016344
     5  C   -0.027855   0.056266   0.008402  -0.014132   0.451199   0.435169
     6  C    0.027300  -0.051934  -0.051615  -0.040458  -0.118482  -0.093789
     7  N   -0.043761   0.004406   0.009890   0.002751   0.023497   0.029891
     8  O    0.047453  -0.013002   0.002260   0.004697   0.003009  -0.002161
     9  H    0.004025   0.005462  -0.002972  -0.004286   0.000550   0.000096
    10  H   -0.004099  -0.005111  -0.009171   0.002411   0.000628  -0.003092
    11  H   -0.006447  -0.000042   0.003830   0.001684   0.000774   0.000992
    12  H   -0.028511  -0.034728  -0.004964  -0.001063   0.000616   0.000323
    13  H    0.507360  -0.032807   0.002499   0.005532   0.001045  -0.000152
    14  H   -0.032807   0.530688   0.004511  -0.010326  -0.003564   0.003253
    15  H    0.002499   0.004511   0.429673   0.028489   0.001817   0.000593
    16  H    0.005532  -0.010326   0.028489   0.423837   0.000143  -0.000984
    17  H    0.001045  -0.003564   0.001817   0.000143   0.399908   0.020232
    18  H   -0.000152   0.003253   0.000593  -0.000984   0.020232   0.398352
    19  H   -0.001014  -0.000746  -0.003074  -0.002698  -0.005380  -0.005754
    20  H   -0.017430   0.001158  -0.000138  -0.001102  -0.001509   0.000629
              19         20
     1  C   -0.003779   0.053768
     2  C   -0.061326  -0.154072
     3  C   -0.002055  -0.015668
     4  C    0.072845   0.019811
     5  C   -0.139537  -0.038292
     6  C    0.557311   0.083252
     7  N   -0.093632   0.038294
     8  O   -0.008713   0.249585
     9  H    0.000049  -0.001526
    10  H   -0.000316   0.000000
    11  H    0.001830   0.027992
    12  H    0.000256   0.000697
    13  H   -0.001014  -0.017430
    14  H   -0.000746   0.001158
    15  H   -0.003074  -0.000138
    16  H   -0.002698  -0.001102
    17  H   -0.005380  -0.001509
    18  H   -0.005754   0.000629
    19  H    0.367268   0.004135
    20  H    0.004135   0.448511
 Mulliken charges:
               1
     1  C   -0.465622
     2  C   -0.264356
     3  C   -0.455383
     4  C   -0.275253
     5  C   -0.686616
     6  C    0.293562
     7  N    0.041988
     8  O    0.131143
     9  H    0.205875
    10  H    0.199690
    11  H    0.131694
    12  H    0.193975
    13  H    0.184054
    14  H    0.184906
    15  H    0.217476
    16  H    0.226353
    17  H    0.254882
    18  H    0.255394
    19  H    0.324332
    20  H    0.301904
 Sum of Mulliken charges =   1.00000
 Mulliken charges with hydrogens summed into heavy atoms:
               1
     1  C    0.071638
     2  C   -0.264356
     3  C    0.107552
     4  C    0.168577
     5  C   -0.176340
     6  C    0.617894
     7  N    0.041988
     8  O    0.433047
 Electronic spatial extent (au):  <R**2>=            865.7056
 Charge=              1.0000 electrons
 Dipole moment (field-independent basis, Debye):
    X=              0.9604    Y=              0.3132    Z=              0.7849  Tot=              1.2793
 Quadrupole moment (field-independent basis, Debye-Ang):
   XX=            -32.7576   YY=            -41.4816   ZZ=            -43.3120
   XY=             -0.0194   XZ=             -1.3612   YZ=              1.3983
 Traceless Quadrupole moment (field-independent basis, Debye-Ang):
   XX=              6.4261   YY=             -2.2978   ZZ=             -4.1282
   XY=             -0.0194   XZ=             -1.3612   YZ=              1.3983
 Octapole moment (field-independent basis, Debye-Ang**2):
  XXX=              4.4211  YYY=             10.9917  ZZZ=              0.2281  XYY=             -1.2914
  XXY=              9.1678  XXZ=              1.4959  XZZ=              0.3456  YZZ=             -1.9178
  YYZ=              3.3362  XYZ=             -2.4519
 Hexadecapole moment (field-independent basis, Debye-Ang**3):
 XXXX=           -454.4576 YYYY=           -372.2885 ZZZZ=           -219.5773 XXXY=              1.9582
 XXXZ=             -3.8683 YYYX=             -3.4664 YYYZ=              5.4637 ZZZX=             -0.0744
 ZZZY=              0.3422 XXYY=           -114.9878 XXZZ=           -110.1410 YYZZ=            -92.2525
 XXYZ=              2.8515 YYXZ=             -5.6014 ZZXY=             -5.8312
 N-N= 4.224959104036D+02 E-N=-1.683451521042D+03  KE= 3.645087229282D+02
 No NMR shielding tensors so no spin-rotation constants.
 Leave Link  601 at Sun Oct 13 23:49:13 2019, MaxMem= 10737418240 cpu:               2.6 elap:               0.1
 (Enter /apps/cent7/gaussian/g16-A.03/g16-haswell/g16/l701.exe)
 ... and contract with generalized density number  0.
 Compute integral first derivatives.
 Leave Link  701 at Sun Oct 13 23:49:13 2019, MaxMem= 10737418240 cpu:               4.8 elap:               0.2
 (Enter /apps/cent7/gaussian/g16-A.03/g16-haswell/g16/l702.exe)
 L702 exits ... SP integral derivatives will be done elsewhere.
 Leave Link  702 at Sun Oct 13 23:49:13 2019, MaxMem= 10737418240 cpu:               0.5 elap:               0.0
 (Enter /apps/cent7/gaussian/g16-A.03/g16-haswell/g16/l703.exe)
 Integral derivatives from FoFJK, PRISM(SPDF).
 Compute integral first derivatives, UseDBF=F ICtDFT=           0.
 Calling FoFJK, ICntrl=      2127 FMM=F ISym2X=0 I1Cent= 0 IOpClX= 0 NMat=1 NMatS=1 NMatT=0.
 FoFJK:  IHMeth= 1 ICntrl=    2127 DoSepK=F KAlg= 0 I1Cent=           0 FoldK=F
 IRaf=         0 NMat=       1 IRICut=       1 DoRegI=T DoRafI=F ISym2E= 0 IDoP0=0 IntGTp=1.
 FoFCou: FMM=F IPFlag=           0 FMFlag=      100000 FMFlg1=         800
         NFxFlg=           0 DoJE=F BraDBF=F KetDBF=F FulRan=T
         wScrn=  0.000000 ICntrl=      2127 IOpCl=  0 I1Cent=           0 NGrid=           0
         NMat0=    1 NMatS0=      1 NMatT0=    0 NMatD0=    1 NMtDS0=    0 NMtDT0=    0
 Symmetry not used in FoFCou.
 Leave Link  703 at Sun Oct 13 23:49:16 2019, MaxMem= 10737418240 cpu:              57.0 elap:               2.4
 (Enter /apps/cent7/gaussian/g16-A.03/g16-haswell/g16/l716.exe)
 Dipole        = 3.77852807D-01 1.23222307D-01 3.08796252D-01
 ***** Axes restored to original set *****
 -------------------------------------------------------------------
 Center     Atomic                   Forces (Hartrees/Bohr)
 Number     Number              X              Y              Z
 -------------------------------------------------------------------
      1        6          -0.000774414    0.008921863    0.010644519
      2        6          -0.036735181   -0.072736137    0.000505193
      3        6           0.000727723    0.010011634   -0.007971074
      4        6           0.018294510    0.002474334   -0.001101648
      5        6          -0.014568492   -0.015843345    0.003854579
      6        6           0.042123587    0.021081144    0.001128277
      7        7          -0.050771352    0.047081477   -0.007077438
      8        8           0.071016882    0.006639104    0.010215238
      9        1           0.000662295    0.002212590   -0.003905192
     10        1           0.005054542   -0.000296579   -0.003332653
     11        1           0.001505860   -0.005645533   -0.006883904
     12        1          -0.000285361    0.001764811    0.003644930
     13        1           0.001215611   -0.004101882    0.003202671
     14        1           0.004113420   -0.000850965    0.002380156
     15        1          -0.010770425   -0.008174509    0.013488019
     16        1          -0.010673838   -0.008206534   -0.011952733
     17        1          -0.011073537    0.013463960    0.008083559
     18        1          -0.012368093    0.012402314   -0.009864164
     19        1          -0.001134153   -0.002319917   -0.000960831
     20        1           0.004440415   -0.007877830   -0.004097505
 -------------------------------------------------------------------
 Cartesian Forces:  Max     0.072736137 RMS     0.019083242
 Leave Link  716 at Sun Oct 13 23:49:16 2019, MaxMem= 10737418240 cpu:               0.6 elap:               0.0
 (Enter /apps/cent7/gaussian/g16-A.03/g16-haswell/g16/l103.exe)

 GradGradGradGradGradGradGradGradGradGradGradGradGradGradGradGradGradGrad
 Berny optimization.
 FormGI is forming the generalized inverse of G from B-inverse, IUseBI=4.
 Internal  Forces:  Max     0.075488874 RMS     0.010805590
 Search for a local minimum.
 Step number   1 out of a maximum of  120
 All quantities printed in internal units (Hartrees-Bohrs-Radians)
 RMS Force = .10806D-01 SwitMx=.10000D-02 MixMth= 1
 Mixed Optimization -- RFO/linear search
 Second derivative matrix not updated -- first step.
 ITU=  0
     Eigenvalues ---    0.00230   0.00230   0.00467   0.01680   0.02110
     Eigenvalues ---    0.02462   0.02933   0.04032   0.04157   0.04290
     Eigenvalues ---    0.05525   0.05714   0.05714   0.05715   0.05715
     Eigenvalues ---    0.05905   0.06094   0.06626   0.07613   0.07852
     Eigenvalues ---    0.08707   0.10065   0.12642   0.16000   0.16000
     Eigenvalues ---    0.16000   0.16000   0.16000   0.16000   0.16000
     Eigenvalues ---    0.16000   0.17884   0.22665   0.24999   0.25759
     Eigenvalues ---    0.26655   0.26668   0.27964   0.34806   0.34806
     Eigenvalues ---    0.34808   0.34808   0.34810   0.34811   0.34814
     Eigenvalues ---    0.34814   0.34815   0.34815   0.34816   0.38654
     Eigenvalues ---    0.43765   0.55473   0.69154   0.74267
 RFO step:  Lambda=-3.37545538D-02 EMin= 2.30000000D-03
 Linear search not attempted -- first point.
 Iteration  1 RMS(Cart)=  0.04674097 RMS(Int)=  0.00100356
 Iteration  2 RMS(Cart)=  0.00107703 RMS(Int)=  0.00033818
 Iteration  3 RMS(Cart)=  0.00000065 RMS(Int)=  0.00033818
 ITry= 1 IFail=0 DXMaxC= 1.36D-01 DCOld= 1.00D+10 DXMaxT= 3.00D-01 DXLimC= 3.00D+00 Rises=F
 Variable       Old X    -DE/DX   Delta X   Delta X   Delta X     New X
                                 (Linear)    (Quad)   (Total)
    R1        2.95176   0.00151   0.00000   0.00503   0.00503   2.95679
    R2        2.05991  -0.00293   0.00000  -0.00768  -0.00768   2.05223
    R3        2.05975  -0.00119   0.00000  -0.00312  -0.00312   2.05662
    R4        2.05987   0.00233   0.00000   0.00611   0.00611   2.06598
    R5        2.95147  -0.00166   0.00000  -0.00553  -0.00553   2.94594
    R6        2.95845   0.00473   0.00000   0.01358   0.01364   2.97209
    R7        2.64690   0.05696   0.00000   0.12411   0.12393   2.77083
    R8        2.05977  -0.00260   0.00000  -0.00680  -0.00680   2.05297
    R9        2.05978   0.00133   0.00000   0.00347   0.00347   2.06325
   R10        2.05983  -0.00113   0.00000  -0.00295  -0.00295   2.05688
   R11        2.91106   0.02372   0.00000   0.06200   0.06221   2.97327
   R12        2.05988  -0.00437   0.00000  -0.01144  -0.01144   2.04845
   R13        2.05976  -0.00420   0.00000  -0.01100  -0.01100   2.04876
   R14        2.69672   0.04118   0.00000   0.08913   0.08917   2.78590
   R15        2.05984   0.00109   0.00000   0.00287   0.00287   2.06271
   R16        2.05992   0.00084   0.00000   0.00219   0.00219   2.06210
   R17        2.41690   0.00358   0.00000   0.00852   0.00835   2.42525
   R18        2.05979  -0.00259   0.00000  -0.00678  -0.00678   2.05301
   R19        2.41163   0.07549   0.00000   0.09723   0.09723   2.50886
   R20        1.81414   0.00986   0.00000   0.01675   0.01675   1.83089
    A1        1.91065   0.00233   0.00000   0.01247   0.01216   1.92281
    A2        1.91074   0.00407   0.00000   0.02089   0.02050   1.93125
    A3        1.91069   0.01077   0.00000   0.05532   0.05475   1.96544
    A4        1.91061  -0.00308   0.00000  -0.01530  -0.01542   1.89519
    A5        1.91052  -0.00650   0.00000  -0.03328  -0.03374   1.87678
    A6        1.91059  -0.00761   0.00000  -0.04011  -0.04072   1.86987
    A7        1.92175   0.00189   0.00000   0.02293   0.02238   1.94413
    A8        1.94300   0.00130   0.00000   0.01751   0.01687   1.95987
    A9        1.92009  -0.00084   0.00000  -0.01453  -0.01432   1.90578
   A10        1.95117   0.00124   0.00000   0.01482   0.01401   1.96518
   A11        1.93298  -0.00200   0.00000  -0.02677  -0.02658   1.90640
   A12        1.79146  -0.00192   0.00000  -0.01787  -0.01756   1.77391
   A13        1.91065   0.00237   0.00000   0.01242   0.01225   1.92290
   A14        1.91068   0.00573   0.00000   0.02925   0.02900   1.93968
   A15        1.91072   0.00393   0.00000   0.02041   0.02018   1.93090
   A16        1.91055  -0.00412   0.00000  -0.02154  -0.02173   1.88882
   A17        1.91056  -0.00301   0.00000  -0.01489  -0.01503   1.89553
   A18        1.91064  -0.00490   0.00000  -0.02566  -0.02596   1.88468
   A19        1.83057   0.00430   0.00000   0.01481   0.01454   1.84510
   A20        1.88479   0.00112   0.00000   0.02426   0.02315   1.90794
   A21        1.88485   0.00144   0.00000   0.02012   0.01930   1.90415
   A22        1.87605   0.00294   0.00000   0.03800   0.03721   1.91326
   A23        1.87612   0.00167   0.00000   0.02873   0.02813   1.90424
   A24        2.09453  -0.00967   0.00000  -0.11120  -0.11056   1.98398
   A25        1.79616   0.00352   0.00000   0.00758   0.00733   1.80349
   A26        1.90715   0.00459   0.00000   0.03933   0.03896   1.94611
   A27        1.90700   0.00434   0.00000   0.03697   0.03619   1.94319
   A28        1.86760   0.00067   0.00000   0.02093   0.02006   1.88766
   A29        1.86750   0.00161   0.00000   0.03346   0.03249   1.89999
   A30        2.09440  -0.01258   0.00000  -0.12097  -0.12028   1.97412
   A31        1.99133  -0.00710   0.00000  -0.02587  -0.02558   1.96576
   A32        2.23009   0.00370   0.00000   0.01371   0.01355   2.24364
   A33        2.06176   0.00340   0.00000   0.01216   0.01200   2.07376
   A34        2.01383   0.00121   0.00000   0.02151   0.02142   2.03525
   A35        2.15705  -0.00353   0.00000  -0.02098  -0.02122   2.13583
   A36        2.11229   0.00233   0.00000  -0.00031  -0.00055   2.11173
   A37        1.91063   0.00175   0.00000   0.00903   0.00903   1.91966
    D1        0.41479   0.00298   0.00000   0.05564   0.05586   0.47065
    D2       -1.75930  -0.00092   0.00000   0.00738   0.00740  -1.75191
    D3        2.54999   0.00116   0.00000   0.02762   0.02765   2.57765
    D4        2.50923   0.00313   0.00000   0.05734   0.05734   2.56657
    D5        0.33514  -0.00077   0.00000   0.00908   0.00887   0.34401
    D6       -1.63875   0.00131   0.00000   0.02931   0.02913  -1.60962
    D7       -1.67951   0.00291   0.00000   0.05489   0.05506  -1.62445
    D8        2.42958  -0.00099   0.00000   0.00663   0.00659   2.43618
    D9        0.45570   0.00109   0.00000   0.02687   0.02685   0.48255
   D10       -0.43445  -0.00276   0.00000  -0.05475  -0.05491  -0.48937
   D11        1.65987  -0.00284   0.00000  -0.05562  -0.05579   1.60408
   D12       -2.52883  -0.00293   0.00000  -0.05662  -0.05673  -2.58555
   D13        1.73493   0.00119   0.00000  -0.00467  -0.00463   1.73030
   D14       -2.45393   0.00111   0.00000  -0.00554  -0.00550  -2.45943
   D15       -0.35944   0.00102   0.00000  -0.00654  -0.00644  -0.36588
   D16       -2.56203  -0.00165   0.00000  -0.03404  -0.03397  -2.59600
   D17       -0.46770  -0.00172   0.00000  -0.03490  -0.03485  -0.50255
   D18        1.62678  -0.00182   0.00000  -0.03591  -0.03578   1.59100
   D19       -2.00583   0.00125   0.00000   0.01680   0.01678  -1.98905
   D20       -0.00900   0.00714   0.00000   0.07782   0.07811   0.06911
   D21        2.28042  -0.00333   0.00000  -0.03185  -0.03201   2.24842
   D22        2.11991  -0.00308   0.00000  -0.03694  -0.03706   2.08285
   D23       -2.16645   0.00280   0.00000   0.02409   0.02427  -2.14217
   D24        0.12297  -0.00767   0.00000  -0.08558  -0.08584   0.03713
   D25        0.04758  -0.00021   0.00000  -0.00212  -0.00221   0.04537
   D26        2.04441   0.00568   0.00000   0.05890   0.05912   2.10353
   D27       -1.94935  -0.00479   0.00000  -0.05077  -0.05099  -2.00035
   D28        2.03572  -0.00003   0.00000   0.00236   0.00221   2.03793
   D29       -1.09906  -0.00213   0.00000  -0.03366  -0.03367  -1.13273
   D30       -2.11892   0.00045   0.00000   0.00364   0.00356  -2.11536
   D31        1.02949  -0.00165   0.00000  -0.03239  -0.03232   0.99717
   D32       -0.03387  -0.00012   0.00000  -0.00170  -0.00168  -0.03554
   D33        3.11454  -0.00222   0.00000  -0.03773  -0.03756   3.07698
   D34       -0.04559   0.00006   0.00000   0.00335   0.00345  -0.04214
   D35        1.93457   0.00435   0.00000   0.04649   0.04695   1.98152
   D36       -2.02557  -0.00519   0.00000  -0.05304  -0.05329  -2.07886
   D37       -2.04853  -0.00451   0.00000  -0.04782  -0.04821  -2.09674
   D38       -0.06838  -0.00022   0.00000  -0.00467  -0.00471  -0.07308
   D39        2.25467  -0.00977   0.00000  -0.10421  -0.10495   2.14972
   D40        1.95745   0.00445   0.00000   0.04575   0.04606   2.00352
   D41       -2.34558   0.00873   0.00000   0.08890   0.08957  -2.25601
   D42       -0.02253  -0.00081   0.00000  -0.01064  -0.01068  -0.03321
   D43        0.02870  -0.00054   0.00000  -0.00591  -0.00585   0.02285
   D44       -3.11295  -0.00003   0.00000   0.00156   0.00160  -3.11135
   D45       -1.98019  -0.00751   0.00000  -0.06156  -0.06177  -2.04196
   D46        1.16135  -0.00699   0.00000  -0.05409  -0.05432   1.10703
   D47        2.03737   0.00651   0.00000   0.05207   0.05249   2.08987
   D48       -1.10427   0.00703   0.00000   0.05954   0.05994  -1.04433
   D49        0.00387   0.00031   0.00000   0.00487   0.00478   0.00865
   D50        3.13885   0.00232   0.00000   0.03979   0.04003  -3.10431
   D51       -3.13767  -0.00016   0.00000  -0.00183  -0.00187  -3.13954
   D52       -0.00270   0.00186   0.00000   0.03310   0.03338   0.03068
   D53        0.54233   0.00054   0.00000   0.01015   0.00988   0.55221
   D54       -2.59208  -0.00166   0.00000  -0.02790  -0.02762  -2.61970
         Item               Value     Threshold  Converged?
 Maximum Force            0.075489     0.000450     NO 
 RMS     Force            0.010806     0.000300     NO 
 Maximum Displacement     0.136219     0.001800     NO 
 RMS     Displacement     0.046610     0.001200     NO 
 Predicted change in Energy=-2.002797D-02
 Lowest energy point so far.  Saving SCF results.
 GradGradGradGradGradGradGradGradGradGradGradGradGradGradGradGradGradGrad

 Leave Link  103 at Sun Oct 13 23:49:16 2019, MaxMem= 10737418240 cpu:               1.8 elap:               0.1
 (Enter /apps/cent7/gaussian/g16-A.03/g16-haswell/g16/l202.exe)
                          Input orientation:                          
 ---------------------------------------------------------------------
 Center     Atomic      Atomic             Coordinates (Angstroms)
 Number     Number       Type             X           Y           Z
 ---------------------------------------------------------------------
      1          6           0       -0.436846   -1.968125   -1.352797
      2          6           0       -0.753037   -1.191591   -0.031738
      3          6           0       -0.400757   -2.042421    1.226133
      4          6           0       -2.227822   -0.646157    0.001270
      5          6           0       -2.102942    0.922043   -0.025018
      6          6           0       -0.646130    1.147393   -0.008283
      7          7           0        0.022967    0.052230   -0.006215
      8          8           0        1.349351    0.061556    0.050533
      9          1           0       -0.496339   -3.038817   -1.181152
     10          1           0       -1.146632   -1.702035   -2.133718
     11          1           0        0.562846   -1.751506   -1.738708
     12          1           0       -0.484464   -3.101222    0.997736
     13          1           0        0.619300   -1.845175    1.561774
     14          1           0       -1.075767   -1.809961    2.047752
     15          1           0       -2.755054   -0.984218   -0.883477
     16          1           0       -2.697432   -0.949209    0.930259
     17          1           0       -2.501072    1.339657   -0.951595
     18          1           0       -2.539513    1.370148    0.869055
     19          1           0       -0.107040    2.090464    0.008225
     20          1           0        1.705902   -0.714215   -0.407454
 ---------------------------------------------------------------------
                    Distance matrix (angstroms):
                    1          2          3          4          5
     1  C    0.000000
     2  C    1.564666   0.000000
     3  C    2.580252   1.558926   0.000000
     4  C    2.605511   1.572761   2.605380   0.000000
     5  C    3.590535   2.507935   3.640173   1.573384   0.000000
     6  C    3.399701   2.341543   3.429125   2.391372   1.474234
     7  N    2.471143   1.466263   2.466939   2.356661   2.297046
     8  O    3.046218   2.448915   2.978528   3.646841   3.558718
     9  H    1.085994   2.190728   2.607098   3.181348   4.427893
    10  H    1.088318   2.198588   3.458437   2.615726   3.499561
    11  H    1.093269   2.226836   3.131045   3.469459   4.146206
    12  H    2.609824   2.186010   1.086385   3.171685   4.455576
    13  H    3.102465   2.202217   1.091822   3.461057   4.193568
    14  H    3.463664   2.193357   1.088455   2.621022   3.579848
    15  H    2.561722   2.185529   3.333611   1.083991   2.189984
    16  H    3.370576   2.182856   2.560736   1.084157   2.183474
    17  H    3.919619   3.210760   4.537871   2.219476   1.091538
    18  H    4.527903   3.250451   4.043193   2.217136   1.091219
    19  H    4.293402   3.345265   4.318600   3.462204   2.312993
    20  H    2.656565   2.532871   2.978381   3.955486   4.163039
                    6          7          8          9         10
     6  C    0.000000
     7  N    1.283385   0.000000
     8  O    2.272542   1.327630   0.000000
     9  H    4.349990   3.347347   3.812602   0.000000
    10  H    3.589877   2.995276   3.756480   1.765574   0.000000
    11  H    3.586030   2.558607   2.665928   1.757814   1.755220
    12  H    4.369089   3.348084   3.776670   2.179814   3.493164
    13  H    3.608581   2.532657   2.540167   3.192659   4.098252
    14  H    3.627369   2.982239   3.656864   3.503091   4.183462
    15  H    3.123666   3.092121   4.337299   3.067863   2.159950
    16  H    3.079682   3.046381   4.262865   3.697206   3.515634
    17  H    2.089884   2.986969   4.178943   4.821067   3.533244
    18  H    2.098628   3.011529   4.183976   5.274172   4.516090
    19  H    1.086404   2.042427   2.497866   5.279744   4.477915
    20  H    3.026050   1.892274   0.968866   3.294275   3.477460
                   11         12         13         14         15
    11  H    0.000000
    12  H    3.225945   0.000000
    13  H    3.302294   1.764678   0.000000
    14  H    4.126227   1.766219   1.763708   0.000000
    15  H    3.511213   3.629910   4.255204   3.477637   0.000000
    16  H    4.289112   3.087546   3.493175   2.149297   1.814989
    17  H    4.422944   5.252429   5.118291   4.576862   2.338705
    18  H    5.115641   4.922697   4.560292   3.693910   2.942935
    19  H    4.273319   5.298603   4.293058   4.506819   4.154609
    20  H    2.038330   3.531299   2.517467   3.868641   4.494400
                   16         17         18         19         20
    16  H    0.000000
    17  H    2.969654   0.000000
    18  H    2.325533   1.821311   0.000000
    19  H    4.098767   2.686327   2.678956   0.000000
    20  H    4.608042   4.713079   4.898734   3.365379   0.000000
 Stoichiometry    C6H12NO(1+)
 Framework group  C1[X(C6H12NO)]
 Deg. of freedom    54
 Full point group                 C1      NOp   1
 RotChk:  IX=0 Diff= 3.65D-02
 Largest Abelian subgroup         C1      NOp   1
 Largest concise Abelian subgroup C1      NOp   1
                         Standard orientation:                         
 ---------------------------------------------------------------------
 Center     Atomic      Atomic             Coordinates (Angstroms)
 Number     Number       Type             X           Y           Z
 ---------------------------------------------------------------------
      1          6           0       -1.322560   -0.663661    1.301992
      2          6           0       -0.487915   -0.475557   -0.008032
      3          6           0       -1.380215   -0.626810   -1.277353
      4          6           0        0.779958   -1.405402   -0.046313
      5          6           0        2.019680   -0.438184    0.009502
      6          6           0        1.405440    0.901991    0.011753
      7          7           0        0.122918    0.857404   -0.003191
      8          8           0       -0.599387    1.970522   -0.046172
      9          1           0       -2.181735   -1.299686    1.110485
     10          1           0       -0.716853   -1.123924    2.080268
     11          1           0       -1.696071    0.282779    1.701964
     12          1           0       -2.219885   -1.283887   -1.068938
     13          1           0       -1.774332    0.339286   -1.598919
     14          1           0       -0.806673   -1.046965   -2.101522
     15          1           0        0.779932   -2.047891    0.826752
     16          1           0        0.794449   -1.947021   -0.985374
     17          1           0        2.578803   -0.557613    0.939325
     18          1           0        2.642530   -0.539272   -0.880778
     19          1           0        1.895695    1.871469    0.017762
     20          1           0       -1.447519    1.832465    0.401393
 ---------------------------------------------------------------------
 Rotational constants (GHZ):           2.4986651           2.1921049           1.6175008
 Leave Link  202 at Sun Oct 13 23:49:16 2019, MaxMem= 10737418240 cpu:               0.2 elap:               0.0
 (Enter /apps/cent7/gaussian/g16-A.03/g16-haswell/g16/l301.exe)
 Standard basis: 6-311++G(d,p) (5D, 7F)
 Ernie: Thresh=  0.10000D-02 Tol=  0.10000D-05 Strict=F.
 There are   268 symmetry adapted cartesian basis functions of A   symmetry.
 There are   260 symmetry adapted basis functions of A   symmetry.
   260 basis functions,   396 primitive gaussians,   268 cartesian basis functions
    31 alpha electrons       31 beta electrons
       nuclear repulsion energy       415.4201346742 Hartrees.
 IExCor= 4336 DFT=T Ex+Corr=M062X ExCW=0 ScaHFX=  0.540000
 ScaDFX=  1.000000  1.000000  1.000000  1.000000 ScalE2=  1.000000  1.000000
 IRadAn=      5 IRanWt=     -1 IRanGd=            0 ICorTp=0 IEmpDi=  4
 NAtoms=   20 NActive=   20 NUniq=   20 SFac= 1.00D+00 NAtFMM=   60 NAOKFM=F Big=F
 Integral buffers will be    131072 words long.
 Raffenetti 2 integral format.
 Two-electron integral symmetry is turned on.
 Leave Link  301 at Sun Oct 13 23:49:16 2019, MaxMem= 10737418240 cpu:               1.7 elap:               0.1
 (Enter /apps/cent7/gaussian/g16-A.03/g16-haswell/g16/l302.exe)
 NPDir=0 NMtPBC=     1 NCelOv=     1 NCel=       1 NClECP=     1 NCelD=      1
         NCelK=      1 NCelE2=     1 NClLst=     1 CellRange=     0.0.
 One-electron integrals computed using PRISM.
 One-electron integral symmetry used in STVInt
 NBasis=   260 RedAO= T EigKep=  4.16D-06  NBF=   260
 NBsUse=   260 1.00D-06 EigRej= -1.00D+00 NBFU=   260
 Precomputing XC quadrature grid using
 IXCGrd= 4 IRadAn=           5 IRanWt=          -1 IRanGd=           0 AccXCQ= 0.00D+00.
 Generated NRdTot=       0 NPtTot=           0 NUsed=           0 NTot=          32
 NSgBfM=   268   268   268   268   268 MxSgAt=    20 MxSgA2=    20.
 Leave Link  302 at Sun Oct 13 23:49:16 2019, MaxMem= 10737418240 cpu:               4.1 elap:               0.2
 (Enter /apps/cent7/gaussian/g16-A.03/g16-haswell/g16/l303.exe)
 DipDrv:  MaxL=1.
 Leave Link  303 at Sun Oct 13 23:49:16 2019, MaxMem= 10737418240 cpu:               0.8 elap:               0.1
 (Enter /apps/cent7/gaussian/g16-A.03/g16-haswell/g16/l401.exe)
 Initial guess from the checkpoint file:  "5_p.chk"
 B after Tr=     0.000000   -0.000000    0.000000
         Rot=    0.999924   -0.008802    0.001520   -0.008462 Ang=  -1.41 deg.
 Guess basis will be translated and rotated to current coordinates.
 JPrj=2 DoOrth=T DoCkMO=T.
 Generating alternative initial guess.
 ExpMin= 3.60D-02 ExpMax= 8.59D+03 ExpMxC= 1.30D+03 IAcc=3 IRadAn=         5 AccDes= 0.00D+00
 Harris functional with IExCor= 1009 and IRadAn=       5 diagonalized for initial guess.
 HarFok:  IExCor= 1009 AccDes= 0.00D+00 IRadAn=         5 IDoV= 1 UseB2=F ITyADJ=14
 ICtDFT=  3500011 ScaDFX=  1.000000  1.000000  1.000000  1.000000
 FoFCou: FMM=F IPFlag=           0 FMFlag=      100000 FMFlg1=           0
         NFxFlg=           0 DoJE=T BraDBF=F KetDBF=T FulRan=T
         wScrn=  0.000000 ICntrl=       500 IOpCl=  0 I1Cent=   200000004 NGrid=           0
         NMat0=    1 NMatS0=      1 NMatT0=    0 NMatD0=    1 NMtDS0=    0 NMtDT0=    0
 Petite list used in FoFCou.
 Harris En= -365.370052996522    
 Leave Link  401 at Sun Oct 13 23:49:17 2019, MaxMem= 10737418240 cpu:              13.0 elap:               0.6
 (Enter /apps/cent7/gaussian/g16-A.03/g16-haswell/g16/l502.exe)
 Integral symmetry usage will be decided dynamically.
 Closed shell SCF:
 Using DIIS extrapolation, IDIIS=  1040.
 NGot= 10737418240 LenX= 10737265392 LenY= 10737193127
 Requested convergence on RMS density matrix=1.00D-08 within 128 cycles.
 Requested convergence on MAX density matrix=1.00D-06.
 Requested convergence on             energy=1.00D-06.
 No special actions if energy rises.
 Fock matrices will be formed incrementally for  20 cycles.

 Cycle   1  Pass 1  IDiag  1:
 FoFJK:  IHMeth= 1 ICntrl=       0 DoSepK=F KAlg= 0 I1Cent=           0 FoldK=F
 IRaf= 990000000 NMat=       1 IRICut=       1 DoRegI=T DoRafI=F ISym2E= 0 IDoP0=0 IntGTp=1.
 FoFCou: FMM=F IPFlag=           0 FMFlag=      100000 FMFlg1=           0
         NFxFlg=           0 DoJE=F BraDBF=F KetDBF=F FulRan=T
         wScrn=  0.000000 ICntrl=         0 IOpCl=  0 I1Cent=           0 NGrid=           0
         NMat0=    1 NMatS0=      1 NMatT0=    0 NMatD0=    1 NMtDS0=    0 NMtDT0=    0
 Symmetry not used in FoFCou.
 E= -365.455576367943    
 DIIS: error= 3.35D-03 at cycle   1 NSaved=   1.
 NSaved= 1 IEnMin= 1 EnMin= -365.455576367943     IErMin= 1 ErrMin= 3.35D-03
 ErrMax= 3.35D-03  0.00D+00 EMaxC= 1.00D-01 BMatC= 5.99D-03 BMatP= 5.99D-03
[...]
 021570,-0.00006511,-0.00252826,-0.00664159,0.00109014,0.00104915,-0.00
 600613,-0.00164369,0.04596656,0.01580575,-0.00075938,0.00630080,-0.111
 70371,-0.03016606,-0.06957277,0.28921449,-0.00050433,-0.00062588,-0.00
 038409,0.00077136,-0.00160000,-0.00045322,-0.00051924,0.00029351,0.000
 42440,-0.00025233,-0.00006684,0.00145149,0.00238409,-0.00491159,0.0145
 4424,0.01900504,0.00129061,0.00268730,0.03090169,-0.02598471,-0.062516
 50,-0.11062077,0.26793671,0.33598439,-0.14651554,-0.13667028,-0.002973
 72,0.00556095,0.00853536,-0.00030195,-0.00009739,-0.00001516,-0.000352
 88,0.00079379,0.00018805,-0.00013849,0.00010964,-0.00007247,0.00007438
 ,0.00093717,0.00052126,-0.00021748,-0.00159051,0.00326509,0.00344620,0
 .00051165,-0.00058003,-0.00037067,0.15628327,-0.13470704,-0.22012449,-
 0.00494707,-0.01154428,-0.01691424,0.00019462,0.00006149,0.00028061,0.
 00091127,-0.00031851,0.00100742,0.00019261,-0.00008490,-0.00004170,-0.
 00009538,-0.00139600,-0.00018905,0.00014565,0.00218670,-0.00217313,-0.
 00376553,0.00036796,0.00060508,0.00037059,0.14445783,0.23833331,-0.001
 34171,-0.00337349,-0.04499051,-0.01643731,-0.01901481,-0.00050879,-0.0
 0050170,0.00015224,0.00088994,-0.00043795,0.00056855,0.00084051,-0.000
 21869,0.00009613,-0.00030659,-0.00121701,-0.00101112,0.00018928,0.0019
 7058,-0.00402880,-0.00446083,0.00021346,-0.00004670,0.00038795,0.00174
 659,0.00697426,0.04850549,-0.05099222,0.01330171,-0.01884641,-0.001810
 16,-0.00648075,0.00672803,-0.00006089,0.00112296,0.00101956,0.00068367
 ,-0.00081064,0.00122097,-0.00006443,0.00006327,-0.00020754,0.00028361,
 -0.00009968,-0.00007470,0.00074141,0.00024354,-0.00075428,-0.00031642,
 0.00007908,0.00035386,0.00155518,-0.00813436,0.01805669,0.04962518,0.0
 1185182,-0.10887248,0.11429531,-0.00170525,0.00861225,-0.02044786,0.00
 139097,-0.00268514,-0.00272556,-0.00112746,0.00066279,-0.00026205,-0.0
 0005230,0.00014001,0.00008322,0.00053350,-0.00013862,0.00006696,-0.000
 39783,0.00231844,0.00035197,-0.00010012,-0.00000879,-0.00011326,0.0038
 4045,-0.01096313,0.02269773,-0.01281322,0.11531709,-0.01712088,0.11185
 318,-0.25557748,-0.00202865,0.01224429,-0.02151619,0.00192330,-0.00415
 502,-0.00238968,-0.00146085,0.00019449,0.00038227,0.00003709,0.0000265
 8,0.00046092,0.00025838,-0.00069538,-0.00023753,0.00032524,0.00141668,
 0.00138000,-0.00075483,-0.00024316,0.00032040,0.00021202,-0.00095716,0
 .00157336,0.01927059,-0.12020599,0.27793833,-0.27925774,0.08491551,-0.
 03298920,-0.00759089,0.00125978,-0.00132937,0.00042938,-0.00026687,-0.
 00064107,0.00131002,0.00112063,0.00084855,-0.00045462,-0.00000945,0.00
 005268,-0.00010878,0.00009198,0.00003531,-0.00129719,0.00024594,0.0006
 0826,0.00061606,-0.00153670,-0.00056710,-0.01819192,0.00770390,-0.0028
 9284,0.00055418,-0.00114702,-0.00018068,0.30232299,0.08612358,-0.07685
 747,0.01286844,0.01830304,-0.00779652,0.00295720,-0.00022855,0.0003717
 1,0.00134230,0.00015772,-0.00108298,-0.00242705,0.00060841,0.00006182,
 -0.00004784,0.00026490,-0.00020244,-0.00008752,0.00199900,0.00096952,0
 .00059924,-0.00145464,0.00065520,0.00041858,-0.02446402,0.01015116,-0.
 00349728,0.01325984,-0.00536693,0.00029959,-0.09302865,0.08266598,-0.0
 3599666,0.01345830,-0.05582100,0.02562484,-0.00649044,0.00312936,0.000
 78369,-0.00011082,0.00159096,-0.00050943,-0.00328008,-0.00328278,0.001
 28962,-0.00028781,0.00039309,0.00036213,-0.00002923,-0.00013368,-0.000
 01904,0.00080224,0.00081543,-0.00064368,0.00001124,-0.00024087,-0.0004
 2184,0.00054240,-0.00091754,-0.02643098,0.00715931,-0.00136850,0.03628
 588,-0.01115464,0.05563526,0.00022955,0.00016140,0.00021897,0.00158867
 ,0.00651209,-0.00074549,-0.10686687,-0.11629877,0.00809932,0.00070689,
 0.00047726,0.00042669,0.00015189,0.00001185,-0.00027738,0.00029853,0.0
 0041715,-0.00023021,-0.00097581,0.00159978,-0.00190218,0.00064114,-0.0
 0036969,0.00031056,0.00026150,-0.00004228,0.00016039,-0.00005379,0.000
 19714,0.00000768,-0.00012630,-0.00023263,0.00008970,0.11228207,-0.0001
 3580,0.00047343,-0.00109077,-0.00586145,-0.01253797,0.00079191,-0.1153
 9351,-0.26114094,0.01423913,-0.00062920,0.00025552,-0.00018478,-0.0000
 4770,-0.00001413,-0.00018901,-0.00080687,0.00052751,0.00047880,0.00152
 079,-0.00102399,0.00196566,0.00013284,0.00035134,-0.00016992,-0.000000
 57,0.00058710,0.00006209,0.00030490,0.00014282,-0.00007682,0.00011384,
 0.00000435,0.00020118,0.12491532,0.28049091,0.00024076,-0.00007965,0.0
 0134333,0.01474766,0.02554306,-0.00229124,0.00642479,0.01200862,-0.047
 02405,0.00078172,-0.00039376,0.00048155,-0.00007934,-0.00018981,-0.000
 01885,0.00180705,0.00068008,-0.00046951,-0.00223512,0.00467482,-0.0059
 3980,-0.00001084,-0.00009581,0.00012698,-0.00016293,-0.00017424,-0.000
 91081,-0.00019915,-0.00015859,0.00035831,0.00014509,-0.00008889,-0.000
 08102,-0.00708376,-0.01687376,0.05165435,0.00034490,-0.00003968,0.0003
 3143,-0.00430336,0.00088749,-0.00012392,-0.31328783,0.04204115,-0.0300
 2372,0.00083306,-0.00032876,-0.00052478,0.00003307,-0.00006312,-0.0000
 9252,-0.00022306,0.00014002,-0.00001413,-0.00070326,0.00001283,-0.0004
 4294,0.00051676,-0.00078030,0.00059554,0.00003972,0.00009004,0.0000688
 7,0.00026338,-0.00001906,0.00000481,0.00039157,-0.00029519,-0.00030254
 ,-0.01285871,0.00325572,-0.00118834,0.33621784,-0.00051555,-0.00028529
 ,-0.00088091,0.01409592,-0.00531729,0.00258381,0.04056969,-0.05257464,
 0.00364389,-0.00021576,0.00014962,0.00318884,-0.00020258,0.00031356,-0
 .00007412,0.00060742,-0.00038678,-0.00008646,0.00181424,0.00096476,-0.
 00064644,-0.00104294,0.00030953,-0.00030236,-0.00014146,0.00009543,-0.
 00008938,0.00000323,-0.00013110,-0.00002378,-0.00013057,0.00043336,-0.
 00025122,-0.02821491,0.00631413,-0.00389662,-0.04562388,0.05393563,-0.
 00091466,0.00050964,0.00166976,-0.03050667,0.00369308,-0.00343475,-0.0
 2739481,0.00422270,-0.05242739,0.00018660,0.00151671,-0.00486336,-0.00
 013795,-0.00001274,-0.00041037,-0.00022541,0.00037140,-0.00003060,-0.0
 0073755,-0.00096489,0.00120501,0.00081434,-0.00037500,0.00011545,0.000
 02969,0.00004184,-0.00011404,0.00041087,0.00000165,0.00017492,0.000494
 97,-0.00033228,-0.00065129,0.00241876,-0.00093630,-0.00074195,0.032867
 19,-0.00714908,0.05611603,0.00018757,0.00110455,-0.00140971,0.00052971
 ,-0.00604805,-0.00547522,-0.07792226,0.05499855,0.06622252,0.00065069,
 -0.00040902,-0.00037830,0.00001796,0.00012560,-0.00007464,0.00047711,-
 0.00031636,0.00029919,-0.00018111,0.00033445,0.00068595,-0.00022646,-0
 .00037742,-0.00001455,0.00003100,0.00029065,0.00026363,0.00070866,-0.0
 0019841,-0.00037773,0.00033640,-0.00021953,-0.00025159,0.00484674,-0.0
 0826293,-0.01239075,-0.00785441,0.01856990,0.02367554,0.07883490,0.000
 61972,-0.00091503,0.00249453,-0.00608971,0.00718353,0.01295000,0.05433
 845,-0.14413893,-0.11977500,-0.00038123,0.00057409,-0.00036533,0.00013
 227,0.00011501,0.00006665,-0.00000391,0.00001681,-0.00021900,-0.000129
 56,0.00224036,0.00006463,-0.00004595,-0.00010580,-0.00016602,0.0001515
 4,0.00014533,0.00027551,-0.00006425,0.00080373,0.00060902,-0.00008811,
 -0.00015330,0.00012660,0.01087827,-0.01465694,-0.02055975,0.00024847,-
 0.00319382,-0.00229415,-0.05964305,0.15237668,-0.00128291,0.00402976,-
 0.00420279,0.00929172,-0.01759507,-0.02215407,0.06511190,-0.11705732,-
 0.19365630,0.00101564,-0.00046676,0.00096339,-0.00044472,0.00023928,0.
 00009192,0.00054257,0.00074109,0.00004145,0.00010884,-0.00177053,0.001
 14326,-0.00017942,0.00039880,-0.00011713,-0.00007116,0.00005686,0.0001
 7955,0.00040980,-0.00111648,-0.00112342,-0.00001138,0.00013631,0.00017
 586,-0.00160177,0.00202327,0.00243267,-0.00118563,0.00338617,0.0038068
 9,-0.07066797,0.12691990,0.21221396,0.00139190,-0.00050941,-0.00171446
 ,-0.00979014,0.00076799,-0.02931204,-0.00477922,0.00064540,0.00075575,
 -0.07112165,-0.00498124,-0.07085609,0.00026947,0.00084692,0.00129089,-
 0.00051484,-0.00007149,-0.00004423,-0.00028669,0.00131252,-0.00014321,
 -0.00042185,-0.00058590,0.00041117,0.00009046,0.00032171,0.00014147,-0
 .00054665,0.00002525,0.00080500,0.00031199,-0.00024578,0.00013290,-0.0
 0001374,0.00014969,-0.00001667,0.00000653,0.00074345,-0.00130943,-0.00
 003529,-0.00017212,0.00008678,0.07673875,0.00039100,0.00048130,0.00073
 639,0.00371596,-0.00116426,0.01195385,0.00381414,-0.00011558,0.0002288
 0,-0.00483613,-0.04693536,-0.00640281,-0.00867089,-0.00431688,-0.03125
 898,0.00203966,-0.00130361,-0.00157004,0.00011056,-0.00006449,0.000554
 31,-0.00016647,0.00026136,-0.00013895,-0.00002796,-0.00031712,0.000248
 31,0.00022968,0.00013374,-0.00021009,-0.00019956,-0.00005882,-0.000154
 16,-0.00017113,0.00022361,-0.00021103,0.00025121,-0.00039918,0.0007921
 4,-0.00012926,-0.00003641,-0.00020972,-0.00095480,0.05550061,0.0018094
 9,-0.00108645,0.00107770,-0.00005374,0.00136175,-0.00169435,-0.0006375
 1,-0.00031865,0.00086208,-0.07318746,-0.00643173,-0.30081271,-0.000952
 45,-0.00133011,-0.00690696,0.00027987,-0.00023701,-0.00017497,-0.00040
 261,-0.00022160,0.00016301,-0.00002047,0.00003565,-0.00017424,-0.00036
 430,0.00026034,0.00007089,-0.00005469,0.00032773,0.00055437,0.00018490
 ,-0.00024784,0.00011969,0.00007195,-0.00007037,0.00002683,-0.00007269,
 0.00011901,0.00002358,0.00016970,0.00000150,0.00025700,0.07906370,0.00
 995864,0.32018608,-0.00094793,0.00008474,-0.00074223,-0.01662355,-0.01
 579062,0.01492941,0.00179407,-0.00108728,0.00118079,-0.16047385,-0.096
 52248,0.09697633,0.00179082,0.00135295,-0.00227572,-0.00067752,0.00077
 870,0.00032761,-0.00484834,0.00140553,0.00016175,-0.00111226,-0.001489
 46,-0.00000636,0.00005253,0.00027903,0.00024873,0.00005044,-0.00001262
 ,-0.00008766,-0.00003255,0.00044398,0.00022981,-0.00020239,0.00071798,
 -0.00038067,0.00040638,0.00000542,0.00014768,-0.00014905,-0.00012362,-
 0.00049378,0.00747603,0.00617124,-0.00538232,0.17260690,0.00032245,0.0
 0012473,0.00023486,0.00780694,0.00699261,-0.00784778,0.00045325,0.0009
 8529,-0.00017538,-0.09746555,-0.12965258,0.08500655,-0.01825927,-0.014
 45069,0.01483937,0.00060641,-0.00565516,-0.00111499,0.00252768,-0.0014
 0805,0.00015199,0.00044023,0.00131110,-0.00001426,-0.00013792,-0.00017
 370,-0.00004384,0.00005019,-0.00001921,0.00012719,-0.00005671,-0.00040
 464,-0.00003364,0.00011053,-0.00014967,-0.00011712,0.00003177,-0.00001
 276,-0.00003596,-0.00030726,-0.00001490,-0.00005629,0.00168910,0.00137
 785,-0.00103290,0.10384272,0.14004721,0.00035645,0.00009936,-0.0002323
 8,-0.00256928,-0.00242538,0.00100470,-0.00114558,0.00022591,0.00055305
 ,0.10129704,0.08822463,-0.13447882,-0.00893780,-0.00735587,0.00576184,
 -0.00093454,-0.00345231,-0.00033714,-0.00219226,-0.00058892,0.00001685
 ,-0.00073150,-0.00047351,0.00021224,0.00016367,-0.00015708,-0.00006685
 ,-0.00006705,0.00001691,0.00028228,0.00001180,-0.00022857,0.00012716,-
 0.00006486,0.00001622,0.00023116,-0.00000521,-0.00008782,-0.00011593,0
 .00005723,-0.00040579,0.00000025,0.02015065,0.01667170,-0.01518571,-0.
 10465228,-0.09026477,0.14120197,0.00016251,0.00002249,-0.00007650,-0.0
 0109881,-0.00119325,-0.00092342,0.00031114,0.00026304,0.00015452,0.004
 09286,-0.00316245,0.00390145,-0.14766122,0.09924824,-0.08760128,-0.019
 37713,0.02109115,-0.01660052,-0.00339607,-0.00254644,-0.00060115,-0.00
 049636,0.00123925,0.00255953,-0.00000006,0.00003394,0.00003501,-0.0000
 0657,-0.00001284,0.00001027,0.00002914,-0.00003345,-0.00006552,0.00001
 649,0.00003771,-0.00012709,0.00001337,-0.00002883,0.00007207,-0.000039
 67,0.00000513,-0.00003005,0.00076903,0.00039377,0.00010277,-0.00017033
 ,-0.00035899,0.00013416,0.16094940,0.00112613,-0.00001647,0.00023496,-
 0.00314144,-0.00498438,-0.00157161,0.00072143,0.00041626,-0.00023041,0
 .01732093,-0.01407698,0.01257942,0.09921303,-0.15059887,0.08932983,-0.
 00195684,0.00739245,-0.00995549,-0.00204695,0.00089191,0.00211550,-0.0
 0107825,0.00102842,0.00113633,-0.00001416,0.00013722,0.00009713,-0.000
 00121,-0.00003879,-0.00009553,0.00014608,-0.00013658,-0.00033675,-0.00
 001789,0.00008963,-0.00020931,0.00006058,-0.00006031,0.00026895,-0.000
 07126,0.00000683,0.00002388,0.00028279,0.00153830,0.00014974,0.0001971
 3,-0.00121149,-0.00021575,-0.10956073,0.15887882,0.00046505,-0.0000501
 9,0.00018552,-0.00023375,-0.00303630,-0.00022278,0.00047936,-0.0000970
 7,-0.00044378,0.00888605,-0.00682507,0.00477815,-0.09134046,0.08915737
 ,-0.11705925,0.00628045,-0.00504005,0.00159845,0.00133460,0.00046738,0
 .00062636,-0.00004267,-0.00025157,-0.00109657,0.00000180,0.00004604,0.
 00001889,0.00001257,-0.00000956,-0.00004628,0.00009818,-0.00006171,-0.
 00016684,-0.00002943,0.00002814,0.00001785,0.00002721,-0.00002145,0.00
 021718,-0.00000713,-0.00000440,0.00014180,0.00035447,-0.00025837,0.000
 95210,-0.00014192,-0.00012553,0.00002467,0.09399387,-0.09215300,0.1267
 1051,0.00037835,0.00037776,-0.00012984,-0.00068637,-0.00063318,0.00134
 226,0.00004386,-0.00002767,0.00030803,-0.00028209,-0.00087249,-0.00566
 308,-0.05569561,0.00546416,0.05781937,-0.01073756,0.00550866,0.0339905
 2,-0.00047410,-0.00244291,0.00094360,-0.00340141,0.00135079,-0.0029942
 1,-0.00003339,0.00012966,0.00005627,-0.00005479,-0.00005537,-0.0000730
 2,0.00002403,-0.00006541,-0.00000486,0.00006356,-0.00008073,-0.0001508
 9,0.00003203,-0.00013327,-0.00001498,-0.00008596,0.00034805,-0.0004162
 5,0.00056963,-0.00172084,-0.00045696,0.00067122,-0.00005596,-0.0002119
 0,0.00596954,-0.00151325,-0.02005909,0.06352940,0.00114857,0.00000941,
 0.00039939,-0.00092535,-0.00147756,-0.00173073,0.00001430,0.00000540,0
 .00006998,0.00510240,-0.00246045,-0.02861635,0.00225610,-0.04631061,-0
 .02473446,0.00221274,-0.00007809,0.00981333,0.00062273,0.00075701,-0.0
 0021253,-0.00157748,0.00064258,-0.00034759,-0.00011669,0.00013625,0.00
 004563,-0.00013300,0.00002016,0.00012133,0.00019903,-0.00025671,-0.000
 11650,-0.00003069,0.00010901,0.00001416,-0.00002661,0.00005168,0.00015
 431,0.00034192,-0.00025878,0.00048712,0.00080749,-0.00483317,-0.001242
 04,-0.00020893,0.00205966,0.00032661,-0.00470931,0.00133731,0.01819647
 ,-0.00498798,0.05092646,0.00025761,0.00012177,0.00000414,-0.00075974,-
 0.00105092,-0.00023204,0.00033742,-0.00007234,-0.00023711,-0.00045193,
 -0.00099628,-0.00557837,0.05327511,-0.02671078,-0.29324421,0.00625587,
 -0.00052885,-0.00426393,-0.00065054,0.00324170,0.00120754,-0.00087832,
 0.00025665,-0.00058582,-0.00003448,0.00007100,0.00002744,-0.00004711,-
 0.00002054,0.00001041,0.00002562,-0.00005558,-0.00004465,0.00003489,-0
 .00000850,-0.00006801,0.00002240,-0.00006774,0.00013815,-0.00016052,0.
 00015145,0.00001292,0.00042459,-0.00133517,0.00080481,0.00012466,0.000
 25863,0.00097171,0.00417149,-0.00125368,-0.01648469,-0.06273616,0.0284
 0769,0.31751428,0.00110063,0.00092648,-0.00018590,-0.00404448,0.000332
 40,0.00189008,0.00038826,0.00014945,0.00008571,-0.00408172,-0.00073594
 ,0.00201753,0.00281888,-0.01835484,-0.00329160,-0.12001746,-0.12868135
 ,-0.00381314,0.01252148,0.02651427,0.00243489,0.00123026,-0.00066102,-
 0.00124036,-0.00016759,0.00024703,0.00029649,-0.00002959,-0.00005681,-
 0.00003176,0.00001881,-0.00008866,-0.00007932,0.00000104,0.00008718,-0
 .00011066,0.00004103,-0.00004341,0.00004200,-0.00006324,-0.00001607,-0
 .00005197,-0.00004830,-0.00025795,-0.00009393,0.00018911,-0.00113339,-
 0.00068304,0.00053879,0.00059758,-0.00037406,-0.00023319,-0.00003880,0
 .00068952,0.10966859,-0.00054268,-0.00074843,0.00021654,0.00208737,0.0
 0056106,-0.00243338,0.00015764,0.00011573,0.00014854,0.00167048,0.0008
 3560,-0.00034829,0.00019063,0.00470250,0.00017415,-0.10951444,-0.29156
 727,-0.01228822,-0.01199496,-0.02300862,-0.00141028,-0.00289129,0.0021
 7514,0.00114660,0.00020527,-0.00011063,-0.00021920,-0.00001294,0.00002
 425,-0.00001459,0.00004197,-0.00002926,0.00000930,0.00000113,0.0000450
 5,-0.00000964,0.00000730,-0.00005404,0.00003616,-0.00000019,-0.0000114
 5,0.00008982,-0.00003991,0.00000116,0.00001245,0.00000303,0.00034969,0
 .00011698,-0.00053542,-0.00010407,0.00018970,-0.00025783,-0.00000492,-
 0.00017564,0.12140145,0.30698001,0.00105023,0.00134413,-0.00042640,0.0
 0246980,0.00029728,0.00944778,-0.00150393,-0.00264186,-0.00040216,0.00
 147900,-0.00083704,0.00149074,0.00017505,0.00466373,0.00599199,-0.0024
 1350,-0.01009860,-0.05105473,-0.00339801,-0.00856409,0.01133205,-0.000
 80371,0.00127741,-0.00670417,-0.00030409,0.00021255,0.00029390,0.00004
 636,-0.00007098,-0.00018748,-0.00004482,-0.00004895,-0.00001962,0.0003
 1926,-0.00017747,0.00072098,0.00001737,0.00011281,-0.00009630,0.000016
 95,0.00009722,-0.00013125,-0.00000946,0.00055361,-0.00008132,0.0000441
 7,0.00012293,0.00013846,0.00097026,0.00002784,0.00020057,-0.00133354,-
 0.00100058,0.00007024,0.00249870,0.01478505,0.02960062,0.00031409,0.00
 027822,-0.00010406,-0.00053209,-0.00039100,0.00210463,0.00020275,-0.00
 016326,0.00012170,0.00039390,0.00064844,-0.00039549,-0.00062041,0.0018
 1853,-0.00233828,-0.00654346,-0.00328908,0.00141781,-0.03033931,0.0374
 3732,0.03886042,-0.06952366,0.04358735,0.05979709,0.00036956,0.0000574
 2,-0.00021097,-0.00053020,-0.00014084,-0.00073834,0.00071543,-0.000803
 97,-0.00007313,0.00000956,-0.00001720,-0.00001086,0.00009100,-0.000116
 09,0.00008177,-0.00006329,0.00003567,-0.00013025,-0.00006541,0.0000177
 6,-0.00000325,0.00020025,-0.00010623,0.00002430,-0.00060604,-0.0002637
 0,0.00029490,0.00040288,0.00004956,0.00009962,0.00016870,0.00002339,0.
 00072392,0.10595575,-0.00126492,0.00262869,-0.00031419,-0.00175926,0.0
 0292741,0.00136399,-0.00039692,-0.00040585,-0.00029780,-0.00047974,-0.
 00008003,-0.00016096,-0.00077099,0.00042133,0.00055513,0.00044919,-0.0
 0055884,-0.00195142,-0.00020591,0.00374861,0.00838321,0.08182715,-0.19
 924901,-0.23815155,0.00107587,-0.00047173,0.00010704,-0.00010836,0.000
 04892,-0.00021482,0.00062497,-0.00296744,-0.00006527,0.00009607,-0.000
 09077,0.00013725,0.00014998,-0.00015249,0.00049183,0.00021710,0.000023
 00,-0.00026008,-0.00003166,0.00002694,-0.00000812,-0.00004746,-0.00009
 530,-0.00004255,-0.00019303,-0.00048920,-0.00015082,-0.00033219,-0.000
 37464,-0.00023289,-0.00018759,-0.00015151,-0.00005498,-0.07866229,0.19
 526191,0.00059816,0.00035164,0.00125536,0.00056304,0.00214894,0.000375
 45,0.00034412,-0.00047474,-0.00034014,-0.00025021,-0.00064696,0.000193
 68,-0.00015253,0.00037413,0.00068637,-0.00357654,-0.00035072,0.0009690
 3,-0.00422212,0.00326404,0.00265638,0.10823831,-0.23611212,-0.28398221
 ,0.00003962,0.00007644,-0.00070122,-0.00084739,0.00013008,-0.00098900,
 -0.00013480,-0.00034349,0.00074098,-0.00022309,-0.00002871,0.00015125,
 0.00004159,0.00054286,-0.00058098,-0.00018258,0.00003241,-0.00007595,-
 0.00021177,0.00005156,-0.00006789,-0.00020801,0.00012095,-0.00010953,-
 0.00007987,0.00005796,0.00004815,-0.00021527,-0.00003523,-0.00002283,0
 .00000084,-0.00002604,-0.00018389,-0.09952152,0.23086701,0.27997697\\0
 .00000643,0.00001143,0.00000587,-0.00001046,-0.00003342,0.00000463,0.0
 0000486,0.00000840,-0.00000593,-0.00000529,0.00000308,0.00001980,-0.00
 002542,0.00001842,-0.00003243,0.00000320,-0.00001543,0.00001542,0.0000
 0403,0.00003063,0.00002680,-0.00001024,-0.00001561,-0.00001752,-0.0000
 0480,0.00000055,0.00000673,-0.00000007,-0.00000158,-0.00000069,0.00000
 206,-0.00000219,0.00000189,-0.00000006,0.00000131,-0.00000248,0.000002
 47,0.00000107,-0.00000052,0.00000230,-0.00000281,-0.00000099,0.0000104
 8,0.00000287,-0.00000465,-0.00000530,0.00000131,0.00000194,-0.00000408
 ,0.00000223,0.00000386,0.00001120,-0.00001087,-0.00000278,-0.00000088,
 -0.00000011,-0.00001821,0.00001957,0.00000071,-0.00000074\\\@


 NEVER TEACH A PIG TO SING.
 IT WASTES YOUR TIME AND ANNOYS THE PIG.
     -- SEEN ON A GREETING CARD
 Job cpu time:       0 days  0 hours 49 minutes 45.5 seconds.
 Elapsed time:       0 days  0 hours  2 minutes  6.3 seconds.
 File lengths (MBytes):  RWF=    121 Int=      0 D2E=      0 Chk=      7 Scr=      1
 Normal termination of Gaussian 16 at Sun Oct 13 23:57:11 2019.
real 493.79
user 11510.34
sys 40.07
Machine:
brown-a109
brown-a109
brown-a109
brown-a109
brown-a109
brown-a109
brown-a109
brown-a109
brown-a109
brown-a109
brown-a109
brown-a109
brown-a109
brown-a109
brown-a109
brown-a109
brown-a109
brown-a109
brown-a109
brown-a109
brown-a109
brown-a109
brown-a109
brown-a109
