 Entering Gaussian System, Link 0=/apps/cent7/gaussian/g16-A.03/g16-haswell/g16/g16
 Initial command:
 /apps/cent7/gaussian/g16-A.03/g16-haswell/g16/l1.exe "/scratch/brown/finej/gaussian/Gau-342829.inp" -scrdir="/scratch/brown/finej/gaussian/"
 Entering Link 1 = /apps/cent7/gaussian/g16-A.03/g16-haswell/g16/l1.exe PID=    342830.
  
 Copyright (c) 1988,1990,1992,1993,1995,1998,2003,2009,2016,
            Gaussian, Inc.  All Rights Reserved.
  
 This is part of the Gaussian(R) 16 program.  It is based on
 the Gaussian(R) 09 system (copyright 2009, Gaussian, Inc.),
 the Gaussian(R) 03 system (copyright 2003, Gaussian, Inc.),
 the Gaussian(R) 98 system (copyright 1998, Gaussian, Inc.),
 the Gaussian(R) 94 system (copyright 1995, Gaussian, Inc.),
 the Gaussian 92(TM) system (copyright 1992, Gaussian, Inc.),
 the Gaussian 90(TM) system (copyright 1990, Gaussian, Inc.),
 the Gaussian 88(TM) system (copyright 1988, Gaussian, Inc.),
 the Gaussian 86(TM) system (copyright 1986, Carnegie Mellon
 University), and the Gaussian 82(TM) system (copyright 1983,
 Carnegie Mellon University). Gaussian is a federally registered
 trademark of Gaussian, Inc.
  
 This software contains proprietary and confidential information,
 including trade secrets, belonging to Gaussian, Inc.
  
 This software is provided under written license and may be
 used, copied, transmitted, or stored only in accord with that
 written license.
  
 The following legend is applicable only to US Government
 contracts under FAR:
  
                    RESTRICTED RIGHTS LEGEND
  
 Use, reproduction and disclosure by the US Government is
 subject to restrictions as set forth in subparagraphs (a)
 and (c) of the Commercial Computer Software - Restricted
 Rights clause in FAR 52.227-19.
  
 Gaussian, Inc.
 340 Quinnipiac St., Bldg. 40, Wallingford CT 06492
  
  
 ---------------------------------------------------------------
 Warning -- This program may not be used in any manner that
 competes with the business of Gaussian, Inc. or will provide
 assistance to any competitor of Gaussian, Inc.  The licensee
 of this program is prohibited from giving any competitor of
 Gaussian, Inc. access to this program.  By using this program,
 the user acknowledges that Gaussian, Inc. is engaged in the
 business of creating and licensing software in the field of
 computational chemistry and represents and warrants to the
 licensee that it is not a competitor of Gaussian, Inc. and that
 it will not use this program in any manner prohibited above.
 ---------------------------------------------------------------
  

 Cite this work as:
 Gaussian 16, Revision A.03,
 M. J. Frisch, G. W. Trucks, H. B. Schlegel, G. E. Scuseria, 
 M. A. Robb, J. R. Cheeseman, G. Scalmani, V. Barone, 
 G. A. Petersson, H. Nakatsuji, X. Li, M. Caricato, A. V. Marenich, 
 J. Bloino, B. G. Janesko, R. Gomperts, B. Mennucci, H. P. Hratchian, 
 J. V. Ortiz, A. F. Izmaylov, J. L. Sonnenberg, D. Williams-Young, 
 F. Ding, F. Lipparini, F. Egidi, J. Goings, B. Peng, A. Petrone, 
 T. Henderson, D. Ranasinghe, V. G. Zakrzewski, J. Gao, N. Rega, 
 G. Zheng, W. Liang, M. Hada, M. Ehara, K. Toyota, R. Fukuda, 
 J. Hasegawa, M. Ishida, T. Nakajima, Y. Honda, O. Kitao, H. Nakai, 
 T. Vreven, K. Throssell, J. A. Montgomery, Jr., J. E. Peralta, 
 F. Ogliaro, M. J. Bearpark, J. J. Heyd, E. N. Brothers, K. N. Kudin, 
 V. N. Staroverov, T. A. Keith, R. Kobayashi, J. Normand, 
 K. Raghavachari, A. P. Rendell, J. C. Burant, S. S. Iyengar, 
 J. Tomasi, M. Cossi, J. M. Millam, M. Klene, C. Adamo, R. Cammi, 
 J. W. Ochterski, R. L. Martin, K. Morokuma, O. Farkas, 
 J. B. Foresman, and D. J. Fox, Gaussian, Inc., Wallingford CT, 2016.
 
 ******************************************
 Gaussian 16:  ES64L-G16RevA.03 25-Dec-2016
                13-Oct-2019 
 ******************************************
 %chk=6_p.chk
 %nprocshared=24
 Will use up to   24 processors via shared memory.
 %mem=20GB
 -------------------------------------------------------------------
 #p opt freq m062x/6-311++g(d,p) geom=connectivity temperature=0.001
 -------------------------------------------------------------------
 1/18=20,19=15,26=3,38=1,57=2,112=-1000/1,3;
 2/9=110,12=2,17=6,18=5,40=1/2;
 3/5=4,6=6,7=1111,11=2,25=1,30=1,71=1,74=-55/1,2,3;
 4//1;
 5/5=2,38=5/2;
 6/7=2,8=2,9=2,10=2,28=1/1;
 7//1,2,3,16;
 1/18=20,19=15,26=3/3(2);
 2/9=110/2;
 99//99;
 2/9=110/2;
 3/5=4,6=6,7=1111,11=2,25=1,30=1,71=1,74=-55/1,2,3;
 4/5=5,16=3,69=1/1;
 5/5=2,38=5/2;
 7//1,2,3,16;
 1/18=20,19=15,26=3/3(-5);
 2/9=110/2;
 6/7=2,8=2,9=2,10=2,19=2,28=1/1;
 99/9=1/99;
 Leave Link    1 at Sun Oct 13 23:50:15 2019, MaxMem=  2684354560 cpu:               1.9 elap:               0.1
 (Enter /apps/cent7/gaussian/g16-A.03/g16-haswell/g16/l101.exe)
 -------------------
 Title Card Required
 -------------------
 Symbolic Z-matrix:
 Charge =  1 Multiplicity = 2
 C                    -1.5576   -0.541     2.3284 
 C                    -0.5428   -0.845     1.1705 
 C                     0.4809   -1.8724    1.783 
 C                    -1.2566   -1.5186   -0.0532 
 C                    -2.0789   -0.5317   -0.9217 
 C                    -1.2497    0.7104   -1.34 
 C                    -0.5491    1.436    -0.1393 
 C                    -1.5775    2.2763    0.6984 
 C                     0.4702    2.4915   -0.709 
 N                     0.1776    0.4148    0.7202 
 O                     1.3634    0.0765    0.1262 
 H                    -1.9237   -1.4789    2.7462 
 H                    -1.0576    0.0334    3.1082 
 H                    -2.3962    0.0334    1.9351 
 H                     0.4349   -1.8263    2.8711 
 H                     0.2277   -2.8793    1.451 
 H                     1.4887   -1.623     1.451 
 H                    -0.461    -1.8865   -0.7011 
 H                    -1.9828   -2.2143    0.3671 
 H                    -2.3167   -1.0632   -1.8432 
 H                    -2.8812   -0.1611   -0.2837 
 H                    -0.4474    0.3291   -1.9717 
 H                    -1.9698    1.4221   -1.7439 
 H                    -1.3909    2.1238    1.7614 
 H                    -1.4646    3.3334    0.4577 
 H                    -2.5909    1.955     0.4577 
 H                     0.9638    3.0027    0.1175 
 H                     1.2165    1.9832   -1.3195 
 H                    -0.064     3.2196   -1.3195 
 H                     2.09267   0.38547   0.6687 
 
 ITRead=  0  0  0  0  0  0  0  0  0  0  0  0  0  0  0  0  0  0  0  0
 ITRead=  0  0  0  0  0  0  0  0  0  0
 MicOpt= -1 -1 -1 -1 -1 -1 -1 -1 -1 -1 -1 -1 -1 -1 -1 -1 -1 -1 -1 -1
 MicOpt= -1 -1 -1 -1 -1 -1 -1 -1 -1 -1
 NAtoms=     30 NQM=       30 NQMF=       0 NMMI=      0 NMMIF=      0
                NMic=       0 NMicF=      0.
                    Isotopes and Nuclear Properties:
 (Nuclear quadrupole moments (NQMom) in fm**2, nuclear magnetic moments (NMagM)
  in nuclear magnetons)

  Atom         1           2           3           4           5           6           7           8           9          10
 IAtWgt=          12          12          12          12          12          12          12          12          12          14
 AtmWgt=  12.0000000  12.0000000  12.0000000  12.0000000  12.0000000  12.0000000  12.0000000  12.0000000  12.0000000  14.0030740
 NucSpn=           0           0           0           0           0           0           0           0           0           2
 AtZEff=  -0.0000000  -0.0000000  -0.0000000  -0.0000000  -0.0000000  -0.0000000  -0.0000000  -0.0000000  -0.0000000  -0.0000000
 NQMom=    0.0000000   0.0000000   0.0000000   0.0000000   0.0000000   0.0000000   0.0000000   0.0000000   0.0000000   2.0440000
 NMagM=    0.0000000   0.0000000   0.0000000   0.0000000   0.0000000   0.0000000   0.0000000   0.0000000   0.0000000   0.4037610
 AtZNuc=   6.0000000   6.0000000   6.0000000   6.0000000   6.0000000   6.0000000   6.0000000   6.0000000   6.0000000   7.0000000

  Atom        11          12          13          14          15          16          17          18          19          20
 IAtWgt=          16           1           1           1           1           1           1           1           1           1
 AtmWgt=  15.9949146   1.0078250   1.0078250   1.0078250   1.0078250   1.0078250   1.0078250   1.0078250   1.0078250   1.0078250
 NucSpn=           0           1           1           1           1           1           1           1           1           1
 AtZEff=  -0.0000000  -0.0000000  -0.0000000  -0.0000000  -0.0000000  -0.0000000  -0.0000000  -0.0000000  -0.0000000  -0.0000000
 NQMom=    0.0000000   0.0000000   0.0000000   0.0000000   0.0000000   0.0000000   0.0000000   0.0000000   0.0000000   0.0000000
 NMagM=    0.0000000   2.7928460   2.7928460   2.7928460   2.7928460   2.7928460   2.7928460   2.7928460   2.7928460   2.7928460
 AtZNuc=   8.0000000   1.0000000   1.0000000   1.0000000   1.0000000   1.0000000   1.0000000   1.0000000   1.0000000   1.0000000

  Atom        21          22          23          24          25          26          27          28          29          30
 IAtWgt=           1           1           1           1           1           1           1           1           1           1
 AtmWgt=   1.0078250   1.0078250   1.0078250   1.0078250   1.0078250   1.0078250   1.0078250   1.0078250   1.0078250   1.0078250
 NucSpn=           1           1           1           1           1           1           1           1           1           1
 AtZEff=  -0.0000000  -0.0000000  -0.0000000  -0.0000000  -0.0000000  -0.0000000  -0.0000000  -0.0000000  -0.0000000  -0.0000000
 NQMom=    0.0000000   0.0000000   0.0000000   0.0000000   0.0000000   0.0000000   0.0000000   0.0000000   0.0000000   0.0000000
 NMagM=    2.7928460   2.7928460   2.7928460   2.7928460   2.7928460   2.7928460   2.7928460   2.7928460   2.7928460   2.7928460
 AtZNuc=   1.0000000   1.0000000   1.0000000   1.0000000   1.0000000   1.0000000   1.0000000   1.0000000   1.0000000   1.0000000
 Leave Link  101 at Sun Oct 13 23:50:16 2019, MaxMem=  2684354560 cpu:               8.5 elap:               0.4
 (Enter /apps/cent7/gaussian/g16-A.03/g16-haswell/g16/l103.exe)

 GradGradGradGradGradGradGradGradGradGradGradGradGradGradGradGradGradGrad
 Berny optimization.
 Initialization pass.
                           ----------------------------
                           !    Initial Parameters    !
                           ! (Angstroms and Degrees)  !
 --------------------------                            --------------------------
 ! Name  Definition              Value          Derivative Info.                !
 --------------------------------------------------------------------------------
 ! R1    R(1,2)                  1.5694         estimate D2E/DX2                !
 ! R2    R(1,12)                 1.0901         estimate D2E/DX2                !
 ! R3    R(1,13)                 1.09           estimate D2E/DX2                !
 ! R4    R(1,14)                 1.0899         estimate D2E/DX2                !
 ! R5    R(2,3)                  1.5744         estimate D2E/DX2                !
 ! R6    R(2,4)                  1.5687         estimate D2E/DX2                !
 ! R7    R(2,10)                 1.5195         estimate D2E/DX2                !
 ! R8    R(3,15)                 1.09           estimate D2E/DX2                !
 ! R9    R(3,16)                 1.09           estimate D2E/DX2                !
 ! R10   R(3,17)                 1.09           estimate D2E/DX2                !
 ! R11   R(4,5)                  1.5506         estimate D2E/DX2                !
 ! R12   R(4,18)                 1.09           estimate D2E/DX2                !
 ! R13   R(4,19)                 1.09           estimate D2E/DX2                !
 ! R14   R(5,6)                  1.5509         estimate D2E/DX2                !
 ! R15   R(5,20)                 1.09           estimate D2E/DX2                !
 ! R16   R(5,21)                 1.09           estimate D2E/DX2                !
 ! R17   R(6,7)                  1.5681         estimate D2E/DX2                !
 ! R18   R(6,22)                 1.09           estimate D2E/DX2                !
 ! R19   R(6,23)                 1.09           estimate D2E/DX2                !
 ! R20   R(7,8)                  1.5702         estimate D2E/DX2                !
 ! R21   R(7,9)                  1.574          estimate D2E/DX2                !
 ! R22   R(7,10)                 1.5198         estimate D2E/DX2                !
 ! R23   R(8,24)                 1.09           estimate D2E/DX2                !
 ! R24   R(8,25)                 1.09           estimate D2E/DX2                !
 ! R25   R(8,26)                 1.09           estimate D2E/DX2                !
 ! R26   R(9,27)                 1.09           estimate D2E/DX2                !
 ! R27   R(9,28)                 1.09           estimate D2E/DX2                !
 ! R28   R(9,29)                 1.0901         estimate D2E/DX2                !
 ! R29   R(10,11)                1.3687         estimate D2E/DX2                !
 ! R30   R(11,30)                0.96           estimate D2E/DX2                !
 ! A1    A(2,1,12)             109.4685         estimate D2E/DX2                !
 ! A2    A(2,1,13)             109.4697         estimate D2E/DX2                !
 ! A3    A(2,1,14)             109.4738         estimate D2E/DX2                !
 ! A4    A(12,1,13)            109.4679         estimate D2E/DX2                !
 ! A5    A(12,1,14)            109.4723         estimate D2E/DX2                !
 ! A6    A(13,1,14)            109.4752         estimate D2E/DX2                !
 ! A7    A(1,2,3)              105.0594         estimate D2E/DX2                !
 ! A8    A(1,2,4)              111.3767         estimate D2E/DX2                !
 ! A9    A(1,2,10)             111.3839         estimate D2E/DX2                !
 ! A10   A(3,2,4)              108.6111         estimate D2E/DX2                !
 ! A11   A(3,2,10)             110.3689         estimate D2E/DX2                !
 ! A12   A(4,2,10)             109.9122         estimate D2E/DX2                !
 ! A13   A(2,3,15)             109.4698         estimate D2E/DX2                !
 ! A14   A(2,3,16)             109.4675         estimate D2E/DX2                !
 ! A15   A(2,3,17)             109.4741         estimate D2E/DX2                !
 ! A16   A(15,3,16)            109.469          estimate D2E/DX2                !
 ! A17   A(15,3,17)            109.4744         estimate D2E/DX2                !
 ! A18   A(16,3,17)            109.4726         estimate D2E/DX2                !
 ! A19   A(2,4,5)              113.8871         estimate D2E/DX2                !
 ! A20   A(2,4,18)             106.0508         estimate D2E/DX2                !
 ! A21   A(2,4,19)             106.0483         estimate D2E/DX2                !
 ! A22   A(5,4,18)             105.6027         estimate D2E/DX2                !
 ! A23   A(5,4,19)             105.5984         estimate D2E/DX2                !
 ! A24   A(18,4,19)            120.0055         estimate D2E/DX2                !
 ! A25   A(4,5,6)              112.164          estimate D2E/DX2                !
 ! A26   A(4,5,20)             106.1916         estimate D2E/DX2                !
 ! A27   A(4,5,21)             106.1941         estimate D2E/DX2                !
 ! A28   A(6,5,20)             106.2085         estimate D2E/DX2                !
 ! A29   A(6,5,21)             106.2067         estimate D2E/DX2                !
 ! A30   A(20,5,21)            120.0019         estimate D2E/DX2                !
 ! A31   A(5,6,7)              113.7617         estimate D2E/DX2                !
 ! A32   A(5,6,22)             105.6451         estimate D2E/DX2                !
 ! A33   A(5,6,23)             105.6429         estimate D2E/DX2                !
 ! A34   A(7,6,22)             106.0671         estimate D2E/DX2                !
 ! A35   A(7,6,23)             106.0663         estimate D2E/DX2                !
 ! A36   A(22,6,23)            119.9936         estimate D2E/DX2                !
 ! A37   A(6,7,8)              111.316          estimate D2E/DX2                !
 ! A38   A(6,7,9)              108.8124         estimate D2E/DX2                !
 ! A39   A(6,7,10)             109.618          estimate D2E/DX2                !
 ! A40   A(8,7,9)              104.9729         estimate D2E/DX2                !
 ! A41   A(8,7,10)             111.7808         estimate D2E/DX2                !
 ! A42   A(9,7,10)             110.2203         estimate D2E/DX2                !
 ! A43   A(7,8,24)             109.4693         estimate D2E/DX2                !
 ! A44   A(7,8,25)             109.4724         estimate D2E/DX2                !
 ! A45   A(7,8,26)             109.4729         estimate D2E/DX2                !
 ! A46   A(24,8,25)            109.4699         estimate D2E/DX2                !
 ! A47   A(24,8,26)            109.4678         estimate D2E/DX2                !
 ! A48   A(25,8,26)            109.475          estimate D2E/DX2                !
 ! A49   A(7,9,27)             109.4693         estimate D2E/DX2                !
 ! A50   A(7,9,28)             109.475          estimate D2E/DX2                !
 ! A51   A(7,9,29)             109.4667         estimate D2E/DX2                !
 ! A52   A(27,9,28)            109.4727         estimate D2E/DX2                !
 ! A53   A(27,9,29)            109.4716         estimate D2E/DX2                !
 ! A54   A(28,9,29)            109.472          estimate D2E/DX2                !
 ! A55   A(2,10,7)             119.8681         estimate D2E/DX2                !
 ! A56   A(2,10,11)            109.538          estimate D2E/DX2                !
 ! A57   A(7,10,11)            109.5668         estimate D2E/DX2                !
 ! A58   A(10,11,30)           109.4712         estimate D2E/DX2                !
 ! D1    D(12,1,2,3)           -50.5249         estimate D2E/DX2                !
 ! D2    D(12,1,2,4)            66.8769         estimate D2E/DX2                !
 ! D3    D(12,1,2,10)         -170.0265         estimate D2E/DX2                !
 ! D4    D(13,1,2,3)            69.4684         estimate D2E/DX2                !
 ! D5    D(13,1,2,4)          -173.1298         estimate D2E/DX2                !
 ! D6    D(13,1,2,10)          -50.0332         estimate D2E/DX2                !
 ! D7    D(14,1,2,3)          -170.5261         estimate D2E/DX2                !
 ! D8    D(14,1,2,4)           -53.1243         estimate D2E/DX2                !
 ! D9    D(14,1,2,10)           69.9723         estimate D2E/DX2                !
 ! D10   D(1,2,3,15)           -19.4338         estimate D2E/DX2                !
 ! D11   D(1,2,3,16)           100.5603         estimate D2E/DX2                !
 ! D12   D(1,2,3,17)          -139.4385         estimate D2E/DX2                !
 ! D13   D(4,2,3,15)          -138.7019         estimate D2E/DX2                !
 ! D14   D(4,2,3,16)           -18.7078         estimate D2E/DX2                !
 ! D15   D(4,2,3,17)           101.2934         estimate D2E/DX2                !
 ! D16   D(10,2,3,15)          100.7427         estimate D2E/DX2                !
 ! D17   D(10,2,3,16)         -139.2632         estimate D2E/DX2                !
 ! D18   D(10,2,3,17)          -19.2621         estimate D2E/DX2                !
 ! D19   D(1,2,4,5)             76.3767         estimate D2E/DX2                !
 ! D20   D(1,2,4,18)          -167.9328         estimate D2E/DX2                !
 ! D21   D(1,2,4,19)           -39.307          estimate D2E/DX2                !
 ! D22   D(3,2,4,5)           -168.395          estimate D2E/DX2                !
 ! D23   D(3,2,4,18)           -52.7045         estimate D2E/DX2                !
 ! D24   D(3,2,4,19)            75.9213         estimate D2E/DX2                !
 ! D25   D(10,2,4,5)           -47.5574         estimate D2E/DX2                !
 ! D26   D(10,2,4,18)           68.1331         estimate D2E/DX2                !
 ! D27   D(10,2,4,19)         -163.2411         estimate D2E/DX2                !
 ! D28   D(1,2,10,7)           -75.3905         estimate D2E/DX2                !
 ! D29   D(1,2,10,11)          156.7597         estimate D2E/DX2                !
 ! D30   D(3,2,10,7)           168.3126         estimate D2E/DX2                !
 ! D31   D(3,2,10,11)           40.4627         estimate D2E/DX2                !
 ! D32   D(4,2,10,7)            48.5395         estimate D2E/DX2                !
 ! D33   D(4,2,10,11)          -79.3104         estimate D2E/DX2                !
 ! D34   D(2,4,5,6)             51.2901         estimate D2E/DX2                !
 ! D35   D(2,4,5,20)           166.8934         estimate D2E/DX2                !
 ! D36   D(2,4,5,21)           -64.3126         estimate D2E/DX2                !
 ! D37   D(18,4,5,6)           -64.6629         estimate D2E/DX2                !
 ! D38   D(18,4,5,20)           50.9404         estimate D2E/DX2                !
 ! D39   D(18,4,5,21)          179.7344         estimate D2E/DX2                !
 ! D40   D(19,4,5,6)           167.2374         estimate D2E/DX2                !
 ! D41   D(19,4,5,20)          -77.1593         estimate D2E/DX2                !
 ! D42   D(19,4,5,21)           51.6347         estimate D2E/DX2                !
 ! D43   D(4,5,6,7)            -51.8743         estimate D2E/DX2                !
 ! D44   D(4,5,6,22)            64.0592         estimate D2E/DX2                !
 ! D45   D(4,5,6,23)          -167.8054         estimate D2E/DX2                !
 ! D46   D(20,5,6,7)          -167.4673         estimate D2E/DX2                !
 ! D47   D(20,5,6,22)          -51.5339         estimate D2E/DX2                !
 ! D48   D(20,5,6,23)           76.6015         estimate D2E/DX2                !
 ! D49   D(21,5,6,7)            63.7208         estimate D2E/DX2                !
 ! D50   D(21,5,6,22)          179.6542         estimate D2E/DX2                !
 ! D51   D(21,5,6,23)          -52.2104         estimate D2E/DX2                !
 ! D52   D(5,6,7,8)            -75.607          estimate D2E/DX2                !
 ! D53   D(5,6,7,9)            169.1842         estimate D2E/DX2                !
 ! D54   D(5,6,7,10)            48.5826         estimate D2E/DX2                !
 ! D55   D(22,6,7,8)           168.7074         estimate D2E/DX2                !
 ! D56   D(22,6,7,9)            53.4987         estimate D2E/DX2                !
 ! D57   D(22,6,7,10)          -67.1029         estimate D2E/DX2                !
 ! D58   D(23,6,7,8)            40.0755         estimate D2E/DX2                !
 ! D59   D(23,6,7,9)           -75.1333         estimate D2E/DX2                !
 ! D60   D(23,6,7,10)          164.2651         estimate D2E/DX2                !
 ! D61   D(6,7,8,24)           136.5207         estimate D2E/DX2                !
 ! D62   D(6,7,8,25)          -103.4815         estimate D2E/DX2                !
 ! D63   D(6,7,8,26)            16.5249         estimate D2E/DX2                !
 ! D64   D(9,7,8,24)          -105.9195         estimate D2E/DX2                !
 ! D65   D(9,7,8,25)            14.0784         estimate D2E/DX2                !
 ! D66   D(9,7,8,26)           134.0848         estimate D2E/DX2                !
 ! D67   D(10,7,8,24)           13.5624         estimate D2E/DX2                !
 ! D68   D(10,7,8,25)          133.5602         estimate D2E/DX2                !
 ! D69   D(10,7,8,26)         -106.4334         estimate D2E/DX2                !
 ! D70   D(6,7,9,27)          -179.9995         estimate D2E/DX2                !
 ! D71   D(6,7,9,28)           -59.9966         estimate D2E/DX2                !
 ! D72   D(6,7,9,29)            60.0039         estimate D2E/DX2                !
 ! D73   D(8,7,9,27)            60.7497         estimate D2E/DX2                !
 ! D74   D(8,7,9,28)          -179.2474         estimate D2E/DX2                !
 ! D75   D(8,7,9,29)           -59.2469         estimate D2E/DX2                !
 ! D76   D(10,7,9,27)          -59.7698         estimate D2E/DX2                !
 ! D77   D(10,7,9,28)           60.2332         estimate D2E/DX2                !
 ! D78   D(10,7,9,29)         -179.7663         estimate D2E/DX2                !
 ! D79   D(6,7,10,2)           -49.0134         estimate D2E/DX2                !
 ! D80   D(6,7,10,11)           78.8233         estimate D2E/DX2                !
 ! D81   D(8,7,10,2)            74.9047         estimate D2E/DX2                !
 ! D82   D(8,7,10,11)         -157.2586         estimate D2E/DX2                !
 ! D83   D(9,7,10,2)          -168.7567         estimate D2E/DX2                !
 ! D84   D(9,7,10,11)          -40.92           estimate D2E/DX2                !
 ! D85   D(2,10,11,30)        -113.0614         estimate D2E/DX2                !
 ! D86   D(7,10,11,30)         113.5495         estimate D2E/DX2                !
 --------------------------------------------------------------------------------
 Trust Radius=3.00D-01 FncErr=1.00D-07 GrdErr=1.00D-06 EigMax=2.50D+02 EigMin=1.00D-04
 Number of steps in this run=    180 maximum allowed number of steps=    180.
 GradGradGradGradGradGradGradGradGradGradGradGradGradGradGradGradGradGrad

 Leave Link  103 at Sun Oct 13 23:50:16 2019, MaxMem=  2684354560 cpu:               0.3 elap:               0.0
 (Enter /apps/cent7/gaussian/g16-A.03/g16-haswell/g16/l202.exe)
                          Input orientation:                          
 ---------------------------------------------------------------------
 Center     Atomic      Atomic             Coordinates (Angstroms)
 Number     Number       Type             X           Y           Z
 ---------------------------------------------------------------------
      1          6           0       -1.557600   -0.541000    2.328400
      2          6           0       -0.542800   -0.845000    1.170500
      3          6           0        0.480900   -1.872400    1.783000
      4          6           0       -1.256600   -1.518600   -0.053200
      5          6           0       -2.078900   -0.531700   -0.921700
      6          6           0       -1.249700    0.710400   -1.340000
      7          6           0       -0.549100    1.436000   -0.139300
      8          6           0       -1.577500    2.276300    0.698400
      9          6           0        0.470200    2.491500   -0.709000
     10          7           0        0.177600    0.414800    0.720200
     11          8           0        1.363400    0.076500    0.126200
     12          1           0       -1.923700   -1.478900    2.746200
     13          1           0       -1.057600    0.033400    3.108200
     14          1           0       -2.396200    0.033400    1.935100
     15          1           0        0.434900   -1.826300    2.871100
     16          1           0        0.227700   -2.879300    1.451000
     17          1           0        1.488700   -1.623000    1.451000
     18          1           0       -0.461000   -1.886500   -0.701100
     19          1           0       -1.982800   -2.214300    0.367100
     20          1           0       -2.316700   -1.063200   -1.843200
     21          1           0       -2.881200   -0.161100   -0.283700
     22          1           0       -0.447400    0.329100   -1.971700
     23          1           0       -1.969800    1.422100   -1.743900
     24          1           0       -1.390900    2.123800    1.761400
     25          1           0       -1.464600    3.333400    0.457700
     26          1           0       -2.590900    1.955000    0.457700
     27          1           0        0.963800    3.002700    0.117500
     28          1           0        1.216500    1.983200   -1.319500
     29          1           0       -0.064000    3.219600   -1.319500
     30          1           0        2.092665    0.385471    0.668703
 ---------------------------------------------------------------------
                    Distance matrix (angstroms):
                    1          2          3          4          5
     1  C    0.000000
     2  C    1.569384   0.000000
     3  C    2.495109   1.574379   0.000000
     4  C    2.591972   1.568658   2.552589   0.000000
     5  C    3.291655   2.614395   3.957961   1.550626   0.000000
     6  C    3.888182   3.036707   4.406695   2.573780   1.550922
     7  C    3.318907   2.630319   3.962530   3.039347   2.612332
     8  C    3.254916   3.322047   4.756583   3.881900   3.280395
     9  C    4.746981   3.961177   5.025316   4.415067   3.960163
    10  N    2.551623   1.519488   2.540240   2.528461   2.946776
    11  O    3.709883   2.360789   2.705920   3.072609   3.649306
    12  H    1.090065   2.188960   2.620057   2.878062   3.791407
    13  H    1.089965   2.188901   2.784818   3.527429   4.195532
    14  H    1.089895   2.188902   3.454405   2.767802   2.929390
    15  H    2.432401   2.193374   1.090047   3.392253   4.730805
    16  H    3.069979   2.193337   1.090038   2.513418   4.057257
    17  H    3.349701   2.193389   1.089993   3.132122   4.421358
    18  H    3.491529   2.143432   2.656714   1.090002   2.121732
    19  H    2.612934   2.143370   2.862077   1.089962   2.121646
    20  H    4.272139   3.503815   4.650881   2.129625   1.090047
    21  H    2.952847   2.837346   4.301571   2.129615   1.089988
    22  H    4.525536   3.355746   4.450406   2.783782   2.122562
    23  H    4.539526   3.958510   5.412826   3.466243   2.122557
    24  H    2.729549   3.143598   4.412903   4.071595   3.837193
    25  H    4.303387   4.337837   5.713295   4.883256   4.149591
    26  H    3.285916   3.541581   5.083440   3.755965   2.889388
    27  H    4.878867   4.264205   5.174329   5.039987   4.778069
    28  H    5.232054   4.158600   5.003225   4.470161   4.164448
    29  H    5.447947   4.790649   5.987561   5.047410   4.276718
    30  H    4.115505   2.951531   2.989553   3.919720   4.557690
                    6          7          8          9         10
     6  C    0.000000
     7  C    1.568125   0.000000
     8  C    2.591249   1.570176   0.000000
     9  C    2.555100   1.574043   2.494025   0.000000
    10  N    2.523686   1.519764   2.558522   2.537895   0.000000
    11  O    3.062656   2.361437   3.716911   2.706952   1.368724
    12  H    4.684479   4.325769   4.291255   5.782148   3.479402
    13  H    4.503522   3.573810   3.332872   4.790349   2.715461
    14  H    3.535403   3.111623   2.688921   4.609747   2.871567
    15  H    5.196738   4.546797   5.059813   5.609078   3.116906
    16  H    4.781039   4.664149   5.514106   5.793954   3.374563
    17  H    4.553380   4.004892   5.017223   4.757316   2.530945
    18  H    2.788213   3.370814   4.531454   4.475945   2.779188
    19  H    3.464895   3.954317   4.521008   5.414772   3.421136
    20  H    2.130107   3.503382   4.261268   4.657157   3.870018
    21  H    2.130041   2.830242   2.933440   4.295236   3.270433
    22  H    1.090009   2.143189   3.492585   2.666904   2.764832
    23  H    1.090044   2.143204   2.616942   2.858012   3.420200
    24  H    3.411205   2.189602   1.089975   3.114767   2.542631
    25  H    3.187167   2.189675   1.090020   2.411107   3.359160
    26  H    2.565068   2.189684   1.090023   3.319541   3.178949
    27  H    3.504073   2.193026   2.706161   1.089986   2.771026
    28  H    2.775353   2.193090   3.458940   1.089974   2.774810
    29  H    2.775318   2.193040   2.693031   1.090050   3.476442
    30  H    3.913039   2.955572   4.128708   2.994298   1.915982
                   11         12         13         14         15
    11  O    0.000000
    12  H    4.482041   0.000000
    13  H    3.841279   1.779951   0.000000
    14  H    4.172358   1.779941   1.779891   0.000000
    15  H    3.466589   2.387317   2.396301   3.514215   0.000000
    16  H    3.432443   2.875271   3.589168   3.950066   1.780007
    17  H    2.158494   3.652777   3.460291   4.250937   1.780031
    18  H    2.804680   3.766896   4.307286   3.792172   3.683324
    19  H    4.062370   2.490868   3.663575   2.771584   3.502261
    20  H    4.326730   4.624916   5.225345   3.935023   5.511647
    21  H    4.270960   3.440014   3.855948   2.279502   4.870541
    22  H    2.782802   5.263735   5.124955   4.375882   5.373724
    23  H    4.051930   5.345926   5.128691   3.955420   6.134567
    24  H    3.801511   3.772685   2.508930   2.326064   4.490910
    25  H    4.326069   5.348480   4.252152   3.733710   6.004590
    26  H    4.390347   4.180198   3.615066   2.431700   5.410933
    27  H    2.953371   5.944111   4.674087   4.838389   5.584021
    28  H    2.397318   6.194910   5.345819   5.238868   5.717020
    29  H    3.742539   6.485700   5.544695   5.116976   6.578080
    30  H    0.960000   4.891121   3.999909   4.677353   3.534214
                   16         17         18         19         20
    16  H    0.000000
    17  H    1.780003   0.000000
    18  H    2.468095   2.915870   0.000000
    19  H    2.550171   3.684534   1.887956   0.000000
    20  H    4.541359   5.064208   2.329343   2.514348   0.000000
    21  H    4.479180   4.923653   3.001432   2.333730   1.887984
    22  H    4.739669   4.390222   2.554113   3.781048   2.334372
    23  H    5.791238   5.607249   3.782954   4.204747   2.511357
    24  H    5.267563   4.735711   4.796991   4.594946   4.899716
    25  H    6.515226   5.854445   5.440348   5.572586   5.034909
    26  H    5.683450   5.516508   4.542732   4.214387   3.805109
    27  H    6.076018   4.842607   5.157949   5.996819   5.580105
    28  H    5.683072   4.555704   4.262746   5.540681   4.694499
    29  H    6.705024   5.791142   5.158710   6.004472   4.867370
    30  H    3.840418   2.238463   3.682311   4.843469   5.277386
                   21         22         23         24         25
    21  H    0.000000
    22  H    3.002170   0.000000
    23  H    2.338665   1.887920   0.000000
    24  H    3.409428   4.248197   3.621414   0.000000
    25  H    3.842910   3.995310   2.958942   1.779943   0.000000
    26  H    2.260935   3.624931   2.348785   1.779923   1.780039
    27  H    4.995460   3.674830   3.816951   3.003246   2.474313
    28  H    4.739414   2.435154   3.263044   4.038595   3.488521
    29  H    4.520910   2.987867   2.653902   3.528936   2.265628
    30  H    5.093638   3.664265   4.837239   4.043637   4.624818
                   26         27         28         29         30
    26  H    0.000000
    27  H    3.721465   0.000000
    28  H    4.201848   1.779946   0.000000
    29  H    3.338095   1.779996   1.779990   0.000000
    30  H    4.944060   2.903110   2.696916   4.078780   0.000000
 Stoichiometry    C9H19NO(1+,2)
 Framework group  C1[X(C9H19NO)]
 Deg. of freedom    84
 Full point group                 C1      NOp   1
 Largest Abelian subgroup         C1      NOp   1
 Largest concise Abelian subgroup C1      NOp   1
                         Standard orientation:                         
 ---------------------------------------------------------------------
 Center     Atomic      Atomic             Coordinates (Angstroms)
 Number     Number       Type             X           Y           Z
 ---------------------------------------------------------------------
      1          6           0       -1.623862    0.554568    1.579774
      2          6           0       -1.315003   -0.070936    0.173958
      3          6           0       -2.514238   -1.050586   -0.110280
      4          6           0       -1.288505    1.026340   -0.946743
      5          6           0        0.002263    1.885589   -0.953818
      6          6           0        1.285218    1.014176   -0.958724
      7          6           0        1.315314   -0.072433    0.171494
      8          6           0        1.631014    0.567433    1.570192
      9          6           0        2.511069   -1.058297   -0.103925
     10          7           0       -0.000427   -0.832937    0.183326
     11          8           0       -0.002320   -1.761346   -0.822387
     12          1           0       -2.644149    0.938159    1.590518
     13          1           0       -1.514968   -0.209639    2.349289
     14          1           0       -0.927240    1.369520    1.775838
     15          1           0       -3.015243   -1.293101    0.826941
     16          1           0       -3.221849   -0.571782   -0.787196
     17          1           0       -2.135998   -1.964980   -0.567339
     18          1           0       -1.288016    0.488730   -1.894941
     19          1           0       -2.098755    1.716528   -0.711896
     20          1           0        0.000215    2.429422   -1.898511
     21          1           0        0.009062    2.431730   -0.010548
     22          1           0        1.266003    0.468030   -1.901844
     23          1           0        2.105846    1.698026   -0.741664
     24          1           0        0.969447    0.139266    2.323217
     25          1           0        2.667450    0.362090    1.838106
     26          1           0        1.475237    1.645111    1.520265
     27          1           0        2.541929   -1.818860    0.676242
     28          1           0        2.371311   -1.537280   -1.072989
     29          1           0        3.448075   -0.501318   -0.105659
     30          1           0       -0.006422   -2.643443   -0.443589
 ---------------------------------------------------------------------
 Rotational constants (GHZ):           1.4584689           0.9722104           0.8689302
 Leave Link  202 at Sun Oct 13 23:50:16 2019, MaxMem=  2684354560 cpu:               0.7 elap:               0.0
 (Enter /apps/cent7/gaussian/g16-A.03/g16-haswell/g16/l301.exe)
 Standard basis: 6-311++G(d,p) (5D, 7F)
 Ernie: Thresh=  0.10000D-02 Tol=  0.10000D-05 Strict=F.
 There are   386 symmetry adapted cartesian basis functions of A   symmetry.
 There are   375 symmetry adapted basis functions of A   symmetry.
   375 basis functions,   567 primitive gaussians,   386 cartesian basis functions
    44 alpha electrons       43 beta electrons
       nuclear repulsion energy       725.3839252504 Hartrees.
 IExCor= 4336 DFT=T Ex+Corr=M062X ExCW=0 ScaHFX=  0.540000
 ScaDFX=  1.000000  1.000000  1.000000  1.000000 ScalE2=  1.000000  1.000000
 IRadAn=      5 IRanWt=     -1 IRanGd=            0 ICorTp=0 IEmpDi=  4
 NAtoms=   30 NActive=   30 NUniq=   30 SFac= 1.00D+00 NAtFMM=   60 NAOKFM=F Big=F
 Integral buffers will be    131072 words long.
 Raffenetti 2 integral format.
 Two-electron integral symmetry is turned on.
 Leave Link  301 at Sun Oct 13 23:50:16 2019, MaxMem=  2684354560 cpu:               1.3 elap:               0.1
 (Enter /apps/cent7/gaussian/g16-A.03/g16-haswell/g16/l302.exe)
 NPDir=0 NMtPBC=     1 NCelOv=     1 NCel=       1 NClECP=     1 NCelD=      1
         NCelK=      1 NCelE2=     1 NClLst=     1 CellRange=     0.0.
 One-electron integrals computed using PRISM.
 One-electron integral symmetry used in STVInt
 NBasis=   375 RedAO= T EigKep=  4.44D-06  NBF=   375
 NBsUse=   375 1.00D-06 EigRej= -1.00D+00 NBFU=   375
 Precomputing XC quadrature grid using
 IXCGrd= 4 IRadAn=           5 IRanWt=          -1 IRanGd=           0 AccXCQ= 0.00D+00.
 Generated NRdTot=       0 NPtTot=           0 NUsed=           0 NTot=          32
 NSgBfM=   386   386   386   386   386 MxSgAt=    30 MxSgA2=    30.
 Leave Link  302 at Sun Oct 13 23:50:16 2019, MaxMem=  2684354560 cpu:               7.3 elap:               0.3
 (Enter /apps/cent7/gaussian/g16-A.03/g16-haswell/g16/l303.exe)
 DipDrv:  MaxL=1.
 Leave Link  303 at Sun Oct 13 23:50:16 2019, MaxMem=  2684354560 cpu:               1.3 elap:               0.1
 (Enter /apps/cent7/gaussian/g16-A.03/g16-haswell/g16/l401.exe)
 ExpMin= 3.60D-02 ExpMax= 8.59D+03 ExpMxC= 1.30D+03 IAcc=3 IRadAn=         5 AccDes= 0.00D+00
 Harris functional with IExCor= 1009 and IRadAn=       5 diagonalized for initial guess.
 HarFok:  IExCor= 1009 AccDes= 0.00D+00 IRadAn=         5 IDoV= 1 UseB2=F ITyADJ=14
 ICtDFT=  3500011 ScaDFX=  1.000000  1.000000  1.000000  1.000000
 FoFCou: FMM=F IPFlag=           0 FMFlag=      100000 FMFlg1=           0
         NFxFlg=           0 DoJE=T BraDBF=F KetDBF=T FulRan=T
         wScrn=  0.000000 ICntrl=       500 IOpCl=  0 I1Cent=   200000004 NGrid=           0
         NMat0=    1 NMatS0=      1 NMatT0=    0 NMatD0=    1 NMtDS0=    0 NMtDT0=    0
 Petite list used in FoFCou.
 Harris En= -483.801887001274    
 JPrj=0 DoOrth=F DoCkMO=F.
 Initial guess <Sx>= 0.0000 <Sy>= 0.0000 <Sz>= 0.5000 <S**2>= 0.7500 S= 0.5000
 Leave Link  401 at Sun Oct 13 23:50:17 2019, MaxMem=  2684354560 cpu:              20.7 elap:               0.9
 (Enter /apps/cent7/gaussian/g16-A.03/g16-haswell/g16/l502.exe)
 Integral symmetry usage will be decided dynamically.
 UHF open shell SCF:
 Using DIIS extrapolation, IDIIS=  1040.
 NGot=  2684354560 LenX=  2684043350 LenY=  2683893913
 Requested convergence on RMS density matrix=1.00D-08 within 128 cycles.
 Requested convergence on MAX density matrix=1.00D-06.
 Requested convergence on             energy=1.00D-06.
 No special actions if energy rises.
 Fock matrices will be formed incrementally for  20 cycles.

 Cycle   1  Pass 1  IDiag  1:
 FoFJK:  IHMeth= 1 ICntrl=       0 DoSepK=F KAlg= 0 I1Cent=           0 FoldK=F
 IRaf= 960000000 NMat=       1 IRICut=       1 DoRegI=T DoRafI=F ISym2E= 0 IDoP0=0 IntGTp=1.
 FoFCou: FMM=F IPFlag=           0 FMFlag=      100000 FMFlg1=           0
         NFxFlg=           0 DoJE=F BraDBF=F KetDBF=F FulRan=T
         wScrn=  0.000000 ICntrl=         0 IOpCl=  1 I1Cent=           0 NGrid=           0
         NMat0=    1 NMatS0=      1 NMatT0=    0 NMatD0=    1 NMtDS0=    0 NMtDT0=    0
 Symmetry not used in FoFCou.
 E= -483.475498633771    
 DIIS: error= 3.01D-02 at cycle   1 NSaved=   1.
 NSaved= 1 IEnMin= 1 EnMin= -483.475498633771     IErMin= 1 ErrMin= 3.01D-02
 ErrMax= 3.01D-02  0.00D+00 EMaxC= 1.00D-01 BMatC= 2.12D+00 BMatP= 2.12D+00
 IDIUse=3 WtCom= 6.99D-01 WtEn= 3.01D-01
 Coeff-Com:  0.100D+01
 Coeff-En:   0.100D+01
 Coeff:      0.100D+01
 Gap=     0.604 Goal=   None    Shift=    0.000
 Gap=     0.165 Goal=   None    Shift=    0.000
 GapD=    0.165 DampG=1.000 DampE=0.500 DampFc=0.5000 IDamp=-1.
 Damping current iteration by 5.00D-01
 RMSDP=1.54D-02 MaxDP=1.80D+00              OVMax= 4.00D-01

 Cycle   2  Pass 1  IDiag  1:
 RMSU=  7.67D-03    CP:  1.03D+00
 E= -483.658768306779     Delta-E=       -0.183269673008 Rises=F Damp=T
 DIIS: error= 7.25D-03 at cycle   2 NSaved=   2.
 NSaved= 2 IEnMin= 2 EnMin= -483.658768306779     IErMin= 2 ErrMin= 7.25D-03
 ErrMax= 7.25D-03  0.00D+00 EMaxC= 1.00D-01 BMatC= 2.07D-01 BMatP= 2.12D+00
 IDIUse=3 WtCom= 9.27D-01 WtEn= 7.25D-02
 Coeff-Com:  0.549D-01 0.945D+00
 Coeff-En:   0.146D+00 0.854D+00
 Coeff:      0.615D-01 0.938D+00
 Gap=     0.443 Goal=   None    Shift=    0.000
 Gap=     0.202 Goal=   None    Shift=    0.000
 RMSDP=4.89D-03 MaxDP=5.11D-01 DE=-1.83D-01 OVMax= 3.90D-01

 Cycle   3  Pass 1  IDiag  1:
 RMSU=  4.36D-03    CP:  9.26D-01  9.56D-01
 E= -483.887964287822     Delta-E=       -0.229195981043 Rises=F Damp=F
 DIIS: error= 9.72D-03 at cycle   3 NSaved=   3.
 NSaved= 3 IEnMin= 3 EnMin= -483.887964287822     IErMin= 2 ErrMin= 7.25D-03
 ErrMax= 9.72D-03  0.00D+00 EMaxC= 1.00D-01 BMatC= 1.52D-01 BMatP= 2.07D-01
 IDIUse=3 WtCom= 9.03D-01 WtEn= 9.72D-02
 Coeff-Com: -0.483D-01 0.472D+00 0.577D+00
 Coeff-En:   0.000D+00 0.000D+00 0.100D+01
 Coeff:     -0.436D-01 0.426D+00 0.618D+00
 Gap=     0.398 Goal=   None    Shift=    0.000
 Gap=     0.188 Goal=   None    Shift=    0.000
 RMSDP=2.62D-03 MaxDP=3.16D-01 DE=-2.29D-01 OVMax= 6.65D-02

 Cycle   4  Pass 1  IDiag  1:
 RMSU=  1.64D-03    CP:  9.32D-01  1.21D+00  8.93D-01
 E= -483.917965810107     Delta-E=       -0.030001522285 Rises=F Damp=F
 DIIS: error= 2.18D-03 at cycle   4 NSaved=   4.
 NSaved= 4 IEnMin= 4 EnMin= -483.917965810107     IErMin= 4 ErrMin= 2.18D-03
 ErrMax= 2.18D-03  0.00D+00 EMaxC= 1.00D-01 BMatC= 1.23D-02 BMatP= 1.52D-01
 IDIUse=3 WtCom= 9.78D-01 WtEn= 2.18D-02
 Coeff-Com: -0.220D-01 0.585D-01 0.248D+00 0.715D+00
 Coeff-En:   0.000D+00 0.000D+00 0.000D+00 0.100D+01
 Coeff:     -0.215D-01 0.572D-01 0.243D+00 0.722D+00
 Gap=     0.371 Goal=   None    Shift=    0.000
 Gap=     0.205 Goal=   None    Shift=    0.000
 RMSDP=8.58D-04 MaxDP=1.09D-01 DE=-3.00D-02 OVMax= 2.13D-02

 Cycle   5  Pass 1  IDiag  1:
 RMSU=  4.10D-04    CP:  9.15D-01  1.14D+00  9.32D-01  8.36D-01
 E= -483.920820953448     Delta-E=       -0.002855143341 Rises=F Damp=F
 DIIS: error= 7.61D-04 at cycle   5 NSaved=   5.
 NSaved= 5 IEnMin= 5 EnMin= -483.920820953448     IErMin= 5 ErrMin= 7.61D-04
 ErrMax= 7.61D-04  0.00D+00 EMaxC= 1.00D-01 BMatC= 5.88D-04 BMatP= 1.23D-02
 IDIUse=3 WtCom= 9.92D-01 WtEn= 7.61D-03
 Coeff-Com: -0.736D-02 0.808D-02 0.494D-01 0.240D+00 0.710D+00
 Coeff-En:   0.000D+00 0.000D+00 0.000D+00 0.000D+00 0.100D+01
 Coeff:     -0.730D-02 0.802D-02 0.490D-01 0.238D+00 0.712D+00
 Gap=     0.372 Goal=   None    Shift=    0.000
 Gap=     0.209 Goal=   None    Shift=    0.000
 RMSDP=3.09D-04 MaxDP=4.41D-02 DE=-2.86D-03 OVMax= 8.53D-03

 Cycle   6  Pass 1  IDiag  1:
 RMSU=  1.68D-04    CP:  9.20D-01  1.17D+00  9.43D-01  8.85D-01  7.70D-01
 E= -483.920975914148     Delta-E=       -0.000154960700 Rises=F Damp=F
 DIIS: error= 2.86D-04 at cycle   6 NSaved=   6.
 NSaved= 6 IEnMin= 6 EnMin= -483.920975914148     IErMin= 6 ErrMin= 2.86D-04
 ErrMax= 2.86D-04  0.00D+00 EMaxC= 1.00D-01 BMatC= 1.57D-04 BMatP= 5.88D-04
 IDIUse=3 WtCom= 9.97D-01 WtEn= 2.86D-03
 Coeff-Com:  0.317D-03-0.555D-02-0.327D-01-0.308D-01 0.319D+00 0.749D+00
 Coeff-En:   0.000D+00 0.000D+00 0.000D+00 0.000D+00 0.000D+00 0.100D+01
 Coeff:      0.316D-03-0.553D-02-0.326D-01-0.307D-01 0.318D+00 0.750D+00
 Gap=     0.372 Goal=   None    Shift=    0.000
 Gap=     0.210 Goal=   None    Shift=    0.000
 RMSDP=1.18D-04 MaxDP=1.54D-02 DE=-1.55D-04 OVMax= 6.16D-03

 Cycle   7  Pass 1  IDiag  1:
 RMSU=  8.34D-05    CP:  9.19D-01  1.16D+00  9.41D-01  8.84D-01  9.20D-01
                    CP:  7.70D-01
 E= -483.921043090869     Delta-E=       -0.000067176721 Rises=F Damp=F
 DIIS: error= 1.65D-04 at cycle   7 NSaved=   7.
 NSaved= 7 IEnMin= 7 EnMin= -483.921043090869     IErMin= 7 ErrMin= 1.65D-04
 ErrMax= 1.65D-04  0.00D+00 EMaxC= 1.00D-01 BMatC= 2.33D-05 BMatP= 1.57D-04
 IDIUse=3 WtCom= 9.98D-01 WtEn= 1.65D-03
 Coeff-Com:  0.427D-03 0.289D-03-0.183D-01-0.536D-01-0.122D+00 0.717D-01
 Coeff-Com:  0.112D+01
 Coeff-En:   0.000D+00 0.000D+00 0.000D+00 0.000D+00 0.000D+00 0.000D+00
 Coeff-En:   0.100D+01
 Coeff:      0.426D-03 0.289D-03-0.183D-01-0.535D-01-0.122D+00 0.715D-01
 Coeff:      0.112D+01
 Gap=     0.372 Goal=   None    Shift=    0.000
 Gap=     0.210 Goal=   None    Shift=    0.000
 RMSDP=6.41D-05 MaxDP=7.89D-03 DE=-6.72D-05 OVMax= 6.18D-03

 Cycle   8  Pass 1  IDiag  1:
 RMSU=  3.39D-05    CP:  9.19D-01  1.17D+00  9.41D-01  8.88D-01  9.17D-01
                    CP:  9.88D-01  1.35D+00
 E= -483.921066014752     Delta-E=       -0.000022923882 Rises=F Damp=F
 DIIS: error= 5.55D-05 at cycle   8 NSaved=   8.
 NSaved= 8 IEnMin= 8 EnMin= -483.921066014752     IErMin= 8 ErrMin= 5.55D-05
 ErrMax= 5.55D-05  0.00D+00 EMaxC= 1.00D-01 BMatC= 5.18D-06 BMatP= 2.33D-05
 IDIUse=1 WtCom= 1.00D+00 WtEn= 0.00D+00
 Coeff-Com: -0.291D-03 0.152D-02-0.245D-02-0.104D-01-0.716D-01-0.919D-01
 Coeff-Com:  0.312D+00 0.863D+00
 Coeff:     -0.291D-03 0.152D-02-0.245D-02-0.104D-01-0.716D-01-0.919D-01
 Coeff:      0.312D+00 0.863D+00
 Gap=     0.372 Goal=   None    Shift=    0.000
 Gap=     0.210 Goal=   None    Shift=    0.000
 RMSDP=2.71D-05 MaxDP=2.64D-03 DE=-2.29D-05 OVMax= 2.18D-03

 Cycle   9  Pass 1  IDiag  1:
 RMSU=  9.40D-06    CP:  9.18D-01  1.17D+00  9.40D-01  8.86D-01  9.21D-01
                    CP:  1.04D+00  1.46D+00  1.53D+00
 E= -483.921069676969     Delta-E=       -0.000003662217 Rises=F Damp=F
 DIIS: error= 3.52D-05 at cycle   9 NSaved=   9.
 NSaved= 9 IEnMin= 9 EnMin= -483.921069676969     IErMin= 9 ErrMin= 3.52D-05
 ErrMax= 3.52D-05  0.00D+00 EMaxC= 1.00D-01 BMatC= 1.23D-06 BMatP= 5.18D-06
 IDIUse=1 WtCom= 1.00D+00 WtEn= 0.00D+00
 Coeff-Com: -0.409D-03 0.826D-03 0.324D-02 0.109D-01 0.811D-02-0.639D-01
 Coeff-Com: -0.198D+00 0.333D+00 0.907D+00
 Coeff:     -0.409D-03 0.826D-03 0.324D-02 0.109D-01 0.811D-02-0.639D-01
 Coeff:     -0.198D+00 0.333D+00 0.907D+00
 Gap=     0.371 Goal=   None    Shift=    0.000
 Gap=     0.210 Goal=   None    Shift=    0.000
 RMSDP=1.78D-05 MaxDP=1.71D-03 DE=-3.66D-06 OVMax= 1.34D-03

 Cycle  10  Pass 1  IDiag  1:
 RMSU=  6.86D-06    CP:  9.18D-01  1.17D+00  9.39D-01  8.85D-01  9.20D-01
                    CP:  1.06D+00  1.58D+00  1.78D+00  1.21D+00
 E= -483.921070668474     Delta-E=       -0.000000991505 Rises=F Damp=F
 DIIS: error= 9.17D-06 at cycle  10 NSaved=  10.
 NSaved=10 IEnMin=10 EnMin= -483.921070668474     IErMin=10 ErrMin= 9.17D-06
 ErrMax= 9.17D-06  0.00D+00 EMaxC= 1.00D-01 BMatC= 1.10D-07 BMatP= 1.23D-06
 IDIUse=1 WtCom= 1.00D+00 WtEn= 0.00D+00
 Coeff-Com: -0.294D-04-0.308D-04-0.130D-03 0.117D-02 0.829D-02 0.464D-02
 Coeff-Com: -0.341D-01-0.915D-01 0.871D-01 0.102D+01
 Coeff:     -0.294D-04-0.308D-04-0.130D-03 0.117D-02 0.829D-02 0.464D-02
 Coeff:     -0.341D-01-0.915D-01 0.871D-01 0.102D+01
 Gap=     0.371 Goal=   None    Shift=    0.000
 Gap=     0.210 Goal=   None    Shift=    0.000
 RMSDP=6.66D-06 MaxDP=7.97D-04 DE=-9.92D-07 OVMax= 3.08D-04

 Cycle  11  Pass 1  IDiag  1:
 RMSU=  2.02D-06    CP:  9.18D-01  1.17D+00  9.39D-01  8.86D-01  9.19D-01
                    CP:  1.07D+00  1.57D+00  1.89D+00  1.45D+00  1.25D+00
 E= -483.921070752655     Delta-E=       -0.000000084181 Rises=F Damp=F
 DIIS: error= 3.87D-06 at cycle  11 NSaved=  11.
 NSaved=11 IEnMin=11 EnMin= -483.921070752655     IErMin=11 ErrMin= 3.87D-06
 ErrMax= 3.87D-06  0.00D+00 EMaxC= 1.00D-01 BMatC= 1.77D-08 BMatP= 1.10D-07
 IDIUse=1 WtCom= 1.00D+00 WtEn= 0.00D+00
 Coeff-Com:  0.491D-04-0.115D-03-0.725D-03-0.167D-02 0.110D-02 0.122D-01
 Coeff-Com:  0.294D-01-0.908D-01-0.124D+00 0.287D+00 0.887D+00
 Coeff:      0.491D-04-0.115D-03-0.725D-03-0.167D-02 0.110D-02 0.122D-01
 Coeff:      0.294D-01-0.908D-01-0.124D+00 0.287D+00 0.887D+00
 Gap=     0.371 Goal=   None    Shift=    0.000
 Gap=     0.210 Goal=   None    Shift=    0.000
 RMSDP=1.99D-06 MaxDP=3.46D-04 DE=-8.42D-08 OVMax= 9.71D-05

 Cycle  12  Pass 1  IDiag  1:
 RMSU=  7.75D-07    CP:  9.18D-01  1.17D+00  9.39D-01  8.86D-01  9.20D-01
                    CP:  1.07D+00  1.58D+00  1.90D+00  1.51D+00  1.41D+00
                    CP:  1.22D+00
 E= -483.921070766185     Delta-E=       -0.000000013529 Rises=F Damp=F
 DIIS: error= 1.82D-06 at cycle  12 NSaved=  12.
 NSaved=12 IEnMin=12 EnMin= -483.921070766185     IErMin=12 ErrMin= 1.82D-06
 ErrMax= 1.82D-06  0.00D+00 EMaxC= 1.00D-01 BMatC= 3.00D-09 BMatP= 1.77D-08
 IDIUse=1 WtCom= 1.00D+00 WtEn= 0.00D+00
 Coeff-Com:  0.154D-04-0.288D-04-0.204D-03-0.633D-03-0.818D-03 0.220D-02
 Coeff-Com:  0.136D-01-0.135D-01-0.441D-01-0.945D-01 0.252D+00 0.886D+00
 Coeff:      0.154D-04-0.288D-04-0.204D-03-0.633D-03-0.818D-03 0.220D-02
 Coeff:      0.136D-01-0.135D-01-0.441D-01-0.945D-01 0.252D+00 0.886D+00
 Gap=     0.371 Goal=   None    Shift=    0.000
 Gap=     0.210 Goal=   None    Shift=    0.000
 RMSDP=9.23D-07 MaxDP=1.36D-04 DE=-1.35D-08 OVMax= 4.77D-05

 Cycle  13  Pass 1  IDiag  1:
 RMSU=  3.36D-07    CP:  9.18D-01  1.17D+00  9.39D-01  8.86D-01  9.21D-01
                    CP:  1.07D+00  1.58D+00  1.91D+00  1.54D+00  1.45D+00
                    CP:  1.31D+00  1.24D+00
 E= -483.921070768683     Delta-E=       -0.000000002499 Rises=F Damp=F
 DIIS: error= 5.93D-07 at cycle  13 NSaved=  13.
 NSaved=13 IEnMin=13 EnMin= -483.921070768683     IErMin=13 ErrMin= 5.93D-07
 ErrMax= 5.93D-07  0.00D+00 EMaxC= 1.00D-01 BMatC= 3.64D-10 BMatP= 3.00D-09
 IDIUse=1 WtCom= 1.00D+00 WtEn= 0.00D+00
 Coeff-Com: -0.642D-05 0.160D-04 0.703D-04 0.142D-03-0.291D-03-0.167D-02
 Coeff-Com: -0.214D-02 0.117D-01 0.138D-01-0.669D-01-0.113D+00 0.127D+00
 Coeff-Com:  0.103D+01
 Coeff:     -0.642D-05 0.160D-04 0.703D-04 0.142D-03-0.291D-03-0.167D-02
 Coeff:     -0.214D-02 0.117D-01 0.138D-01-0.669D-01-0.113D+00 0.127D+00
 Coeff:      0.103D+01
 Gap=     0.371 Goal=   None    Shift=    0.000
 Gap=     0.210 Goal=   None    Shift=    0.000
 RMSDP=3.23D-07 MaxDP=4.23D-05 DE=-2.50D-09 OVMax= 2.36D-05

 Cycle  14  Pass 1  IDiag  1:
 RMSU=  1.30D-07    CP:  9.18D-01  1.17D+00  9.39D-01  8.86D-01  9.21D-01
                    CP:  1.07D+00  1.58D+00  1.91D+00  1.55D+00  1.45D+00
                    CP:  1.37D+00  1.43D+00  1.32D+00
 E= -483.921070769119     Delta-E=       -0.000000000436 Rises=F Damp=F
 DIIS: error= 2.81D-07 at cycle  14 NSaved=  14.
 NSaved=14 IEnMin=14 EnMin= -483.921070769119     IErMin=14 ErrMin= 2.81D-07
 ErrMax= 2.81D-07  0.00D+00 EMaxC= 1.00D-01 BMatC= 5.45D-11 BMatP= 3.64D-10
 IDIUse=1 WtCom= 1.00D+00 WtEn= 0.00D+00
 Coeff-Com: -0.300D-05 0.642D-05 0.329D-04 0.954D-04 0.623D-04-0.566D-03
 Coeff-Com: -0.197D-02 0.370D-02 0.829D-02 0.722D-03-0.526D-01-0.926D-01
 Coeff-Com:  0.195D+00 0.940D+00
 Coeff:     -0.300D-05 0.642D-05 0.329D-04 0.954D-04 0.623D-04-0.566D-03
 Coeff:     -0.197D-02 0.370D-02 0.829D-02 0.722D-03-0.526D-01-0.926D-01
 Coeff:      0.195D+00 0.940D+00
 Gap=     0.371 Goal=   None    Shift=    0.000
 Gap=     0.210 Goal=   None    Shift=    0.000
 RMSDP=1.19D-07 MaxDP=2.28D-05 DE=-4.36D-10 OVMax= 7.92D-06

 Cycle  15  Pass 1  IDiag  1:
 RMSU=  5.00D-08    CP:  9.18D-01  1.17D+00  9.39D-01  8.86D-01  9.21D-01
                    CP:  1.07D+00  1.58D+00  1.91D+00  1.55D+00  1.45D+00
                    CP:  1.37D+00  1.49D+00  1.52D+00  1.39D+00
 E= -483.921070769184     Delta-E=       -0.000000000065 Rises=F Damp=F
 DIIS: error= 1.56D-07 at cycle  15 NSaved=  15.
 NSaved=15 IEnMin=15 EnMin= -483.921070769184     IErMin=15 ErrMin= 1.56D-07
 ErrMax= 1.56D-07  0.00D+00 EMaxC= 1.00D-01 BMatC= 1.44D-11 BMatP= 5.45D-11
 IDIUse=1 WtCom= 1.00D+00 WtEn= 0.00D+00
 Coeff-Com:  0.407D-06-0.102D-05-0.390D-05 0.103D-05 0.813D-04 0.153D-03
 Coeff-Com: -0.167D-03-0.122D-02-0.167D-03 0.144D-01 0.642D-02-0.542D-01
 Coeff-Com: -0.149D+00 0.270D+00 0.913D+00
 Coeff:      0.407D-06-0.102D-05-0.390D-05 0.103D-05 0.813D-04 0.153D-03
 Coeff:     -0.167D-03-0.122D-02-0.167D-03 0.144D-01 0.642D-02-0.542D-01
 Coeff:     -0.149D+00 0.270D+00 0.913D+00
 Gap=     0.371 Goal=   None    Shift=    0.000
 Gap=     0.210 Goal=   None    Shift=    0.000
 RMSDP=7.00D-08 MaxDP=1.13D-05 DE=-6.48D-11 OVMax= 4.94D-06

 Cycle  16  Pass 1  IDiag  1:
 RMSU=  2.33D-08    CP:  9.18D-01  1.17D+00  9.39D-01  8.86D-01  9.21D-01
                    CP:  1.07D+00  1.58D+00  1.91D+00  1.55D+00  1.45D+00
                    CP:  1.37D+00  1.52D+00  1.60D+00  1.71D+00  1.50D+00
 E= -483.921070769202     Delta-E=       -0.000000000017 Rises=F Damp=F
 DIIS: error= 9.00D-08 at cycle  16 NSaved=  16.
 NSaved=16 IEnMin=16 EnMin= -483.921070769202     IErMin=16 ErrMin= 9.00D-08
 ErrMax= 9.00D-08  0.00D+00 EMaxC= 1.00D-01 BMatC= 2.60D-12 BMatP= 1.44D-11
 IDIUse=1 WtCom= 1.00D+00 WtEn= 0.00D+00
 Coeff-Com:  0.688D-06-0.152D-05-0.632D-05-0.183D-04-0.331D-05 0.127D-03
 Coeff-Com:  0.376D-03-0.912D-03-0.182D-02 0.161D-02 0.114D-01 0.131D-01
 Coeff-Com: -0.607D-01-0.169D+00 0.110D+00 0.110D+01
 Coeff:      0.688D-06-0.152D-05-0.632D-05-0.183D-04-0.331D-05 0.127D-03
 Coeff:      0.376D-03-0.912D-03-0.182D-02 0.161D-02 0.114D-01 0.131D-01
 Coeff:     -0.607D-01-0.169D+00 0.110D+00 0.110D+01
 Gap=     0.371 Goal=   None    Shift=    0.000
 Gap=     0.210 Goal=   None    Shift=    0.000
 RMSDP=4.44D-08 MaxDP=1.04D-05 DE=-1.73D-11 OVMax= 3.39D-06

 Cycle  17  Pass 1  IDiag  1:
 RMSU=  1.15D-08    CP:  9.18D-01  1.17D+00  9.39D-01  8.86D-01  9.21D-01
                    CP:  1.07D+00  1.58D+00  1.91D+00  1.55D+00  1.45D+00
                    CP:  1.37D+00  1.53D+00  1.66D+00  1.89D+00  1.94D+00
                    CP:  1.42D+00
 E= -483.921070769211     Delta-E=       -0.000000000009 Rises=F Damp=F
 DIIS: error= 3.93D-08 at cycle  17 NSaved=  17.
 NSaved=17 IEnMin=17 EnMin= -483.921070769211     IErMin=17 ErrMin= 3.93D-08
 ErrMax= 3.93D-08  0.00D+00 EMaxC= 1.00D-01 BMatC= 5.24D-13 BMatP= 2.60D-12
 IDIUse=1 WtCom= 1.00D+00 WtEn= 0.00D+00
 Coeff-Com: -0.152D-06 0.323D-06 0.213D-05 0.256D-05-0.159D-04-0.436D-04
 Coeff-Com: -0.122D-04 0.344D-03 0.187D-03-0.304D-02-0.229D-02 0.108D-01
 Coeff-Com:  0.342D-01-0.502D-01-0.205D+00 0.524D-02 0.121D+01
 Coeff:     -0.152D-06 0.323D-06 0.213D-05 0.256D-05-0.159D-04-0.436D-04
 Coeff:     -0.122D-04 0.344D-03 0.187D-03-0.304D-02-0.229D-02 0.108D-01
 Coeff:      0.342D-01-0.502D-01-0.205D+00 0.524D-02 0.121D+01
 Gap=     0.371 Goal=   None    Shift=    0.000
 Gap=     0.210 Goal=   None    Shift=    0.000
 RMSDP=2.27D-08 MaxDP=4.57D-06 DE=-9.09D-12 OVMax= 1.82D-06

 Cycle  18  Pass 1  IDiag  1:
 RMSU=  5.79D-09    CP:  9.18D-01  1.17D+00  9.39D-01  8.86D-01  9.21D-01
                    CP:  1.07D+00  1.58D+00  1.91D+00  1.55D+00  1.45D+00
                    CP:  1.37D+00  1.54D+00  1.68D+00  1.97D+00  2.16D+00
                    CP:  1.73D+00  1.46D+00
 E= -483.921070769215     Delta-E=       -0.000000000005 Rises=F Damp=F
 DIIS: error= 1.47D-08 at cycle  18 NSaved=  18.
 NSaved=18 IEnMin=18 EnMin= -483.921070769215     IErMin=18 ErrMin= 1.47D-08
 ErrMax= 1.47D-08  0.00D+00 EMaxC= 1.00D-01 BMatC= 8.46D-14 BMatP= 5.24D-13
 IDIUse=1 WtCom= 1.00D+00 WtEn= 0.00D+00
 Coeff-Com: -0.120D-06 0.259D-06 0.129D-05 0.331D-05-0.179D-05-0.250D-04
 Coeff-Com: -0.671D-04 0.201D-03 0.318D-03-0.650D-03-0.218D-02-0.888D-03
 Coeff-Com:  0.141D-01 0.234D-01-0.387D-01-0.182D+00 0.110D+00 0.108D+01
 Coeff:     -0.120D-06 0.259D-06 0.129D-05 0.331D-05-0.179D-05-0.250D-04
 Coeff:     -0.671D-04 0.201D-03 0.318D-03-0.650D-03-0.218D-02-0.888D-03
 Coeff:      0.141D-01 0.234D-01-0.387D-01-0.182D+00 0.110D+00 0.108D+01
 Gap=     0.371 Goal=   None    Shift=    0.000
 Gap=     0.210 Goal=   None    Shift=    0.000
 RMSDP=8.10D-09 MaxDP=1.61D-06 DE=-4.55D-12 OVMax= 6.68D-07

 Cycle  19  Pass 1  IDiag  1:
 RMSU=  2.35D-09    CP:  9.18D-01  1.17D+00  9.39D-01  8.86D-01  9.21D-01
                    CP:  1.07D+00  1.58D+00  1.91D+00  1.55D+00  1.45D+00
                    CP:  1.37D+00  1.54D+00  1.69D+00  2.00D+00  2.22D+00
                    CP:  1.81D+00  1.72D+00  1.28D+00
 E= -483.921070769215     Delta-E=       -0.000000000000 Rises=F Damp=F
 DIIS: error= 4.69D-09 at cycle  19 NSaved=  19.
 NSaved=19 IEnMin=19 EnMin= -483.921070769215     IErMin=19 ErrMin= 4.69D-09
 ErrMax= 4.69D-09  0.00D+00 EMaxC= 1.00D-01 BMatC= 3.39D-14 BMatP= 8.46D-14
 IDIUse=1 WtCom= 1.00D+00 WtEn= 0.00D+00
 Coeff-Com: -0.138D-07 0.380D-07 0.110D-06 0.882D-06 0.229D-05-0.111D-05
 Coeff-Com: -0.278D-04 0.209D-04 0.965D-04 0.349D-03-0.475D-03-0.270D-02
 Coeff-Com: -0.121D-02 0.210D-01 0.276D-01-0.858D-01-0.219D+00 0.492D+00
 Coeff-Com:  0.768D+00
 Coeff:     -0.138D-07 0.380D-07 0.110D-06 0.882D-06 0.229D-05-0.111D-05
 Coeff:     -0.278D-04 0.209D-04 0.965D-04 0.349D-03-0.475D-03-0.270D-02
 Coeff:     -0.121D-02 0.210D-01 0.276D-01-0.858D-01-0.219D+00 0.492D+00
 Coeff:      0.768D+00
 Gap=     0.371 Goal=   None    Shift=    0.000
 Gap=     0.210 Goal=   None    Shift=    0.000
 RMSDP=3.46D-09 MaxDP=6.59D-07 DE=-2.27D-13 OVMax= 2.49D-07

 SCF Done:  E(UM062X) =  -483.921070769     A.U. after   19 cycles
            NFock= 19  Conv=0.35D-08     -V/T= 2.0049
 <Sx>= 0.0000 <Sy>= 0.0000 <Sz>= 0.5000 <S**2>= 0.7545 S= 0.5022
 <L.S>= 0.000000000000E+00
 KE= 4.815670285214D+02 PE=-2.560307562756D+03 EE= 8.694355382150D+02
 Annihilation of the first spin contaminant:
 S**2 before annihilation     0.7545,   after     0.7500
 Leave Link  502 at Sun Oct 13 23:51:42 2019, MaxMem=  2684354560 cpu:            2032.8 elap:              85.0
 (Enter /apps/cent7/gaussian/g16-A.03/g16-haswell/g16/l601.exe)
 Copying SCF densities to generalized density rwf, IOpCl= 1 IROHF=0.

 **********************************************************************

            Population analysis using the SCF density.

 **********************************************************************

 Orbital symmetries:
 Alpha Orbitals:
       Occupied  (A) (A) (A) (A) (A) (A) (A) (A) (A) (A) (A) (A)
                 (A) (A) (A) (A) (A) (A) (A) (A) (A) (A) (A) (A)
                 (A) (A) (A) (A) (A) (A) (A) (A) (A) (A) (A) (A)
                 (A) (A) (A) (A) (A) (A) (A) (A)
       Virtual   (A) (A) (A) (A) (A) (A) (A) (A) (A) (A) (A) (A)
                 (A) (A) (A) (A) (A) (A) (A) (A) (A) (A) (A) (A)
                 (A) (A) (A) (A) (A) (A) (A) (A) (A) (A) (A) (A)
                 (A) (A) (A) (A) (A) (A) (A) (A) (A) (A) (A) (A)
                 (A) (A) (A) (A) (A) (A) (A) (A) (A) (A) (A) (A)
                 (A) (A) (A) (A) (A) (A) (A) (A) (A) (A) (A) (A)
                 (A) (A) (A) (A) (A) (A) (A) (A) (A) (A) (A) (A)
                 (A) (A) (A) (A) (A) (A) (A) (A) (A) (A) (A) (A)
                 (A) (A) (A) (A) (A) (A) (A) (A) (A) (A) (A) (A)
                 (A) (A) (A) (A) (A) (A) (A) (A) (A) (A) (A) (A)
                 (A) (A) (A) (A) (A) (A) (A) (A) (A) (A) (A) (A)
                 (A) (A) (A) (A) (A) (A) (A) (A) (A) (A) (A) (A)
                 (A) (A) (A) (A) (A) (A) (A) (A) (A) (A) (A) (A)
                 (A) (A) (A) (A) (A) (A) (A) (A) (A) (A) (A) (A)
                 (A) (A) (A) (A) (A) (A) (A) (A) (A) (A) (A) (A)
                 (A) (A) (A) (A) (A) (A) (A) (A) (A) (A) (A) (A)
                 (A) (A) (A) (A) (A) (A) (A) (A) (A) (A) (A) (A)
                 (A) (A) (A) (A) (A) (A) (A) (A) (A) (A) (A) (A)
                 (A) (A) (A) (A) (A) (A) (A) (A) (A) (A) (A) (A)
                 (A) (A) (A) (A) (A) (A) (A) (A) (A) (A) (A) (A)
                 (A) (A) (A) (A) (A) (A) (A) (A) (A) (A) (A) (A)
                 (A) (A) (A) (A) (A) (A) (A) (A) (A) (A) (A) (A)
                 (A) (A) (A) (A) (A) (A) (A) (A) (A) (A) (A) (A)
                 (A) (A) (A) (A) (A) (A) (A) (A) (A) (A) (A) (A)
                 (A) (A) (A) (A) (A) (A) (A) (A) (A) (A) (A) (A)
                 (A) (A) (A) (A) (A) (A) (A) (A) (A) (A) (A) (A)
                 (A) (A) (A) (A) (A) (A) (A) (A) (A) (A) (A) (A)
                 (A) (A) (A) (A) (A) (A) (A)
 Beta  Orbitals:
       Occupied  (A) (A) (A) (A) (A) (A) (A) (A) (A) (A) (A) (A)
                 (A) (A) (A) (A) (A) (A) (A) (A) (A) (A) (A) (A)
                 (A) (A) (A) (A) (A) (A) (A) (A) (A) (A) (A) (A)
                 (A) (A) (A) (A) (A) (A) (A)
       Virtual   (A) (A) (A) (A) (A) (A) (A) (A) (A) (A) (A) (A)
                 (A) (A) (A) (A) (A) (A) (A) (A) (A) (A) (A) (A)
                 (A) (A) (A) (A) (A) (A) (A) (A) (A) (A) (A) (A)
                 (A) (A) (A) (A) (A) (A) (A) (A) (A) (A) (A) (A)
                 (A) (A) (A) (A) (A) (A) (A) (A) (A) (A) (A) (A)
                 (A) (A) (A) (A) (A) (A) (A) (A) (A) (A) (A) (A)
                 (A) (A) (A) (A) (A) (A) (A) (A) (A) (A) (A) (A)
                 (A) (A) (A) (A) (A) (A) (A) (A) (A) (A) (A) (A)
                 (A) (A) (A) (A) (A) (A) (A) (A) (A) (A) (A) (A)
                 (A) (A) (A) (A) (A) (A) (A) (A) (A) (A) (A) (A)
                 (A) (A) (A) (A) (A) (A) (A) (A) (A) (A) (A) (A)
                 (A) (A) (A) (A) (A) (A) (A) (A) (A) (A) (A) (A)
                 (A) (A) (A) (A) (A) (A) (A) (A) (A) (A) (A) (A)
                 (A) (A) (A) (A) (A) (A) (A) (A) (A) (A) (A) (A)
                 (A) (A) (A) (A) (A) (A) (A) (A) (A) (A) (A) (A)
                 (A) (A) (A) (A) (A) (A) (A) (A) (A) (A) (A) (A)
                 (A) (A) (A) (A) (A) (A) (A) (A) (A) (A) (A) (A)
                 (A) (A) (A) (A) (A) (A) (A) (A) (A) (A) (A) (A)
                 (A) (A) (A) (A) (A) (A) (A) (A) (A) (A) (A) (A)
                 (A) (A) (A) (A) (A) (A) (A) (A) (A) (A) (A) (A)
                 (A) (A) (A) (A) (A) (A) (A) (A) (A) (A) (A) (A)
                 (A) (A) (A) (A) (A) (A) (A) (A) (A) (A) (A) (A)
                 (A) (A) (A) (A) (A) (A) (A) (A) (A) (A) (A) (A)
                 (A) (A) (A) (A) (A) (A) (A) (A) (A) (A) (A) (A)
                 (A) (A) (A) (A) (A) (A) (A) (A) (A) (A) (A) (A)
                 (A) (A) (A) (A) (A) (A) (A) (A) (A) (A) (A) (A)
                 (A) (A) (A) (A) (A) (A) (A) (A) (A) (A) (A) (A)
                 (A) (A) (A) (A) (A) (A) (A) (A)
 The electronic state is 2-A.
 Alpha  occ. eigenvalues --  -19.87752 -15.09028 -10.77458 -10.77443 -10.70657
 Alpha  occ. eigenvalues --  -10.70619 -10.68973 -10.68911 -10.68799 -10.68373
 Alpha  occ. eigenvalues --  -10.68077  -1.45320  -1.19267  -1.08308  -1.05737
 Alpha  occ. eigenvalues --   -0.99936  -0.94122  -0.93423  -0.93125  -0.86164
 Alpha  occ. eigenvalues --   -0.86003  -0.84954  -0.78119  -0.73665  -0.72793
 Alpha  occ. eigenvalues --   -0.69965  -0.67474  -0.67298  -0.65772  -0.64098
 Alpha  occ. eigenvalues --   -0.63609  -0.63096  -0.61987  -0.61272  -0.60093
 Alpha  occ. eigenvalues --   -0.59637  -0.59574  -0.57281  -0.57084  -0.56137
 Alpha  occ. eigenvalues --   -0.55210  -0.52792  -0.52602  -0.50760
 Alpha virt. eigenvalues --   -0.13615  -0.10866  -0.09821  -0.09572  -0.08372
 Alpha virt. eigenvalues --   -0.07937  -0.07656  -0.07519  -0.06784  -0.05639
 Alpha virt. eigenvalues --   -0.05213  -0.04828  -0.04750  -0.04369  -0.04200
 Alpha virt. eigenvalues --   -0.04012  -0.03101  -0.02716  -0.02434  -0.01931
 Alpha virt. eigenvalues --   -0.01436  -0.01204  -0.00770  -0.00257   0.00222
 Alpha virt. eigenvalues --    0.00466   0.00810   0.01791   0.02677   0.02718
 Alpha virt. eigenvalues --    0.02942   0.03268   0.03304   0.03529   0.04014
 Alpha virt. eigenvalues --    0.04320   0.04866   0.05231   0.05408   0.05549
 Alpha virt. eigenvalues --    0.05765   0.05863   0.06339   0.06471   0.06844
 Alpha virt. eigenvalues --    0.06887   0.07216   0.07417   0.07897   0.08119
 Alpha virt. eigenvalues --    0.08377   0.08444   0.08600   0.09494   0.09731
 Alpha virt. eigenvalues --    0.10065   0.10689   0.10850   0.11462   0.11540
 Alpha virt. eigenvalues --    0.12180   0.12645   0.13085   0.13687   0.14346
 Alpha virt. eigenvalues --    0.14545   0.15087   0.15288   0.15431   0.16392
 Alpha virt. eigenvalues --    0.17902   0.18567   0.19059   0.19160   0.19754
 Alpha virt. eigenvalues --    0.20375   0.21213   0.21527   0.21860   0.22812
 Alpha virt. eigenvalues --    0.23401   0.24262   0.24532   0.24688   0.25311
 Alpha virt. eigenvalues --    0.25971   0.26303   0.27291   0.27792   0.30239
 Alpha virt. eigenvalues --    0.31449   0.33336   0.34399   0.36165   0.36913
 Alpha virt. eigenvalues --    0.37181   0.37975   0.39487   0.41079   0.41428
 Alpha virt. eigenvalues --    0.41890   0.42504   0.45527   0.46130   0.48019
 Alpha virt. eigenvalues --    0.48634   0.49199   0.49528   0.50270   0.50898
 Alpha virt. eigenvalues --    0.52251   0.52550   0.53535   0.54550   0.54922
 Alpha virt. eigenvalues --    0.55214   0.55938   0.56851   0.57300   0.58749
 Alpha virt. eigenvalues --    0.59454   0.59778   0.60547   0.60958   0.61822
 Alpha virt. eigenvalues --    0.63256   0.64012   0.65274   0.65778   0.67317
 Alpha virt. eigenvalues --    0.67792   0.67997   0.68582   0.69313   0.69677
 Alpha virt. eigenvalues --    0.70378   0.71392   0.73076   0.75268   0.75574
 Alpha virt. eigenvalues --    0.79624   0.81382   0.83785   0.84951   0.86586
 Alpha virt. eigenvalues --    0.90087   0.92927   0.95193   0.97071   0.98564
 Alpha virt. eigenvalues --    0.99725   1.01797   1.02413   1.04901   1.06914
 Alpha virt. eigenvalues --    1.08903   1.14007   1.15337   1.16880   1.19682
 Alpha virt. eigenvalues --    1.21088   1.24026   1.26723   1.28868   1.30749
 Alpha virt. eigenvalues --    1.32308   1.34014   1.35092   1.35908   1.36170
 Alpha virt. eigenvalues --    1.37519   1.39130   1.39596   1.39938   1.41758
 Alpha virt. eigenvalues --    1.43011   1.43325   1.44899   1.45459   1.46766
 Alpha virt. eigenvalues --    1.47671   1.47973   1.48385   1.49202   1.49529
 Alpha virt. eigenvalues --    1.50609   1.51280   1.53212   1.53966   1.54790
 Alpha virt. eigenvalues --    1.55418   1.57211   1.57869   1.59151   1.60036
 Alpha virt. eigenvalues --    1.61182   1.62264   1.63649   1.64956   1.66383
 Alpha virt. eigenvalues --    1.66665   1.67749   1.69730   1.70848   1.72192
 Alpha virt. eigenvalues --    1.72863   1.73613   1.75697   1.76191   1.77931
 Alpha virt. eigenvalues --    1.79592   1.81301   1.82310   1.83525   1.84900
 Alpha virt. eigenvalues --    1.87453   1.88939   1.91962   1.92558   1.94342
 Alpha virt. eigenvalues --    1.96707   1.99353   2.01557   2.01724   2.03645
 Alpha virt. eigenvalues --    2.04813   2.06161   2.06803   2.08473   2.09212
 Alpha virt. eigenvalues --    2.10377   2.12837   2.14335   2.14995   2.18249
 Alpha virt. eigenvalues --    2.21594   2.22383   2.27656   2.29470   2.30471
 Alpha virt. eigenvalues --    2.33195   2.34012   2.35577   2.39795   2.41069
 Alpha virt. eigenvalues --    2.41732   2.42363   2.42847   2.43286   2.44398
 Alpha virt. eigenvalues --    2.45693   2.46287   2.47810   2.48079   2.49411
 Alpha virt. eigenvalues --    2.50030   2.50879   2.51613   2.53117   2.53439
 Alpha virt. eigenvalues --    2.54797   2.55727   2.58665   2.59864   2.60646
 Alpha virt. eigenvalues --    2.62551   2.62933   2.65345   2.66407   2.68815
 Alpha virt. eigenvalues --    2.70091   2.72248   2.73872   2.76858   2.77980
 Alpha virt. eigenvalues --    2.82842   2.85702   2.87822   2.88869   2.91363
 Alpha virt. eigenvalues --    2.93914   2.96897   2.97693   3.00153   3.03704
 Alpha virt. eigenvalues --    3.04872   3.10503   3.12606   3.15462   3.18763
 Alpha virt. eigenvalues --    3.21740   3.24292   3.30710   3.36032   3.53911
 Alpha virt. eigenvalues --    3.60907   3.66249   3.66916   3.68458   3.69330
 Alpha virt. eigenvalues --    3.70924   3.71143   3.72332   3.73489   3.78196
 Alpha virt. eigenvalues --    3.80646   3.80826   3.86739   3.90539   3.97890
 Alpha virt. eigenvalues --    4.01950   4.07320   4.10255   4.17835   4.25567
 Alpha virt. eigenvalues --    4.40430   4.63893   5.10126   5.33824   5.65368
 Alpha virt. eigenvalues --   23.60757  23.67322  23.84048  23.86092  23.86679
 Alpha virt. eigenvalues --   23.90370  23.90664  23.92273  23.92903  35.32228
 Alpha virt. eigenvalues --   49.85565
  Beta  occ. eigenvalues --  -19.87553 -15.07961 -10.77462 -10.77447 -10.70584
  Beta  occ. eigenvalues --  -10.70546 -10.68956 -10.68919 -10.68782 -10.68367
  Beta  occ. eigenvalues --  -10.68072  -1.43713  -1.17258  -1.07814  -1.04645
  Beta  occ. eigenvalues --   -0.99527  -0.93991  -0.93056  -0.92957  -0.85236
  Beta  occ. eigenvalues --   -0.85117  -0.83177  -0.74161  -0.73295  -0.72307
  Beta  occ. eigenvalues --   -0.69639  -0.66852  -0.65917  -0.65627  -0.63871
  Beta  occ. eigenvalues --   -0.63258  -0.62974  -0.61820  -0.61216  -0.59935
  Beta  occ. eigenvalues --   -0.59246  -0.57009  -0.56849  -0.55557  -0.55184
  Beta  occ. eigenvalues --   -0.54699  -0.52380  -0.52129
  Beta virt. eigenvalues --   -0.31102  -0.13708  -0.10836  -0.09871  -0.09571
  Beta virt. eigenvalues --   -0.08342  -0.07907  -0.07763  -0.07555  -0.06787
  Beta virt. eigenvalues --   -0.05647  -0.05226  -0.04829  -0.04736  -0.04357
  Beta virt. eigenvalues --   -0.04210  -0.03994  -0.02731  -0.02710  -0.02235
  Beta virt. eigenvalues --   -0.01932  -0.01448  -0.01176  -0.00701  -0.00029
  Beta virt. eigenvalues --    0.00252   0.00491   0.00821   0.01811   0.02653
  Beta virt. eigenvalues --    0.02804   0.02937   0.03266   0.03363   0.03737
  Beta virt. eigenvalues --    0.04066   0.04360   0.04900   0.05279   0.05469
  Beta virt. eigenvalues --    0.05591   0.05765   0.05826   0.06384   0.06508
  Beta virt. eigenvalues --    0.06902   0.06967   0.07350   0.07477   0.07914
  Beta virt. eigenvalues --    0.08193   0.08381   0.08516   0.08670   0.09588
  Beta virt. eigenvalues --    0.09804   0.10114   0.10697   0.10957   0.11488
  Beta virt. eigenvalues --    0.11734   0.12240   0.12694   0.13088   0.13765
  Beta virt. eigenvalues --    0.14442   0.14632   0.15259   0.15418   0.15568
  Beta virt. eigenvalues --    0.16434   0.17851   0.18600   0.18793   0.19098
  Beta virt. eigenvalues --    0.19906   0.20596   0.21252   0.21441   0.21921
  Beta virt. eigenvalues --    0.22932   0.23366   0.24286   0.24584   0.24735
  Beta virt. eigenvalues --    0.25257   0.25953   0.26249   0.27212   0.27749
  Beta virt. eigenvalues --    0.30138   0.31433   0.33360   0.34287   0.36188
  Beta virt. eigenvalues --    0.37026   0.37258   0.37896   0.39549   0.41164
  Beta virt. eigenvalues --    0.41483   0.41912   0.42545   0.45683   0.46323
  Beta virt. eigenvalues --    0.47946   0.48672   0.49343   0.49547   0.50333
  Beta virt. eigenvalues --    0.50978   0.52299   0.52629   0.53596   0.54556
  Beta virt. eigenvalues --    0.54934   0.55328   0.56022   0.56871   0.57296
  Beta virt. eigenvalues --    0.58765   0.59443   0.59894   0.60571   0.61046
  Beta virt. eigenvalues --    0.61836   0.63232   0.64087   0.65310   0.65792
  Beta virt. eigenvalues --    0.67313   0.67877   0.68060   0.68708   0.69376
  Beta virt. eigenvalues --    0.69708   0.70512   0.71459   0.73115   0.75435
  Beta virt. eigenvalues --    0.75773   0.79856   0.81600   0.83804   0.85060
  Beta virt. eigenvalues --    0.86653   0.90110   0.93461   0.95398   0.97551
  Beta virt. eigenvalues --    0.98838   0.99675   1.01895   1.02956   1.05146
  Beta virt. eigenvalues --    1.07154   1.09336   1.14111   1.15348   1.16950
  Beta virt. eigenvalues --    1.19934   1.21302   1.24087   1.26798   1.28997
  Beta virt. eigenvalues --    1.30813   1.32620   1.34124   1.35138   1.35945
  Beta virt. eigenvalues --    1.36241   1.37588   1.39206   1.39668   1.40029
  Beta virt. eigenvalues --    1.41853   1.43202   1.43432   1.44945   1.45597
  Beta virt. eigenvalues --    1.46846   1.47748   1.48095   1.48508   1.49266
  Beta virt. eigenvalues --    1.49620   1.50735   1.51425   1.53318   1.54081
  Beta virt. eigenvalues --    1.54877   1.55468   1.57275   1.58037   1.59184
  Beta virt. eigenvalues --    1.60111   1.61269   1.62326   1.63669   1.65001
  Beta virt. eigenvalues --    1.66402   1.66702   1.67904   1.69820   1.70887
  Beta virt. eigenvalues --    1.72511   1.72913   1.73865   1.75812   1.76346
  Beta virt. eigenvalues --    1.78241   1.79769   1.81410   1.82404   1.83607
  Beta virt. eigenvalues --    1.85137   1.87408   1.89353   1.92098   1.92634
  Beta virt. eigenvalues --    1.94588   1.96890   1.99699   2.01680   2.01851
  Beta virt. eigenvalues --    2.03778   2.05285   2.06655   2.07037   2.08925
  Beta virt. eigenvalues --    2.09345   2.10599   2.13330   2.14476   2.15120
  Beta virt. eigenvalues --    2.18566   2.21777   2.22622   2.27895   2.29552
  Beta virt. eigenvalues --    2.30681   2.33348   2.34323   2.35931   2.39914
  Beta virt. eigenvalues --    2.41209   2.41774   2.42423   2.42918   2.43406
  Beta virt. eigenvalues --    2.44457   2.45789   2.46312   2.47891   2.48235
  Beta virt. eigenvalues --    2.49479   2.50100   2.50990   2.51695   2.53271
  Beta virt. eigenvalues --    2.53505   2.54839   2.55773   2.58780   2.60090
  Beta virt. eigenvalues --    2.60709   2.62737   2.63040   2.65442   2.66459
  Beta virt. eigenvalues --    2.68842   2.70205   2.72400   2.74065   2.76965
  Beta virt. eigenvalues --    2.78078   2.82930   2.85772   2.87899   2.88966
  Beta virt. eigenvalues --    2.91438   2.93945   2.97058   2.97913   3.00368
  Beta virt. eigenvalues --    3.03840   3.05008   3.10745   3.12782   3.16282
  Beta virt. eigenvalues --    3.18922   3.21866   3.24392   3.30978   3.36443
  Beta virt. eigenvalues --    3.54018   3.61169   3.66309   3.66991   3.68502
  Beta virt. eigenvalues --    3.69408   3.70962   3.71172   3.72399   3.73673
  Beta virt. eigenvalues --    3.78395   3.80776   3.81404   3.87526   3.90609
  Beta virt. eigenvalues --    3.97936   4.04014   4.07350   4.10766   4.18753
  Beta virt. eigenvalues --    4.25611   4.41032   4.64158   5.10399   5.34559
  Beta virt. eigenvalues --    5.65468  23.60701  23.67265  23.84118  23.86171
  Beta virt. eigenvalues --   23.86686  23.90375  23.90688  23.92284  23.92908
  Beta virt. eigenvalues --   35.32165  49.85422
          Condensed to atoms (all electrons):
               1          2          3          4          5          6
     1  C    6.542469  -1.270393  -0.518479   0.009461   0.040824   0.178405
     2  C   -1.270393  11.874658  -0.740884  -1.511948   0.282987   0.464196
     3  C   -0.518479  -0.740884   6.518673   0.339544  -0.179951  -0.137104
     4  C    0.009461  -1.511948   0.339544   6.826628  -0.269812  -0.335535
     5  C    0.040824   0.282987  -0.179951  -0.269812   6.297383  -0.264197
     6  C    0.178405   0.464196  -0.137104  -0.335535  -0.264197   7.411831
     7  C    0.026927  -2.759345   0.343851   0.642115   0.132881  -2.102117
     8  C    0.032901   0.450087  -0.114720  -0.127022   0.157022   0.171139
     9  C   -0.233410   0.283329   0.134923   0.002510  -0.197858  -0.320781
    10  N    0.546294  -0.547529  -0.479472   0.119524  -0.257505   0.712598
    11  O   -0.001842  -0.066986   0.032221  -0.030775   0.107108  -0.164228
    12  H    0.481123   0.018219  -0.068008  -0.077436   0.007947   0.022977
    13  H    0.482671  -0.125709  -0.046726   0.015167  -0.008827   0.023440
    14  H    0.255050   0.049305   0.043157   0.040783  -0.021794  -0.048801
    15  H   -0.004035  -0.070046   0.407827   0.023984  -0.009359  -0.009527
    16  H    0.012552  -0.043686   0.413464  -0.016197  -0.013158   0.026119
    17  H    0.009722  -0.153961   0.405773   0.014234   0.005384  -0.018555
    18  H   -0.018205  -0.069854   0.050673   0.342255   0.025820  -0.035909
    19  H   -0.059957   0.059802   0.004503   0.383764  -0.029505  -0.027869
    20  H    0.019393  -0.003737  -0.005358  -0.004137   0.327098   0.024554
    21  H   -0.056373   0.089484   0.027071  -0.044245   0.372972  -0.049815
    22  H   -0.013844  -0.006458   0.007283   0.014728   0.009482   0.345173
    23  H    0.010906  -0.045837  -0.005200   0.004539  -0.032710   0.394748
    24  H    0.042809  -0.028489   0.015062  -0.001555   0.002101  -0.018092
    25  H    0.006368   0.014945  -0.002987  -0.008897   0.012922   0.025709
    26  H    0.009563  -0.074652  -0.007808   0.023277  -0.054036  -0.017849
    27  H    0.010908   0.001966  -0.004048  -0.007448  -0.014138   0.051930
    28  H   -0.004605  -0.006860   0.001196  -0.001993   0.021756  -0.052007
    29  H   -0.001653  -0.001447   0.002903   0.008807  -0.008994  -0.049878
    30  H   -0.009616  -0.096197   0.070688   0.008089  -0.023465  -0.005807
               7          8          9         10         11         12
     1  C    0.026927   0.032901  -0.233410   0.546294  -0.001842   0.481123
     2  C   -2.759345   0.450087   0.283329  -0.547529  -0.066986   0.018219
     3  C    0.343851  -0.114720   0.134923  -0.479472   0.032221  -0.068008
     4  C    0.642115  -0.127022   0.002510   0.119524  -0.030775  -0.077436
     5  C    0.132881   0.157022  -0.197858  -0.257505   0.107108   0.007947
     6  C   -2.102117   0.171139  -0.320781   0.712598  -0.164228   0.022977
     7  C   13.271831  -1.382607  -0.388528  -1.598624   0.264464  -0.054137
     8  C   -1.382607   6.327118  -0.513162   0.305473   0.052441   0.011189
     9  C   -0.388528  -0.513162   7.119419  -0.526433  -0.053393  -0.007153
    10  N   -1.598624   0.305473  -0.526433   8.459271  -0.054872   0.035794
    11  O    0.264464   0.052441  -0.053393  -0.054872   7.658283  -0.002287
    12  H   -0.054137   0.011189  -0.007153   0.035794  -0.002287   0.460330
    13  H   -0.070212   0.002064  -0.016948   0.078317  -0.004453  -0.007646
    14  H    0.096879  -0.001587   0.021185  -0.063295  -0.004521  -0.045006
    15  H    0.008911  -0.006027   0.002414   0.008947  -0.008501  -0.003015
    16  H   -0.047655   0.001074  -0.002375   0.042868  -0.010154   0.002980
[...]
 4,0.00001829,-0.00008100,0.00000378,-0.00002096,0.00027592,0.00016346,
 -0.00017216,0.00267192,-0.00114416,-0.00084446,-0.00768530,-0.00391826
 ,-0.01268996,-0.10213857,-0.07665594,-0.22984102,-0.00092722,-0.000271
 65,0.00022457,-0.00141271,0.00053252,-0.00055226,0.00048273,0.00123146
 ,0.00118551,0.00003249,-0.00001132,-0.00000502,-0.00004400,0.00002319,
 0.00001991,0.00008947,-0.00016711,0.00008707,0.00000602,-0.00001692,0.
 00002206,0.00000413,0.00001786,-0.00000756,0.00000219,-0.00001338,-0.0
 0001255,-0.00002924,0.00003593,-0.00001137,0.00002577,-0.00002843,0.00
 005613,-0.00009123,-0.00002694,0.00007501,-0.00014898,-0.00001648,0.00
 011467,-0.00044070,-0.00071408,-0.00038867,0.00026764,-0.00003619,0.00
 043770,0.11079046,0.08493628,0.24700955,-0.00071095,0.00001382,0.00021
 230,-0.00037658,-0.00053432,-0.00015229,0.00013938,0.00016900,-0.00006
 894,-0.00008707,0.00003200,-0.00012736,-0.00035846,-0.00010841,-0.0000
 5567,0.00014209,-0.00087112,-0.00053891,-0.00713366,0.01611929,-0.0107
 6848,-0.06096100,0.05008801,-0.03764348,0.00063251,-0.00004697,-0.0004
 0694,-0.00210785,0.00348900,0.00260279,-0.00051052,-0.00021152,-0.0006
 6494,0.00030104,-0.00018410,-0.00002240,-0.00002169,0.00002058,0.00000
 270,0.00046779,-0.00007523,0.00003470,-0.00000976,-0.00003403,0.000025
 73,-0.00002730,0.00006419,-0.00001879,0.00003106,-0.00003041,-0.000013
 77,0.00001147,-0.00000735,-0.00001703,0.00002869,0.00002145,0.00005650
 ,0.00009551,-0.00009221,-0.00006307,0.00016026,-0.00009871,-0.00001091
 ,-0.00001952,-0.00017401,0.00002670,0.00045687,-0.00021621,0.00005210,
 -0.00416777,0.01146644,-0.00756868,0.06561406,-0.00024369,-0.00030922,
 -0.00006939,-0.00008061,0.00061382,0.00024217,-0.00007074,-0.00008784,
 -0.00004438,0.00018846,0.00012932,0.00014242,-0.00036110,-0.00012794,-
 0.00009084,-0.00006549,0.00035374,0.00105834,0.00588351,-0.01659788,0.
 01030783,0.05131793,-0.21302200,0.12498080,-0.00125417,0.00098244,0.00
 102521,0.00127677,-0.00222939,-0.00286930,0.00034582,0.00088457,0.0007
 3961,0.00007072,0.00002691,0.00013000,0.00002328,-0.00002516,0.0000326
 9,0.00019706,-0.00006689,-0.00001474,-0.00000865,0.00001638,-0.0000131
 1,0.00001673,-0.00002817,0.00002342,0.00001810,-0.00000035,0.00000363,
 0.00000315,-0.00002597,-0.00004109,-0.00003882,0.00002448,-0.00007323,
 0.00006290,-0.00004181,-0.00005965,0.00015911,-0.00009586,-0.00000008,
 -0.00016251,0.00041609,-0.00015297,-0.00035058,-0.00011915,-0.00085420
 ,-0.00323169,0.01044491,-0.00716124,-0.05802415,0.22936837,0.00034540,
 -0.00037633,-0.00016088,-0.00016176,0.00058386,0.00033248,-0.00004581,
 -0.00007349,0.00000438,0.00009808,0.00002201,0.00017997,0.00008323,0.0
 0002581,-0.00006045,-0.00001748,-0.00000575,0.00072272,0.00601407,-0.0
 1497596,0.00780265,-0.03959587,0.12635945,-0.13814334,-0.00006277,-0.0
 0031919,0.00055031,0.00086034,-0.00293902,-0.00299675,0.00113787,0.001
 09064,0.00181719,-0.00015867,0.00016883,0.00020772,0.00008527,-0.00009
 248,0.00012329,-0.00023790,-0.00004642,-0.00010985,0.00001306,0.000019
 01,-0.00001792,0.00001162,-0.00003679,0.00000925,-0.00001016,0.0000202
 1,0.00001223,0.00000599,0.00001832,-0.00000260,-0.00003565,-0.00000909
 ,-0.00005754,-0.00003955,-0.00000598,0.00000460,-0.00007692,0.00002966
 ,-0.00002414,-0.00000143,0.00023167,0.00012112,-0.00007599,-0.00032174
 ,-0.00036690,-0.00506085,0.02067666,-0.01378462,0.03906350,-0.13414304
 ,0.14878127,-0.00101066,-0.00050071,0.00029489,-0.00070327,0.00025098,
 0.00009034,0.00011694,0.00009399,-0.00007672,0.00009272,0.00008959,-0.
 00005803,-0.00028262,-0.00033720,-0.00017917,-0.00003582,-0.00071295,-
 0.00078191,-0.01511871,-0.00739317,0.00456813,-0.24421500,-0.11243557,
 0.06191749,-0.00155118,0.00283432,0.00129352,0.00040412,-0.00121433,0.
 00042545,-0.00014010,0.00048126,-0.00020129,0.00043521,-0.00030735,0.0
 0005396,-0.00009056,0.00015525,-0.00009034,0.00125088,-0.00024927,0.00
 014270,-0.00001831,-0.00001409,0.00001209,-0.00001748,0.00004396,-0.00
 000521,0.00004910,-0.00004542,-0.00001309,0.00002323,-0.00007563,-0.00
 002818,0.00001294,0.00002925,0.00002220,0.00023761,-0.00006326,-0.0002
 0424,0.00073504,-0.00074792,-0.00061610,-0.00002283,-0.00006331,-0.000
 09333,0.00002437,0.00018183,0.00016770,-0.01078141,-0.00607872,0.00426
 001,0.00851682,0.00417070,-0.00251838,0.26196807,-0.00005622,-0.000889
 20,0.00027191,0.00031598,-0.00001309,-0.00021044,-0.00008498,-0.000079
 89,0.00007619,0.00005016,-0.00016824,0.00000364,0.00024749,-0.00062233
 ,-0.00039634,-0.00044584,0.00096591,0.00084384,0.01891557,0.00929812,-
 0.00508009,-0.11478677,-0.11143926,0.03559286,0.00214331,-0.00227079,-
 0.00204415,-0.00077584,0.00207834,-0.00052936,0.00015676,-0.00019709,0
 .00034539,0.00002333,-0.00003931,-0.00001633,-0.00017326,0.00023625,-0
 .00004493,0.00003723,-0.00192109,0.00136092,0.00000223,0.00001004,-0.0
 0000685,0.00000804,-0.00001759,0.00000284,-0.00003323,0.00004282,-0.00
 000057,-0.00002395,0.00003441,0.00002501,-0.00001363,0.00000083,-0.000
 00078,-0.00013915,0.00011372,0.00012677,-0.00051010,-0.00152358,-0.001
 08318,0.00003436,0.00003779,0.00022175,-0.00028614,0.00001776,0.000057
 00,-0.00724425,-0.00535111,0.00368883,-0.02113101,-0.01067191,0.004723
 27,0.12266585,0.12171256,-0.00006311,0.00043634,-0.00029449,0.00038707
 ,-0.00010988,0.00037049,-0.00000655,-0.00006605,-0.00016827,0.00002014
 ,-0.00004263,0.00028130,0.00039375,-0.00047960,-0.00042580,0.00039048,
 0.00079731,0.00070550,0.01257649,0.00882367,-0.00579416,0.06117067,0.0
 3419891,-0.06642571,0.00235578,-0.00308734,-0.00110305,-0.00090047,0.0
 0006146,-0.00037473,-0.00006395,0.00027552,0.00022651,0.00000781,-0.00
 008368,-0.00010557,-0.00010158,-0.00001514,-0.00015179,-0.00002288,0.0
 0151189,-0.00012796,-0.00004268,0.00001993,-0.00001899,0.00001250,-0.0
 0001217,0.00002625,0.00004283,-0.00001826,0.00000113,-0.00009746,0.000
 07031,-0.00010025,-0.00001211,0.00003025,-0.00002836,-0.00020975,0.000
 13222,0.00011175,-0.00063917,-0.00119769,-0.00004601,-0.00017756,0.000
 16461,0.00010707,-0.00005711,0.00018460,-0.00026019,-0.02277034,-0.012
 58220,0.00873491,0.01598950,0.00764862,-0.00468212,-0.06921895,-0.0370
 1838,0.06938760,0.00003821,0.00008766,0.00000302,0.00018750,-0.0000483
 8,-0.00011350,0.00000567,0.00003450,0.00006651,-0.00017156,0.00015240,
 -0.00005493,-0.00023337,-0.00029551,-0.00179470,-0.00303105,-0.0032163
 1,0.00381047,-0.01001241,-0.01217298,-0.01809153,0.00132691,-0.0005865
 1,-0.00119040,-0.08722080,-0.06263452,-0.06392652,-0.00130419,-0.00008
 860,-0.00114527,0.00112369,0.00213626,0.00011992,-0.00000049,0.0000115
 6,-0.00000905,-0.00000004,-0.00001684,0.00005075,-0.00001367,-0.000036
 33,-0.00002649,0.00004205,-0.00002804,0.00002664,0.00000711,0.00001059
 ,0.00000079,-0.00000255,-0.00001374,0.00000233,0.00001681,-0.00001463,
 0.00000223,0.00005501,-0.00005189,0.00005600,-0.00031271,-0.00045147,0
 .00024347,-0.00003757,0.00004360,0.00004907,0.00010826,-0.00002962,-0.
 00006580,0.00023907,0.00013231,0.00011360,-0.00020978,0.00008595,0.000
 78646,-0.00026790,0.00015716,-0.00019205,0.00027505,0.00022708,0.00009
 854,0.09134490,-0.00002302,0.00018569,0.00007423,0.00017615,-0.0003269
 0,-0.00004243,0.00008285,0.00005815,0.00002885,-0.00001691,0.00015412,
 -0.00016764,-0.00045015,0.00034666,-0.00089165,-0.00137775,-0.00113395
 ,0.00203664,-0.00471866,-0.01046299,-0.01075941,0.00157511,0.00044905,
 -0.00044245,-0.06513950,-0.15374007,-0.11349624,-0.00262530,-0.0004915
 5,-0.00210430,0.00226171,0.00238650,0.00051035,0.00004485,-0.00001495,
 -0.00002953,-0.00002354,-0.00000700,0.00006156,0.00002241,-0.00001917,
 -0.00001955,0.00002261,-0.00004246,0.00006008,0.00000666,0.00002649,0.
 00000464,-0.00001202,-0.00002333,-0.00001792,0.00001602,0.00002139,0.0
 0002744,0.00002047,-0.00000200,0.00006940,-0.00014925,-0.00021163,0.00
 016475,-0.00009092,-0.00009128,0.00004005,0.00000531,0.00015219,0.0003
 7855,-0.00028472,0.00002949,-0.00014258,-0.00016577,0.00052276,0.00044
 529,-0.00003257,0.00001082,0.00022960,0.00024446,-0.00009386,0.0001911
 7,0.07228169,0.16585033,-0.00003415,0.00004385,0.00004072,0.00018687,0
 .00003571,0.00011673,0.00002751,-0.00005067,-0.00000433,-0.00010406,-0
 .00003804,-0.00015534,0.00037656,0.00040820,0.00083374,0.00119647,0.00
 038664,-0.00079559,0.00564759,0.00914270,0.00870150,-0.00036070,0.0005
 2820,0.00131771,-0.06546208,-0.11104221,-0.16343766,-0.00108282,-0.000
 62407,0.00006023,0.00051491,0.00262129,-0.00151573,0.00001559,-0.00000
 585,-0.00001218,-0.00001865,-0.00000112,0.00001555,0.00001399,-0.00000
 093,-0.00000325,0.00000229,-0.00001867,0.00003288,0.00000909,0.0000059
 5,0.00000449,-0.00000955,-0.00000124,-0.00000609,-0.00000504,0.0000294
 4,0.00000613,0.00002575,-0.00000899,0.00006558,0.00009745,0.00017459,-
 0.00006740,-0.00011651,-0.00015523,0.00003518,0.00001802,0.00045446,0.
 00022720,0.00031771,0.00006872,0.00011386,-0.00013590,0.00014691,-0.00
 003515,-0.00014590,-0.00027710,-0.00002047,-0.00008771,0.00010060,0.00
 010437,0.07308768,0.11857005,0.17858436,-0.00003224,0.00002181,-0.0000
 3947,-0.00004911,-0.00006631,0.00005594,-0.00002930,-0.00000986,-0.000
 00601,-0.00003224,0.00005782,0.00007922,0.00026192,-0.00039443,-0.0002
 8961,0.00036336,0.00118284,0.00108780,-0.01579479,0.01448227,0.0069498
 2,-0.00320183,-0.00312879,0.00124855,-0.18694534,0.11388290,0.07149128
 ,0.00043260,0.00089779,-0.00141278,0.00061670,0.00022243,0.00052290,0.
 00003831,-0.00002176,0.00000252,-0.00000723,0.00001135,-0.00000938,0.0
 0005817,0.00004135,-0.00000728,0.00000144,-0.00000044,-0.00000720,0.00
 001501,-0.00000259,-0.00000288,0.00003915,-0.00003668,0.00001128,0.000
 01289,-0.00008071,-0.00002308,0.00002337,-0.00000590,-0.00002311,-0.00
 003424,-0.00005753,0.00001459,0.00016862,0.00017699,-0.00007276,-0.000
 13977,-0.00064841,-0.00080255,0.00009475,-0.00009533,0.00006491,-0.000
 00295,0.00000805,0.00020934,0.00029674,-0.00035660,-0.00017079,-0.0003
 9876,0.00081218,0.00097339,0.01138582,-0.00834952,-0.00487245,0.200569
 43,-0.00001295,0.00000170,-0.00001485,-0.00022243,-0.00000856,-0.00005
 702,0.00000659,0.00005168,0.00000440,-0.00003152,0.00007012,0.00003421
 ,0.00008320,-0.00003803,-0.00002234,0.00029402,0.00095858,0.00100174,-
 0.01402003,0.01044474,0.00750250,-0.00240390,-0.00187617,0.00111793,0.
 11630404,-0.14721318,-0.06268520,0.00008825,0.00172889,-0.00034660,-0.
 00046715,0.00005130,0.00026855,0.00000504,-0.00000480,0.00000151,0.000
 00633,-0.00000219,-0.00000852,0.00002068,0.00001612,-0.00001605,0.0000
 1302,-0.00000401,-0.00000641,-0.00000391,0.00000710,-0.00000789,0.0000
 3400,-0.00002139,-0.00001487,0.00003302,-0.00002988,-0.00003480,0.0000
 0931,-0.00001026,-0.00001405,0.00000305,-0.00000971,-0.00000281,0.0000
 2026,0.00005315,0.00001642,0.00007679,-0.00004644,-0.00017686,-0.00008
 883,-0.00003906,-0.00003986,-0.00007119,-0.00005208,0.00018710,-0.0002
 6365,0.00007879,-0.00014676,-0.00065214,0.00080000,0.00059159,0.013565
 99,-0.01035606,-0.00421758,-0.12407010,0.15588907,0.00002612,-0.000097
 56,-0.00003890,0.00018104,0.00015605,0.00001817,-0.00004702,-0.0000969
 8,-0.00004576,0.00001590,-0.00005302,0.00010382,0.00009177,-0.00006372
 ,-0.00005990,-0.00105478,0.00040612,-0.00009933,0.00861775,-0.00552054
 ,-0.00764835,0.00245598,0.00213665,-0.00077008,0.07097446,-0.06205329,
 -0.08384244,0.00145507,-0.00109766,0.00146919,-0.00131446,-0.00037593,
 -0.00023337,-0.00004169,0.00001887,0.00002064,0.00001265,-0.00001027,-
 0.00001760,-0.00005149,-0.00001837,0.00002175,-0.00000166,0.00002538,-
 0.00003154,-0.00001496,-0.00002032,0.00002468,-0.00001608,0.00007916,0
 .00003405,0.00000046,0.00001294,0.00000821,-0.00001930,-0.00001005,-0.
 00002602,-0.00002726,0.00002125,-0.00000188,-0.00003860,0.00000785,-0.
 00000218,-0.00023817,-0.00019851,0.00031348,-0.00015939,-0.00009687,0.
 00010472,-0.00023973,0.00010302,0.00034916,-0.00016108,-0.00014272,0.0
 0013554,0.00057492,-0.00059409,-0.00005686,0.01556365,-0.01083539,-0.0
 0754927,-0.07988256,0.06533850,0.08867163,0.00003266,0.00002216,-0.000
 05239,0.00125974,-0.00001160,0.00051135,-0.00038698,-0.00033445,0.0000
 4133,0.00017483,0.00007439,0.00014995,0.00005421,0.00021015,0.00013678
 ,0.00084046,-0.00063724,0.00072063,0.00772968,-0.01399759,0.01923696,0
 .00076981,-0.00011112,-0.00016898,-0.08111653,0.05936146,-0.07748441,-
 0.00527453,-0.00457602,0.00170976,0.00089871,0.00038174,-0.00011011,-0
 .00002904,0.00000202,0.00002006,-0.00001749,0.00000083,0.00000809,-0.0
 0002417,0.00001228,0.00001403,-0.00000214,0.00000625,0.00000454,0.0001
 5582,-0.00008320,0.00003777,0.00001629,-0.00000969,-0.00001826,-0.0000
 0917,-0.00001995,-0.00001444,-0.00003544,0.00002222,-0.00005080,0.0000
 3025,0.00005192,-0.00004051,0.00001386,-0.00000738,0.00000216,0.000123
 80,0.00021533,-0.00020543,-0.00058914,-0.00023249,-0.00008942,-0.00011
 940,-0.00003892,-0.00001316,-0.00044608,0.00023243,0.00040063,0.000007
 05,0.00009048,-0.00029925,-0.00496281,0.00689956,-0.00903114,-0.007718
 29,0.01125036,-0.01776370,0.08937896,-0.00002257,-0.00010101,-0.000009
 45,0.00085066,0.00035019,0.00043424,-0.00022808,-0.00020344,-0.0000271
 5,0.00022122,0.00011135,0.00007757,-0.00006575,-0.00002960,-0.00016968
 ,0.00080792,0.00068950,0.00056616,0.00548579,-0.01175115,0.01275663,0.
 00050082,-0.00005185,-0.00083080,0.05708853,-0.12981395,0.11700348,-0.
 00395665,-0.00291605,0.00101911,0.00047150,0.00162701,-0.00069549,-0.0
 0003954,0.00000338,0.00003735,-0.00001828,-0.00000615,-0.00000866,-0.0
 0002557,0.00002114,0.00002476,-0.00000026,0.00000544,0.00000191,0.0000
 7561,-0.00004752,0.00004651,0.00000615,0.00002221,0.00000568,-0.000010
 01,-0.00001846,-0.00000068,-0.00006055,0.00004466,-0.00006468,-0.00000
 061,0.00002761,-0.00000153,0.00008144,0.00009783,-0.00006040,0.0001861
 7,-0.00039539,-0.00012348,-0.00066632,-0.00000006,-0.00017771,0.000065
 23,0.00014866,-0.00010345,0.00018794,0.00054746,-0.00012653,-0.0000881
 5,0.00001719,-0.00014789,-0.00806010,0.01179162,-0.01730621,0.00564141
 ,-0.01011022,0.01395684,-0.05848162,0.14178476,-0.00005365,0.00007313,
 0.00003341,-0.00037493,-0.00025307,-0.00013627,0.00019406,0.00009434,-
 0.00000990,-0.00004616,-0.00007560,-0.00003080,0.00023128,-0.00002454,
 -0.00013850,-0.00147666,-0.00134610,0.00057804,-0.00365295,0.00680739,
 -0.00945555,-0.00061985,-0.00003302,-0.00002895,-0.07511549,0.11869163
 ,-0.20059994,0.00041250,0.00025681,-0.00093270,0.00073061,0.00099997,0
 .00040254,0.00004148,-0.00001615,-0.00001873,-0.00001103,0.00000149,0.
 00001357,0.00003865,0.00000398,-0.00000812,0.00001019,-0.00001983,0.00
 001710,-0.00004333,0.00003763,0.00000517,-0.00000422,0.00000132,0.0000
 0541,0.00001593,0.00000127,0.00001651,0.00003323,-0.00001216,0.0000393
 6,-0.00003098,-0.00006591,0.00000827,0.00000202,0.00002234,-0.00002026
 ,0.00029013,-0.00000170,0.00008736,0.00007500,-0.00005945,0.00054618,0
 .00010622,0.00013295,0.00011399,0.00072257,-0.00034678,-0.00017499,0.0
 0013241,-0.00026177,0.00036431,-0.00811266,0.01162441,-0.01687437,0.00
 458899,-0.00798290,0.01073976,0.08138433,-0.12711982,0.21440117,0.0003
 3308,0.00114325,-0.00018040,-0.00078180,-0.00054698,-0.00717846,0.0003
 2614,0.00065903,-0.00038086,-0.00033751,-0.00138024,0.00115833,0.00008
 781,-0.00010283,0.00028082,0.00006752,-0.00102756,0.00019581,-0.002403
 96,-0.00012156,-0.00001031,-0.00080457,-0.00022683,-0.00073857,0.00125
 860,0.00013937,-0.00087805,-0.02224109,-0.03845802,0.00676900,-0.07468
 792,-0.12175248,0.01849531,0.00020810,-0.00003617,-0.00012645,-0.00009
 052,-0.00007348,0.00028444,-0.00010612,-0.00007211,0.00004247,0.000280
 14,-0.00002260,0.00037356,0.00005366,0.00014164,0.00023398,0.00001706,
 -0.00007077,0.00008051,-0.00003370,-0.00005106,0.00000329,-0.00016604,
 -0.00009209,-0.00051297,0.00003501,0.00010040,-0.00002250,-0.00009030,
 0.00002158,-0.00002954,0.00004319,0.00014087,0.00017567,0.00017667,0.0
 0028322,0.00022926,-0.00058798,0.00097401,0.00074968,0.00031183,0.0001
 2497,0.00034298,0.00023757,-0.00002569,0.00026395,0.00162483,-0.000200
 24,-0.00007083,0.00000779,0.00049386,0.00110217,-0.00075493,0.00005370
 ,0.00053233,0.09801745,-0.00047424,0.00086001,0.00077905,0.00039231,0.
 00147311,-0.00096383,0.00032674,0.00054568,0.00035352,-0.00056809,0.00
 022600,-0.00027287,-0.00025682,0.00001632,-0.00025121,-0.00013491,-0.0
 0157540,0.00068315,0.00361728,0.00209252,-0.00187125,-0.00044132,-0.00
 011515,0.00314327,0.00234708,0.00582073,0.00242473,-0.01246403,-0.0129
 9325,-0.00285064,-0.15179996,-0.38615943,0.12219108,0.00032882,-0.0001
 1407,-0.00018216,-0.00010094,0.00003481,0.00018877,0.00017995,0.000005
 26,-0.00006801,-0.00008734,-0.00010552,-0.00005386,-0.00009998,0.00013
 695,-0.00022176,0.00006935,-0.00015976,-0.00009827,0.00001682,-0.00003
 522,0.00006420,0.00009106,0.00007673,0.00002834,-0.00001016,-0.0001017
 4,0.00006212,-0.00000905,-0.00004387,-0.00002722,-0.00003179,0.0001774
 9,0.00000032,0.00028607,0.00027002,0.00038525,0.00022414,-0.00012100,-
 0.00075315,0.00046424,-0.00044856,-0.00058042,-0.00026225,-0.00006740,
 -0.00027748,-0.00118126,-0.00496805,0.00103062,-0.00011423,-0.00032923
 ,-0.00097734,-0.00029232,-0.00184516,-0.00112988,0.15998480,0.39744716
 ,-0.00006861,-0.00132347,-0.00010947,-0.00462937,0.00282384,-0.0021415
 9,-0.00022240,0.00067219,-0.00053228,-0.00055060,-0.00102704,0.0007795
 4,0.00025245,-0.00017093,0.00051923,0.00050737,0.00065937,-0.00057586,
 -0.00351196,-0.00209116,-0.00007580,0.00050599,0.00077911,0.00021878,-
 0.00083844,-0.00348445,-0.00102206,-0.01426732,-0.03884080,0.00820716,
 0.04213601,0.15807867,-0.08215131,-0.00024538,0.00013630,0.00027424,-0
 .00009123,0.00018773,0.00008310,0.00000577,0.00005544,0.00005185,0.000
 18161,-0.00004795,0.00025743,0.00005586,0.00001905,0.00009313,0.000099
 45,-0.00006383,-0.00000312,0.00002292,-0.00002454,-0.00009387,-0.00020
 966,-0.00013977,-0.00039116,0.00005513,0.00017633,-0.00010167,0.000061
 33,0.00004799,-0.00003518,-0.00001917,-0.00022518,-0.00012543,-0.00013
 107,-0.00002597,-0.00006491,0.00028273,-0.00048771,-0.00005970,-0.0003
 4043,0.00001910,-0.00020215,0.00021683,-0.00015355,-0.00025688,0.00064
 179,0.00443202,0.00021660,0.00032136,-0.00026906,-0.00159132,0.0009636
 6,0.00104337,0.00105692,-0.02118464,-0.12075510,0.07777580\\0.00000948
 ,-0.00000369,-0.00002724,-0.00000945,-0.00004463,0.00000302,-0.0000093
 7,0.00000726,0.00000470,0.00001241,0.00000323,0.00000147,-0.00001679,0
 .00000044,0.00000203,0.00001191,-0.00001374,-0.00000882,-0.00004182,0.
 00002654,-0.00001557,0.00003677,-0.00001171,-0.00000417,0.00001504,-0.
 00001638,-0.00002023,0.00003096,0.00002802,0.00005006,-0.00000430,-0.0
 0001264,-0.00001802,-0.00000425,0.00000267,0.00000966,-0.00000059,0.00
 000193,0.00000524,0.00000064,-0.00000275,0.00000582,0.00000573,-0.0000
 0736,0.00000194,-0.00000267,0.00000128,0.00000858,-0.00000004,-0.00000
 125,-0.00000589,-0.00000529,0.00000103,0.00000173,0.00000121,0.0000013
 2,-0.00000107,0.00000049,-0.00000281,0.00000158,0.00000369,-0.00000475
 ,-0.00000348,-0.00001121,-0.00000308,0.00000546,-0.00000134,-0.0000001
 1,0.00000140,-0.00001167,0.00000522,-0.00000890,-0.00000202,0.00000404
 ,-0.00000507,-0.00000927,0.00000094,0.00000174,0.00000713,0.00001202,-
 0.00000436,-0.00000683,0.00000875,0.00000900,-0.00000102,0.00000823,0.
 00000287,0.00000248,0.00001197,0.00000652\\\@


 "ANNA, YOU MUSN'T SPEAK OF OXIDIZED MURIATIC ACID
 ANYMORE, FROM NOW ON YOU MUST SAY CHLORINE."
   -- JENS JACOB BERZELIUS, IN 1820, TO HIS COOK, WHO HAD
 COMPLAINED OF THE SMELL OF THE FLASK SHE WAS CLEANING.
 Job cpu time:       0 days  5 hours 33 minutes 18.0 seconds.
 Elapsed time:       0 days  0 hours 13 minutes 56.2 seconds.
 File lengths (MBytes):  RWF=    683 Int=      0 D2E=      0 Chk=     17 Scr=      1
 Normal termination of Gaussian 16 at Mon Oct 14 00:32:45 2019.
real 2549.75
user 60254.02
sys 57.98
Machine:
brown-a305
brown-a305
brown-a305
brown-a305
brown-a305
brown-a305
brown-a305
brown-a305
brown-a305
brown-a305
brown-a305
brown-a305
brown-a305
brown-a305
brown-a305
brown-a305
brown-a305
brown-a305
brown-a305
brown-a305
brown-a305
brown-a305
brown-a305
brown-a305
