 Entering Gaussian System, Link 0=/apps/cent7/gaussian/g16-A.03/g16-haswell/g16/g16
 Initial command:
 /apps/cent7/gaussian/g16-A.03/g16-haswell/g16/l1.exe "/scratch/brown/finej/gaussian/Gau-382012.inp" -scrdir="/scratch/brown/finej/gaussian/"
 Entering Link 1 = /apps/cent7/gaussian/g16-A.03/g16-haswell/g16/l1.exe PID=    382014.
  
 Copyright (c) 1988,1990,1992,1993,1995,1998,2003,2009,2016,
            Gaussian, Inc.  All Rights Reserved.
  
 This is part of the Gaussian(R) 16 program.  It is based on
 the Gaussian(R) 09 system (copyright 2009, Gaussian, Inc.),
 the Gaussian(R) 03 system (copyright 2003, Gaussian, Inc.),
 the Gaussian(R) 98 system (copyright 1998, Gaussian, Inc.),
 the Gaussian(R) 94 system (copyright 1995, Gaussian, Inc.),
 the Gaussian 92(TM) system (copyright 1992, Gaussian, Inc.),
 the Gaussian 90(TM) system (copyright 1990, Gaussian, Inc.),
 the Gaussian 88(TM) system (copyright 1988, Gaussian, Inc.),
 the Gaussian 86(TM) system (copyright 1986, Carnegie Mellon
 University), and the Gaussian 82(TM) system (copyright 1983,
 Carnegie Mellon University). Gaussian is a federally registered
 trademark of Gaussian, Inc.
  
 This software contains proprietary and confidential information,
 including trade secrets, belonging to Gaussian, Inc.
  
 This software is provided under written license and may be
 used, copied, transmitted, or stored only in accord with that
 written license.
  
 The following legend is applicable only to US Government
 contracts under FAR:
  
                    RESTRICTED RIGHTS LEGEND
  
 Use, reproduction and disclosure by the US Government is
 subject to restrictions as set forth in subparagraphs (a)
 and (c) of the Commercial Computer Software - Restricted
 Rights clause in FAR 52.227-19.
  
 Gaussian, Inc.
 340 Quinnipiac St., Bldg. 40, Wallingford CT 06492
  
  
 ---------------------------------------------------------------
 Warning -- This program may not be used in any manner that
 competes with the business of Gaussian, Inc. or will provide
 assistance to any competitor of Gaussian, Inc.  The licensee
 of this program is prohibited from giving any competitor of
 Gaussian, Inc. access to this program.  By using this program,
 the user acknowledges that Gaussian, Inc. is engaged in the
 business of creating and licensing software in the field of
 computational chemistry and represents and warrants to the
 licensee that it is not a competitor of Gaussian, Inc. and that
 it will not use this program in any manner prohibited above.
 ---------------------------------------------------------------
  

 Cite this work as:
 Gaussian 16, Revision A.03,
 M. J. Frisch, G. W. Trucks, H. B. Schlegel, G. E. Scuseria, 
 M. A. Robb, J. R. Cheeseman, G. Scalmani, V. Barone, 
 G. A. Petersson, H. Nakatsuji, X. Li, M. Caricato, A. V. Marenich, 
 J. Bloino, B. G. Janesko, R. Gomperts, B. Mennucci, H. P. Hratchian, 
 J. V. Ortiz, A. F. Izmaylov, J. L. Sonnenberg, D. Williams-Young, 
 F. Ding, F. Lipparini, F. Egidi, J. Goings, B. Peng, A. Petrone, 
 T. Henderson, D. Ranasinghe, V. G. Zakrzewski, J. Gao, N. Rega, 
 G. Zheng, W. Liang, M. Hada, M. Ehara, K. Toyota, R. Fukuda, 
 J. Hasegawa, M. Ishida, T. Nakajima, Y. Honda, O. Kitao, H. Nakai, 
 T. Vreven, K. Throssell, J. A. Montgomery, Jr., J. E. Peralta, 
 F. Ogliaro, M. J. Bearpark, J. J. Heyd, E. N. Brothers, K. N. Kudin, 
 V. N. Staroverov, T. A. Keith, R. Kobayashi, J. Normand, 
 K. Raghavachari, A. P. Rendell, J. C. Burant, S. S. Iyengar, 
 J. Tomasi, M. Cossi, J. M. Millam, M. Klene, C. Adamo, R. Cammi, 
 J. W. Ochterski, R. L. Martin, K. Morokuma, O. Farkas, 
 J. B. Foresman, and D. J. Fox, Gaussian, Inc., Wallingford CT, 2016.
 
 ******************************************
 Gaussian 16:  ES64L-G16RevA.03 25-Dec-2016
                13-Oct-2019 
 ******************************************
 %chk=8.chk
 %nprocshared=24
 Will use up to   24 processors via shared memory.
 %mem=80GB
 -------------------------------------------------------------------
 #P opt freq m062x/6-311++g(d,p) geom=connectivity temperature=0.001
 -------------------------------------------------------------------
 1/18=20,19=15,26=3,38=1,57=2,112=-1000/1,3;
 2/9=110,12=2,17=6,18=5,40=1/2;
 3/5=4,6=6,7=1111,11=2,25=1,30=1,71=1,74=-55/1,2,3;
 4//1;
 5/5=2,38=5/2;
 6/7=2,8=2,9=2,10=2,28=1/1;
 7//1,2,3,16;
 1/18=20,19=15,26=3/3(2);
 2/9=110/2;
 99//99;
 2/9=110/2;
 3/5=4,6=6,7=1111,11=2,25=1,30=1,71=1,74=-55/1,2,3;
 4/5=5,16=3,69=1/1;
 5/5=2,38=5/2;
 7//1,2,3,16;
 1/18=20,19=15,26=3/3(-5);
 2/9=110/2;
 6/7=2,8=2,9=2,10=2,19=2,28=1/1;
 99/9=1/99;
 Leave Link    1 at Sun Oct 13 23:51:42 2019, MaxMem= 10737418240 cpu:               0.9 elap:               0.0
 (Enter /apps/cent7/gaussian/g16-A.03/g16-haswell/g16/l101.exe)
 -------------------
 Title Card Required
 -------------------
 Symbolic Z-matrix:
 Charge =  0 Multiplicity = 1
 C                     1.4322    0.0528   -0.406 
 N                     0.1469   -0.1452    0.2773 
 O                     0.1017    0.643     1.379 
 H                     2.2225    0.1745    0.3348 
 H                     1.6494   -0.8143   -1.0298 
 H                     1.3784    0.945    -1.0298 
 H                    -0.6173   -0.753     0.0193 
 H                     0.0695    0.0927    2.165 
 
 ITRead=  0  0  0  0  0  0  0  0
 MicOpt= -1 -1 -1 -1 -1 -1 -1 -1
 NAtoms=      8 NQM=        8 NQMF=       0 NMMI=      0 NMMIF=      0
                NMic=       0 NMicF=      0.
                    Isotopes and Nuclear Properties:
 (Nuclear quadrupole moments (NQMom) in fm**2, nuclear magnetic moments (NMagM)
  in nuclear magnetons)

  Atom         1           2           3           4           5           6           7           8
 IAtWgt=          12          14          16           1           1           1           1           1
 AtmWgt=  12.0000000  14.0030740  15.9949146   1.0078250   1.0078250   1.0078250   1.0078250   1.0078250
 NucSpn=           0           2           0           1           1           1           1           1
 AtZEff=  -0.0000000  -0.0000000  -0.0000000  -0.0000000  -0.0000000  -0.0000000  -0.0000000  -0.0000000
 NQMom=    0.0000000   2.0440000   0.0000000   0.0000000   0.0000000   0.0000000   0.0000000   0.0000000
 NMagM=    0.0000000   0.4037610   0.0000000   2.7928460   2.7928460   2.7928460   2.7928460   2.7928460
 AtZNuc=   6.0000000   7.0000000   8.0000000   1.0000000   1.0000000   1.0000000   1.0000000   1.0000000
 Leave Link  101 at Sun Oct 13 23:51:42 2019, MaxMem= 10737418240 cpu:               8.7 elap:               0.4
 (Enter /apps/cent7/gaussian/g16-A.03/g16-haswell/g16/l103.exe)

 GradGradGradGradGradGradGradGradGradGradGradGradGradGradGradGradGradGrad
 Berny optimization.
 Initialization pass.
                           ----------------------------
                           !    Initial Parameters    !
                           ! (Angstroms and Degrees)  !
 --------------------------                            --------------------------
 ! Name  Definition              Value          Derivative Info.                !
 --------------------------------------------------------------------------------
 ! R1    R(1,2)                  1.469          estimate D2E/DX2                !
 ! R2    R(1,4)                  1.09           estimate D2E/DX2                !
 ! R3    R(1,5)                  1.09           estimate D2E/DX2                !
 ! R4    R(1,6)                  1.09           estimate D2E/DX2                !
 ! R5    R(2,3)                  1.3554         estimate D2E/DX2                !
 ! R6    R(2,7)                  1.0099         estimate D2E/DX2                !
 ! R7    R(3,8)                  0.96           estimate D2E/DX2                !
 ! A1    A(2,1,4)              109.4678         estimate D2E/DX2                !
 ! A2    A(2,1,5)              109.4695         estimate D2E/DX2                !
 ! A3    A(2,1,6)              109.4715         estimate D2E/DX2                !
 ! A4    A(4,1,5)              109.4675         estimate D2E/DX2                !
 ! A5    A(4,1,6)              109.4719         estimate D2E/DX2                !
 ! A6    A(5,1,6)              109.479          estimate D2E/DX2                !
 ! A7    A(1,2,3)              109.2004         estimate D2E/DX2                !
 ! A8    A(1,2,7)              128.6325         estimate D2E/DX2                !
 ! A9    A(3,2,7)              122.1671         estimate D2E/DX2                !
 ! A10   A(2,3,8)              109.467          estimate D2E/DX2                !
 ! D1    D(4,1,2,3)             37.8809         estimate D2E/DX2                !
 ! D2    D(4,1,2,7)           -142.1223         estimate D2E/DX2                !
 ! D3    D(5,1,2,3)            157.8733         estimate D2E/DX2                !
 ! D4    D(5,1,2,7)            -22.1298         estimate D2E/DX2                !
 ! D5    D(6,1,2,3)            -82.1181         estimate D2E/DX2                !
 ! D6    D(6,1,2,7)             97.8788         estimate D2E/DX2                !
 ! D7    D(1,2,3,8)           -115.108          estimate D2E/DX2                !
 ! D8    D(7,2,3,8)             64.8948         estimate D2E/DX2                !
 --------------------------------------------------------------------------------
 Trust Radius=3.00D-01 FncErr=1.00D-07 GrdErr=1.00D-06 EigMax=2.50D+02 EigMin=1.00D-04
 Number of steps in this run=     35 maximum allowed number of steps=    100.
 GradGradGradGradGradGradGradGradGradGradGradGradGradGradGradGradGradGrad

 Leave Link  103 at Sun Oct 13 23:51:43 2019, MaxMem= 10737418240 cpu:               1.0 elap:               0.1
 (Enter /apps/cent7/gaussian/g16-A.03/g16-haswell/g16/l202.exe)
                          Input orientation:                          
 ---------------------------------------------------------------------
 Center     Atomic      Atomic             Coordinates (Angstroms)
 Number     Number       Type             X           Y           Z
 ---------------------------------------------------------------------
      1          6           0        1.432200    0.052800   -0.406000
      2          7           0        0.146900   -0.145200    0.277300
      3          8           0        0.101700    0.643000    1.379000
      4          1           0        2.222500    0.174500    0.334800
      5          1           0        1.649400   -0.814300   -1.029800
      6          1           0        1.378400    0.945000   -1.029800
      7          1           0       -0.617300   -0.753000    0.019300
      8          1           0        0.069500    0.092700    2.165000
 ---------------------------------------------------------------------
                    Distance matrix (angstroms):
                    1          2          3          4          5
     1  C    0.000000
     2  N    1.469047   0.000000
     3  O    2.303213   1.355376   0.000000
     4  H    1.090032   2.100864   2.409904   0.000000
     5  H    1.090030   2.100883   3.212696   1.779973   0.000000
     6  H    1.089973   2.100866   2.742897   1.779974   1.780050
     7  H    2.242910   1.009944   2.077152   3.004041   2.498459
     8  H    2.910083   1.904205   0.960033   2.826965   3.677700
                    6          7          8
     6  H    0.000000
     7  H    2.822523   0.000000
     8  H    3.556175   2.406435   0.000000
 Stoichiometry    CH5NO
 Framework group  C1[X(CH5NO)]
 Deg. of freedom    18
 Full point group                 C1      NOp   1
 Largest Abelian subgroup         C1      NOp   1
 Largest concise Abelian subgroup C1      NOp   1
                         Standard orientation:                         
 ---------------------------------------------------------------------
 Center     Atomic      Atomic             Coordinates (Angstroms)
 Number     Number       Type             X           Y           Z
 ---------------------------------------------------------------------
      1          6           0        1.171391   -0.219041   -0.020129
      2          7           0       -0.084010    0.543048    0.015749
      3          8           0       -1.126465   -0.318967    0.100968
      4          1           0        1.030434   -1.123679   -0.611679
      5          1           0        1.954160    0.391291   -0.470610
      6          1           0        1.460949   -0.490218    0.995086
      7          1           0       -0.215094    1.543988   -0.014625
      8          1           0       -1.659013   -0.256732   -0.695387
 ---------------------------------------------------------------------
 Rotational constants (GHZ):          39.9081761          10.3385858           8.8492860
 Leave Link  202 at Sun Oct 13 23:51:43 2019, MaxMem= 10737418240 cpu:               0.4 elap:               0.0
 (Enter /apps/cent7/gaussian/g16-A.03/g16-haswell/g16/l301.exe)
 Standard basis: 6-311++G(d,p) (5D, 7F)
 Ernie: Thresh=  0.10000D-02 Tol=  0.10000D-05 Strict=F.
 There are   104 symmetry adapted cartesian basis functions of A   symmetry.
 There are   101 symmetry adapted basis functions of A   symmetry.
   101 basis functions,   153 primitive gaussians,   104 cartesian basis functions
    13 alpha electrons       13 beta electrons
       nuclear repulsion energy        83.4019831488 Hartrees.
 IExCor= 4336 DFT=T Ex+Corr=M062X ExCW=0 ScaHFX=  0.540000
 ScaDFX=  1.000000  1.000000  1.000000  1.000000 ScalE2=  1.000000  1.000000
 IRadAn=      5 IRanWt=     -1 IRanGd=            0 ICorTp=0 IEmpDi=  4
 NAtoms=    8 NActive=    8 NUniq=    8 SFac= 1.00D+00 NAtFMM=   60 NAOKFM=F Big=F
 Integral buffers will be    131072 words long.
 Raffenetti 2 integral format.
 Two-electron integral symmetry is turned on.
 Leave Link  301 at Sun Oct 13 23:51:43 2019, MaxMem= 10737418240 cpu:               1.3 elap:               0.1
 (Enter /apps/cent7/gaussian/g16-A.03/g16-haswell/g16/l302.exe)
 NPDir=0 NMtPBC=     1 NCelOv=     1 NCel=       1 NClECP=     1 NCelD=      1
         NCelK=      1 NCelE2=     1 NClLst=     1 CellRange=     0.0.
 One-electron integrals computed using PRISM.
 One-electron integral symmetry used in STVInt
 NBasis=   101 RedAO= T EigKep=  5.16D-04  NBF=   101
 NBsUse=   101 1.00D-06 EigRej= -1.00D+00 NBFU=   101
 Precomputing XC quadrature grid using
 IXCGrd= 4 IRadAn=           5 IRanWt=          -1 IRanGd=           0 AccXCQ= 0.00D+00.
 Generated NRdTot=       0 NPtTot=           0 NUsed=           0 NTot=          32
 NSgBfM=   104   104   104   104   104 MxSgAt=     8 MxSgA2=     8.
 Leave Link  302 at Sun Oct 13 23:51:43 2019, MaxMem= 10737418240 cpu:               3.1 elap:               0.2
 (Enter /apps/cent7/gaussian/g16-A.03/g16-haswell/g16/l303.exe)
 DipDrv:  MaxL=1.
 Leave Link  303 at Sun Oct 13 23:51:43 2019, MaxMem= 10737418240 cpu:               0.7 elap:               0.1
 (Enter /apps/cent7/gaussian/g16-A.03/g16-haswell/g16/l401.exe)
 ExpMin= 3.60D-02 ExpMax= 8.59D+03 ExpMxC= 1.30D+03 IAcc=3 IRadAn=         5 AccDes= 0.00D+00
 Harris functional with IExCor= 1009 and IRadAn=       5 diagonalized for initial guess.
 HarFok:  IExCor= 1009 AccDes= 0.00D+00 IRadAn=         5 IDoV= 1 UseB2=F ITyADJ=14
 ICtDFT=  3500011 ScaDFX=  1.000000  1.000000  1.000000  1.000000
 FoFCou: FMM=F IPFlag=           0 FMFlag=      100000 FMFlg1=           0
         NFxFlg=           0 DoJE=T BraDBF=F KetDBF=T FulRan=T
         wScrn=  0.000000 ICntrl=       500 IOpCl=  0 I1Cent=   200000004 NGrid=           0
         NMat0=    1 NMatS0=      1 NMatT0=    0 NMatD0=    1 NMtDS0=    0 NMtDT0=    0
 Petite list used in FoFCou.
 Harris En= -170.914740374124    
 JPrj=0 DoOrth=F DoCkMO=F.
 Leave Link  401 at Sun Oct 13 23:51:43 2019, MaxMem= 10737418240 cpu:               4.2 elap:               0.2
 (Enter /apps/cent7/gaussian/g16-A.03/g16-haswell/g16/l502.exe)
 Keep R1 ints in memory in canonical form, NReq=35594570.
 FoFCou: FMM=F IPFlag=           0 FMFlag=           0 FMFlg1=           0
         NFxFlg=           0 DoJE=F BraDBF=F KetDBF=F FulRan=T
         wScrn=  0.000000 ICntrl=       600 IOpCl=  0 I1Cent=           0 NGrid=           0
         NMat0=    1 NMatS0=   5151 NMatT0=    0 NMatD0=    1 NMtDS0=    0 NMtDT0=    0
 Symmetry not used in FoFCou.
 Two-electron integral symmetry not used.
 Closed shell SCF:
 Using DIIS extrapolation, IDIIS=  1040.
 NGot= 10737418240 LenX= 10724123948 LenY= 10724112691
 Requested convergence on RMS density matrix=1.00D-08 within 128 cycles.
 Requested convergence on MAX density matrix=1.00D-06.
 Requested convergence on             energy=1.00D-06.
 No special actions if energy rises.

 Cycle   1  Pass 1  IDiag  1:
 E= -170.883050949884    
 DIIS: error= 2.49D-02 at cycle   1 NSaved=   1.
 NSaved= 1 IEnMin= 1 EnMin= -170.883050949884     IErMin= 1 ErrMin= 2.49D-02
 ErrMax= 2.49D-02  0.00D+00 EMaxC= 1.00D-01 BMatC= 1.31D-01 BMatP= 1.31D-01
 IDIUse=3 WtCom= 7.51D-01 WtEn= 2.49D-01
 Coeff-Com:  0.100D+01
 Coeff-En:   0.100D+01
 Coeff:      0.100D+01
 Gap=     0.216 Goal=   None    Shift=    0.000
 GapD=    0.216 DampG=1.000 DampE=0.500 DampFc=0.5000 IDamp=-1.
 Damping current iteration by 5.00D-01
 RMSDP=5.12D-03 MaxDP=9.38D-02              OVMax= 1.27D-01

 Cycle   2  Pass 1  IDiag  1:
 E= -170.929744520249     Delta-E=       -0.046693570365 Rises=F Damp=T
 DIIS: error= 6.98D-03 at cycle   2 NSaved=   2.
 NSaved= 2 IEnMin= 2 EnMin= -170.929744520249     IErMin= 2 ErrMin= 6.98D-03
 ErrMax= 6.98D-03  0.00D+00 EMaxC= 1.00D-01 BMatC= 1.02D-02 BMatP= 1.31D-01
 IDIUse=3 WtCom= 9.30D-01 WtEn= 6.98D-02
 Coeff-Com: -0.111D+00 0.111D+01
 Coeff-En:   0.000D+00 0.100D+01
 Coeff:     -0.103D+00 0.110D+01
 Gap=     0.266 Goal=   None    Shift=    0.000
 RMSDP=9.89D-04 MaxDP=1.36D-02 DE=-4.67D-02 OVMax= 6.24D-02

 Cycle   3  Pass 1  IDiag  1:
 E= -170.974024847753     Delta-E=       -0.044280327504 Rises=F Damp=F
 DIIS: error= 3.97D-03 at cycle   3 NSaved=   3.
 NSaved= 3 IEnMin= 3 EnMin= -170.974024847753     IErMin= 3 ErrMin= 3.97D-03
 ErrMax= 3.97D-03  0.00D+00 EMaxC= 1.00D-01 BMatC= 1.99D-03 BMatP= 1.02D-02
 IDIUse=3 WtCom= 9.60D-01 WtEn= 3.97D-02
 Coeff-Com: -0.928D-01 0.322D+00 0.771D+00
 Coeff-En:   0.000D+00 0.000D+00 0.100D+01
 Coeff:     -0.891D-01 0.309D+00 0.780D+00
 Gap=     0.258 Goal=   None    Shift=    0.000
 RMSDP=3.60D-04 MaxDP=7.79D-03 DE=-4.43D-02 OVMax= 1.09D-02

 Cycle   4  Pass 1  IDiag  1:
 E= -170.975175407527     Delta-E=       -0.001150559774 Rises=F Damp=F
 DIIS: error= 1.49D-03 at cycle   4 NSaved=   4.
 NSaved= 4 IEnMin= 4 EnMin= -170.975175407527     IErMin= 4 ErrMin= 1.49D-03
 ErrMax= 1.49D-03  0.00D+00 EMaxC= 1.00D-01 BMatC= 3.17D-04 BMatP= 1.99D-03
 IDIUse=3 WtCom= 9.85D-01 WtEn= 1.49D-02
 Coeff-Com: -0.333D-01 0.853D-01 0.354D+00 0.594D+00
 Coeff-En:   0.000D+00 0.000D+00 0.293D-01 0.971D+00
 Coeff:     -0.328D-01 0.840D-01 0.349D+00 0.599D+00
 Gap=     0.258 Goal=   None    Shift=    0.000
 RMSDP=1.27D-04 MaxDP=2.98D-03 DE=-1.15D-03 OVMax= 3.76D-03

 Cycle   5  Pass 1  IDiag  1:
 E= -170.975409660622     Delta-E=       -0.000234253095 Rises=F Damp=F
 DIIS: error= 2.84D-04 at cycle   5 NSaved=   5.
 NSaved= 5 IEnMin= 5 EnMin= -170.975409660622     IErMin= 5 ErrMin= 2.84D-04
 ErrMax= 2.84D-04  0.00D+00 EMaxC= 1.00D-01 BMatC= 8.37D-06 BMatP= 3.17D-04
 IDIUse=3 WtCom= 9.97D-01 WtEn= 2.84D-03
 Coeff-Com: -0.557D-02 0.106D-01 0.730D-01 0.203D+00 0.719D+00
 Coeff-En:   0.000D+00 0.000D+00 0.000D+00 0.000D+00 0.100D+01
 Coeff:     -0.556D-02 0.105D-01 0.728D-01 0.203D+00 0.720D+00
 Gap=     0.259 Goal=   None    Shift=    0.000
 RMSDP=2.28D-05 MaxDP=3.60D-04 DE=-2.34D-04 OVMax= 5.44D-04

 Cycle   6  Pass 1  IDiag  1:
 E= -170.975415541842     Delta-E=       -0.000005881220 Rises=F Damp=F
 DIIS: error= 5.93D-05 at cycle   6 NSaved=   6.
 NSaved= 6 IEnMin= 6 EnMin= -170.975415541842     IErMin= 6 ErrMin= 5.93D-05
 ErrMax= 5.93D-05  0.00D+00 EMaxC= 1.00D-01 BMatC= 5.84D-07 BMatP= 8.37D-06
 IDIUse=1 WtCom= 1.00D+00 WtEn= 0.00D+00
 Coeff-Com: -0.985D-03 0.109D-02 0.182D-01 0.662D-01 0.306D+00 0.610D+00
 Coeff:     -0.985D-03 0.109D-02 0.182D-01 0.662D-01 0.306D+00 0.610D+00
 Gap=     0.258 Goal=   None    Shift=    0.000
 RMSDP=6.49D-06 MaxDP=1.55D-04 DE=-5.88D-06 OVMax= 2.27D-04

 Cycle   7  Pass 1  IDiag  1:
 E= -170.975415961644     Delta-E=       -0.000000419801 Rises=F Damp=F
 DIIS: error= 1.68D-05 at cycle   7 NSaved=   7.
 NSaved= 7 IEnMin= 7 EnMin= -170.975415961644     IErMin= 7 ErrMin= 1.68D-05
 ErrMax= 1.68D-05  0.00D+00 EMaxC= 1.00D-01 BMatC= 3.83D-08 BMatP= 5.84D-07
 IDIUse=1 WtCom= 1.00D+00 WtEn= 0.00D+00
 Coeff-Com:  0.772D-03-0.163D-02-0.763D-02-0.157D-01-0.344D-01 0.172D+00
 Coeff-Com:  0.887D+00
 Coeff:      0.772D-03-0.163D-02-0.763D-02-0.157D-01-0.344D-01 0.172D+00
 Coeff:      0.887D+00
 Gap=     0.259 Goal=   None    Shift=    0.000
 RMSDP=2.56D-06 MaxDP=3.95D-05 DE=-4.20D-07 OVMax= 6.81D-05

 Cycle   8  Pass 1  IDiag  1:
 E= -170.975415999612     Delta-E=       -0.000000037968 Rises=F Damp=F
 DIIS: error= 1.90D-06 at cycle   8 NSaved=   8.
 NSaved= 8 IEnMin= 8 EnMin= -170.975415999612     IErMin= 8 ErrMin= 1.90D-06
 ErrMax= 1.90D-06  0.00D+00 EMaxC= 1.00D-01 BMatC= 5.34D-10 BMatP= 3.83D-08
 IDIUse=1 WtCom= 1.00D+00 WtEn= 0.00D+00
 Coeff-Com:  0.118D-03-0.235D-03-0.142D-02-0.373D-02-0.123D-01 0.317D-02
 Coeff-Com:  0.119D+00 0.896D+00
 Coeff:      0.118D-03-0.235D-03-0.142D-02-0.373D-02-0.123D-01 0.317D-02
 Coeff:      0.119D+00 0.896D+00
 Gap=     0.259 Goal=   None    Shift=    0.000
 RMSDP=5.71D-07 MaxDP=6.47D-06 DE=-3.80D-08 OVMax= 1.39D-05

 Cycle   9  Pass 1  IDiag  1:
 E= -170.975416000506     Delta-E=       -0.000000000894 Rises=F Damp=F
 DIIS: error= 4.35D-07 at cycle   9 NSaved=   9.
 NSaved= 9 IEnMin= 9 EnMin= -170.975416000506     IErMin= 9 ErrMin= 4.35D-07
 ErrMax= 4.35D-07  0.00D+00 EMaxC= 1.00D-01 BMatC= 2.74D-11 BMatP= 5.34D-10
 IDIUse=1 WtCom= 1.00D+00 WtEn= 0.00D+00
 Coeff-Com: -0.399D-04 0.821D-04 0.347D-03 0.709D-03 0.149D-02-0.923D-02
 Coeff-Com: -0.498D-01 0.894D-02 0.105D+01
 Coeff:     -0.399D-04 0.821D-04 0.347D-03 0.709D-03 0.149D-02-0.923D-02
 Coeff:     -0.498D-01 0.894D-02 0.105D+01
 Gap=     0.259 Goal=   None    Shift=    0.000
 RMSDP=1.62D-07 MaxDP=2.66D-06 DE=-8.94D-10 OVMax= 5.67D-06

 Cycle  10  Pass 1  IDiag  1:
 E= -170.975416000581     Delta-E=       -0.000000000075 Rises=F Damp=F
 DIIS: error= 7.91D-08 at cycle  10 NSaved=  10.
 NSaved=10 IEnMin=10 EnMin= -170.975416000581     IErMin=10 ErrMin= 7.91D-08
 ErrMax= 7.91D-08  0.00D+00 EMaxC= 1.00D-01 BMatC= 8.67D-13 BMatP= 2.74D-11
 IDIUse=1 WtCom= 1.00D+00 WtEn= 0.00D+00
 Coeff-Com:  0.277D-06 0.107D-06 0.132D-04 0.286D-04 0.163D-03 0.637D-03
 Coeff-Com:  0.533D-03-0.291D-01-0.840D-01 0.111D+01
 Coeff:      0.277D-06 0.107D-06 0.132D-04 0.286D-04 0.163D-03 0.637D-03
 Coeff:      0.533D-03-0.291D-01-0.840D-01 0.111D+01
 Gap=     0.259 Goal=   None    Shift=    0.000
 RMSDP=3.74D-08 MaxDP=5.75D-07 DE=-7.50D-11 OVMax= 1.54D-06

 Cycle  11  Pass 1  IDiag  1:
 E= -170.975416000584     Delta-E=       -0.000000000003 Rises=F Damp=F
 DIIS: error= 1.98D-08 at cycle  11 NSaved=  11.
 NSaved=11 IEnMin=11 EnMin= -170.975416000584     IErMin=11 ErrMin= 1.98D-08
 ErrMax= 1.98D-08  0.00D+00 EMaxC= 1.00D-01 BMatC= 4.37D-14 BMatP= 8.67D-13
 IDIUse=1 WtCom= 1.00D+00 WtEn= 0.00D+00
 Coeff-Com:  0.159D-05-0.319D-05-0.110D-04-0.243D-04-0.488D-04 0.404D-03
 Coeff-Com:  0.193D-02-0.753D-03-0.447D-01 0.839D-02 0.103D+01
 Coeff:      0.159D-05-0.319D-05-0.110D-04-0.243D-04-0.488D-04 0.404D-03
 Coeff:      0.193D-02-0.753D-03-0.447D-01 0.839D-02 0.103D+01
 Gap=     0.259 Goal=   None    Shift=    0.000
 RMSDP=7.88D-09 MaxDP=1.35D-07 DE=-3.47D-12 OVMax= 3.72D-07

 SCF Done:  E(RM062X) =  -170.975416001     A.U. after   11 cycles
            NFock= 11  Conv=0.79D-08     -V/T= 2.0031
 KE= 1.704456379428D+02 PE=-5.679179204413D+02 EE= 1.430948833490D+02
 Leave Link  502 at Sun Oct 13 23:51:45 2019, MaxMem= 10737418240 cpu:              31.6 elap:               1.5
 (Enter /apps/cent7/gaussian/g16-A.03/g16-haswell/g16/l601.exe)
 Copying SCF densities to generalized density rwf, IOpCl= 0 IROHF=0.

 **********************************************************************

            Population analysis using the SCF density.

 **********************************************************************

 Orbital symmetries:
       Occupied  (A) (A) (A) (A) (A) (A) (A) (A) (A) (A) (A) (A)
                 (A)
       Virtual   (A) (A) (A) (A) (A) (A) (A) (A) (A) (A) (A) (A)
                 (A) (A) (A) (A) (A) (A) (A) (A) (A) (A) (A) (A)
                 (A) (A) (A) (A) (A) (A) (A) (A) (A) (A) (A) (A)
                 (A) (A) (A) (A) (A) (A) (A) (A) (A) (A) (A) (A)
                 (A) (A) (A) (A) (A) (A) (A) (A) (A) (A) (A) (A)
                 (A) (A) (A) (A) (A) (A) (A) (A) (A) (A) (A) (A)
                 (A) (A) (A) (A) (A) (A) (A) (A) (A) (A) (A) (A)
                 (A) (A) (A) (A)
 The electronic state is 1-A.
 Alpha  occ. eigenvalues --  -19.64799 -14.76538 -10.55660  -1.20512  -0.91934
 Alpha  occ. eigenvalues --   -0.75501  -0.64050  -0.54074  -0.51767  -0.47044
 Alpha  occ. eigenvalues --   -0.45723  -0.38467  -0.26212
 Alpha virt. eigenvalues --   -0.00358   0.01625   0.01818   0.04001   0.05177
 Alpha virt. eigenvalues --    0.07489   0.09999   0.11072   0.13082   0.13562
 Alpha virt. eigenvalues --    0.15221   0.16925   0.20126   0.21238   0.22047
 Alpha virt. eigenvalues --    0.23450   0.23871   0.25926   0.26432   0.27853
 Alpha virt. eigenvalues --    0.31692   0.32748   0.35530   0.40705   0.47568
 Alpha virt. eigenvalues --    0.48939   0.58541   0.60763   0.64028   0.70003
 Alpha virt. eigenvalues --    0.70277   0.73413   0.83399   0.86201   0.86934
 Alpha virt. eigenvalues --    0.90579   1.07156   1.09060   1.12209   1.17042
 Alpha virt. eigenvalues --    1.21387   1.30130   1.40020   1.48932   1.50921
 Alpha virt. eigenvalues --    1.56069   1.59226   1.60234   1.64946   1.69642
 Alpha virt. eigenvalues --    1.73302   1.80887   1.87743   1.98069   2.04271
 Alpha virt. eigenvalues --    2.06636   2.10510   2.19860   2.25981   2.44255
 Alpha virt. eigenvalues --    2.45019   2.49737   2.53813   2.55936   2.58593
 Alpha virt. eigenvalues --    2.60658   2.63186   2.71161   2.78301   2.90644
 Alpha virt. eigenvalues --    3.03462   3.18410   3.28310   3.39195   3.47294
 Alpha virt. eigenvalues --    3.62233   3.81071   3.85201   3.90342   4.06052
 Alpha virt. eigenvalues --    4.55855   4.90031   5.15289   5.51261   5.90400
 Alpha virt. eigenvalues --   24.01697  35.59652  50.01032
          Condensed to atoms (all electrons):
               1          2          3          4          5          6
     1  C    5.214379   0.159265  -0.126477   0.406804   0.394499   0.400871
     2  N    0.159265   7.141647   0.046103  -0.054988  -0.056471  -0.067674
     3  O   -0.126477   0.046103   8.005993   0.003658   0.020813  -0.002225
     4  H    0.406804  -0.054988   0.003658   0.556282  -0.025900  -0.051001
     5  H    0.394499  -0.056471   0.020813  -0.025900   0.557517  -0.035956
     6  H    0.400871  -0.067674  -0.002225  -0.051001  -0.035956   0.588506
     7  H   -0.078668   0.346833  -0.012062   0.005987   0.003580   0.003470
     8  H    0.010901  -0.072451   0.261845   0.008257  -0.003549  -0.004536
               7          8
     1  C   -0.078668   0.010901
     2  N    0.346833  -0.072451
     3  O   -0.012062   0.261845
     4  H    0.005987   0.008257
     5  H    0.003580  -0.003549
     6  H    0.003470  -0.004536
     7  H    0.445055  -0.006949
     8  H   -0.006949   0.542664
 Mulliken charges:
               1
     1  C   -0.381574
     2  N   -0.442264
     3  O   -0.197646
     4  H    0.150902
     5  H    0.145466
     6  H    0.168544
     7  H    0.292754
     8  H    0.263818
 Sum of Mulliken charges =  -0.00000
 Mulliken charges with hydrogens summed into heavy atoms:
               1
     1  C    0.083338
     2  N   -0.149510
     3  O    0.066172
 Electronic spatial extent (au):  <R**2>=            175.6059
 Charge=              0.0000 electrons
 Dipole moment (field-independent basis, Debye):
    X=              0.3171    Y=              1.0312    Z=             -1.5700  Tot=              1.9049
 Quadrupole moment (field-independent basis, Debye-Ang):
   XX=            -17.4716   YY=            -17.7356   ZZ=            -20.0301
   XY=             -0.7470   XZ=              2.6339   YZ=              0.4463
 Traceless Quadrupole moment (field-independent basis, Debye-Ang):
   XX=              0.9408   YY=              0.6768   ZZ=             -1.6177
   XY=             -0.7470   XZ=              2.6339   YZ=              0.4463
 Octapole moment (field-independent basis, Debye-Ang**2):
  XXX=             -8.2976  YYY=              5.2519  ZZZ=             -0.5841  XYY=             -1.8010
  XXY=              0.5682  XXZ=             -5.2828  XZZ=             -2.6038  YZZ=             -1.3675
  YYZ=             -0.9025  XYZ=             -0.9770
 Hexadecapole moment (field-independent basis, Debye-Ang**3):
 XXXX=           -136.9476 YYYY=            -41.6750 ZZZZ=            -29.5513 XXXY=              4.0455
 XXXZ=              7.8240 YYYX=             -0.6599 YYYZ=              0.6476 ZZZX=              3.2719
 ZZZY=              0.1670 XXYY=            -32.0911 XXZZ=            -27.0526 YYZZ=            -14.3156
 XXYZ=              0.5469 YYXZ=             -0.0193 ZZXY=              0.4756
 N-N= 8.340198314882D+01 E-N=-5.679179210433D+02  KE= 1.704456379428D+02
 No NMR shielding tensors so no spin-rotation constants.
 Leave Link  601 at Sun Oct 13 23:51:45 2019, MaxMem= 10737418240 cpu:               2.1 elap:               0.1
 (Enter /apps/cent7/gaussian/g16-A.03/g16-haswell/g16/l701.exe)
 ... and contract with generalized density number  0.
 Compute integral first derivatives.
 Leave Link  701 at Sun Oct 13 23:51:45 2019, MaxMem= 10737418240 cpu:               2.8 elap:               0.2
 (Enter /apps/cent7/gaussian/g16-A.03/g16-haswell/g16/l702.exe)
 L702 exits ... SP integral derivatives will be done elsewhere.
 Leave Link  702 at Sun Oct 13 23:51:45 2019, MaxMem= 10737418240 cpu:               0.4 elap:               0.0
 (Enter /apps/cent7/gaussian/g16-A.03/g16-haswell/g16/l703.exe)
 Integral derivatives from FoFJK, PRISM(SPDF).
 Compute integral first derivatives, UseDBF=F ICtDFT=           0.
 Calling FoFJK, ICntrl=      2127 FMM=F ISym2X=0 I1Cent= 0 IOpClX= 0 NMat=1 NMatS=1 NMatT=0.
 FoFJK:  IHMeth= 1 ICntrl=    2127 DoSepK=F KAlg= 0 I1Cent=           0 FoldK=F
 IRaf=         0 NMat=       1 IRICut=       1 DoRegI=T DoRafI=F ISym2E= 0 IDoP0=0 IntGTp=1.
 FoFCou: FMM=F IPFlag=           0 FMFlag=      100000 FMFlg1=         800
         NFxFlg=           0 DoJE=F BraDBF=F KetDBF=F FulRan=T
         wScrn=  0.000000 ICntrl=      2127 IOpCl=  0 I1Cent=           0 NGrid=           0
         NMat0=    1 NMatS0=      1 NMatT0=    0 NMatD0=    1 NMtDS0=    0 NMtDT0=    0
 Symmetry not used in FoFCou.
 Leave Link  703 at Sun Oct 13 23:51:46 2019, MaxMem= 10737418240 cpu:               8.2 elap:               0.4
 (Enter /apps/cent7/gaussian/g16-A.03/g16-haswell/g16/l716.exe)
 Dipole        = 1.24740154D-01 4.05707779D-01-6.17680303D-01
 ***** Axes restored to original set *****
 -------------------------------------------------------------------
 Center     Atomic                   Forces (Hartrees/Bohr)
 Number     Number              X              Y              Z
 -------------------------------------------------------------------
      1        6          -0.025958411   -0.010361367   -0.002430923
      2        7           0.039149958   -0.015783964   -0.022604037
      3        8          -0.025420418    0.021636241    0.023639568
      4        1          -0.000756125   -0.001814112    0.001005263
      5        1           0.000910193   -0.000231305   -0.001675821
      6        1           0.004913452    0.002893493   -0.002377552
      7        1           0.002603972    0.008750608    0.003073077
      8        1           0.004557379   -0.005089595    0.001370424
 -------------------------------------------------------------------
 Cartesian Forces:  Max     0.039149958 RMS     0.014348541
 Leave Link  716 at Sun Oct 13 23:51:46 2019, MaxMem= 10737418240 cpu:               0.6 elap:               0.0
 (Enter /apps/cent7/gaussian/g16-A.03/g16-haswell/g16/l103.exe)

 GradGradGradGradGradGradGradGradGradGradGradGradGradGradGradGradGradGrad
 Berny optimization.
 FormGI is forming the generalized inverse of G from B-inverse, IUseBI=4.
 Internal  Forces:  Max     0.030646984 RMS     0.010665948
 Search for a local minimum.
 Step number   1 out of a maximum of   35
 All quantities printed in internal units (Hartrees-Bohrs-Radians)
 RMS Force = .10666D-01 SwitMx=.10000D-02 MixMth= 1
 Mixed Optimization -- RFO/linear search
 Second derivative matrix not updated -- first step.
 ITU=  0
     Eigenvalues ---    0.00778   0.01023   0.01885   0.07543   0.07544
     Eigenvalues ---    0.16000   0.16000   0.16000   0.16000   0.16000
     Eigenvalues ---    0.22000   0.34809   0.34809   0.34816   0.35855
     Eigenvalues ---    0.45982   0.53893   0.55466
 RFO step:  Lambda=-1.15776112D-02 EMin= 7.78421437D-03
 Linear search not attempted -- first point.
 Iteration  1 RMS(Cart)=  0.06722709 RMS(Int)=  0.00703304
 Iteration  2 RMS(Cart)=  0.00571310 RMS(Int)=  0.00090461
 Iteration  3 RMS(Cart)=  0.00005546 RMS(Int)=  0.00090268
 Iteration  4 RMS(Cart)=  0.00000001 RMS(Int)=  0.00090268
 ITry= 1 IFail=0 DXMaxC= 2.09D-01 DCOld= 1.00D+10 DXMaxT= 3.00D-01 DXLimC= 3.00D+00 Rises=F
 Variable       Old X    -DE/DX   Delta X   Delta X   Delta X     New X
                                 (Linear)    (Quad)   (Total)
    R1        2.77610  -0.01701   0.00000  -0.04596  -0.04596   2.73014
    R2        2.05986  -0.00007   0.00000  -0.00019  -0.00019   2.05968
    R3        2.05986   0.00133   0.00000   0.00368   0.00368   2.06354
    R4        2.05975   0.00349   0.00000   0.00969   0.00969   2.06944
    R5        2.56129   0.03065   0.00000   0.05567   0.05567   2.61696
    R6        1.90852  -0.00802   0.00000  -0.01702  -0.01702   1.89150
    R7        1.81420   0.00389   0.00000   0.00686   0.00686   1.82106
    A1        1.91057  -0.00398   0.00000  -0.02689  -0.02684   1.88374
    A2        1.91060   0.00084   0.00000   0.00419   0.00383   1.91444
    A3        1.91064   0.00793   0.00000   0.05061   0.05047   1.96111
    A4        1.91057  -0.00038   0.00000  -0.01107  -0.01125   1.89932
    A5        1.91065  -0.00166   0.00000  -0.00826  -0.00801   1.90264
    A6        1.91077  -0.00275   0.00000  -0.00859  -0.00910   1.90167
    A7        1.90591   0.02947   0.00000   0.12724   0.12480   2.03071
    A8        2.24506  -0.01109   0.00000  -0.04240  -0.04491   2.20015
    A9        2.13222  -0.01837   0.00000  -0.08485  -0.08725   2.04497
   A10        1.91056  -0.00634   0.00000  -0.03694  -0.03694   1.87362
    D1        0.66115   0.00362   0.00000   0.14131   0.14130   0.80245
    D2       -2.48050   0.00070   0.00000   0.00726   0.00692  -2.47358
    D3        2.75541   0.00123   0.00000   0.11386   0.11389   2.86930
    D4       -0.38624  -0.00169   0.00000  -0.02020  -0.02049  -0.40673
    D5       -1.43323   0.00324   0.00000   0.13691   0.13737  -1.29586
    D6        1.70831   0.00031   0.00000   0.00285   0.00299   1.71130
    D7       -2.00901   0.00259   0.00000   0.06765   0.06849  -1.94053
    D8        1.13263   0.00529   0.00000   0.19136   0.19053   1.32316
         Item               Value     Threshold  Converged?
 Maximum Force            0.030647     0.000450     NO 
 RMS     Force            0.010666     0.000300     NO 
 Maximum Displacement     0.209423     0.001800     NO 
 RMS     Displacement     0.065922     0.001200     NO 
 Predicted change in Energy=-6.563850D-03
 Lowest energy point so far.  Saving SCF results.
 GradGradGradGradGradGradGradGradGradGradGradGradGradGradGradGradGradGrad

 Leave Link  103 at Sun Oct 13 23:51:46 2019, MaxMem= 10737418240 cpu:               0.6 elap:               0.1
 (Enter /apps/cent7/gaussian/g16-A.03/g16-haswell/g16/l202.exe)
                          Input orientation:                          
 ---------------------------------------------------------------------
 Center     Atomic      Atomic             Coordinates (Angstroms)
 Number     Number       Type             X           Y           Z
 ---------------------------------------------------------------------
      1          6           0        1.429929    0.049451   -0.422443
      2          7           0        0.199935   -0.156085    0.307011
      3          8           0       -0.009122    0.664156    1.403036
      4          1           0        2.240654    0.127045    0.301891
      5          1           0        1.619396   -0.806933   -1.072925
      6          1           0        1.406520    0.959853   -1.030607
      7          1           0       -0.554562   -0.754106    0.033182
      8          1           0        0.050549    0.112119    2.190655
 ---------------------------------------------------------------------
                    Distance matrix (angstroms):
                    1          2          3          4          5
     1  C    0.000000
     2  N    1.444726   0.000000
     3  O    2.404392   1.384836   0.000000
     4  H    1.089934   2.060273   2.561738   0.000000
     5  H    1.091979   2.083914   3.308558   1.774372   0.000000
     6  H    1.095100   2.119054   2.830918   1.779016   1.780068
     7  H    2.188950   1.000938   2.045842   2.943105   2.439745
     8  H    2.955486   1.908498   0.963665   2.892095   3.735893
                    6          7          8
     6  H    0.000000
     7  H    2.813387   0.000000
     8  H    3.596365   2.402331   0.000000
 Stoichiometry    CH5NO
 Framework group  C1[X(CH5NO)]
 Deg. of freedom    18
 Full point group                 C1      NOp   1
 RotChk:  IX=0 Diff= 9.88D-02
 Largest Abelian subgroup         C1      NOp   1
 Largest concise Abelian subgroup C1      NOp   1
                         Standard orientation:                         
 ---------------------------------------------------------------------
 Center     Atomic      Atomic             Coordinates (Angstroms)
 Number     Number       Type             X           Y           Z
 ---------------------------------------------------------------------
      1          6           0        1.203916   -0.209952   -0.013407
      2          7           0       -0.057024    0.495097   -0.000429
      3          8           0       -1.196221   -0.284740    0.108456
      4          1           0        1.110620   -1.051745   -0.699436
      5          1           0        1.992573    0.453287   -0.374729
      6          1           0        1.481272   -0.585928    0.977027
      7          1           0       -0.176538    1.487782    0.046145
      8          1           0       -1.662496   -0.231442   -0.733207
 ---------------------------------------------------------------------
 Rotational constants (GHZ):          44.0214937           9.5755166           8.4676806
 Leave Link  202 at Sun Oct 13 23:51:46 2019, MaxMem= 10737418240 cpu:               0.3 elap:               0.0
 (Enter /apps/cent7/gaussian/g16-A.03/g16-haswell/g16/l301.exe)
 Standard basis: 6-311++G(d,p) (5D, 7F)
 Ernie: Thresh=  0.10000D-02 Tol=  0.10000D-05 Strict=F.
 There are   104 symmetry adapted cartesian basis functions of A   symmetry.
 There are   101 symmetry adapted basis functions of A   symmetry.
   101 basis functions,   153 primitive gaussians,   104 cartesian basis functions
    13 alpha electrons       13 beta electrons
       nuclear repulsion energy        82.6166225597 Hartrees.
 IExCor= 4336 DFT=T Ex+Corr=M062X ExCW=0 ScaHFX=  0.540000
 ScaDFX=  1.000000  1.000000  1.000000  1.000000 ScalE2=  1.000000  1.000000
 IRadAn=      5 IRanWt=     -1 IRanGd=            0 ICorTp=0 IEmpDi=  4
 NAtoms=    8 NActive=    8 NUniq=    8 SFac= 1.00D+00 NAtFMM=   60 NAOKFM=F Big=F
 Integral buffers will be    131072 words long.
 Raffenetti 2 integral format.
 Two-electron integral symmetry is turned on.
 Leave Link  301 at Sun Oct 13 23:51:46 2019, MaxMem= 10737418240 cpu:               1.3 elap:               0.1
 (Enter /apps/cent7/gaussian/g16-A.03/g16-haswell/g16/l302.exe)
 NPDir=0 NMtPBC=     1 NCelOv=     1 NCel=       1 NClECP=     1 NCelD=      1
         NCelK=      1 NCelE2=     1 NClLst=     1 CellRange=     0.0.
 One-electron integrals computed using PRISM.
 One-electron integral symmetry used in STVInt
 NBasis=   101 RedAO= T EigKep=  5.28D-04  NBF=   101
 NBsUse=   101 1.00D-06 EigRej= -1.00D+00 NBFU=   101
 Precomputing XC quadrature grid using
 IXCGrd= 4 IRadAn=           5 IRanWt=          -1 IRanGd=           0 AccXCQ= 0.00D+00.
 Generated NRdTot=       0 NPtTot=           0 NUsed=           0 NTot=          32
 NSgBfM=   104   104   104   104   104 MxSgAt=     8 MxSgA2=     8.
 Leave Link  302 at Sun Oct 13 23:51:46 2019, MaxMem= 10737418240 cpu:               2.6 elap:               0.1
 (Enter /apps/cent7/gaussian/g16-A.03/g16-haswell/g16/l303.exe)
 DipDrv:  MaxL=1.
 Leave Link  303 at Sun Oct 13 23:51:46 2019, MaxMem= 10737418240 cpu:               0.5 elap:               0.0
 (Enter /apps/cent7/gaussian/g16-A.03/g16-haswell/g16/l401.exe)
 Initial guess from the checkpoint file:  "8.chk"
 B after Tr=     0.000000    0.000000    0.000000
         Rot=    0.999820   -0.017803    0.003360    0.005583 Ang=  -2.17 deg.
 Guess basis will be translated and rotated to current coordinates.
 JPrj=2 DoOrth=T DoCkMO=T.
 Generating alternative initial guess.
 ExpMin= 3.60D-02 ExpMax= 8.59D+03 ExpMxC= 1.30D+03 IAcc=3 IRadAn=         5 AccDes= 0.00D+00
 Harris functional with IExCor= 1009 and IRadAn=       5 diagonalized for initial guess.
 HarFok:  IExCor= 1009 AccDes= 0.00D+00 IRadAn=         5 IDoV= 1 UseB2=F ITyADJ=14
 ICtDFT=  3500011 ScaDFX=  1.000000  1.000000  1.000000  1.000000
 FoFCou: FMM=F IPFlag=           0 FMFlag=      100000 FMFlg1=           0
         NFxFlg=           0 DoJE=T BraDBF=F KetDBF=T FulRan=T
         wScrn=  0.000000 ICntrl=       500 IOpCl=  0 I1Cent=   200000004 NGrid=           0
         NMat0=    1 NMatS0=      1 NMatT0=    0 NMatD0=    1 NMtDS0=    0 NMtDT0=    0
 Petite list used in FoFCou.
 Harris En= -170.921600961674    
 Leave Link  401 at Sun Oct 13 23:51:46 2019, MaxMem= 10737418240 cpu:               5.4 elap:               0.3
 (Enter /apps/cent7/gaussian/g16-A.03/g16-haswell/g16/l502.exe)
 Keep R1 ints in memory in canonical form, NReq=35594570.
 FoFCou: FMM=F IPFlag=           0 FMFlag=           0 FMFlg1=           0
         NFxFlg=           0 DoJE=F BraDBF=F KetDBF=F FulRan=T
         wScrn=  0.000000 ICntrl=       600 IOpCl=  0 I1Cent=           0 NGrid=           0
         NMat0=    1 NMatS0=   5151 NMatT0=    0 NMatD0=    1 NMtDS0=    0 NMtDT0=    0
 Symmetry not used in FoFCou.
 Two-electron integral symmetry not used.
 Closed shell SCF:
 Using DIIS extrapolation, IDIIS=  1040.
 NGot= 10737418240 LenX= 10724123948 LenY= 10724112691
 Requested convergence on RMS density matrix=1.00D-08 within 128 cycles.
 Requested convergence on MAX density matrix=1.00D-06.
 Requested convergence on             energy=1.00D-06.
 No special actions if energy rises.

 Cycle   1  Pass 1  IDiag  1:
 E= -170.974400211420    
 DIIS: error= 5.44D-03 at cycle   1 NSaved=   1.
 NSaved= 1 IEnMin= 1 EnMin= -170.974400211420     IErMin= 1 ErrMin= 5.44D-03
 ErrMax= 5.44D-03  0.00D+00 EMaxC= 1.00D-01 BMatC= 5.37D-03 BMatP= 5.37D-03
 IDIUse=3 WtCom= 9.46D-01 WtEn= 5.44D-02
 Coeff-Com:  0.100D+01
 Coeff-En:   0.100D+01
 Coeff:      0.100D+01
 Gap=     0.416 Goal=   None    Shift=    0.000
 GapD=    0.416 DampG=2.000 DampE=1.000 DampFc=2.0000 IDamp=-1.
 RMSDP=1.17D-03 MaxDP=1.47D-02              OVMax= 3.25D-02

 Cycle   2  Pass 1  IDiag  1:
 E= -170.982157542154     Delta-E=       -0.007757330733 Rises=F Damp=F
 DIIS: error= 1.61D-03 at cycle   2 NSaved=   2.
 NSaved= 2 IEnMin= 2 EnMin= -170.982157542154     IErMin= 2 ErrMin= 1.61D-03
 ErrMax= 1.61D-03  0.00D+00 EMaxC= 1.00D-01 BMatC= 2.46D-04 BMatP= 5.37D-03
 IDIUse=3 WtCom= 9.84D-01 WtEn= 1.61D-02
 Coeff-Com: -0.119D+00 0.112D+01
 Coeff-En:   0.000D+00 0.100D+01
 Coeff:     -0.117D+00 0.112D+01
 Gap=     0.265 Goal=   None    Shift=    0.000
 RMSDP=3.00D-04 MaxDP=3.41D-03 DE=-7.76D-03 OVMax= 1.00D-02

 Cycle   3  Pass 1  IDiag  1:
 E= -170.982538544297     Delta-E=       -0.000381002143 Rises=F Damp=F
 DIIS: error= 1.19D-03 at cycle   3 NSaved=   3.
 NSaved= 3 IEnMin= 3 EnMin= -170.982538544297     IErMin= 3 ErrMin= 1.19D-03
 ErrMax= 1.19D-03  0.00D+00 EMaxC= 1.00D-01 BMatC= 1.04D-04 BMatP= 2.46D-04
 IDIUse=3 WtCom= 9.88D-01 WtEn= 1.19D-02
 Coeff-Com: -0.773D-01 0.467D+00 0.610D+00
 Coeff-En:   0.000D+00 0.000D+00 0.100D+01
 Coeff:     -0.764D-01 0.461D+00 0.615D+00
 Gap=     0.265 Goal=   None    Shift=    0.000
 RMSDP=1.03D-04 MaxDP=1.92D-03 DE=-3.81D-04 OVMax= 3.03D-03

 Cycle   4  Pass 1  IDiag  1:
 E= -170.982610718372     Delta-E=       -0.000072174075 Rises=F Damp=F
 DIIS: error= 3.69D-04 at cycle   4 NSaved=   4.
 NSaved= 4 IEnMin= 4 EnMin= -170.982610718372     IErMin= 4 ErrMin= 3.69D-04
 ErrMax= 3.69D-04  0.00D+00 EMaxC= 1.00D-01 BMatC= 1.31D-05 BMatP= 1.04D-04
 IDIUse=3 WtCom= 9.96D-01 WtEn= 3.69D-03
 Coeff-Com: -0.648D-02-0.241D-01 0.245D+00 0.785D+00
 Coeff-En:   0.000D+00 0.000D+00 0.000D+00 0.100D+01
 Coeff:     -0.646D-02-0.240D-01 0.245D+00 0.786D+00
 Gap=     0.265 Goal=   None    Shift=    0.000
 RMSDP=4.54D-05 MaxDP=7.39D-04 DE=-7.22D-05 OVMax= 1.53D-03

 Cycle   5  Pass 1  IDiag  1:
 E= -170.982622148119     Delta-E=       -0.000011429747 Rises=F Damp=F
 DIIS: error= 6.28D-05 at cycle   5 NSaved=   5.
 NSaved= 5 IEnMin= 5 EnMin= -170.982622148119     IErMin= 5 ErrMin= 6.28D-05
 ErrMax= 6.28D-05  0.00D+00 EMaxC= 1.00D-01 BMatC= 5.18D-07 BMatP= 1.31D-05
 IDIUse=1 WtCom= 1.00D+00 WtEn= 0.00D+00
 Coeff-Com:  0.523D-02-0.516D-01 0.712D-02 0.185D+00 0.855D+00
 Coeff:      0.523D-02-0.516D-01 0.712D-02 0.185D+00 0.855D+00
 Gap=     0.265 Goal=   None    Shift=    0.000
 RMSDP=1.20D-05 MaxDP=1.43D-04 DE=-1.14D-05 OVMax= 4.63D-04

 Cycle   6  Pass 1  IDiag  1:
 E= -170.982622736100     Delta-E=       -0.000000587981 Rises=F Damp=F
 DIIS: error= 2.14D-05 at cycle   6 NSaved=   6.
 NSaved= 6 IEnMin= 6 EnMin= -170.982622736100     IErMin= 6 ErrMin= 2.14D-05
 ErrMax= 2.14D-05  0.00D+00 EMaxC= 1.00D-01 BMatC= 6.82D-08 BMatP= 5.18D-07
 IDIUse=1 WtCom= 1.00D+00 WtEn= 0.00D+00
 Coeff-Com:  0.260D-02-0.200D-01-0.126D-01 0.284D-01 0.330D+00 0.672D+00
 Coeff:      0.260D-02-0.200D-01-0.126D-01 0.284D-01 0.330D+00 0.672D+00
 Gap=     0.265 Goal=   None    Shift=    0.000
 RMSDP=3.29D-06 MaxDP=5.69D-05 DE=-5.88D-07 OVMax= 1.11D-04

 Cycle   7  Pass 1  IDiag  1:
 E= -170.982622803179     Delta-E=       -0.000000067080 Rises=F Damp=F
 DIIS: error= 7.87D-06 at cycle   7 NSaved=   7.
 NSaved= 7 IEnMin= 7 EnMin= -170.982622803179     IErMin= 7 ErrMin= 7.87D-06
 ErrMax= 7.87D-06  0.00D+00 EMaxC= 1.00D-01 BMatC= 6.39D-09 BMatP= 6.82D-08
 IDIUse=1 WtCom= 1.00D+00 WtEn= 0.00D+00
 Coeff-Com: -0.223D-03 0.377D-02-0.323D-02-0.190D-01-0.800D-01 0.173D+00
 Coeff-Com:  0.925D+00
 Coeff:     -0.223D-03 0.377D-02-0.323D-02-0.190D-01-0.800D-01 0.173D+00
 Coeff:      0.925D+00
 Gap=     0.265 Goal=   None    Shift=    0.000
 RMSDP=1.57D-06 MaxDP=2.60D-05 DE=-6.71D-08 OVMax= 5.34D-05

 Cycle   8  Pass 1  IDiag  1:
 E= -170.982622811463     Delta-E=       -0.000000008284 Rises=F Damp=F
 DIIS: error= 8.03D-07 at cycle   8 NSaved=   8.
 NSaved= 8 IEnMin= 8 EnMin= -170.982622811463     IErMin= 8 ErrMin= 8.03D-07
 ErrMax= 8.03D-07  0.00D+00 EMaxC= 1.00D-01 BMatC= 1.04D-10 BMatP= 6.39D-09
 IDIUse=1 WtCom= 1.00D+00 WtEn= 0.00D+00
 Coeff-Com: -0.110D-03 0.110D-02 0.218D-03-0.305D-02-0.238D-01-0.266D-02
 Coeff-Com:  0.109D+00 0.920D+00
 Coeff:     -0.110D-03 0.110D-02 0.218D-03-0.305D-02-0.238D-01-0.266D-02
 Coeff:      0.109D+00 0.920D+00
 Gap=     0.265 Goal=   None    Shift=    0.000
 RMSDP=2.61D-07 MaxDP=4.29D-06 DE=-8.28D-09 OVMax= 7.69D-06

 Cycle   9  Pass 1  IDiag  1:
 E= -170.982622811648     Delta-E=       -0.000000000185 Rises=F Damp=F
 DIIS: error= 2.44D-07 at cycle   9 NSaved=   9.
 NSaved= 9 IEnMin= 9 EnMin= -170.982622811648     IErMin= 9 ErrMin= 2.44D-07
 ErrMax= 2.44D-07  0.00D+00 EMaxC= 1.00D-01 BMatC= 1.17D-11 BMatP= 1.04D-10
 IDIUse=1 WtCom= 1.00D+00 WtEn= 0.00D+00
 Coeff-Com: -0.146D-04 0.749D-04 0.197D-03 0.165D-03-0.182D-02-0.987D-02
 Coeff-Com: -0.204D-01 0.224D+00 0.808D+00
 Coeff:     -0.146D-04 0.749D-04 0.197D-03 0.165D-03-0.182D-02-0.987D-02
 Coeff:     -0.204D-01 0.224D+00 0.808D+00
 Gap=     0.265 Goal=   None    Shift=    0.000
 RMSDP=5.66D-08 MaxDP=1.06D-06 DE=-1.85D-10 OVMax= 1.45D-06

 Cycle  10  Pass 1  IDiag  1:
 E= -170.982622811662     Delta-E=       -0.000000000013 Rises=F Damp=F
 DIIS: error= 9.90D-08 at cycle  10 NSaved=  10.
 NSaved=10 IEnMin=10 EnMin= -170.982622811662     IErMin=10 ErrMin= 9.90D-08
 ErrMax= 9.90D-08  0.00D+00 EMaxC= 1.00D-01 BMatC= 1.61D-12 BMatP= 1.17D-11
 IDIUse=1 WtCom= 1.00D+00 WtEn= 0.00D+00
 Coeff-Com:  0.528D-05-0.815D-04 0.463D-04 0.383D-03 0.178D-02-0.369D-02
 Coeff-Com: -0.190D-01-0.124D-01 0.280D+00 0.753D+00
 Coeff:      0.528D-05-0.815D-04 0.463D-04 0.383D-03 0.178D-02-0.369D-02
 Coeff:     -0.190D-01-0.124D-01 0.280D+00 0.753D+00
 Gap=     0.265 Goal=   None    Shift=    0.000
 RMSDP=2.19D-08 MaxDP=4.65D-07 DE=-1.34D-11 OVMax= 6.31D-07

 Cycle  11  Pass 1  IDiag  1:
 E= -170.982622811664     Delta-E=       -0.000000000002 Rises=F Damp=F
 DIIS: error= 1.42D-08 at cycle  11 NSaved=  11.
 NSaved=11 IEnMin=11 EnMin= -170.982622811664     IErMin=11 ErrMin= 1.42D-08
 ErrMax= 1.42D-08  0.00D+00 EMaxC= 1.00D-01 BMatC= 2.39D-14 BMatP= 1.61D-12
 IDIUse=1 WtCom= 1.00D+00 WtEn= 0.00D+00
 Coeff-Com:  0.707D-06-0.362D-05-0.862D-05 0.578D-05 0.123D-03 0.437D-03
 Coeff-Com:  0.105D-02-0.859D-02-0.448D-01-0.133D-01 0.107D+01
 Coeff:      0.707D-06-0.362D-05-0.862D-05 0.578D-05 0.123D-03 0.437D-03
 Coeff:      0.105D-02-0.859D-02-0.448D-01-0.133D-01 0.107D+01
 Gap=     0.265 Goal=   None    Shift=    0.000
 RMSDP=7.60D-09 MaxDP=1.73D-07 DE=-2.47D-12 OVMax= 2.68D-07

 SCF Done:  E(RM062X) =  -170.982622812     A.U. after   11 cycles
            NFock= 11  Conv=0.76D-08     -V/T= 2.0034
 KE= 1.704035619758D+02 PE=-5.662942011206D+02 EE= 1.422913937736D+02
 Leave Link  502 at Sun Oct 13 23:51:48 2019, MaxMem= 10737418240 cpu:              29.7 elap:               1.4
 (Enter /apps/cent7/gaussian/g16-A.03/g16-haswell/g16/l701.exe)
 ... and contract with generalized density number  0.
 Compute integral first derivatives.
 Leave Link  701 at Sun Oct 13 23:51:48 2019, MaxMem= 10737418240 cpu:               2.3 elap:               0.1
 (Enter /apps/cent7/gaussian/g16-A.03/g16-haswell/g16/l702.exe)
 L702 exits ... SP integral derivatives will be done elsewhere.
 Leave Link  702 at Sun Oct 13 23:51:48 2019, MaxMem= 10737418240 cpu:               0.4 elap:               0.0
 (Enter /apps/cent7/gaussian/g16-A.03/g16-haswell/g16/l703.exe)
 Integral derivatives from FoFJK, PRISM(SPDF).
 Compute integral first derivatives, UseDBF=F ICtDFT=           0.
 Calling FoFJK, ICntrl=      2127 FMM=F ISym2X=0 I1Cent= 0 IOpClX= 0 NMat=1 NMatS=1 NMatT=0.
 FoFJK:  IHMeth= 1 ICntrl=    2127 DoSepK=F KAlg= 0 I1Cent=           0 FoldK=F
 IRaf=         0 NMat=       1 IRICut=       1 DoRegI=T DoRafI=F ISym2E= 0 IDoP0=0 IntGTp=1.
 FoFCou: FMM=F IPFlag=           0 FMFlag=      100000 FMFlg1=         800
         NFxFlg=           0 DoJE=F BraDBF=F KetDBF=F FulRan=T
         wScrn=  0.000000 ICntrl=      2127 IOpCl=  0 I1Cent=           0 NGrid=           0
         NMat0=    1 NMatS0=      1 NMatT0=    0 NMatD0=    1 NMtDS0=    0 NMtDT0=    0
 Symmetry not used in FoFCou.
 Leave Link  703 at Sun Oct 13 23:51:48 2019, MaxMem= 10737418240 cpu:               7.5 elap:               0.3
 (Enter /apps/cent7/gaussian/g16-A.03/g16-haswell/g16/l716.exe)
 Dipole        = 2.12613921D-01 3.97139950D-01-5.84694293D-01
 ***** Axes restored to original set *****
 -------------------------------------------------------------------
 Center     Atomic                   Forces (Hartrees/Bohr)
 Number     Number              X              Y              Z
 -------------------------------------------------------------------
      1        6          -0.011521924    0.002701356    0.006195712
      2        7           0.016082351   -0.013492965    0.000709251
      3        8          -0.008334325    0.005994757   -0.001211988
      4        1           0.003867481   -0.000184919   -0.000970999
      5        1          -0.001855454   -0.000172089    0.001053264
      6        1           0.001768677    0.001030293   -0.000885400
      7        1          -0.004349236    0.005400309   -0.002949183
      8        1           0.004342429   -0.001276742   -0.001940657
 -------------------------------------------------------------------
 Cartesian Forces:  Max     0.016082351 RMS     0.005891486
 Leave Link  716 at Sun Oct 13 23:51:48 2019, MaxMem= 10737418240 cpu:               0.5 elap:               0.0
 (Enter /apps/cent7/gaussian/g16-A.03/g16-haswell/g16/l103.exe)

 GradGradGradGradGradGradGradGradGradGradGradGradGradGradGradGradGradGrad
 Berny optimization.
 Using GEDIIS/GDIIS optimizer.
 FormGI is forming the generalized inverse of G from B-inverse, IUseBI=4.
 Internal  Forces:  Max     0.008833669 RMS     0.003166823
 Search for a local minimum.
 Step number   2 out of a maximum of   35
 All quantities printed in internal units (Hartrees-Bohrs-Radians)
 RMS Force = .31668D-02 SwitMx=.10000D-02 MixMth= 1
 Mixed Optimization -- RFO/linear search
 Update second derivatives using D2CorX and points    1    2
 DE= -7.21D-03 DEPred=-6.56D-03 R= 1.10D+00
 TightC=F SS=  1.41D+00  RLast= 3.59D-01 DXNew= 5.0454D-01 1.0777D+00
 Trust test= 1.10D+00 RLast= 3.59D-01 DXMaxT set to 5.05D-01
 ITU=  1  0
 Use linear search instead of GDIIS.
     Eigenvalues ---    0.00776   0.00876   0.01748   0.07260   0.07619
     Eigenvalues ---    0.14436   0.15946   0.16000   0.16000   0.16426
     Eigenvalues ---    0.25934   0.34057   0.34810   0.34904   0.34989
     Eigenvalues ---    0.46303   0.55258   0.56608
 RFO step:  Lambda=-6.92055353D-03 EMin= 7.76364041D-03
 Quartic linear search produced a step of  0.43608.
 Iteration  1 RMS(Cart)=  0.06257808 RMS(Int)=  0.05051125
 Iteration  2 RMS(Cart)=  0.04580229 RMS(Int)=  0.00894297
 Iteration  3 RMS(Cart)=  0.00218728 RMS(Int)=  0.00855620
 Iteration  4 RMS(Cart)=  0.00000645 RMS(Int)=  0.00855620
 Iteration  5 RMS(Cart)=  0.00000001 RMS(Int)=  0.00855620
 ITry= 1 IFail=0 DXMaxC= 1.97D-01 DCOld= 1.00D+10 DXMaxT= 5.05D-01 DXLimC= 3.00D+00 Rises=F
 Variable       Old X    -DE/DX   Delta X   Delta X   Delta X     New X
                                 (Linear)    (Quad)   (Total)
    R1        2.73014  -0.00883  -0.02004  -0.02999  -0.05004   2.68010
    R2        2.05968   0.00222  -0.00008   0.00815   0.00807   2.06775
    R3        2.06354  -0.00082   0.00161  -0.00312  -0.00151   2.06203
    R4        2.06944   0.00131   0.00422   0.00450   0.00872   2.07816
    R5        2.61696   0.00090   0.02428   0.00026   0.02454   2.64150
    R6        1.89150   0.00086  -0.00742   0.00297  -0.00445   1.88705
    R7        1.82106  -0.00058   0.00299  -0.00159   0.00140   1.82246
    A1        1.88374   0.00493  -0.01170   0.04276   0.03054   1.91428
    A2        1.91444  -0.00440   0.00167  -0.03980  -0.03797   1.87647
    A3        1.96111   0.00251   0.02201   0.01983   0.04137   2.00247
    A4        1.89932  -0.00094  -0.00490  -0.01088  -0.01563   1.88369
    A5        1.90264  -0.00238  -0.00349  -0.00830  -0.01280   1.88984
    A6        1.90167   0.00021  -0.00397  -0.00407  -0.00788   1.89379
    A7        2.03071   0.00042   0.05442  -0.01056   0.02094   2.05165
    A8        2.20015   0.00105  -0.01958  -0.00269  -0.04676   2.15339
    A9        2.04497  -0.00200  -0.03805  -0.02666  -0.08951   1.95546
   A10        1.87362  -0.00529  -0.01611  -0.04022  -0.05633   1.81729
    D1        0.80245   0.00377   0.06162   0.23671   0.29676   1.09920
    D2       -2.47358  -0.00116   0.00302  -0.12799  -0.12251  -2.59609
    D3        2.86930   0.00304   0.04967   0.22617   0.27381  -3.14007
    D4       -0.40673  -0.00190  -0.00893  -0.13853  -0.14545  -0.55218
    D5       -1.29586   0.00191   0.05991   0.20643   0.26388  -1.03198
    D6        1.71130  -0.00302   0.00131  -0.15827  -0.15539   1.55591
    D7       -1.94053   0.00129   0.02987   0.00846   0.04394  -1.89658
    D8        1.32316   0.00555   0.08309   0.33788   0.41536   1.73851
         Item               Value     Threshold  Converged?
 Maximum Force            0.008834     0.000450     NO 
 RMS     Force            0.003167     0.000300     NO 
 Maximum Displacement     0.197240     0.001800     NO 
 RMS     Displacement     0.097860     0.001200     NO 
 Predicted change in Energy=-4.112220D-03
 Lowest energy point so far.  Saving SCF results.
 GradGradGradGradGradGradGradGradGradGradGradGradGradGradGradGradGradGrad

 Leave Link  103 at Sun Oct 13 23:51:48 2019, MaxMem= 10737418240 cpu:               0.4 elap:               0.0
 (Enter /apps/cent7/gaussian/g16-A.03/g16-haswell/g16/l202.exe)
                          Input orientation:                          
 ---------------------------------------------------------------------
 Center     Atomic      Atomic             Coordinates (Angstroms)
 Number     Number       Type             X           Y           Z
 ---------------------------------------------------------------------
      1          6           0        1.424383    0.041944   -0.393724
      2          7           0        0.262410   -0.252270    0.364355
      3          8           0       -0.113497    0.662042    1.352600
      4          1           0        2.298150    0.063529    0.264566
      5          1           0        1.563387   -0.769488   -1.109917
      6          1           0        1.385065    0.992090   -0.946038
      7          1           0       -0.521193   -0.750897   -0.002400
      8          1           0        0.084595    0.208549    2.180358
 ---------------------------------------------------------------------
                    Distance matrix (angstroms):
                    1          2          3          4          5
     1  C    0.000000
     2  N    1.418248   0.000000
     3  O    2.408161   1.397820   0.000000
     4  H    1.094204   2.062505   2.712577   0.000000
     5  H    1.091180   2.033109   3.305330   1.767200   0.000000
     6  H    1.099716   2.127420   2.763757   1.778064   1.778148
     7  H    2.137053   0.998585   1.999659   2.946737   2.360597
     8  H    2.906662   1.881977   0.964407   2.931060   3.737551
                    6          7          8
     6  H    0.000000
     7  H    2.749960   0.000000
     8  H    3.475559   2.460071   0.000000
 Stoichiometry    CH5NO
 Framework group  C1[X(CH5NO)]
 Deg. of freedom    18
 Full point group                 C1      NOp   1
 RotChk:  IX=2 Diff= 1.49D-01
 Largest Abelian subgroup         C1      NOp   1
 Largest concise Abelian subgroup C1      NOp   1
                         Standard orientation:                         
 ---------------------------------------------------------------------
 Center     Atomic      Atomic             Coordinates (Angstroms)
 Number     Number       Type             X           Y           Z
 ---------------------------------------------------------------------
      1          6           0        1.192697   -0.209817    0.003213
      2          7           0       -0.043678    0.481212   -0.069469
      3          8           0       -1.211744   -0.261076    0.126819
      4          1           0        1.242990   -0.959750   -0.791992
      5          1           0        1.986555    0.518263   -0.171039
      6          1           0        1.383686   -0.711478    0.963023
      7          1           0       -0.156330    1.435738    0.201385
      8          1           0       -1.613393   -0.303749   -0.748931
 ---------------------------------------------------------------------
 Rotational constants (GHZ):          45.0589363           9.5301119           8.5180048
 Leave Link  202 at Sun Oct 13 23:51:48 2019, MaxMem= 10737418240 cpu:               0.2 elap:               0.0
 (Enter /apps/cent7/gaussian/g16-A.03/g16-haswell/g16/l301.exe)
 Standard basis: 6-311++G(d,p) (5D, 7F)
 Ernie: Thresh=  0.10000D-02 Tol=  0.10000D-05 Strict=F.
 There are   104 symmetry adapted cartesian basis functions of A   symmetry.
 There are   101 symmetry adapted basis functions of A   symmetry.
   101 basis functions,   153 primitive gaussians,   104 cartesian basis functions
    13 alpha electrons       13 beta electrons
       nuclear repulsion energy        82.7926944792 Hartrees.
 IExCor= 4336 DFT=T Ex+Corr=M062X ExCW=0 ScaHFX=  0.540000
 ScaDFX=  1.000000  1.000000  1.000000  1.000000 ScalE2=  1.000000  1.000000
 IRadAn=      5 IRanWt=     -1 IRanGd=            0 ICorTp=0 IEmpDi=  4
 NAtoms=    8 NActive=    8 NUniq=    8 SFac= 1.00D+00 NAtFMM=   60 NAOKFM=F Big=F
 Integral buffers will be    131072 words long.
 Raffenetti 2 integral format.
 Two-electron integral symmetry is turned on.
 Leave Link  301 at Sun Oct 13 23:51:48 2019, MaxMem= 10737418240 cpu:               1.2 elap:               0.1
 (Enter /apps/cent7/gaussian/g16-A.03/g16-haswell/g16/l302.exe)
 NPDir=0 NMtPBC=     1 NCelOv=     1 NCel=       1 NClECP=     1 NCelD=      1
         NCelK=      1 NCelE2=     1 NClLst=     1 CellRange=     0.0.
 One-electron integrals computed using PRISM.
 One-electron integral symmetry used in STVInt
 NBasis=   101 RedAO= T EigKep=  5.08D-04  NBF=   101
 NBsUse=   101 1.00D-06 EigRej= -1.00D+00 NBFU=   101
 Precomputing XC quadrature grid using
 IXCGrd= 4 IRadAn=           5 IRanWt=          -1 IRanGd=           0 AccXCQ= 0.00D+00.
 Generated NRdTot=       0 NPtTot=           0 NUsed=           0 NTot=          32
 NSgBfM=   104   104   104   104   104 MxSgAt=     8 MxSgA2=     8.
 Leave Link  302 at Sun Oct 13 23:51:48 2019, MaxMem= 10737418240 cpu:               2.6 elap:               0.1
 (Enter /apps/cent7/gaussian/g16-A.03/g16-haswell/g16/l303.exe)
 DipDrv:  MaxL=1.
 Leave Link  303 at Sun Oct 13 23:51:49 2019, MaxMem= 10737418240 cpu:               0.6 elap:               0.0
 (Enter /apps/cent7/gaussian/g16-A.03/g16-haswell/g16/l401.exe)
 Initial guess from the checkpoint file:  "8.chk"
 B after Tr=    -0.000000    0.000000    0.000000
         Rot=    0.999848   -0.015691    0.007470    0.001010 Ang=  -1.99 deg.
 Guess basis will be translated and rotated to current coordinates.
 JPrj=2 DoOrth=T DoCkMO=T.
 Generating alternative initial guess.
 ExpMin= 3.60D-02 ExpMax= 8.59D+03 ExpMxC= 1.30D+03 IAcc=3 IRadAn=         5 AccDes= 0.00D+00
 Harris functional with IExCor= 1009 and IRadAn=       5 diagonalized for initial guess.
 HarFok:  IExCor= 1009 AccDes= 0.00D+00 IRadAn=         5 IDoV= 1 UseB2=F ITyADJ=14
 ICtDFT=  3500011 ScaDFX=  1.000000  1.000000  1.000000  1.000000
 FoFCou: FMM=F IPFlag=           0 FMFlag=      100000 FMFlg1=           0
         NFxFlg=           0 DoJE=T BraDBF=F KetDBF=T FulRan=T
         wScrn=  0.000000 ICntrl=       500 IOpCl=  0 I1Cent=   200000004 NGrid=           0
         NMat0=    1 NMatS0=      1 NMatT0=    0 NMatD0=    1 NMtDS0=    0 NMtDT0=    0
 Petite list used in FoFCou.
 Harris En= -170.929016840509    
 Leave Link  401 at Sun Oct 13 23:51:49 2019, MaxMem= 10737418240 cpu:               5.3 elap:               0.2
 (Enter /apps/cent7/gaussian/g16-A.03/g16-haswell/g16/l502.exe)
 Keep R1 ints in memory in canonical form, NReq=35594570.
 FoFCou: FMM=F IPFlag=           0 FMFlag=           0 FMFlg1=           0
         NFxFlg=           0 DoJE=F BraDBF=F KetDBF=F FulRan=T
         wScrn=  0.000000 ICntrl=       600 IOpCl=  0 I1Cent=           0 NGrid=           0
         NMat0=    1 NMatS0=   5151 NMatT0=    0 NMatD0=    1 NMtDS0=    0 NMtDT0=    0
 Symmetry not used in FoFCou.
 Two-electron integral symmetry not used.
 Closed shell SCF:
 Using DIIS extrapolation, IDIIS=  1040.
 NGot= 10737418240 LenX= 10724123948 LenY= 10724112691
 Requested convergence on RMS density matrix=1.00D-08 within 128 cycles.
 Requested convergence on MAX density matrix=1.00D-06.
 Requested convergence on             energy=1.00D-06.
 No special actions if energy rises.

 Cycle   1  Pass 1  IDiag  1:
 E= -170.971249626959    
 DIIS: error= 8.82D-03 at cycle   1 NSaved=   1.
 NSaved= 1 IEnMin= 1 EnMin= -170.971249626959     IErMin= 1 ErrMin= 8.82D-03
 ErrMax= 8.82D-03  0.00D+00 EMaxC= 1.00D-01 BMatC= 1.29D-02 BMatP= 1.29D-02
 IDIUse=3 WtCom= 9.12D-01 WtEn= 8.82D-02
 Coeff-Com:  0.100D+01
 Coeff-En:   0.100D+01
 Coeff:      0.100D+01
 Gap=     0.426 Goal=   None    Shift=    0.000
 GapD=    0.426 DampG=2.000 DampE=1.000 DampFc=2.0000 IDamp=-1.
 RMSDP=2.08D-03 MaxDP=4.78D-02              OVMax= 4.92D-02

 Cycle   2  Pass 1  IDiag  1:
 E= -170.989205706591     Delta-E=       -0.017956079631 Rises=F Damp=F
 DIIS: error= 2.38D-03 at cycle   2 NSaved=   2.
 NSaved= 2 IEnMin= 2 EnMin= -170.989205706591     IErMin= 2 ErrMin= 2.38D-03
 ErrMax= 2.38D-03  0.00D+00 EMaxC= 1.00D-01 BMatC= 5.12D-04 BMatP= 1.29D-02
 IDIUse=3 WtCom= 9.76D-01 WtEn= 2.38D-02
 Coeff-Com: -0.139D+00 0.114D+01
 Coeff-En:   0.000D+00 0.100D+01
 Coeff:     -0.135D+00 0.114D+01
 Gap=     0.275 Goal=   None    Shift=    0.000
 RMSDP=4.95D-04 MaxDP=7.88D-03 DE=-1.80D-02 OVMax= 1.63D-02

 Cycle   3  Pass 1  IDiag  1:
 E= -170.989985740818     Delta-E=       -0.000780034227 Rises=F Damp=F
 DIIS: error= 1.85D-03 at cycle   3 NSaved=   3.
 NSaved= 3 IEnMin= 3 EnMin= -170.989985740818     IErMin= 3 ErrMin= 1.85D-03
 ErrMax= 1.85D-03  0.00D+00 EMaxC= 1.00D-01 BMatC= 2.79D-04 BMatP= 5.12D-04
 IDIUse=3 WtCom= 9.81D-01 WtEn= 1.85D-02
 Coeff-Com: -0.882D-01 0.554D+00 0.534D+00
 Coeff-En:   0.000D+00 0.000D+00 0.100D+01
 Coeff:     -0.866D-01 0.544D+00 0.543D+00
 Gap=     0.277 Goal=   None    Shift=    0.000
 RMSDP=1.37D-04 MaxDP=2.67D-03 DE=-7.80D-04 OVMax= 3.63D-03

 Cycle   4  Pass 1  IDiag  1:
 E= -170.990176521680     Delta-E=       -0.000190780862 Rises=F Damp=F
 DIIS: error= 5.04D-04 at cycle   4 NSaved=   4.
 NSaved= 4 IEnMin= 4 EnMin= -170.990176521680     IErMin= 4 ErrMin= 5.04D-04
 ErrMax= 5.04D-04  0.00D+00 EMaxC= 1.00D-01 BMatC= 1.50D-05 BMatP= 2.79D-04
 IDIUse=3 WtCom= 9.95D-01 WtEn= 5.04D-03
 Coeff-Com:  0.495D-02-0.822D-01 0.143D+00 0.934D+00
 Coeff-En:   0.000D+00 0.000D+00 0.000D+00 0.100D+01
 Coeff:      0.492D-02-0.818D-01 0.143D+00 0.934D+00
 Gap=     0.276 Goal=   None    Shift=    0.000
 RMSDP=7.14D-05 MaxDP=1.13D-03 DE=-1.91D-04 OVMax= 2.45D-03

 Cycle   5  Pass 1  IDiag  1:
 E= -170.990193897136     Delta-E=       -0.000017375456 Rises=F Damp=F
 DIIS: error= 6.44D-05 at cycle   5 NSaved=   5.
 NSaved= 5 IEnMin= 5 EnMin= -170.990193897136     IErMin= 5 ErrMin= 6.44D-05
 ErrMax= 6.44D-05  0.00D+00 EMaxC= 1.00D-01 BMatC= 5.15D-07 BMatP= 1.50D-05
 IDIUse=1 WtCom= 1.00D+00 WtEn= 0.00D+00
 Coeff-Com:  0.562D-02-0.499D-01 0.303D-03 0.202D+00 0.843D+00
 Coeff:      0.562D-02-0.499D-01 0.303D-03 0.202D+00 0.843D+00
 Gap=     0.277 Goal=   None    Shift=    0.000
 RMSDP=1.54D-05 MaxDP=2.76D-04 DE=-1.74D-05 OVMax= 5.19D-04

 Cycle   6  Pass 1  IDiag  1:
 E= -170.990194597803     Delta-E=       -0.000000700667 Rises=F Damp=F
 DIIS: error= 1.42D-05 at cycle   6 NSaved=   6.
 NSaved= 6 IEnMin= 6 EnMin= -170.990194597803     IErMin= 6 ErrMin= 1.42D-05
 ErrMax= 1.42D-05  0.00D+00 EMaxC= 1.00D-01 BMatC= 3.39D-08 BMatP= 5.15D-07
 IDIUse=1 WtCom= 1.00D+00 WtEn= 0.00D+00
 Coeff-Com:  0.775D-03-0.416D-02-0.898D-02-0.156D-01 0.113D+00 0.915D+00
 Coeff:      0.775D-03-0.416D-02-0.898D-02-0.156D-01 0.113D+00 0.915D+00
 Gap=     0.276 Goal=   None    Shift=    0.000
 RMSDP=5.74D-06 MaxDP=1.18D-04 DE=-7.01D-07 OVMax= 1.91D-04

 Cycle   7  Pass 1  IDiag  1:
 E= -170.990194656752     Delta-E=       -0.000000058949 Rises=F Damp=F
 DIIS: error= 9.95D-06 at cycle   7 NSaved=   7.
 NSaved= 7 IEnMin= 7 EnMin= -170.990194656752     IErMin= 7 ErrMin= 9.95D-06
 ErrMax= 9.95D-06  0.00D+00 EMaxC= 1.00D-01 BMatC= 1.33D-08 BMatP= 3.39D-08
 IDIUse=1 WtCom= 1.00D+00 WtEn= 0.00D+00
 Coeff-Com: -0.472D-03 0.538D-02-0.331D-02-0.305D-01-0.918D-01 0.400D+00
 Coeff-Com:  0.721D+00
 Coeff:     -0.472D-03 0.538D-02-0.331D-02-0.305D-01-0.918D-01 0.400D+00
 Coeff:      0.721D+00
 Gap=     0.276 Goal=   None    Shift=    0.000
 RMSDP=2.04D-06 MaxDP=4.21D-05 DE=-5.89D-08 OVMax= 6.36D-05

 Cycle   8  Pass 1  IDiag  1:
 E= -170.990194671394     Delta-E=       -0.000000014643 Rises=F Damp=F
 DIIS: error= 1.24D-06 at cycle   8 NSaved=   8.
 NSaved= 8 IEnMin= 8 EnMin= -170.990194671394     IErMin= 8 ErrMin= 1.24D-06
 ErrMax= 1.24D-06  0.00D+00 EMaxC= 1.00D-01 BMatC= 2.96D-10 BMatP= 1.33D-08
 IDIUse=1 WtCom= 1.00D+00 WtEn= 0.00D+00
 Coeff-Com: -0.129D-03 0.120D-02-0.193D-03-0.453D-02-0.267D-01 0.231D-01
 Coeff-Com:  0.121D+00 0.886D+00
 Coeff:     -0.129D-03 0.120D-02-0.193D-03-0.453D-02-0.267D-01 0.231D-01
 Coeff:      0.121D+00 0.886D+00
 Gap=     0.276 Goal=   None    Shift=    0.000
 RMSDP=4.13D-07 MaxDP=5.20D-06 DE=-1.46D-08 OVMax= 1.61D-05

 Cycle   9  Pass 1  IDiag  1:
 E= -170.990194671871     Delta-E=       -0.000000000476 Rises=F Damp=F
 DIIS: error= 5.59D-07 at cycle   9 NSaved=   9.
 NSaved= 9 IEnMin= 9 EnMin= -170.990194671871     IErMin= 9 ErrMin= 5.59D-07
 ErrMax= 5.59D-07  0.00D+00 EMaxC= 1.00D-01 BMatC= 5.56D-11 BMatP= 2.96D-10
 IDIUse=1 WtCom= 1.00D+00 WtEn= 0.00D+00
 Coeff-Com:  0.544D-05-0.141D-03 0.245D-03 0.161D-02-0.848D-04-0.339D-01
 Coeff-Com: -0.331D-01 0.304D+00 0.762D+00
 Coeff:      0.544D-05-0.141D-03 0.245D-03 0.161D-02-0.848D-04-0.339D-01
 Coeff:     -0.331D-01 0.304D+00 0.762D+00
 Gap=     0.276 Goal=   None    Shift=    0.000
 RMSDP=1.42D-07 MaxDP=1.83D-06 DE=-4.76D-10 OVMax= 4.85D-06

 Cycle  10  Pass 1  IDiag  1:
 E= -170.990194671939     Delta-E=       -0.000000000068 Rises=F Damp=F
 DIIS: error= 1.39D-07 at cycle  10 NSaved=  10.
 NSaved=10 IEnMin=10 EnMin= -170.990194671939     IErMin=10 ErrMin= 1.39D-07
 ErrMax= 1.39D-07  0.00D+00 EMaxC= 1.00D-01 BMatC= 3.07D-12 BMatP= 5.56D-11
 IDIUse=1 WtCom= 1.00D+00 WtEn= 0.00D+00
 Coeff-Com:  0.108D-04-0.125D-03 0.687D-04 0.760D-03 0.224D-02-0.102D-01
 Coeff-Com: -0.171D-01-0.484D-02 0.194D+00 0.836D+00
 Coeff:      0.108D-04-0.125D-03 0.687D-04 0.760D-03 0.224D-02-0.102D-01
 Coeff:     -0.171D-01-0.484D-02 0.194D+00 0.836D+00
 Gap=     0.276 Goal=   None    Shift=    0.000
 RMSDP=4.04D-08 MaxDP=6.92D-07 DE=-6.79D-11 OVMax= 1.25D-06

 Cycle  11  Pass 1  IDiag  1:
 E= -170.990194671943     Delta-E=       -0.000000000004 Rises=F Damp=F
 DIIS: error= 2.42D-08 at cycle  11 NSaved=  11.
 NSaved=11 IEnMin=11 EnMin= -170.990194671943     IErMin=11 ErrMin= 2.42D-08
 ErrMax= 2.42D-08  0.00D+00 EMaxC= 1.00D-01 BMatC= 8.04D-14 BMatP= 3.07D-12
 IDIUse=1 WtCom= 1.00D+00 WtEn= 0.00D+00
 Coeff-Com: -0.605D-06 0.116D-04-0.159D-04-0.114D-03 0.518D-04 0.235D-02
 Coeff-Com:  0.249D-02-0.206D-01-0.507D-01-0.187D-01 0.109D+01
 Coeff:     -0.605D-06 0.116D-04-0.159D-04-0.114D-03 0.518D-04 0.235D-02
 Coeff:      0.249D-02-0.206D-01-0.507D-01-0.187D-01 0.109D+01
 Gap=     0.276 Goal=   None    Shift=    0.000
 RMSDP=1.25D-08 MaxDP=2.15D-07 DE=-4.01D-12 OVMax= 4.25D-07

 Cycle  12  Pass 1  IDiag  1:
 E= -170.990194671944     Delta-E=       -0.000000000001 Rises=F Damp=F
 DIIS: error= 4.81D-09 at cycle  12 NSaved=  12.
 NSaved=12 IEnMin=12 EnMin= -170.990194671944     IErMin=12 ErrMin= 4.81D-09
 ErrMax= 4.81D-09  0.00D+00 EMaxC= 1.00D-01 BMatC= 3.09D-15 BMatP= 8.04D-14
 IDIUse=1 WtCom= 1.00D+00 WtEn= 0.00D+00
 Coeff-Com: -0.491D-06 0.568D-05-0.433D-05-0.363D-04-0.786D-04 0.404D-03
 Coeff-Com:  0.577D-03 0.334D-03-0.629D-02-0.264D-01-0.262D-01 0.106D+01
 Coeff:     -0.491D-06 0.568D-05-0.433D-05-0.363D-04-0.786D-04 0.404D-03
 Coeff:      0.577D-03 0.334D-03-0.629D-02-0.264D-01-0.262D-01 0.106D+01
 Gap=     0.276 Goal=   None    Shift=    0.000
 RMSDP=1.78D-09 MaxDP=2.37D-08 DE=-1.11D-12 OVMax= 8.42D-08

 SCF Done:  E(RM062X) =  -170.990194672     A.U. after   12 cycles
            NFock= 12  Conv=0.18D-08     -V/T= 2.0032
 KE= 1.704481739546D+02 PE=-5.666499338315D+02 EE= 1.424188707258D+02
 Leave Link  502 at Sun Oct 13 23:51:50 2019, MaxMem= 10737418240 cpu:              31.1 elap:               1.5
 (Enter /apps/cent7/gaussian/g16-A.03/g16-haswell/g16/l701.exe)
 ... and contract with generalized density number  0.
 Compute integral first derivatives.
 Leave Link  701 at Sun Oct 13 23:51:50 2019, MaxMem= 10737418240 cpu:               2.2 elap:               0.1
 (Enter /apps/cent7/gaussian/g16-A.03/g16-haswell/g16/l702.exe)
 L702 exits ... SP integral derivatives will be done elsewhere.
 Leave Link  702 at Sun Oct 13 23:51:51 2019, MaxMem= 10737418240 cpu:               0.6 elap:               0.0
 (Enter /apps/cent7/gaussian/g16-A.03/g16-haswell/g16/l703.exe)
 Integral derivatives from FoFJK, PRISM(SPDF).
 Compute integral first derivatives, UseDBF=F ICtDFT=           0.
 Calling FoFJK, ICntrl=      2127 FMM=F ISym2X=0 I1Cent= 0 IOpClX= 0 NMat=1 NMatS=1 NMatT=0.
 FoFJK:  IHMeth= 1 ICntrl=    2127 DoSepK=F KAlg= 0 I1Cent=           0 FoldK=F
 IRaf=         0 NMat=       1 IRICut=       1 DoRegI=T DoRafI=F ISym2E= 0 IDoP0=0 IntGTp=1.
 FoFCou: FMM=F IPFlag=           0 FMFlag=      100000 FMFlg1=         800
         NFxFlg=           0 DoJE=F BraDBF=F KetDBF=F FulRan=T
         wScrn=  0.000000 ICntrl=      2127 IOpCl=  0 I1Cent=           0 NGrid=           0
         NMat0=    1 NMatS0=      1 NMatT0=    0 NMatD0=    1 NMtDS0=    0 NMtDT0=    0
 Symmetry not used in FoFCou.
 Leave Link  703 at Sun Oct 13 23:51:51 2019, MaxMem= 10737418240 cpu:               7.7 elap:               0.3
 (Enter /apps/cent7/gaussian/g16-A.03/g16-haswell/g16/l716.exe)
 Dipole        = 2.71121549D-01 3.10429543D-01-4.02794080D-01
 ***** Axes restored to original set *****
 -------------------------------------------------------------------
 Center     Atomic                   Forces (Hartrees/Bohr)
 Number     Number              X              Y              Z
 -------------------------------------------------------------------
      1        6           0.004417998    0.009444391   -0.005330708
      2        7           0.000828543   -0.020430293    0.022685825
      3        8           0.001208380    0.002389290   -0.004637019
      4        1           0.000707158    0.000280321   -0.000983699
      5        1          -0.000148162   -0.000238758   -0.000024817
      6        1          -0.000802658   -0.000089709    0.000213224
      7        1          -0.006462318    0.006022729   -0.009930856
      8        1           0.000251060    0.002622029   -0.001991951
 -------------------------------------------------------------------
 Cartesian Forces:  Max     0.022685825 RMS     0.007326945
 Leave Link  716 at Sun Oct 13 23:51:51 2019, MaxMem= 10737418240 cpu:               0.5 elap:               0.0
 (Enter /apps/cent7/gaussian/g16-A.03/g16-haswell/g16/l103.exe)

 GradGradGradGradGradGradGradGradGradGradGradGradGradGradGradGradGradGrad
 Berny optimization.
 Using GEDIIS/GDIIS optimizer.
 FormGI is forming the generalized inverse of G from B-inverse, IUseBI=4.
 Internal  Forces:  Max     0.009565383 RMS     0.004243466
 Search for a local minimum.
 Step number   3 out of a maximum of   35
 All quantities printed in internal units (Hartrees-Bohrs-Radians)
 RMS Force = .42435D-02 SwitMx=.10000D-02 MixMth= 1
 Mixed Optimization -- RFO/linear search
 Update second derivatives using D2CorX and points    2    3
 DE= -7.57D-03 DEPred=-4.11D-03 R= 1.84D+00
 TightC=F SS=  1.41D+00  RLast= 6.99D-01 DXNew= 8.4853D-01 2.0980D+00
 Trust test= 1.84D+00 RLast= 6.99D-01 DXMaxT set to 8.49D-01
 ITU=  1  1  0
 Use linear search instead of GDIIS.
     Eigenvalues ---   -7.77579   0.00047   0.00849   0.02897   0.07155
     Eigenvalues ---    0.07775   0.15109   0.15986   0.16000   0.16342
     Eigenvalues ---    0.21217   0.29198   0.34798   0.34813   0.34960
     Eigenvalues ---    0.45591   0.55162   0.56283
 Eigenvalue     1 is  -7.78D+00 should be greater than     0.000000 Eigenvector:
                          R1        A7        A9        A10       D7
   1                    0.66614  -0.36725   0.31908   0.27688  -0.21992
                          R6        A3        A2        D2        A1
   1                    0.18097  -0.15665   0.15388  -0.15063  -0.10357
 RFO step:  Lambda=-7.77582646D+00 EMin=-7.77579008D+00
 I=     1 Eig=   -7.78D+00 Dot1=  1.01D-02
 I=     1 Stepn=  6.00D-01 RXN=   6.00D-01 EDone=F
 Mixed    1 eigenvectors in step.  Raw Step.Grad=  1.01D-02.
 RFO eigenvector is Hessian eigenvector with negative curvature.
 Taking step of  6.00D-01 in eigenvector direction(s).  Step.Grad= -6.85D-03.
 Skip linear search -- no minimum in search direction.
 Iteration  1 RMS(Cart)=  0.13713524 RMS(Int)=  0.04351228
 Iteration  2 RMS(Cart)=  0.04870654 RMS(Int)=  0.00480234
 Iteration  3 RMS(Cart)=  0.00050091 RMS(Int)=  0.00478741
 Iteration  4 RMS(Cart)=  0.00000253 RMS(Int)=  0.00478741
 Iteration  5 RMS(Cart)=  0.00000003 RMS(Int)=  0.00478741
 ITry= 1 IFail=0 DXMaxC= 3.13D-01 DCOld= 1.00D+10 DXMaxT= 8.49D-01 DXLimC= 3.00D+00 Rises=F
 Variable       Old X    -DE/DX   Delta X   Delta X   Delta X     New X
                                 (Linear)    (Quad)   (Total)
    R1        2.68010   0.00864   0.00000   0.39968   0.39968   3.07978
    R2        2.06775  -0.00002   0.00000  -0.05160  -0.05160   2.01615
    R3        2.06203   0.00018   0.00000   0.02274   0.02274   2.08477
    R4        2.07816  -0.00016   0.00000  -0.03385  -0.03385   2.04431
    R5        2.64150  -0.00180   0.00000  -0.06099  -0.06099   2.58051
    R6        1.88705   0.00571   0.00000   0.10858   0.10858   1.99564
    R7        1.82246  -0.00289   0.00000  -0.05095  -0.05095   1.77152
    A1        1.91428   0.00225   0.00000  -0.06214  -0.06358   1.85070
    A2        1.87647  -0.00042   0.00000   0.09233   0.09384   1.97031
    A3        2.00247  -0.00157   0.00000  -0.09399  -0.09481   1.90767
    A4        1.88369  -0.00044   0.00000   0.01033   0.01142   1.89511
    A5        1.88984  -0.00022   0.00000   0.05546   0.05128   1.94112
    A6        1.89379   0.00043   0.00000   0.00350   0.00542   1.89921
    A7        2.05165  -0.00957   0.00000  -0.22035  -0.22594   1.82571
    A8        2.15339  -0.00159   0.00000  -0.04950  -0.04995   2.10344
    A9        1.95546   0.00578   0.00000   0.19145   0.17933   2.13478
   A10        1.81729   0.00177   0.00000   0.16613   0.16613   1.98341
    D1        1.09920   0.00468   0.00000   0.01771   0.01505   1.11425
    D2       -2.59609  -0.00491   0.00000  -0.09038  -0.08329  -2.67938
    D3       -3.14007   0.00513   0.00000   0.04861   0.04404  -3.09603
    D4       -0.55218  -0.00446   0.00000  -0.05948  -0.05430  -0.60648
    D5       -1.03198   0.00436   0.00000   0.05961   0.05222  -0.97976
    D6        1.55591  -0.00522   0.00000  -0.04847  -0.04611   1.50980
    D7       -1.89658  -0.00396   0.00000  -0.13195  -0.14200  -2.03859
    D8        1.73851   0.00620   0.00000   0.02132   0.03138   1.76989
         Item               Value     Threshold  Converged?
 Maximum Force            0.009565     0.000450     NO 
 RMS     Force            0.004243     0.000300     NO 
 Maximum Displacement     0.312534     0.001800     NO 
 RMS     Displacement     0.151744     0.001200     NO 
 Predicted change in Energy=-1.400817D+00
 Lowest energy point so far.  Saving SCF results.
 GradGradGradGradGradGradGradGradGradGradGradGradGradGradGradGradGradGrad

 Leave Link  103 at Sun Oct 13 23:51:51 2019, MaxMem= 10737418240 cpu:               0.4 elap:               0.0
 (Enter /apps/cent7/gaussian/g16-A.03/g16-haswell/g16/l202.exe)
                          Input orientation:                          
[...]
     17  0.630346D-02  0.453365D-03  0.638458D-03 -0.454934D-03  0.658271D-01
     18 -0.191400D-02 -0.178298D-03 -0.524847D-02  0.565279D-02 -0.194264D-01
     19  0.576440D-02 -0.319236D-03 -0.449228D-02  0.383331D-02  0.142532D-01
     20 -0.416007D-02  0.396229D-02 -0.441623D-03 -0.281822D-02 -0.166727D-01
     21  0.351832D-02  0.382136D-02  0.314574D-03 -0.463771D-02  0.170069D-01
     22 -0.559351D-02 -0.492204D-02  0.452718D-02  0.794673D-03 -0.140122D-01
     23  0.208489D-02 -0.506298D-02  0.528338D-02 -0.102481D-02  0.196674D-01
     24  0.120721D-01  0.570489D-03 -0.704553D-04 -0.526506D-03  0.875120D-03
     25 -0.178868D-01 -0.114429D-02 -0.862353D-03  0.956659D-03  0.690144D-03
                6             7             8             9            10 
      6  0.442817D+00
      7 -0.954892D-03  0.544239D+00
      8  0.482617D-02  0.297881D-03  0.125214D+00
      9  0.749477D-03  0.119957D-03 -0.206156D-01  0.117135D+00
     10 -0.381608D-02 -0.981404D-03 -0.288660D-01 -0.254283D-01  0.124303D+00
     11 -0.179176D-02 -0.152234D-03 -0.394704D-01 -0.390420D-01  0.911360D-02
     12 -0.271639D-03  0.361363D-03 -0.451306D-01  0.949157D-02 -0.419341D-01
     13  0.359565D-03  0.370088D-03  0.904945D-02 -0.421002D-01 -0.397344D-01
     14  0.453871D-02  0.342468D-02 -0.122534D-01  0.314494D-01 -0.185894D-01
     15  0.984922D-02 -0.154809D-02  0.149507D-01 -0.988508D-02 -0.948978D-03
     16 -0.223893D-02 -0.859120D-04 -0.172514D-02 -0.621242D-02  0.484586D-02
     17  0.378707D-02  0.731500D-03 -0.969953D-03  0.481055D-02 -0.130333D-02
     18 -0.218078D-02 -0.498973D-03 -0.554785D-03 -0.108560D-01  0.127233D-01
     19  0.203805D-02  0.328320D-03 -0.145145D-02 -0.748634D-02  0.890453D-02
     20 -0.126578D-02 -0.450842D-03  0.913627D-02 -0.304683D-02 -0.636651D-02
     21  0.295305D-02  0.376451D-03  0.823961D-02  0.322854D-03 -0.101853D-01
     22 -0.269701D-02 -0.520949D-03 -0.116818D-01  0.814437D-02  0.447645D-02
     23  0.152182D-02  0.306345D-03 -0.125785D-01  0.115141D-01  0.657680D-03
     24  0.746379D-02 -0.486331D-04  0.517938D-02 -0.138803D-02 -0.304204D-02
     25 -0.448604D-02  0.317833D-03 -0.580532D-02 -0.421540D-03  0.350155D-02
               11            12            13            14            15 
     11  0.541338D-01
     12  0.858796D-02  0.608157D-01
     13  0.834606D-02  0.858962D-02  0.568222D-01
     14 -0.460054D-02  0.808608D-02 -0.379000D-02  0.268782D+00
     15 -0.148137D-02 -0.500850D-02  0.242360D-02 -0.530333D-01  0.902924D-01
     16  0.200729D-02 -0.753252D-05  0.100335D-02 -0.769691D-01 -0.276460D-01
     17 -0.126893D-02  0.105773D-03 -0.137202D-02  0.169421D-01 -0.100714D-01
     18 -0.987971D-02  0.808392D-02 -0.511904D-03 -0.139826D-01  0.874777D-02
     19 -0.104765D-01  0.962875D-02 -0.470429D-04  0.200574D-02 -0.642769D-02
     20  0.112090D-01 -0.964983D-03 -0.919109D-02 -0.854602D-02  0.959939D-02
     21  0.106122D-01  0.579847D-03 -0.872623D-02  0.744237D-02 -0.557607D-02
     22  0.759476D-03 -0.100290D-01  0.834641D-02 -0.350779D-02  0.530090D-02
     23  0.162659D-03 -0.848419D-02  0.881127D-02  0.124806D-01 -0.987456D-02
     24 -0.587166D-03 -0.100562D-02  0.932719D-03  0.703085D-03  0.331948D-01
     25  0.206698D-02  0.129492D-02 -0.688611D-03 -0.155469D-01 -0.339412D-01
               16            17            18            19            20 
     16  0.662547D-01
     17  0.461163D-02  0.208621D+00
     18 -0.121236D-01 -0.554947D-02  0.215151D-01
     19  0.142385D-01  0.322293D-02  0.488472D-02  0.192657D-01
     20 -0.141478D-01 -0.489795D-02  0.338940D-02 -0.125554D-01  0.199967D-01
     21  0.122143D-01  0.387444D-02 -0.132409D-01  0.182563D-02  0.405186D-02
     22 -0.140883D-01 -0.415379D-02  0.332481D-02 -0.121350D-01  0.242100D-02
     23  0.122737D-01  0.461860D-02 -0.133055D-01  0.224599D-02 -0.135238D-01
     24 -0.124454D-01 -0.115330D-02 -0.117699D-02  0.352795D-03  0.168520D-03
     25  0.202392D-01  0.107416D-02  0.298426D-03  0.251451D-03 -0.638916D-03
               21            22            23            24            25 
     21  0.191184D-01
     22 -0.130388D-01  0.212289D-01
     23  0.202773D-02  0.576903D-02  0.213205D-01
     24  0.169830D-02 -0.151686D-02  0.129215D-04  0.187613D-01
     25 -0.685891D-03  0.406689D-03  0.359714D-03 -0.132341D-01  0.221786D-01
 Leave Link  716 at Sun Oct 13 23:52:25 2019, MaxMem= 10737418240 cpu:               0.9 elap:               0.1
 (Enter /apps/cent7/gaussian/g16-A.03/g16-haswell/g16/l103.exe)

 GradGradGradGradGradGradGradGradGradGradGradGradGradGradGradGradGradGrad
 Berny optimization.
 Red2BG is reusing G-inverse.
 Internal  Forces:  Max     0.000027261 RMS     0.000007241
 Search for a local minimum.
 Step number   1 out of a maximum of    2
 All quantities printed in internal units (Hartrees-Bohrs-Radians)
 Second derivative matrix not updated -- analytic derivatives used.
 ITU=  0
     Eigenvalues ---    0.00415   0.00662   0.05053   0.05994   0.06133
     Eigenvalues ---    0.12630   0.13324   0.15364   0.17797   0.18340
     Eigenvalues ---    0.28401   0.33186   0.34443   0.34691   0.36463
     Eigenvalues ---    0.42170   0.44623   0.54432
 Angle between quadratic step and forces=  73.90 degrees.
 Linear search not attempted -- first point.
 Iteration  1 RMS(Cart)=  0.00019317 RMS(Int)=  0.00000002
 Iteration  2 RMS(Cart)=  0.00000002 RMS(Int)=  0.00000000
 ITry= 1 IFail=0 DXMaxC= 3.83D-04 DCOld= 1.00D+10 DXMaxT= 3.00D-01 DXLimC= 3.00D+00 Rises=F
 Variable       Old X    -DE/DX   Delta X   Delta X   Delta X     New X
                                 (Linear)    (Quad)   (Total)
    R1        2.75306  -0.00000   0.00000   0.00001   0.00001   2.75307
    R2        2.05995  -0.00000   0.00000  -0.00001  -0.00001   2.05994
    R3        2.06315  -0.00000   0.00000  -0.00001  -0.00001   2.06314
    R4        2.07021  -0.00000   0.00000  -0.00001  -0.00001   2.07020
    R5        2.69152   0.00003   0.00000   0.00010   0.00010   2.69162
    R6        1.92109  -0.00001   0.00000  -0.00003  -0.00003   1.92107
    R7        1.81508   0.00001   0.00000   0.00001   0.00001   1.81509
    A1        1.90307  -0.00001   0.00000  -0.00003  -0.00003   1.90304
    A2        1.88133  -0.00001   0.00000  -0.00005  -0.00005   1.88128
    A3        1.96661   0.00000   0.00000  -0.00002  -0.00002   1.96659
    A4        1.89633   0.00001   0.00000   0.00004   0.00004   1.89637
    A5        1.90183   0.00000   0.00000   0.00002   0.00002   1.90185
    A6        1.91348   0.00000   0.00000   0.00004   0.00004   1.91352
    A7        1.87426   0.00001   0.00000   0.00002   0.00002   1.87428
    A8        1.89272  -0.00000   0.00000  -0.00001  -0.00001   1.89271
    A9        1.81101  -0.00000   0.00000  -0.00005  -0.00005   1.81096
   A10        1.81066  -0.00001   0.00000  -0.00007  -0.00007   1.81058
    D1        1.22855   0.00000   0.00000   0.00041   0.00041   1.22896
    D2       -3.10779   0.00000   0.00000   0.00035   0.00035  -3.10744
    D3       -2.99902   0.00000   0.00000   0.00041   0.00041  -2.99860
    D4       -1.05218   0.00000   0.00000   0.00036   0.00036  -1.05182
    D5       -0.88538   0.00000   0.00000   0.00042   0.00042  -0.88496
    D6        1.06145   0.00000   0.00000   0.00036   0.00036   1.06182
    D7       -2.18013   0.00000   0.00000   0.00013   0.00013  -2.18000
    D8        2.10097   0.00000   0.00000   0.00015   0.00015   2.10112
         Item               Value     Threshold  Converged?
 Maximum Force            0.000027     0.000450     YES
 RMS     Force            0.000007     0.000300     YES
 Maximum Displacement     0.000383     0.001800     YES
 RMS     Displacement     0.000193     0.001200     YES
 Predicted change in Energy=-4.944513D-09
 Optimization completed.
    -- Stationary point found.
                           ----------------------------
                           !   Optimized Parameters   !
                           ! (Angstroms and Degrees)  !
 --------------------------                            --------------------------
 ! Name  Definition              Value          Derivative Info.                !
 --------------------------------------------------------------------------------
 ! R1    R(1,2)                  1.4569         -DE/DX =    0.0                 !
 ! R2    R(1,4)                  1.0901         -DE/DX =    0.0                 !
 ! R3    R(1,5)                  1.0918         -DE/DX =    0.0                 !
 ! R4    R(1,6)                  1.0955         -DE/DX =    0.0                 !
 ! R5    R(2,3)                  1.4243         -DE/DX =    0.0                 !
 ! R6    R(2,7)                  1.0166         -DE/DX =    0.0                 !
 ! R7    R(3,8)                  0.9605         -DE/DX =    0.0                 !
 ! A1    A(2,1,4)              109.0377         -DE/DX =    0.0                 !
 ! A2    A(2,1,5)              107.7924         -DE/DX =    0.0                 !
 ! A3    A(2,1,6)              112.6787         -DE/DX =    0.0                 !
 ! A4    A(4,1,5)              108.6515         -DE/DX =    0.0                 !
 ! A5    A(4,1,6)              108.9666         -DE/DX =    0.0                 !
 ! A6    A(5,1,6)              109.6342         -DE/DX =    0.0                 !
 ! A7    A(1,2,3)              107.3872         -DE/DX =    0.0                 !
 ! A8    A(1,2,7)              108.4448         -DE/DX =    0.0                 !
 ! A9    A(3,2,7)              103.7633         -DE/DX =    0.0                 !
 ! A10   A(2,3,8)              103.7429         -DE/DX =    0.0                 !
 ! D1    D(4,1,2,3)             70.3909         -DE/DX =    0.0                 !
 ! D2    D(4,1,2,7)           -178.0635         -DE/DX =    0.0                 !
 ! D3    D(5,1,2,3)           -171.831          -DE/DX =    0.0                 !
 ! D4    D(5,1,2,7)            -60.2855         -DE/DX =    0.0                 !
 ! D5    D(6,1,2,3)            -50.7287         -DE/DX =    0.0                 !
 ! D6    D(6,1,2,7)             60.8169         -DE/DX =    0.0                 !
 ! D7    D(1,2,3,8)           -124.9121         -DE/DX =    0.0                 !
 ! D8    D(7,2,3,8)            120.3769         -DE/DX =    0.0                 !
 --------------------------------------------------------------------------------
 GradGradGradGradGradGradGradGradGradGradGradGradGradGradGradGradGradGrad

 Leave Link  103 at Sun Oct 13 23:52:25 2019, MaxMem= 10737418240 cpu:               0.4 elap:               0.0
 (Enter /apps/cent7/gaussian/g16-A.03/g16-haswell/g16/l9999.exe)

 ----------------------------------------------------------------------

 Electric dipole moment (input orientation):
 (Debye = 10**-18 statcoulomb cm , SI units = C m)
                  (au)            (Debye)         (10**-30 SI)
   Tot        0.305063D+00      0.775394D+00      0.258643D+01
   x          0.896556D-01      0.227882D+00      0.760132D+00
   y         -0.231404D+00     -0.588169D+00     -0.196192D+01
   z         -0.177420D+00     -0.450957D+00     -0.150423D+01

 Dipole polarizability, Alpha (input orientation).
 (esu units = cm**3 , SI units = C**2 m**2 J**-1)
 Alpha(0;0):
               (au)            (10**-24 esu)      (10**-40 SI)
   iso        0.276194D+02      0.409277D+01      0.455382D+01
   aniso      0.661161D+01      0.979739D+00      0.109011D+01
   xx         0.268016D+02      0.397158D+01      0.441898D+01
   yx         0.518997D-01      0.769074D-02      0.855710D-02
   yy         0.261304D+02      0.387212D+01      0.430832D+01
   zx        -0.265257D+01     -0.393070D+00     -0.437350D+00
   zy         0.185170D+01      0.274393D+00      0.305304D+00
   zz         0.299261D+02      0.443460D+01      0.493415D+01

 ----------------------------------------------------------------------

 Dipole orientation:
     6          2.33298147         -0.91444770          1.21211274
     7          0.70902697          1.11085248          0.29545834
     8          0.85338043          1.10348205         -2.39217859
     1          4.30054095         -0.39465148          0.89290061
     1          2.02126268         -1.10222194          3.24291549
     1          1.95539713         -2.72403995          0.28013345
     1         -1.11716156          0.63613191          0.65638531
     1          1.35015607          2.80047574         -2.80197341

 Electric dipole moment (dipole orientation):
 (Debye = 10**-18 statcoulomb cm , SI units = C m)
                  (au)            (Debye)         (10**-30 SI)
   Tot        0.305063D+00      0.775394D+00      0.258643D+01
   x          0.000000D+00      0.000000D+00      0.000000D+00
   y          0.000000D+00      0.000000D+00      0.000000D+00
   z          0.305063D+00      0.775394D+00      0.258643D+01

 Dipole polarizability, Alpha (dipole orientation).
 (esu units = cm**3 , SI units = C**2 m**2 J**-1)
 Alpha(0;0):
               (au)            (10**-24 esu)      (10**-40 SI)
   iso        0.276194D+02      0.409277D+01      0.455382D+01
   aniso      0.661161D+01      0.979739D+00      0.109011D+01
   xx         0.257514D+02      0.381596D+01      0.424583D+01
   yx        -0.121606D+01     -0.180201D+00     -0.200501D+00
   yy         0.271171D+02      0.401834D+01      0.447100D+01
   zx         0.167381D+00      0.248034D-01      0.275975D-01
   zy        -0.289557D+01     -0.429080D+00     -0.477416D+00
   zz         0.299896D+02      0.444401D+01      0.494462D+01

 ----------------------------------------------------------------------
 1\1\GINC-BROWN-A482\Freq\RM062X\6-311++G(d,p)\C1H5N1O1\FINEJ\13-Oct-20
 19\0\\#P Geom=AllCheck Guess=TCheck SCRF=Check GenChk RM062X/6-311++G(
 d,p) Freq\\Title Card Required\\0,1\C,1.4238563321,-0.0046726326,-0.37
 72770148\N,0.3178030773,-0.4396923972,0.465237673\O,-0.0274135698,0.65
 23827515,1.3118802265\H,2.3197681704,0.095223965,0.2356084673\H,1.5977
 480891,-0.7798784409,-1.1261318257\H,1.2249929748,0.9504815419,-0.8755
 483737\H,-0.5042585895,-0.5609639223,-0.120406396\H,0.0308035156,0.282
 6191346,2.1964372435\\Version=ES64L-G16RevA.03\State=1-A\HF=-171.00285
 12\RMSD=1.319e-09\RMSF=1.054e-05\ZeroPoint=0.0695849\Thermal=0.0695849
 \Dipole=0.0896556,-0.2314035,-0.1774202\DipoleDeriv=0.3031328,0.0628,-
 0.0930782,0.0015192,0.2448549,-0.0620993,-0.0287769,-0.1114587,0.20392
 53,-0.1462498,-0.1410714,-0.0283484,-0.1353879,-0.218651,0.3228026,-0.
 0241881,0.3175209,-0.0081716,-0.5375711,0.0086302,0.1581656,0.0582905,
 -0.4067799,-0.3259571,0.1380449,-0.153596,-0.514345,-0.069217,-0.01892
 19,-0.0365019,-0.0273029,0.0682336,0.0233202,-0.1046609,-0.0075042,-0.
 0065647,0.0520426,-0.0050527,0.0267564,0.0073194,-0.025104,-0.0983168,
 0.054438,-0.075383,-0.021587,-0.0058656,0.0510944,0.0100255,-0.0264048
 ,-0.1054058,0.1413903,0.0309314,0.0895477,-0.0093822,0.0726036,0.00610
 72,-0.0270758,0.0797955,0.2251589,-0.0413665,-0.0518454,-0.0786487,0.0
 76561,0.3311246,0.0364143,-0.0099433,0.0421708,0.2176933,0.0402266,-0.
 0139431,0.019522,0.2795642\Polar=26.8015727,0.0518997,26.1303784,-2.65
 25694,1.8516967,29.9261311\Quadrupole=0.0785678,-2.7482036,2.6696359,0
 .8626616,0.073835,0.2775463\PG=C01 [X(C1H5N1O1)]\NImag=0\\0.54843172,-
 0.01297054,0.58930178,0.04991166,0.03640276,0.56116462,-0.17426100,-0.
 08216363,0.07120818,0.58650691,-0.03341130,-0.09878114,0.01343383,0.06
 998378,0.30334007,0.04494918,0.04210582,-0.12538076,0.06181829,0.08990
 719,0.46792491,-0.00501917,0.03376339,0.02193146,-0.06904145,0.0311928
 5,0.02330904,0.06651872,-0.00003564,0.00106710,0.00167989,0.02653268,-
 0.17426603,-0.09037204,-0.06528632,0.31209329,0.01178917,-0.03687320,-
 0.02866595,0.02202051,-0.08033016,-0.13896175,-0.01073983,-0.07523149,
 0.63977951,-0.22299313,-0.01622265,-0.12650295,-0.02878154,-0.00951850
 ,-0.01184813,0.00266779,0.00137576,-0.00014112,0.25067877,-0.01621578,
 -0.05157802,-0.01018836,-0.01185151,-0.00242471,-0.00889278,0.00066139
 ,-0.00006455,0.00110688,0.02478358,0.05141916,-0.13502274,-0.01462135,
 -0.14370796,0.02303089,0.00412184,0.01284331,-0.00119602,0.00033150,0.
 00198290,0.13562725,0.01113841,0.14974879,-0.05556959,0.02368845,0.024
 48334,-0.00291365,0.02034639,0.01847838,-0.00373350,-0.00075160,0.0066
 2569,0.00654878,-0.01919267,-0.01727448,0.05838259,0.02898370,-0.18972
 985,-0.13431499,-0.00011871,0.00655363,0.00742667,-0.00202042,0.001964
 46,0.00243332,0.00018099,-0.00161517,0.00000233,-0.03063395,0.19902249
 ,0.02964484,-0.12792899,-0.17229156,0.00019082,-0.01481036,-0.01452564
 ,0.00440131,0.00156269,-0.00310369,0.00356944,-0.01199671,-0.01143274,
 -0.03591844,0.14424528,0.18869603,-0.06424713,0.05144584,-0.02685467,-
 0.00082100,-0.03070253,0.02185086,0.00177283,0.00024472,-0.00420952,-0
 .00430614,0.02332892,-0.01040117,-0.00148924,0.00308133,-0.00273734,0.
 06700864,0.04831809,-0.24383157,0.09771786,-0.00526437,-0.01063619,0.0
 0799063,-0.00056371,0.00383380,-0.00015792,-0.00011604,0.00324727,-0.0
 0211169,0.00483814,-0.01698491,0.01011550,-0.04700998,0.26436001,-0.02
 684212,0.09520944,-0.10000916,0.00765078,0.02148114,-0.01394068,-0.002
 29594,0.00037710,0.00244928,-0.00449944,0.01687828,-0.00756909,0.00426
 273,-0.01930426,0.01199185,0.02252892,-0.11292076,0.10617783,-0.026034
 32,0.00023973,-0.01919382,-0.30803516,-0.04322015,-0.17143976,0.013347
 80,0.00969026,0.01443296,-0.00322745,-0.00162987,0.00512766,0.00004421
 ,0.00046491,0.00030100,0.00215399,-0.00035946,-0.00052583,0.32112537,-
 0.01490560,-0.00295933,-0.00181520,0.00326111,-0.02851375,-0.00401804,
 -0.02221639,-0.01590412,-0.03472974,-0.00045734,0.00066109,0.00069769,
 0.00070044,0.00029425,-0.00055350,-0.00041805,0.00008450,-0.00149925,0
 .03381723,0.04973032,0.02445832,0.00834439,0.01199769,-0.18427479,-0.0
 4027305,-0.16987279,-0.01001724,-0.00728761,-0.02535571,0.00397985,0.0
 0191467,-0.00172084,-0.00128919,-0.00072045,0.00064111,0.00042818,-0.0
 0006312,0.00051601,0.16940815,0.04344191,0.18611666,-0.00030738,0.0022
 1940,0.00501679,-0.00265311,-0.00467054,0.01288215,-0.00651301,0.02823
 014,-0.03977787,-0.00058707,0.00011596,0.00010862,-0.00126960,0.000062
 14,0.00054836,-0.00007196,0.00015734,-0.00027910,0.00062556,0.00021859
 ,-0.00269328,0.01077656,0.00023706,-0.00348896,-0.00291578,-0.00037936
 ,0.00472812,-0.04414746,0.02446921,-0.12872393,0.22378231,-0.00002580,
 0.00035494,0.00044129,0.00100481,0.00049511,-0.00063391,0.00002975,-0.
 00007291,-0.00022169,0.00099735,-0.00339295,-0.00535674,-0.02633304,0.
 13010058,0.00111169,-0.00263887,-0.00310691,-0.00164467,0.00646958,-0.
 01808661,-0.02539278,0.16893997,-0.44812459,-0.00018490,0.00003962,-0.
 00014437,0.00063197,0.00023210,0.00002464,-0.00060526,-0.00057050,0.00
 038396,0.00188964,-0.00152387,-0.00232212,0.02419431,-0.17094802,0.471
 37599\\-0.00000801,-0.00000043,0.00001430,-0.00000745,0.00002493,0.000
 01460,0.00001492,-0.00002982,-0.00000855,0.00000556,0.00000033,-0.0000
 0222,0.00000620,-0.00000061,-0.00000387,0.00000175,-0.00000098,-0.0000
 0313,-0.00000935,-0.00000021,-0.00000801,-0.00000363,0.00000679,-0.000
 00311\\\@


 ALL OUR THINKING ABOUT NATURE MUST NECESSARILY MOVE IN CIRCLES OR SPIRALS;
 FOR WE CAN ONLY UNDERSTAND NATURE IF WE THINK ABOUT HER, AND WE CAN ONLY
 THINK BECAUSE OUR BRAIN IS BUILT IN ACCORDANCE WITH NATURE'S LAWS.

                                             -- TIMOTHY FERRIS, "GALAXIES"
 Job cpu time:       0 days  0 hours  3 minutes 30.9 seconds.
 Elapsed time:       0 days  0 hours  0 minutes  9.3 seconds.
 File lengths (MBytes):  RWF=     12 Int=      0 D2E=      0 Chk=      2 Scr=      1
 Normal termination of Gaussian 16 at Sun Oct 13 23:52:25 2019.
real 42.76
user 836.80
sys 14.28
Machine:
brown-a482
brown-a482
brown-a482
brown-a482
brown-a482
brown-a482
brown-a482
brown-a482
brown-a482
brown-a482
brown-a482
brown-a482
brown-a482
brown-a482
brown-a482
brown-a482
brown-a482
brown-a482
brown-a482
brown-a482
brown-a482
brown-a482
brown-a482
brown-a482
