 Entering Gaussian System, Link 0=/apps/cent7/gaussian/g16-A.03/g16-haswell/g16/g16
 Initial command:
 /apps/cent7/gaussian/g16-A.03/g16-haswell/g16/l1.exe "/scratch/brown/finej/gaussian/Gau-197756.inp" -scrdir="/scratch/brown/finej/gaussian/"
 Entering Link 1 = /apps/cent7/gaussian/g16-A.03/g16-haswell/g16/l1.exe PID=    197757.
  
 Copyright (c) 1988,1990,1992,1993,1995,1998,2003,2009,2016,
            Gaussian, Inc.  All Rights Reserved.
  
 This is part of the Gaussian(R) 16 program.  It is based on
 the Gaussian(R) 09 system (copyright 2009, Gaussian, Inc.),
 the Gaussian(R) 03 system (copyright 2003, Gaussian, Inc.),
 the Gaussian(R) 98 system (copyright 1998, Gaussian, Inc.),
 the Gaussian(R) 94 system (copyright 1995, Gaussian, Inc.),
 the Gaussian 92(TM) system (copyright 1992, Gaussian, Inc.),
 the Gaussian 90(TM) system (copyright 1990, Gaussian, Inc.),
 the Gaussian 88(TM) system (copyright 1988, Gaussian, Inc.),
 the Gaussian 86(TM) system (copyright 1986, Carnegie Mellon
 University), and the Gaussian 82(TM) system (copyright 1983,
 Carnegie Mellon University). Gaussian is a federally registered
 trademark of Gaussian, Inc.
  
 This software contains proprietary and confidential information,
 including trade secrets, belonging to Gaussian, Inc.
  
 This software is provided under written license and may be
 used, copied, transmitted, or stored only in accord with that
 written license.
  
 The following legend is applicable only to US Government
 contracts under FAR:
  
                    RESTRICTED RIGHTS LEGEND
  
 Use, reproduction and disclosure by the US Government is
 subject to restrictions as set forth in subparagraphs (a)
 and (c) of the Commercial Computer Software - Restricted
 Rights clause in FAR 52.227-19.
  
 Gaussian, Inc.
 340 Quinnipiac St., Bldg. 40, Wallingford CT 06492
  
  
 ---------------------------------------------------------------
 Warning -- This program may not be used in any manner that
 competes with the business of Gaussian, Inc. or will provide
 assistance to any competitor of Gaussian, Inc.  The licensee
 of this program is prohibited from giving any competitor of
 Gaussian, Inc. access to this program.  By using this program,
 the user acknowledges that Gaussian, Inc. is engaged in the
 business of creating and licensing software in the field of
 computational chemistry and represents and warrants to the
 licensee that it is not a competitor of Gaussian, Inc. and that
 it will not use this program in any manner prohibited above.
 ---------------------------------------------------------------
  

 Cite this work as:
 Gaussian 16, Revision A.03,
 M. J. Frisch, G. W. Trucks, H. B. Schlegel, G. E. Scuseria, 
 M. A. Robb, J. R. Cheeseman, G. Scalmani, V. Barone, 
 G. A. Petersson, H. Nakatsuji, X. Li, M. Caricato, A. V. Marenich, 
 J. Bloino, B. G. Janesko, R. Gomperts, B. Mennucci, H. P. Hratchian, 
 J. V. Ortiz, A. F. Izmaylov, J. L. Sonnenberg, D. Williams-Young, 
 F. Ding, F. Lipparini, F. Egidi, J. Goings, B. Peng, A. Petrone, 
 T. Henderson, D. Ranasinghe, V. G. Zakrzewski, J. Gao, N. Rega, 
 G. Zheng, W. Liang, M. Hada, M. Ehara, K. Toyota, R. Fukuda, 
 J. Hasegawa, M. Ishida, T. Nakajima, Y. Honda, O. Kitao, H. Nakai, 
 T. Vreven, K. Throssell, J. A. Montgomery, Jr., J. E. Peralta, 
 F. Ogliaro, M. J. Bearpark, J. J. Heyd, E. N. Brothers, K. N. Kudin, 
 V. N. Staroverov, T. A. Keith, R. Kobayashi, J. Normand, 
 K. Raghavachari, A. P. Rendell, J. C. Burant, S. S. Iyengar, 
 J. Tomasi, M. Cossi, J. M. Millam, M. Klene, C. Adamo, R. Cammi, 
 J. W. Ochterski, R. L. Martin, K. Morokuma, O. Farkas, 
 J. B. Foresman, and D. J. Fox, Gaussian, Inc., Wallingford CT, 2016.
 
 ******************************************
 Gaussian 16:  ES64L-G16RevA.03 25-Dec-2016
                13-Oct-2019 
 ******************************************
 %chk=8_p.chk
 %nprocshared=24
 Will use up to   24 processors via shared memory.
 %mem=80GB
 -------------------------------------------------------------------
 #P opt freq m062x/6-311++g(d,p) geom=connectivity temperature=0.001
 -------------------------------------------------------------------
 1/18=20,19=15,26=3,38=1,57=2,112=-1000/1,3;
 2/9=110,12=2,17=6,18=5,40=1/2;
 3/5=4,6=6,7=1111,11=2,25=1,30=1,71=1,74=-55/1,2,3;
 4//1;
 5/5=2,38=5/2;
 6/7=2,8=2,9=2,10=2,28=1/1;
 7//1,2,3,16;
 1/18=20,19=15,26=3/3(2);
 2/9=110/2;
 99//99;
 2/9=110/2;
 3/5=4,6=6,7=1111,11=2,25=1,30=1,71=1,74=-55/1,2,3;
 4/5=5,16=3,69=1/1;
 5/5=2,38=5/2;
 7//1,2,3,16;
 1/18=20,19=15,26=3/3(-5);
 2/9=110/2;
 6/7=2,8=2,9=2,10=2,19=2,28=1/1;
 99/9=1/99;
 Leave Link    1 at Sun Oct 13 23:51:49 2019, MaxMem= 10737418240 cpu:               0.8 elap:               0.0
 (Enter /apps/cent7/gaussian/g16-A.03/g16-haswell/g16/l101.exe)
 -------------------
 Title Card Required
 -------------------
 Symbolic Z-matrix:
 Charge =  1 Multiplicity = 1
 C                     1.4322    0.0528   -0.406 
 N                     0.1469   -0.1452    0.2773 
 O                     0.1017    0.643     1.379 
 H                     2.2225    0.1745    0.3348 
 H                     1.6494   -0.8143   -1.0298 
 H                     1.3784    0.945    -1.0298 
 H                    -0.6009    0.09973  -0.33979 
 H                     0.0695    0.0927    2.165 
 H                     0.05649  -1.10359   0.54808 
 
 ITRead=  0  0  0  0  0  0  0  0  0
 MicOpt= -1 -1 -1 -1 -1 -1 -1 -1 -1
 NAtoms=      9 NQM=        9 NQMF=       0 NMMI=      0 NMMIF=      0
                NMic=       0 NMicF=      0.
                    Isotopes and Nuclear Properties:
 (Nuclear quadrupole moments (NQMom) in fm**2, nuclear magnetic moments (NMagM)
  in nuclear magnetons)

  Atom         1           2           3           4           5           6           7           8           9
 IAtWgt=          12          14          16           1           1           1           1           1           1
 AtmWgt=  12.0000000  14.0030740  15.9949146   1.0078250   1.0078250   1.0078250   1.0078250   1.0078250   1.0078250
 NucSpn=           0           2           0           1           1           1           1           1           1
 AtZEff=  -0.0000000  -0.0000000  -0.0000000  -0.0000000  -0.0000000  -0.0000000  -0.0000000  -0.0000000  -0.0000000
 NQMom=    0.0000000   2.0440000   0.0000000   0.0000000   0.0000000   0.0000000   0.0000000   0.0000000   0.0000000
 NMagM=    0.0000000   0.4037610   0.0000000   2.7928460   2.7928460   2.7928460   2.7928460   2.7928460   2.7928460
 AtZNuc=   6.0000000   7.0000000   8.0000000   1.0000000   1.0000000   1.0000000   1.0000000   1.0000000   1.0000000
 Leave Link  101 at Sun Oct 13 23:51:50 2019, MaxMem= 10737418240 cpu:               8.6 elap:               0.4
 (Enter /apps/cent7/gaussian/g16-A.03/g16-haswell/g16/l103.exe)

 GradGradGradGradGradGradGradGradGradGradGradGradGradGradGradGradGradGrad
 Berny optimization.
 Initialization pass.
                           ----------------------------
                           !    Initial Parameters    !
                           ! (Angstroms and Degrees)  !
 --------------------------                            --------------------------
 ! Name  Definition              Value          Derivative Info.                !
 --------------------------------------------------------------------------------
 ! R1    R(1,2)                  1.469          estimate D2E/DX2                !
 ! R2    R(1,4)                  1.09           estimate D2E/DX2                !
 ! R3    R(1,5)                  1.09           estimate D2E/DX2                !
 ! R4    R(1,6)                  1.09           estimate D2E/DX2                !
 ! R5    R(2,3)                  1.3554         estimate D2E/DX2                !
 ! R6    R(2,7)                  1.0            estimate D2E/DX2                !
 ! R7    R(2,9)                  1.0            estimate D2E/DX2                !
 ! R8    R(3,8)                  0.96           estimate D2E/DX2                !
 ! A1    A(2,1,4)              109.4678         estimate D2E/DX2                !
 ! A2    A(2,1,5)              109.4695         estimate D2E/DX2                !
 ! A3    A(2,1,6)              109.4715         estimate D2E/DX2                !
 ! A4    A(4,1,5)              109.4675         estimate D2E/DX2                !
 ! A5    A(4,1,6)              109.4719         estimate D2E/DX2                !
 ! A6    A(5,1,6)              109.479          estimate D2E/DX2                !
 ! A7    A(1,2,3)              109.2004         estimate D2E/DX2                !
 ! A8    A(1,2,7)              109.5253         estimate D2E/DX2                !
 ! A9    A(1,2,9)              109.5253         estimate D2E/DX2                !
 ! A10   A(3,2,7)              109.5253         estimate D2E/DX2                !
 ! A11   A(3,2,9)              109.5253         estimate D2E/DX2                !
 ! A12   A(7,2,9)              109.5255         estimate D2E/DX2                !
 ! A13   A(2,3,8)              109.467          estimate D2E/DX2                !
 ! D1    D(4,1,2,3)             37.8809         estimate D2E/DX2                !
 ! D2    D(4,1,2,7)            157.8144         estimate D2E/DX2                !
 ! D3    D(4,1,2,9)            -82.0527         estimate D2E/DX2                !
 ! D4    D(5,1,2,3)            157.8733         estimate D2E/DX2                !
 ! D5    D(5,1,2,7)            -82.1932         estimate D2E/DX2                !
 ! D6    D(5,1,2,9)             37.9397         estimate D2E/DX2                !
 ! D7    D(6,1,2,3)            -82.1181         estimate D2E/DX2                !
 ! D8    D(6,1,2,7)             37.8155         estimate D2E/DX2                !
 ! D9    D(6,1,2,9)            157.9483         estimate D2E/DX2                !
 ! D10   D(1,2,3,8)           -115.108          estimate D2E/DX2                !
 ! D11   D(7,2,3,8)            124.9584         estimate D2E/DX2                !
 ! D12   D(9,2,3,8)              4.8255         estimate D2E/DX2                !
 --------------------------------------------------------------------------------
 Trust Radius=3.00D-01 FncErr=1.00D-07 GrdErr=1.00D-06 EigMax=2.50D+02 EigMin=1.00D-04
 Number of steps in this run=     43 maximum allowed number of steps=    100.
 GradGradGradGradGradGradGradGradGradGradGradGradGradGradGradGradGradGrad

 Leave Link  103 at Sun Oct 13 23:51:50 2019, MaxMem= 10737418240 cpu:               0.2 elap:               0.0
 (Enter /apps/cent7/gaussian/g16-A.03/g16-haswell/g16/l202.exe)
                          Input orientation:                          
 ---------------------------------------------------------------------
 Center     Atomic      Atomic             Coordinates (Angstroms)
 Number     Number       Type             X           Y           Z
 ---------------------------------------------------------------------
      1          6           0        1.432200    0.052800   -0.406000
      2          7           0        0.146900   -0.145200    0.277300
      3          8           0        0.101700    0.643000    1.379000
      4          1           0        2.222500    0.174500    0.334800
      5          1           0        1.649400   -0.814300   -1.029800
      6          1           0        1.378400    0.945000   -1.029800
      7          1           0       -0.600899    0.099732   -0.339794
      8          1           0        0.069500    0.092700    2.165000
      9          1           0        0.056489   -1.103587    0.548078
 ---------------------------------------------------------------------
                    Distance matrix (angstroms):
                    1          2          3          4          5
     1  C    0.000000
     2  N    1.469047   0.000000
     3  O    2.303213   1.355376   0.000000
     4  H    1.090032   2.100864   2.409904   0.000000
     5  H    1.090030   2.100883   3.212696   1.779973   0.000000
     6  H    1.089973   2.100866   2.742897   1.779974   1.780050
     7  H    2.034718   1.000000   1.934694   2.903833   2.524957
     8  H    2.910083   1.904205   0.960033   2.826965   3.677700
     9  H    2.034718   1.000000   1.934694   2.524004   2.260697
                    6          7          8          9
     6  H    0.000000
     7  H    2.260135   0.000000
     8  H    3.556175   2.592967   0.000000
     9  H    2.904110   1.633540   2.011394   0.000000
 Stoichiometry    CH6NO(1+)
 Framework group  C1[X(CH6NO)]
 Deg. of freedom    21
 Full point group                 C1      NOp   1
 Largest Abelian subgroup         C1      NOp   1
 Largest concise Abelian subgroup C1      NOp   1
                         Standard orientation:                         
 ---------------------------------------------------------------------
 Center     Atomic      Atomic             Coordinates (Angstroms)
 Number     Number       Type             X           Y           Z
 ---------------------------------------------------------------------
      1          6           0        1.172119   -0.247997   -0.019463
      2          7           0       -0.081252    0.517804    0.007172
      3          8           0       -1.125652   -0.340013    0.109269
      4          1           0        1.027304   -1.161862   -0.595700
      5          1           0        1.955228    0.352839   -0.481957
      6          1           0        1.463688   -0.503209    0.999309
      7          1           0       -0.078513    1.136093    0.793118
      8          1           0       -1.660156   -0.289494   -0.686606
      9          1           0       -0.166285    1.049092   -0.835740
 ---------------------------------------------------------------------
 Rotational constants (GHZ):          35.8154586          10.0639985           8.8345643
 Leave Link  202 at Sun Oct 13 23:51:50 2019, MaxMem= 10737418240 cpu:               0.5 elap:               0.0
 (Enter /apps/cent7/gaussian/g16-A.03/g16-haswell/g16/l301.exe)
 Standard basis: 6-311++G(d,p) (5D, 7F)
 Ernie: Thresh=  0.10000D-02 Tol=  0.10000D-05 Strict=F.
 There are   111 symmetry adapted cartesian basis functions of A   symmetry.
 There are   108 symmetry adapted basis functions of A   symmetry.
   108 basis functions,   162 primitive gaussians,   111 cartesian basis functions
    13 alpha electrons       13 beta electrons
       nuclear repulsion energy        92.4338890138 Hartrees.
 IExCor= 4336 DFT=T Ex+Corr=M062X ExCW=0 ScaHFX=  0.540000
 ScaDFX=  1.000000  1.000000  1.000000  1.000000 ScalE2=  1.000000  1.000000
 IRadAn=      5 IRanWt=     -1 IRanGd=            0 ICorTp=0 IEmpDi=  4
 NAtoms=    9 NActive=    9 NUniq=    9 SFac= 1.00D+00 NAtFMM=   60 NAOKFM=F Big=F
 Integral buffers will be    131072 words long.
 Raffenetti 2 integral format.
 Two-electron integral symmetry is turned on.
 Leave Link  301 at Sun Oct 13 23:51:50 2019, MaxMem= 10737418240 cpu:               1.4 elap:               0.1
 (Enter /apps/cent7/gaussian/g16-A.03/g16-haswell/g16/l302.exe)
 NPDir=0 NMtPBC=     1 NCelOv=     1 NCel=       1 NClECP=     1 NCelD=      1
         NCelK=      1 NCelE2=     1 NClLst=     1 CellRange=     0.0.
 One-electron integrals computed using PRISM.
 One-electron integral symmetry used in STVInt
 NBasis=   108 RedAO= T EigKep=  2.59D-04  NBF=   108
 NBsUse=   108 1.00D-06 EigRej= -1.00D+00 NBFU=   108
 Precomputing XC quadrature grid using
 IXCGrd= 4 IRadAn=           5 IRanWt=          -1 IRanGd=           0 AccXCQ= 0.00D+00.
 Generated NRdTot=       0 NPtTot=           0 NUsed=           0 NTot=          32
 NSgBfM=   111   111   111   111   111 MxSgAt=     9 MxSgA2=     9.
 Leave Link  302 at Sun Oct 13 23:51:50 2019, MaxMem= 10737418240 cpu:               3.1 elap:               0.2
 (Enter /apps/cent7/gaussian/g16-A.03/g16-haswell/g16/l303.exe)
 DipDrv:  MaxL=1.
 Leave Link  303 at Sun Oct 13 23:51:50 2019, MaxMem= 10737418240 cpu:               0.8 elap:               0.1
 (Enter /apps/cent7/gaussian/g16-A.03/g16-haswell/g16/l401.exe)
 ExpMin= 3.60D-02 ExpMax= 8.59D+03 ExpMxC= 1.30D+03 IAcc=3 IRadAn=         5 AccDes= 0.00D+00
 Harris functional with IExCor= 1009 and IRadAn=       5 diagonalized for initial guess.
 HarFok:  IExCor= 1009 AccDes= 0.00D+00 IRadAn=         5 IDoV= 1 UseB2=F ITyADJ=14
 ICtDFT=  3500011 ScaDFX=  1.000000  1.000000  1.000000  1.000000
 FoFCou: FMM=F IPFlag=           0 FMFlag=      100000 FMFlg1=           0
         NFxFlg=           0 DoJE=T BraDBF=F KetDBF=T FulRan=T
         wScrn=  0.000000 ICntrl=       500 IOpCl=  0 I1Cent=   200000004 NGrid=           0
         NMat0=    1 NMatS0=      1 NMatT0=    0 NMatD0=    1 NMtDS0=    0 NMtDT0=    0
 Petite list used in FoFCou.
 Harris En= -171.332676691729    
 JPrj=0 DoOrth=F DoCkMO=F.
 Leave Link  401 at Sun Oct 13 23:51:50 2019, MaxMem= 10737418240 cpu:               4.7 elap:               0.2
 (Enter /apps/cent7/gaussian/g16-A.03/g16-haswell/g16/l502.exe)
 Keep R1 ints in memory in canonical form, NReq=39756064.
 FoFCou: FMM=F IPFlag=           0 FMFlag=           0 FMFlg1=           0
         NFxFlg=           0 DoJE=F BraDBF=F KetDBF=F FulRan=T
         wScrn=  0.000000 ICntrl=       600 IOpCl=  0 I1Cent=           0 NGrid=           0
         NMat0=    1 NMatS0=   5886 NMatT0=    0 NMatD0=    1 NMtDS0=    0 NMtDT0=    0
 Symmetry not used in FoFCou.
 Two-electron integral symmetry not used.
 Closed shell SCF:
 Using DIIS extrapolation, IDIIS=  1040.
 NGot= 10737418240 LenX= 10720064220 LenY= 10720051458
 Requested convergence on RMS density matrix=1.00D-08 within 128 cycles.
 Requested convergence on MAX density matrix=1.00D-06.
 Requested convergence on             energy=1.00D-06.
 No special actions if energy rises.

 Cycle   1  Pass 1  IDiag  1:
 E= -171.254751900468    
 DIIS: error= 2.47D-02 at cycle   1 NSaved=   1.
 NSaved= 1 IEnMin= 1 EnMin= -171.254751900468     IErMin= 1 ErrMin= 2.47D-02
 ErrMax= 2.47D-02  0.00D+00 EMaxC= 1.00D-01 BMatC= 1.18D-01 BMatP= 1.18D-01
 IDIUse=3 WtCom= 7.53D-01 WtEn= 2.47D-01
 Coeff-Com:  0.100D+01
 Coeff-En:   0.100D+01
 Coeff:      0.100D+01
 Gap=     0.393 Goal=   None    Shift=    0.000
 GapD=    0.393 DampG=1.000 DampE=0.500 DampFc=0.5000 IDamp=-1.
 Damping current iteration by 5.00D-01
 RMSDP=4.85D-03 MaxDP=8.81D-02              OVMax= 1.17D-01

 Cycle   2  Pass 1  IDiag  1:
 E= -171.292593885471     Delta-E=       -0.037841985003 Rises=F Damp=T
 DIIS: error= 7.06D-03 at cycle   2 NSaved=   2.
 NSaved= 2 IEnMin= 2 EnMin= -171.292593885471     IErMin= 2 ErrMin= 7.06D-03
 ErrMax= 7.06D-03  0.00D+00 EMaxC= 1.00D-01 BMatC= 1.18D-02 BMatP= 1.18D-01
 IDIUse=3 WtCom= 9.29D-01 WtEn= 7.06D-02
 Coeff-Com: -0.137D+00 0.114D+01
 Coeff-En:   0.000D+00 0.100D+01
 Coeff:     -0.127D+00 0.113D+01
 Gap=     0.459 Goal=   None    Shift=    0.000
 RMSDP=1.02D-03 MaxDP=2.50D-02 DE=-3.78D-02 OVMax= 5.44D-02

 Cycle   3  Pass 1  IDiag  1:
 E= -171.327189128449     Delta-E=       -0.034595242978 Rises=F Damp=F
 DIIS: error= 5.74D-03 at cycle   3 NSaved=   3.
 NSaved= 3 IEnMin= 3 EnMin= -171.327189128449     IErMin= 3 ErrMin= 5.74D-03
 ErrMax= 5.74D-03  0.00D+00 EMaxC= 1.00D-01 BMatC= 3.07D-03 BMatP= 1.18D-02
 IDIUse=3 WtCom= 9.43D-01 WtEn= 5.74D-02
 Coeff-Com: -0.124D+00 0.395D+00 0.729D+00
 Coeff-En:   0.000D+00 0.000D+00 0.100D+01
 Coeff:     -0.116D+00 0.372D+00 0.744D+00
 Gap=     0.444 Goal=   None    Shift=    0.000
 RMSDP=3.35D-04 MaxDP=9.04D-03 DE=-3.46D-02 OVMax= 1.22D-02

 Cycle   4  Pass 1  IDiag  1:
 E= -171.328935263574     Delta-E=       -0.001746135125 Rises=F Damp=F
 DIIS: error= 1.61D-03 at cycle   4 NSaved=   4.
 NSaved= 4 IEnMin= 4 EnMin= -171.328935263574     IErMin= 4 ErrMin= 1.61D-03
 ErrMax= 1.61D-03  0.00D+00 EMaxC= 1.00D-01 BMatC= 3.44D-04 BMatP= 3.07D-03
 IDIUse=3 WtCom= 9.84D-01 WtEn= 1.61D-02
 Coeff-Com: -0.393D-01 0.951D-01 0.326D+00 0.618D+00
 Coeff-En:   0.000D+00 0.000D+00 0.159D-02 0.998D+00
 Coeff:     -0.387D-01 0.936D-01 0.321D+00 0.624D+00
 Gap=     0.446 Goal=   None    Shift=    0.000
 RMSDP=1.22D-04 MaxDP=3.37D-03 DE=-1.75D-03 OVMax= 3.68D-03

 Cycle   5  Pass 1  IDiag  1:
 E= -171.329193236643     Delta-E=       -0.000257973070 Rises=F Damp=F
 DIIS: error= 1.96D-04 at cycle   5 NSaved=   5.
 NSaved= 5 IEnMin= 5 EnMin= -171.329193236643     IErMin= 5 ErrMin= 1.96D-04
 ErrMax= 1.96D-04  0.00D+00 EMaxC= 1.00D-01 BMatC= 6.63D-06 BMatP= 3.44D-04
 IDIUse=3 WtCom= 9.98D-01 WtEn= 1.96D-03
 Coeff-Com: -0.514D-02 0.759D-02 0.582D-01 0.187D+00 0.752D+00
 Coeff-En:   0.000D+00 0.000D+00 0.000D+00 0.000D+00 0.100D+01
 Coeff:     -0.513D-02 0.757D-02 0.581D-01 0.187D+00 0.753D+00
 Gap=     0.445 Goal=   None    Shift=    0.000
 RMSDP=2.24D-05 MaxDP=4.63D-04 DE=-2.58D-04 OVMax= 6.25D-04

 Cycle   6  Pass 1  IDiag  1:
 E= -171.329198573464     Delta-E=       -0.000005336820 Rises=F Damp=F
 DIIS: error= 3.43D-05 at cycle   6 NSaved=   6.
 NSaved= 6 IEnMin= 6 EnMin= -171.329198573464     IErMin= 6 ErrMin= 3.43D-05
 ErrMax= 3.43D-05  0.00D+00 EMaxC= 1.00D-01 BMatC= 1.62D-07 BMatP= 6.63D-06
 IDIUse=1 WtCom= 1.00D+00 WtEn= 0.00D+00
 Coeff-Com:  0.822D-03-0.217D-02-0.363D-02-0.101D-02 0.738D-01 0.932D+00
 Coeff:      0.822D-03-0.217D-02-0.363D-02-0.101D-02 0.738D-01 0.932D+00
 Gap=     0.446 Goal=   None    Shift=    0.000
 RMSDP=8.21D-06 MaxDP=1.21D-04 DE=-5.34D-06 OVMax= 2.27D-04

 Cycle   7  Pass 1  IDiag  1:
 E= -171.329198721201     Delta-E=       -0.000000147737 Rises=F Damp=F
 DIIS: error= 2.12D-05 at cycle   7 NSaved=   7.
 NSaved= 7 IEnMin= 7 EnMin= -171.329198721201     IErMin= 7 ErrMin= 2.12D-05
 ErrMax= 2.12D-05  0.00D+00 EMaxC= 1.00D-01 BMatC= 7.38D-08 BMatP= 1.62D-07
 IDIUse=1 WtCom= 1.00D+00 WtEn= 0.00D+00
 Coeff-Com:  0.987D-03-0.203D-02-0.814D-02-0.221D-01-0.558D-01 0.434D+00
 Coeff-Com:  0.653D+00
 Coeff:      0.987D-03-0.203D-02-0.814D-02-0.221D-01-0.558D-01 0.434D+00
 Coeff:      0.653D+00
 Gap=     0.446 Goal=   None    Shift=    0.000
 RMSDP=2.12D-06 MaxDP=4.73D-05 DE=-1.48D-07 OVMax= 5.84D-05

 Cycle   8  Pass 1  IDiag  1:
 E= -171.329198780154     Delta-E=       -0.000000058953 Rises=F Damp=F
 DIIS: error= 1.36D-06 at cycle   8 NSaved=   8.
 NSaved= 8 IEnMin= 8 EnMin= -171.329198780154     IErMin= 8 ErrMin= 1.36D-06
 ErrMax= 1.36D-06  0.00D+00 EMaxC= 1.00D-01 BMatC= 3.16D-10 BMatP= 7.38D-08
 IDIUse=1 WtCom= 1.00D+00 WtEn= 0.00D+00
 Coeff-Com:  0.552D-04-0.103D-03-0.459D-03-0.161D-02-0.545D-02 0.485D-02
 Coeff-Com:  0.272D-01 0.975D+00
 Coeff:      0.552D-04-0.103D-03-0.459D-03-0.161D-02-0.545D-02 0.485D-02
 Coeff:      0.272D-01 0.975D+00
 Gap=     0.446 Goal=   None    Shift=    0.000
 RMSDP=6.05D-07 MaxDP=1.20D-05 DE=-5.90D-08 OVMax= 1.28D-05

 Cycle   9  Pass 1  IDiag  1:
 E= -171.329198780726     Delta-E=       -0.000000000572 Rises=F Damp=F
 DIIS: error= 3.69D-07 at cycle   9 NSaved=   9.
 NSaved= 9 IEnMin= 9 EnMin= -171.329198780726     IErMin= 9 ErrMin= 3.69D-07
 ErrMax= 3.69D-07  0.00D+00 EMaxC= 1.00D-01 BMatC= 2.87D-11 BMatP= 3.16D-10
 IDIUse=1 WtCom= 1.00D+00 WtEn= 0.00D+00
 Coeff-Com: -0.322D-04 0.669D-04 0.275D-03 0.745D-03 0.196D-02-0.207D-01
 Coeff-Com: -0.319D-01 0.132D+00 0.917D+00
 Coeff:     -0.322D-04 0.669D-04 0.275D-03 0.745D-03 0.196D-02-0.207D-01
 Coeff:     -0.319D-01 0.132D+00 0.917D+00
 Gap=     0.446 Goal=   None    Shift=    0.000
 RMSDP=9.51D-08 MaxDP=1.29D-06 DE=-5.72D-10 OVMax= 2.99D-06

 Cycle  10  Pass 1  IDiag  1:
 E= -171.329198780770     Delta-E=       -0.000000000044 Rises=F Damp=F
 DIIS: error= 9.35D-08 at cycle  10 NSaved=  10.
 NSaved=10 IEnMin=10 EnMin= -171.329198780770     IErMin=10 ErrMin= 9.35D-08
 ErrMax= 9.35D-08  0.00D+00 EMaxC= 1.00D-01 BMatC= 9.03D-13 BMatP= 2.87D-11
 IDIUse=1 WtCom= 1.00D+00 WtEn= 0.00D+00
 Coeff-Com:  0.379D-06-0.616D-06 0.571D-05 0.249D-04 0.182D-03 0.521D-03
 Coeff-Com:  0.342D-03-0.384D-01-0.512D-01 0.109D+01
 Coeff:      0.379D-06-0.616D-06 0.571D-05 0.249D-04 0.182D-03 0.521D-03
 Coeff:      0.342D-03-0.384D-01-0.512D-01 0.109D+01
 Gap=     0.446 Goal=   None    Shift=    0.000
 RMSDP=2.27D-08 MaxDP=3.38D-07 DE=-4.36D-11 OVMax= 9.07D-07

 Cycle  11  Pass 1  IDiag  1:
 E= -171.329198780772     Delta-E=       -0.000000000002 Rises=F Damp=F
 DIIS: error= 2.19D-08 at cycle  11 NSaved=  11.
 NSaved=11 IEnMin=11 EnMin= -171.329198780772     IErMin=11 ErrMin= 2.19D-08
 ErrMax= 2.19D-08  0.00D+00 EMaxC= 1.00D-01 BMatC= 3.97D-14 BMatP= 9.03D-13
 IDIUse=1 WtCom= 1.00D+00 WtEn= 0.00D+00
 Coeff-Com:  0.151D-05-0.310D-05-0.118D-04-0.323D-04-0.745D-04 0.985D-03
 Coeff-Com:  0.150D-02-0.613D-02-0.481D-01 0.360D-01 0.102D+01
 Coeff:      0.151D-05-0.310D-05-0.118D-04-0.323D-04-0.745D-04 0.985D-03
 Coeff:      0.150D-02-0.613D-02-0.481D-01 0.360D-01 0.102D+01
 Gap=     0.446 Goal=   None    Shift=    0.000
 RMSDP=4.27D-09 MaxDP=5.45D-08 DE=-1.71D-12 OVMax= 2.17D-07

 SCF Done:  E(RM062X) =  -171.329198781     A.U. after   11 cycles
            NFock= 11  Conv=0.43D-08     -V/T= 2.0019
 KE= 1.710021852899D+02 PE=-5.791707130789D+02 EE= 1.444054399944D+02
 Leave Link  502 at Sun Oct 13 23:51:52 2019, MaxMem= 10737418240 cpu:              36.2 elap:               1.8
 (Enter /apps/cent7/gaussian/g16-A.03/g16-haswell/g16/l601.exe)
 Copying SCF densities to generalized density rwf, IOpCl= 0 IROHF=0.

 **********************************************************************

            Population analysis using the SCF density.

 **********************************************************************

 Orbital symmetries:
       Occupied  (A) (A) (A) (A) (A) (A) (A) (A) (A) (A) (A) (A)
                 (A)
       Virtual   (A) (A) (A) (A) (A) (A) (A) (A) (A) (A) (A) (A)
                 (A) (A) (A) (A) (A) (A) (A) (A) (A) (A) (A) (A)
                 (A) (A) (A) (A) (A) (A) (A) (A) (A) (A) (A) (A)
                 (A) (A) (A) (A) (A) (A) (A) (A) (A) (A) (A) (A)
                 (A) (A) (A) (A) (A) (A) (A) (A) (A) (A) (A) (A)
                 (A) (A) (A) (A) (A) (A) (A) (A) (A) (A) (A) (A)
                 (A) (A) (A) (A) (A) (A) (A) (A) (A) (A) (A) (A)
                 (A) (A) (A) (A) (A) (A) (A) (A) (A) (A) (A)
 The electronic state is 1-A.
 Alpha  occ. eigenvalues --  -19.91595 -15.15364 -10.79643  -1.52138  -1.26241
 Alpha  occ. eigenvalues --   -1.03836  -0.96523  -0.91121  -0.81470  -0.73038
 Alpha  occ. eigenvalues --   -0.70000  -0.68636  -0.64054
 Alpha virt. eigenvalues --   -0.19491  -0.15727  -0.13506  -0.12739  -0.09689
 Alpha virt. eigenvalues --   -0.09082  -0.07743  -0.07225  -0.05969  -0.03906
 Alpha virt. eigenvalues --   -0.02944  -0.02056  -0.00481   0.00125   0.01421
 Alpha virt. eigenvalues --    0.01827   0.03523   0.04756   0.05360   0.05723
 Alpha virt. eigenvalues --    0.08084   0.09604   0.11586   0.13782   0.16821
 Alpha virt. eigenvalues --    0.20860   0.27610   0.28681   0.33197   0.36989
 Alpha virt. eigenvalues --    0.38730   0.44975   0.47965   0.48569   0.51435
 Alpha virt. eigenvalues --    0.54882   0.56850   0.58736   0.68828   0.76987
 Alpha virt. eigenvalues --    0.78288   0.87218   0.94959   0.98430   1.04226
 Alpha virt. eigenvalues --    1.11211   1.24430   1.27979   1.29390   1.30796
 Alpha virt. eigenvalues --    1.36063   1.37994   1.41498   1.50634   1.54827
 Alpha virt. eigenvalues --    1.58926   1.62285   1.66582   1.70351   1.76682
 Alpha virt. eigenvalues --    1.85031   1.87588   1.93128   2.00430   2.14955
 Alpha virt. eigenvalues --    2.19225   2.23262   2.26913   2.30735   2.36767
 Alpha virt. eigenvalues --    2.37959   2.38245   2.44010   2.52578   2.56580
 Alpha virt. eigenvalues --    2.65903   2.73161   2.82498   2.93913   3.02449
 Alpha virt. eigenvalues --    3.10473   3.17462   3.29537   3.60476   3.62561
 Alpha virt. eigenvalues --    3.66568   4.24001   4.54272   4.56652   4.90538
 Alpha virt. eigenvalues --    5.26779   5.68144  23.78311  35.30083  49.75454
          Condensed to atoms (all electrons):
               1          2          3          4          5          6
     1  C    5.478063  -0.026607  -0.061641   0.359331   0.367959   0.375464
     2  N   -0.026607   6.695398   0.028201   0.006968  -0.031421  -0.002394
     3  O   -0.061641   0.028201   7.848773   0.002109   0.018364  -0.012252
     4  H    0.359331   0.006968   0.002109   0.439054  -0.026929  -0.015081
     5  H    0.367959  -0.031421   0.018364  -0.026929   0.467122  -0.022310
     6  H    0.375464  -0.002394  -0.012252  -0.015081  -0.022310   0.424103
     7  H   -0.071991   0.372410  -0.051181   0.005583   0.001689  -0.003429
     8  H   -0.005329   0.013034   0.272780  -0.000230  -0.001858   0.000619
     9  H   -0.001110   0.325418  -0.027463  -0.006744  -0.004380   0.003256
               7          8          9
     1  C   -0.071991  -0.005329  -0.001110
     2  N    0.372410   0.013034   0.325418
     3  O   -0.051181   0.272780  -0.027463
     4  H    0.005583  -0.000230  -0.006744
     5  H    0.001689  -0.001858  -0.004380
     6  H   -0.003429   0.000619   0.003256
     7  H    0.380803   0.005718  -0.039884
     8  H    0.005718   0.409316  -0.017295
     9  H   -0.039884  -0.017295   0.398619
 Mulliken charges:
               1
     1  C   -0.414140
     2  N   -0.381008
     3  O   -0.017690
     4  H    0.235939
     5  H    0.231764
     6  H    0.252025
     7  H    0.400282
     8  H    0.323244
     9  H    0.369583
 Sum of Mulliken charges =   1.00000
 Mulliken charges with hydrogens summed into heavy atoms:
               1
     1  C    0.305588
     2  N    0.388858
     3  O    0.305554
 Electronic spatial extent (au):  <R**2>=            169.3656
 Charge=              1.0000 electrons
 Dipole moment (field-independent basis, Debye):
    X=              0.5197    Y=              2.5707    Z=             -1.6588  Tot=              3.1033
 Quadrupole moment (field-independent basis, Debye-Ang):
   XX=            -11.6511   YY=            -14.1758   ZZ=            -14.2038
   XY=             -0.9351   XZ=              3.1237   YZ=              0.6592
 Traceless Quadrupole moment (field-independent basis, Debye-Ang):
   XX=              1.6924   YY=             -0.8322   ZZ=             -0.8602
   XY=             -0.9351   XZ=              3.1237   YZ=              0.6592
 Octapole moment (field-independent basis, Debye-Ang**2):
  XXX=             -5.2515  YYY=              4.8341  ZZZ=             -0.4995  XYY=             -0.6748
  XXY=             -1.3885  XXZ=             -5.5810  XZZ=             -2.1319  YZZ=              2.4467
  YYZ=             -0.8180  XYZ=             -1.1930
 Hexadecapole moment (field-independent basis, Debye-Ang**3):
 XXXX=           -105.4525 YYYY=            -35.9984 ZZZZ=            -22.2598 XXXY=              4.2427
 XXXZ=              8.6890 YYYX=             -1.0020 YYYZ=              1.9772 ZZZX=              4.5815
 ZZZY=             -0.0344 XXYY=            -26.5326 XXZZ=            -21.2071 YYZZ=             -7.3116
 XXYZ=              0.1462 YYXZ=              0.1223 ZZXY=             -0.5494
 N-N= 9.243388901376D+01 E-N=-5.791707129323D+02  KE= 1.710021852899D+02
 No NMR shielding tensors so no spin-rotation constants.
 Leave Link  601 at Sun Oct 13 23:51:52 2019, MaxMem= 10737418240 cpu:               2.7 elap:               0.1
 (Enter /apps/cent7/gaussian/g16-A.03/g16-haswell/g16/l701.exe)
 ... and contract with generalized density number  0.
 Compute integral first derivatives.
 Leave Link  701 at Sun Oct 13 23:51:52 2019, MaxMem= 10737418240 cpu:               3.5 elap:               0.2
 (Enter /apps/cent7/gaussian/g16-A.03/g16-haswell/g16/l702.exe)
 L702 exits ... SP integral derivatives will be done elsewhere.
 Leave Link  702 at Sun Oct 13 23:51:53 2019, MaxMem= 10737418240 cpu:               0.4 elap:               0.0
 (Enter /apps/cent7/gaussian/g16-A.03/g16-haswell/g16/l703.exe)
 Integral derivatives from FoFJK, PRISM(SPDF).
 Compute integral first derivatives, UseDBF=F ICtDFT=           0.
 Calling FoFJK, ICntrl=      2127 FMM=F ISym2X=0 I1Cent= 0 IOpClX= 0 NMat=1 NMatS=1 NMatT=0.
 FoFJK:  IHMeth= 1 ICntrl=    2127 DoSepK=F KAlg= 0 I1Cent=           0 FoldK=F
 IRaf=         0 NMat=       1 IRICut=       1 DoRegI=T DoRafI=F ISym2E= 0 IDoP0=0 IntGTp=1.
 FoFCou: FMM=F IPFlag=           0 FMFlag=      100000 FMFlg1=         800
         NFxFlg=           0 DoJE=F BraDBF=F KetDBF=F FulRan=T
         wScrn=  0.000000 ICntrl=      2127 IOpCl=  0 I1Cent=           0 NGrid=           0
         NMat0=    1 NMatS0=      1 NMatT0=    0 NMatD0=    1 NMtDS0=    0 NMtDT0=    0
 Symmetry not used in FoFCou.
 Leave Link  703 at Sun Oct 13 23:51:53 2019, MaxMem= 10737418240 cpu:               9.4 elap:               0.4
 (Enter /apps/cent7/gaussian/g16-A.03/g16-haswell/g16/l716.exe)
 Dipole        = 2.04470476D-01 1.01140922D+00-6.52613306D-01
 ***** Axes restored to original set *****
 -------------------------------------------------------------------
 Center     Atomic                   Forces (Hartrees/Bohr)
 Number     Number              X              Y              Z
 -------------------------------------------------------------------
      1        6           0.022806941    0.001751754   -0.018500652
      2        7           0.024062821   -0.007412370   -0.000956734
      3        8          -0.009455359    0.030086909    0.019131700
      4        1          -0.004129895   -0.001661354    0.001670436
      5        1          -0.002593566   -0.000177527   -0.001013935
      6        1          -0.001395446   -0.000006465    0.002898579
      7        1          -0.022012255    0.005150483   -0.010533829
      8        1          -0.001489810   -0.004080509    0.007193392
      9        1          -0.005793432   -0.023650921    0.000111042
 -------------------------------------------------------------------
 Cartesian Forces:  Max     0.030086909 RMS     0.012453398
 Leave Link  716 at Sun Oct 13 23:51:53 2019, MaxMem= 10737418240 cpu:               0.8 elap:               0.1
 (Enter /apps/cent7/gaussian/g16-A.03/g16-haswell/g16/l103.exe)

 GradGradGradGradGradGradGradGradGradGradGradGradGradGradGradGradGradGrad
 Berny optimization.
 FormGI is forming the generalized inverse of G from B-inverse, IUseBI=4.
 Internal  Forces:  Max     0.036887416 RMS     0.010088058
 Search for a local minimum.
 Step number   1 out of a maximum of   43
 All quantities printed in internal units (Hartrees-Bohrs-Radians)
 RMS Force = .10088D-01 SwitMx=.10000D-02 MixMth= 1
 Mixed Optimization -- RFO/linear search
 Second derivative matrix not updated -- first step.
 ITU=  0
     Eigenvalues ---    0.00778   0.01885   0.05552   0.06073   0.06074
     Eigenvalues ---    0.06173   0.11404   0.13774   0.16000   0.16000
     Eigenvalues ---    0.16000   0.16000   0.22074   0.34809   0.34809
     Eigenvalues ---    0.34816   0.35855   0.47688   0.47688   0.53893
     Eigenvalues ---    0.55466
 RFO step:  Lambda=-9.84230773D-03 EMin= 7.78421437D-03
 Linear search not attempted -- first point.
 Iteration  1 RMS(Cart)=  0.06048027 RMS(Int)=  0.00178373
 Iteration  2 RMS(Cart)=  0.00202764 RMS(Int)=  0.00081332
 Iteration  3 RMS(Cart)=  0.00000278 RMS(Int)=  0.00081332
 Iteration  4 RMS(Cart)=  0.00000000 RMS(Int)=  0.00081332
 ITry= 1 IFail=0 DXMaxC= 1.38D-01 DCOld= 1.00D+10 DXMaxT= 3.00D-01 DXLimC= 3.00D+00 Rises=F
 Variable       Old X    -DE/DX   Delta X   Delta X   Delta X     New X
                                 (Linear)    (Quad)   (Total)
    R1        2.77610   0.01979   0.00000   0.05372   0.05372   2.82982
    R2        2.05986  -0.00204   0.00000  -0.00571  -0.00571   2.05415
    R3        2.05986   0.00021   0.00000   0.00057   0.00057   2.06043
    R4        2.05975  -0.00160   0.00000  -0.00446  -0.00446   2.05529
    R5        2.56129   0.03689   0.00000   0.06722   0.06722   2.62851
    R6        1.88973   0.02422   0.00000   0.04977   0.04977   1.93949
    R7        1.88973   0.02322   0.00000   0.04771   0.04771   1.93743
    R8        1.81420   0.00828   0.00000   0.01466   0.01466   1.82886
    A1        1.91057  -0.00533   0.00000  -0.03287  -0.03311   1.87746
    A2        1.91060  -0.00137   0.00000  -0.00630  -0.00638   1.90423
    A3        1.91064  -0.00188   0.00000  -0.01139  -0.01156   1.89908
    A4        1.91057   0.00345   0.00000   0.02092   0.02077   1.93134
    A5        1.91065   0.00307   0.00000   0.01452   0.01417   1.92482
    A6        1.91077   0.00207   0.00000   0.01512   0.01511   1.92588
    A7        1.90591   0.01074   0.00000   0.05527   0.05380   1.95971
    A8        1.91158   0.00153   0.00000   0.00114   0.00186   1.91344
    A9        1.91158  -0.00235   0.00000   0.00787   0.00536   1.91693
   A10        1.91158  -0.00935   0.00000  -0.07457  -0.07394   1.83764
   A11        1.91158   0.00187   0.00000   0.05256   0.05037   1.96195
   A12        1.91158  -0.00241   0.00000  -0.04199  -0.04150   1.87008
   A13        1.91056   0.00147   0.00000   0.00867   0.00867   1.91923
    D1        0.66115   0.00455   0.00000   0.10719   0.10761   0.76875
    D2        2.75438   0.00060   0.00000   0.05046   0.05051   2.80490
    D3       -1.43209  -0.00286   0.00000   0.00450   0.00419  -1.42790
    D4        2.75541   0.00466   0.00000   0.10883   0.10923   2.86464
    D5       -1.43454   0.00071   0.00000   0.05210   0.05214  -1.38240
    D6        0.66217  -0.00275   0.00000   0.00614   0.00581   0.66799
    D7       -1.43323   0.00520   0.00000   0.11652   0.11679  -1.31644
    D8        0.66000   0.00125   0.00000   0.05979   0.05970   0.71970
    D9        2.75672  -0.00221   0.00000   0.01382   0.01337   2.77009
   D10       -2.00901  -0.00137   0.00000  -0.05215  -0.05401  -2.06302
   D11        2.18094  -0.00412   0.00000  -0.04205  -0.04187   2.13907
   D12        0.08422   0.00344   0.00000   0.02303   0.02471   0.10893
         Item               Value     Threshold  Converged?
 Maximum Force            0.036887     0.000450     NO 
 RMS     Force            0.010088     0.000300     NO 
 Maximum Displacement     0.138447     0.001800     NO 
 RMS     Displacement     0.060037     0.001200     NO 
 Predicted change in Energy=-5.352455D-03
 Lowest energy point so far.  Saving SCF results.
 GradGradGradGradGradGradGradGradGradGradGradGradGradGradGradGradGradGrad

 Leave Link  103 at Sun Oct 13 23:51:53 2019, MaxMem= 10737418240 cpu:               0.7 elap:               0.1
 (Enter /apps/cent7/gaussian/g16-A.03/g16-haswell/g16/l202.exe)
                          Input orientation:                          
 ---------------------------------------------------------------------
 Center     Atomic      Atomic             Coordinates (Angstroms)
 Number     Number       Type             X           Y           Z
 ---------------------------------------------------------------------
      1          6           0        1.465751    0.049643   -0.436722
      2          7           0        0.177868   -0.161274    0.297648
      3          8           0        0.056412    0.677055    1.400909
      4          1           0        2.257318    0.126222    0.304322
      5          1           0        1.640902   -0.797434   -1.100505
      6          1           0        1.395615    0.971170   -1.010111
      7          1           0       -0.610883    0.079469   -0.313319
      8          1           0       -0.003763    0.150714    2.210827
      9          1           0        0.076969   -1.150920    0.545736
 ---------------------------------------------------------------------
                    Distance matrix (angstroms):
                    1          2          3          4          5
     1  C    0.000000
     2  N    1.497474   0.000000
     3  O    2.399327   1.390947   0.000000
     4  H    1.087009   2.099241   2.519902   0.000000
     5  H    1.090333   2.121321   3.307839   1.790712   0.000000
     6  H    1.087615   2.115555   2.773623   1.784434   1.787819
     7  H    2.080511   1.026335   1.934158   2.934322   2.541488
     8  H    3.029720   1.946941   0.967793   2.957677   3.816914
     9  H    2.082136   1.025245   2.018226   2.538364   2.298032
                    6          7          8          9
     6  H    0.000000
     7  H    2.303625   0.000000
     8  H    3.606362   2.597110   0.000000
     9  H    2.943256   1.650749   2.115017   0.000000
 Stoichiometry    CH6NO(1+)
 Framework group  C1[X(CH6NO)]
 Deg. of freedom    21
 Full point group                 C1      NOp   1
 RotChk:  IX=0 Diff= 1.13D-01
 Largest Abelian subgroup         C1      NOp   1
 Largest concise Abelian subgroup C1      NOp   1
                         Standard orientation:                         
 ---------------------------------------------------------------------
 Center     Atomic      Atomic             Coordinates (Angstroms)
 Number     Number       Type             X           Y           Z
 ---------------------------------------------------------------------
      1          6           0        1.220506   -0.251201   -0.022353
      2          7           0       -0.072233    0.503919    0.009982
      3          8           0       -1.174145   -0.340349    0.097924
      4          1           0        1.094559   -1.088376   -0.704162
      5          1           0        2.012739    0.412299   -0.370146
      6          1           0        1.441536   -0.611133    0.979895
      7          1           0       -0.109992    1.086966    0.853780
      8          1           0       -1.736396   -0.232183   -0.682331
      9          1           0       -0.126689    1.134994   -0.796186
 ---------------------------------------------------------------------
 Rotational constants (GHZ):          36.1296190           9.3695444           8.3143886
 Leave Link  202 at Sun Oct 13 23:51:53 2019, MaxMem= 10737418240 cpu:               0.2 elap:               0.0
 (Enter /apps/cent7/gaussian/g16-A.03/g16-haswell/g16/l301.exe)
 Standard basis: 6-311++G(d,p) (5D, 7F)
 Ernie: Thresh=  0.10000D-02 Tol=  0.10000D-05 Strict=F.
 There are   111 symmetry adapted cartesian basis functions of A   symmetry.
 There are   108 symmetry adapted basis functions of A   symmetry.
   108 basis functions,   162 primitive gaussians,   111 cartesian basis functions
    13 alpha electrons       13 beta electrons
       nuclear repulsion energy        90.4815096529 Hartrees.
 IExCor= 4336 DFT=T Ex+Corr=M062X ExCW=0 ScaHFX=  0.540000
 ScaDFX=  1.000000  1.000000  1.000000  1.000000 ScalE2=  1.000000  1.000000
 IRadAn=      5 IRanWt=     -1 IRanGd=            0 ICorTp=0 IEmpDi=  4
 NAtoms=    9 NActive=    9 NUniq=    9 SFac= 1.00D+00 NAtFMM=   60 NAOKFM=F Big=F
 Integral buffers will be    131072 words long.
 Raffenetti 2 integral format.
 Two-electron integral symmetry is turned on.
 Leave Link  301 at Sun Oct 13 23:51:53 2019, MaxMem= 10737418240 cpu:               1.3 elap:               0.1
 (Enter /apps/cent7/gaussian/g16-A.03/g16-haswell/g16/l302.exe)
 NPDir=0 NMtPBC=     1 NCelOv=     1 NCel=       1 NClECP=     1 NCelD=      1
         NCelK=      1 NCelE2=     1 NClLst=     1 CellRange=     0.0.
 One-electron integrals computed using PRISM.
 One-electron integral symmetry used in STVInt
 NBasis=   108 RedAO= T EigKep=  2.94D-04  NBF=   108
 NBsUse=   108 1.00D-06 EigRej= -1.00D+00 NBFU=   108
 Precomputing XC quadrature grid using
 IXCGrd= 4 IRadAn=           5 IRanWt=          -1 IRanGd=           0 AccXCQ= 0.00D+00.
 Generated NRdTot=       0 NPtTot=           0 NUsed=           0 NTot=          32
 NSgBfM=   111   111   111   111   111 MxSgAt=     9 MxSgA2=     9.
 Leave Link  302 at Sun Oct 13 23:51:53 2019, MaxMem= 10737418240 cpu:               2.6 elap:               0.1
 (Enter /apps/cent7/gaussian/g16-A.03/g16-haswell/g16/l303.exe)
 DipDrv:  MaxL=1.
 Leave Link  303 at Sun Oct 13 23:51:53 2019, MaxMem= 10737418240 cpu:               0.5 elap:               0.0
 (Enter /apps/cent7/gaussian/g16-A.03/g16-haswell/g16/l401.exe)
 Initial guess from the checkpoint file:  "8_p.chk"
 B after Tr=     0.000000    0.000000    0.000000
         Rot=    0.999523   -0.030510    0.004333    0.002145 Ang=  -3.54 deg.
 Guess basis will be translated and rotated to current coordinates.
 JPrj=2 DoOrth=T DoCkMO=T.
 Generating alternative initial guess.
 ExpMin= 3.60D-02 ExpMax= 8.59D+03 ExpMxC= 1.30D+03 IAcc=3 IRadAn=         5 AccDes= 0.00D+00
 Harris functional with IExCor= 1009 and IRadAn=       5 diagonalized for initial guess.
 HarFok:  IExCor= 1009 AccDes= 0.00D+00 IRadAn=         5 IDoV= 1 UseB2=F ITyADJ=14
 ICtDFT=  3500011 ScaDFX=  1.000000  1.000000  1.000000  1.000000
 FoFCou: FMM=F IPFlag=           0 FMFlag=      100000 FMFlg1=           0
         NFxFlg=           0 DoJE=T BraDBF=F KetDBF=T FulRan=T
         wScrn=  0.000000 ICntrl=       500 IOpCl=  0 I1Cent=   200000004 NGrid=           0
         NMat0=    1 NMatS0=      1 NMatT0=    0 NMatD0=    1 NMtDS0=    0 NMtDT0=    0
 Petite list used in FoFCou.
 Harris En= -171.337614587363    
 Leave Link  401 at Sun Oct 13 23:51:54 2019, MaxMem= 10737418240 cpu:               5.7 elap:               0.3
 (Enter /apps/cent7/gaussian/g16-A.03/g16-haswell/g16/l502.exe)
 Keep R1 ints in memory in canonical form, NReq=39756064.
 FoFCou: FMM=F IPFlag=           0 FMFlag=           0 FMFlg1=           0
         NFxFlg=           0 DoJE=F BraDBF=F KetDBF=F FulRan=T
         wScrn=  0.000000 ICntrl=       600 IOpCl=  0 I1Cent=           0 NGrid=           0
         NMat0=    1 NMatS0=   5886 NMatT0=    0 NMatD0=    1 NMtDS0=    0 NMtDT0=    0
 Symmetry not used in FoFCou.
 Two-electron integral symmetry not used.
 Closed shell SCF:
 Using DIIS extrapolation, IDIIS=  1040.
 NGot= 10737418240 LenX= 10720064220 LenY= 10720051458
 Requested convergence on RMS density matrix=1.00D-08 within 128 cycles.
 Requested convergence on MAX density matrix=1.00D-06.
 Requested convergence on             energy=1.00D-06.
 No special actions if energy rises.

 Cycle   1  Pass 1  IDiag  1:
 E= -171.330016877107    
 DIIS: error= 3.36D-03 at cycle   1 NSaved=   1.
 NSaved= 1 IEnMin= 1 EnMin= -171.330016877107     IErMin= 1 ErrMin= 3.36D-03
 ErrMax= 3.36D-03  0.00D+00 EMaxC= 1.00D-01 BMatC= 2.97D-03 BMatP= 2.97D-03
 IDIUse=3 WtCom= 9.66D-01 WtEn= 3.36D-02
 Coeff-Com:  0.100D+01
 Coeff-En:   0.100D+01
 Coeff:      0.100D+01
 Gap=     0.555 Goal=   None    Shift=    0.000
 GapD=    0.555 DampG=2.000 DampE=1.000 DampFc=2.0000 IDamp=-1.
 RMSDP=8.43D-04 MaxDP=1.61D-02              OVMax= 1.82D-02

 Cycle   2  Pass 1  IDiag  1:
 E= -171.333656941509     Delta-E=       -0.003640064402 Rises=F Damp=F
 DIIS: error= 1.27D-03 at cycle   2 NSaved=   2.
 NSaved= 2 IEnMin= 2 EnMin= -171.333656941509     IErMin= 2 ErrMin= 1.27D-03
 ErrMax= 1.27D-03  0.00D+00 EMaxC= 1.00D-01 BMatC= 3.07D-04 BMatP= 2.97D-03
 IDIUse=3 WtCom= 9.87D-01 WtEn= 1.27D-02
 Coeff-Com:  0.739D-01 0.926D+00
 Coeff-En:   0.000D+00 0.100D+01
 Coeff:      0.730D-01 0.927D+00
 Gap=     0.447 Goal=   None    Shift=    0.000
 RMSDP=1.88D-04 MaxDP=6.55D-03 DE=-3.64D-03 OVMax= 6.90D-03

 Cycle   3  Pass 1  IDiag  1:
 E= -171.333842878263     Delta-E=       -0.000185936754 Rises=F Damp=F
 DIIS: error= 1.57D-03 at cycle   3 NSaved=   3.
 NSaved= 3 IEnMin= 3 EnMin= -171.333842878263     IErMin= 2 ErrMin= 1.27D-03
 ErrMax= 1.57D-03  0.00D+00 EMaxC= 1.00D-01 BMatC= 2.23D-04 BMatP= 3.07D-04
 IDIUse=3 WtCom= 9.84D-01 WtEn= 1.57D-02
 Coeff-Com: -0.706D-01 0.469D+00 0.602D+00
 Coeff-En:   0.000D+00 0.208D+00 0.792D+00
 Coeff:     -0.695D-01 0.465D+00 0.605D+00
 Gap=     0.446 Goal=   None    Shift=    0.000
 RMSDP=8.75D-05 MaxDP=2.88D-03 DE=-1.86D-04 OVMax= 3.25D-03

 Cycle   4  Pass 1  IDiag  1:
 E= -171.334015633011     Delta-E=       -0.000172754748 Rises=F Damp=F
 DIIS: error= 2.15D-04 at cycle   4 NSaved=   4.
 NSaved= 4 IEnMin= 4 EnMin= -171.334015633011     IErMin= 4 ErrMin= 2.15D-04
 ErrMax= 2.15D-04  0.00D+00 EMaxC= 1.00D-01 BMatC= 4.52D-06 BMatP= 2.23D-04
 IDIUse=3 WtCom= 9.98D-01 WtEn= 2.15D-03
 Coeff-Com: -0.204D-01 0.639D-01 0.143D+00 0.813D+00
 Coeff-En:   0.000D+00 0.000D+00 0.000D+00 0.100D+01
 Coeff:     -0.204D-01 0.638D-01 0.143D+00 0.814D+00
 Gap=     0.445 Goal=   None    Shift=    0.000
 RMSDP=2.55D-05 MaxDP=5.68D-04 DE=-1.73D-04 OVMax= 1.13D-03

 Cycle   5  Pass 1  IDiag  1:
 E= -171.334020342762     Delta-E=       -0.000004709751 Rises=F Damp=F
 DIIS: error= 1.07D-04 at cycle   5 NSaved=   5.
 NSaved= 5 IEnMin= 5 EnMin= -171.334020342762     IErMin= 5 ErrMin= 1.07D-04
 ErrMax= 1.07D-04  0.00D+00 EMaxC= 1.00D-01 BMatC= 1.55D-06 BMatP= 4.52D-06
 IDIUse=3 WtCom= 9.99D-01 WtEn= 1.07D-03
 Coeff-Com:  0.419D-02-0.580D-01-0.484D-01 0.371D+00 0.731D+00
 Coeff-En:   0.000D+00 0.000D+00 0.000D+00 0.000D+00 0.100D+01
 Coeff:      0.419D-02-0.580D-01-0.484D-01 0.371D+00 0.731D+00
 Gap=     0.446 Goal=   None    Shift=    0.000
 RMSDP=1.38D-05 MaxDP=2.62D-04 DE=-4.71D-06 OVMax= 5.99D-04

 Cycle   6  Pass 1  IDiag  1:
 E= -171.334021788022     Delta-E=       -0.000001445260 Rises=F Damp=F
 DIIS: error= 2.15D-05 at cycle   6 NSaved=   6.
 NSaved= 6 IEnMin= 6 EnMin= -171.334021788022     IErMin= 6 ErrMin= 2.15D-05
 ErrMax= 2.15D-05  0.00D+00 EMaxC= 1.00D-01 BMatC= 7.18D-08 BMatP= 1.55D-06
 IDIUse=1 WtCom= 1.00D+00 WtEn= 0.00D+00
 Coeff-Com:  0.317D-02-0.235D-01-0.289D-01 0.324D-01 0.210D+00 0.807D+00
 Coeff:      0.317D-02-0.235D-01-0.289D-01 0.324D-01 0.210D+00 0.807D+00
 Gap=     0.446 Goal=   None    Shift=    0.000
 RMSDP=4.12D-06 MaxDP=5.30D-05 DE=-1.45D-06 OVMax= 1.93D-04

 Cycle   7  Pass 1  IDiag  1:
 E= -171.334021884443     Delta-E=       -0.000000096421 Rises=F Damp=F
 DIIS: error= 6.78D-06 at cycle   7 NSaved=   7.
 NSaved= 7 IEnMin= 7 EnMin= -171.334021884443     IErMin= 7 ErrMin= 6.78D-06
 ErrMax= 6.78D-06  0.00D+00 EMaxC= 1.00D-01 BMatC= 4.29D-09 BMatP= 7.18D-08
 IDIUse=1 WtCom= 1.00D+00 WtEn= 0.00D+00
 Coeff-Com:  0.126D-03 0.210D-02 0.551D-03-0.313D-01-0.437D-01 0.912D-01
 Coeff-Com:  0.981D+00
 Coeff:      0.126D-03 0.210D-02 0.551D-03-0.313D-01-0.437D-01 0.912D-01
 Coeff:      0.981D+00
 Gap=     0.446 Goal=   None    Shift=    0.000
 RMSDP=1.47D-06 MaxDP=2.07D-05 DE=-9.64D-08 OVMax= 7.59D-05

 Cycle   8  Pass 1  IDiag  1:
 E= -171.334021893341     Delta-E=       -0.000000008898 Rises=F Damp=F
 DIIS: error= 2.73D-06 at cycle   8 NSaved=   8.
 NSaved= 8 IEnMin= 8 EnMin= -171.334021893341     IErMin= 8 ErrMin= 2.73D-06
 ErrMax= 2.73D-06  0.00D+00 EMaxC= 1.00D-01 BMatC= 8.24D-10 BMatP= 4.29D-09
 IDIUse=1 WtCom= 1.00D+00 WtEn= 0.00D+00
 Coeff-Com: -0.199D-03 0.252D-02 0.264D-02-0.123D-01-0.317D-01-0.393D-01
 Coeff-Com:  0.343D+00 0.735D+00
 Coeff:     -0.199D-03 0.252D-02 0.264D-02-0.123D-01-0.317D-01-0.393D-01
 Coeff:      0.343D+00 0.735D+00
 Gap=     0.446 Goal=   None    Shift=    0.000
 RMSDP=3.48D-07 MaxDP=6.89D-06 DE=-8.90D-09 OVMax= 1.56D-05

 Cycle   9  Pass 1  IDiag  1:
 E= -171.334021894330     Delta-E=       -0.000000000989 Rises=F Damp=F
 DIIS: error= 3.88D-07 at cycle   9 NSaved=   9.
 NSaved= 9 IEnMin= 9 EnMin= -171.334021894330     IErMin= 9 ErrMin= 3.88D-07
 ErrMax= 3.88D-07  0.00D+00 EMaxC= 1.00D-01 BMatC= 1.96D-11 BMatP= 8.24D-10
 IDIUse=1 WtCom= 1.00D+00 WtEn= 0.00D+00
 Coeff-Com: -0.113D-04-0.559D-04 0.122D-03 0.139D-02 0.743D-03-0.771D-02
 Coeff-Com: -0.486D-01 0.463D-01 0.101D+01
 Coeff:     -0.113D-04-0.559D-04 0.122D-03 0.139D-02 0.743D-03-0.771D-02
 Coeff:     -0.486D-01 0.463D-01 0.101D+01
 Gap=     0.446 Goal=   None    Shift=    0.000
 RMSDP=1.06D-07 MaxDP=1.61D-06 DE=-9.89D-10 OVMax= 4.24D-06

 Cycle  10  Pass 1  IDiag  1:
 E= -171.334021894370     Delta-E=       -0.000000000040 Rises=F Damp=F
 DIIS: error= 5.64D-08 at cycle  10 NSaved=  10.
 NSaved=10 IEnMin=10 EnMin= -171.334021894370     IErMin=10 ErrMin= 5.64D-08
 ErrMax= 5.64D-08  0.00D+00 EMaxC= 1.00D-01 BMatC= 7.46D-13 BMatP= 1.96D-11
 IDIUse=1 WtCom= 1.00D+00 WtEn= 0.00D+00
 Coeff-Com:  0.755D-05-0.105D-03-0.977D-04 0.526D-03 0.149D-02 0.124D-02
 Coeff-Com: -0.182D-01-0.321D-01 0.497D-01 0.998D+00
 Coeff:      0.755D-05-0.105D-03-0.977D-04 0.526D-03 0.149D-02 0.124D-02
 Coeff:     -0.182D-01-0.321D-01 0.497D-01 0.998D+00
 Gap=     0.446 Goal=   None    Shift=    0.000
 RMSDP=2.09D-08 MaxDP=3.16D-07 DE=-4.02D-11 OVMax= 7.74D-07

 Cycle  11  Pass 1  IDiag  1:
 E= -171.334021894372     Delta-E=       -0.000000000001 Rises=F Damp=F
 DIIS: error= 1.49D-08 at cycle  11 NSaved=  11.
 NSaved=11 IEnMin=11 EnMin= -171.334021894372     IErMin=11 ErrMin= 1.49D-08
 ErrMax= 1.49D-08  0.00D+00 EMaxC= 1.00D-01 BMatC= 2.49D-14 BMatP= 7.46D-13
 IDIUse=1 WtCom= 1.00D+00 WtEn= 0.00D+00
 Coeff-Com:  0.178D-06 0.725D-05 0.211D-05-0.939D-04-0.762D-04 0.295D-03
 Coeff-Com:  0.335D-02 0.358D-03-0.426D-01-0.950D-01 0.113D+01
 Coeff:      0.178D-06 0.725D-05 0.211D-05-0.939D-04-0.762D-04 0.295D-03
 Coeff:      0.335D-02 0.358D-03-0.426D-01-0.950D-01 0.113D+01
 Gap=     0.446 Goal=   None    Shift=    0.000
 RMSDP=4.13D-09 MaxDP=6.16D-08 DE=-1.31D-12 OVMax= 1.29D-07

 SCF Done:  E(RM062X) =  -171.334021894     A.U. after   11 cycles
            NFock= 11  Conv=0.41D-08     -V/T= 2.0033
 KE= 1.707773098464D+02 PE=-5.752494143930D+02 EE= 1.426565729992D+02
 Leave Link  502 at Sun Oct 13 23:51:55 2019, MaxMem= 10737418240 cpu:              34.4 elap:               1.7
 (Enter /apps/cent7/gaussian/g16-A.03/g16-haswell/g16/l701.exe)
 ... and contract with generalized density number  0.
 Compute integral first derivatives.
 Leave Link  701 at Sun Oct 13 23:51:56 2019, MaxMem= 10737418240 cpu:               2.7 elap:               0.1
 (Enter /apps/cent7/gaussian/g16-A.03/g16-haswell/g16/l702.exe)
 L702 exits ... SP integral derivatives will be done elsewhere.
 Leave Link  702 at Sun Oct 13 23:51:56 2019, MaxMem= 10737418240 cpu:               0.4 elap:               0.0
 (Enter /apps/cent7/gaussian/g16-A.03/g16-haswell/g16/l703.exe)
 Integral derivatives from FoFJK, PRISM(SPDF).
 Compute integral first derivatives, UseDBF=F ICtDFT=           0.
 Calling FoFJK, ICntrl=      2127 FMM=F ISym2X=0 I1Cent= 0 IOpClX= 0 NMat=1 NMatS=1 NMatT=0.
 FoFJK:  IHMeth= 1 ICntrl=    2127 DoSepK=F KAlg= 0 I1Cent=           0 FoldK=F
 IRaf=         0 NMat=       1 IRICut=       1 DoRegI=T DoRafI=F ISym2E= 0 IDoP0=0 IntGTp=1.
 FoFCou: FMM=F IPFlag=           0 FMFlag=      100000 FMFlg1=         800
         NFxFlg=           0 DoJE=F BraDBF=F KetDBF=F FulRan=T
         wScrn=  0.000000 ICntrl=      2127 IOpCl=  0 I1Cent=           0 NGrid=           0
         NMat0=    1 NMatS0=      1 NMatT0=    0 NMatD0=    1 NMtDS0=    0 NMtDT0=    0
 Symmetry not used in FoFCou.
 Leave Link  703 at Sun Oct 13 23:51:56 2019, MaxMem= 10737418240 cpu:               8.7 elap:               0.4
 (Enter /apps/cent7/gaussian/g16-A.03/g16-haswell/g16/l716.exe)
 Dipole        = 2.31223726D-01 1.06120630D+00-5.97264391D-01
 ***** Axes restored to original set *****
 -------------------------------------------------------------------
 Center     Atomic                   Forces (Hartrees/Bohr)
 Number     Number              X              Y              Z
 -------------------------------------------------------------------
      1        6           0.005687564    0.003606819   -0.000084761
      2        7          -0.001738101   -0.004331990   -0.005524247
      3        8           0.001926142    0.006895704    0.000191907
      4        1          -0.000103285   -0.001124659    0.000890196
      5        1          -0.003127480   -0.000335077    0.000662699
      6        1          -0.001097985    0.000714555    0.001975209
      7        1          -0.001415273   -0.001756761   -0.000520111
      8        1           0.000403977   -0.003069540   -0.000136508
      9        1          -0.000535559   -0.000599051    0.002545615
 -------------------------------------------------------------------
 Cartesian Forces:  Max     0.006895704 RMS     0.002646272
 Leave Link  716 at Sun Oct 13 23:51:56 2019, MaxMem= 10737418240 cpu:               0.6 elap:               0.0
 (Enter /apps/cent7/gaussian/g16-A.03/g16-haswell/g16/l103.exe)

 GradGradGradGradGradGradGradGradGradGradGradGradGradGradGradGradGradGrad
 Berny optimization.
 Using GEDIIS/GDIIS optimizer.
 FormGI is forming the generalized inverse of G from B-inverse, IUseBI=4.
 Internal  Forces:  Max     0.005986972 RMS     0.001970607
 Search for a local minimum.
 Step number   2 out of a maximum of   43
 All quantities printed in internal units (Hartrees-Bohrs-Radians)
 RMS Force = .19706D-02 SwitMx=.10000D-02 MixMth= 1
 Mixed Optimization -- RFO/linear search
 Update second derivatives using D2CorX and points    1    2
 DE= -4.82D-03 DEPred=-5.35D-03 R= 9.01D-01
 TightC=F SS=  1.41D+00  RLast= 2.81D-01 DXNew= 5.0454D-01 8.4202D-01
 Trust test= 9.01D-01 RLast= 2.81D-01 DXMaxT set to 5.05D-01
 ITU=  1  0
 Use linear search instead of GDIIS.
     Eigenvalues ---    0.00760   0.01895   0.05540   0.06171   0.06269
     Eigenvalues ---    0.06355   0.11595   0.13927   0.15367   0.16000
     Eigenvalues ---    0.16000   0.16387   0.23843   0.34774   0.34811
     Eigenvalues ---    0.34825   0.36239   0.46418   0.47695   0.52417
     Eigenvalues ---    0.55421
 RFO step:  Lambda=-1.29205587D-03 EMin= 7.59994428D-03
 Quartic linear search produced a step of  0.02101.
 Iteration  1 RMS(Cart)=  0.04278695 RMS(Int)=  0.00103280
 Iteration  2 RMS(Cart)=  0.00111777 RMS(Int)=  0.00009047
 Iteration  3 RMS(Cart)=  0.00000071 RMS(Int)=  0.00009046
 ITry= 1 IFail=0 DXMaxC= 1.06D-01 DCOld= 1.00D+10 DXMaxT= 5.05D-01 DXLimC= 3.00D+00 Rises=F
 Variable       Old X    -DE/DX   Delta X   Delta X   Delta X     New X
                                 (Linear)    (Quad)   (Total)
    R1        2.82982  -0.00012   0.00113   0.00369   0.00482   2.83464
    R2        2.05415   0.00045  -0.00012   0.00088   0.00076   2.05491
    R3        2.06043  -0.00065   0.00001  -0.00183  -0.00182   2.05861
    R4        2.05529  -0.00036  -0.00009  -0.00139  -0.00149   2.05381
    R5        2.62851   0.00215   0.00141   0.00906   0.01047   2.63898
    R6        1.93949   0.00099   0.00105   0.00581   0.00686   1.94635
    R7        1.93743   0.00125   0.00100   0.00621   0.00722   1.94465
    R8        1.82886   0.00153   0.00031   0.00389   0.00420   1.83306
    A1        1.87746  -0.00025  -0.00070  -0.00345  -0.00421   1.87325
    A2        1.90423  -0.00399  -0.00013  -0.02651  -0.02681   1.87741
    A3        1.89908  -0.00179  -0.00024  -0.01185  -0.01221   1.88687
    A4        1.93134   0.00192   0.00044   0.01301   0.01332   1.94466
    A5        1.92482   0.00121   0.00030   0.01065   0.01092   1.93574
    A6        1.92588   0.00268   0.00032   0.01666   0.01675   1.94263
    A7        1.95971  -0.00599   0.00113  -0.02524  -0.02409   1.93562
    A8        1.91344   0.00216   0.00004   0.01693   0.01693   1.93037
    A9        1.91693   0.00267   0.00011   0.01286   0.01278   1.92972
   A10        1.83764   0.00183  -0.00155   0.00419   0.00278   1.84042
   A11        1.96195   0.00077   0.00106  -0.00378  -0.00273   1.95922
   A12        1.87008  -0.00124  -0.00087  -0.00370  -0.00474   1.86534
   A13        1.91923  -0.00490   0.00018  -0.03014  -0.02996   1.88928
    D1        0.76875   0.00042   0.00226   0.08588   0.08814   0.85689
    D2        2.80490   0.00045   0.00106   0.08659   0.08754   2.89243
    D3       -1.42790   0.00180   0.00009   0.09969   0.09982  -1.32808
    D4        2.86464   0.00032   0.00229   0.08446   0.08675   2.95139
    D5       -1.38240   0.00035   0.00110   0.08517   0.08615  -1.29626
    D6        0.66799   0.00170   0.00012   0.09827   0.09843   0.76642
    D7       -1.31644   0.00011   0.00245   0.08172   0.08425  -1.23219
    D8        0.71970   0.00014   0.00125   0.08243   0.08365   0.80335
    D9        2.77009   0.00149   0.00028   0.09553   0.09593   2.86602
   D10       -2.06302   0.00052  -0.00113   0.01217   0.01095  -2.05207
   D11        2.13907   0.00001  -0.00088   0.00279   0.00188   2.14095
   D12        0.10893   0.00001   0.00052   0.00665   0.00728   0.11621
         Item               Value     Threshold  Converged?
 Maximum Force            0.005987     0.000450     NO 
 RMS     Force            0.001971     0.000300     NO 
 Maximum Displacement     0.106192     0.001800     NO 
 RMS     Displacement     0.042905     0.001200     NO 
 Predicted change in Energy=-6.834404D-04
 Lowest energy point so far.  Saving SCF results.
 GradGradGradGradGradGradGradGradGradGradGradGradGradGradGradGradGradGrad

 Leave Link  103 at Sun Oct 13 23:51:56 2019, MaxMem= 10737418240 cpu:               0.4 elap:               0.0
 (Enter /apps/cent7/gaussian/g16-A.03/g16-haswell/g16/l202.exe)
                          Input orientation:                          
 ---------------------------------------------------------------------
 Center     Atomic      Atomic             Coordinates (Angstroms)
 Number     Number       Type             X           Y           Z
 ---------------------------------------------------------------------
      1          6           0        1.471981    0.054407   -0.432630
      2          7           0        0.178242   -0.173531    0.291496
      3          8           0        0.050543    0.702755    1.371306
      4          1           0        2.261788    0.076614    0.314485
      5          1           0        1.607830   -0.770729   -1.130788
      6          1           0        1.404305    1.005657   -0.953917
      7          1           0       -0.622233    0.030604   -0.323644
      8          1           0        0.011440    0.177419    2.185812
      9          1           0        0.092293   -1.158551    0.576663
 ---------------------------------------------------------------------
                    Distance matrix (angstroms):
                    1          2          3          4          5
     1  C    0.000000
     2  N    1.500025   0.000000
     3  O    2.386425   1.396487   0.000000
     4  H    1.087413   2.098634   2.529531   0.000000
     5  H    1.089371   2.103154   3.294961   1.798462   0.000000
     6  H    1.086828   2.108262   2.707598   1.790876   1.796733
     7  H    2.097183   1.029965   1.943520   2.954133   2.503356
     8  H    3.000758   1.933759   0.970014   2.928497   3.800958
     9  H    2.096063   1.029064   2.024268   2.510195   2.315739
                    6          7          8          9
     6  H    0.000000
     7  H    2.335558   0.000000
     8  H    3.533263   2.592386   0.000000
     9  H    2.957676   1.653840   2.093015   0.000000
 Stoichiometry    CH6NO(1+)
 Framework group  C1[X(CH6NO)]
 Deg. of freedom    21
 Full point group                 C1      NOp   1
 RotChk:  IX=0 Diff= 4.79D-02
 Largest Abelian subgroup         C1      NOp   1
 Largest concise Abelian subgroup C1      NOp   1
                         Standard orientation:                         
 ---------------------------------------------------------------------
 Center     Atomic      Atomic             Coordinates (Angstroms)
 Number     Number       Type             X           Y           Z
 ---------------------------------------------------------------------
      1          6           0        1.215225   -0.258341   -0.022262
      2          7           0       -0.070387    0.513783    0.010889
      3          8           0       -1.166444   -0.347026    0.099441
      4          1           0        1.105402   -1.038263   -0.772014
      5          1           0        2.010314    0.438045   -0.286098
      6          1           0        1.377047   -0.687509    0.963042
      7          1           0       -0.116728    1.104536    0.853320
      8          1           0       -1.708683   -0.231224   -0.696482
      9          1           0       -0.134438    1.144188   -0.799950
 ---------------------------------------------------------------------
 Rotational constants (GHZ):          35.1953036           9.4858149           8.3655717
 Leave Link  202 at Sun Oct 13 23:51:56 2019, MaxMem= 10737418240 cpu:               0.4 elap:               0.0
 (Enter /apps/cent7/gaussian/g16-A.03/g16-haswell/g16/l301.exe)
 Standard basis: 6-311++G(d,p) (5D, 7F)
 Ernie: Thresh=  0.10000D-02 Tol=  0.10000D-05 Strict=F.
 There are   111 symmetry adapted cartesian basis functions of A   symmetry.
 There are   108 symmetry adapted basis functions of A   symmetry.
   108 basis functions,   162 primitive gaussians,   111 cartesian basis functions
    13 alpha electrons       13 beta electrons
       nuclear repulsion energy        90.4404594705 Hartrees.
 IExCor= 4336 DFT=T Ex+Corr=M062X ExCW=0 ScaHFX=  0.540000
 ScaDFX=  1.000000  1.000000  1.000000  1.000000 ScalE2=  1.000000  1.000000
 IRadAn=      5 IRanWt=     -1 IRanGd=            0 ICorTp=0 IEmpDi=  4
 NAtoms=    9 NActive=    9 NUniq=    9 SFac= 1.00D+00 NAtFMM=   60 NAOKFM=F Big=F
 Integral buffers will be    131072 words long.
 Raffenetti 2 integral format.
 Two-electron integral symmetry is turned on.
 Leave Link  301 at Sun Oct 13 23:51:56 2019, MaxMem= 10737418240 cpu:               1.7 elap:               0.1
 (Enter /apps/cent7/gaussian/g16-A.03/g16-haswell/g16/l302.exe)
 NPDir=0 NMtPBC=     1 NCelOv=     1 NCel=       1 NClECP=     1 NCelD=      1
         NCelK=      1 NCelE2=     1 NClLst=     1 CellRange=     0.0.
 One-electron integrals computed using PRISM.
 One-electron integral symmetry used in STVInt
 NBasis=   108 RedAO= T EigKep=  2.96D-04  NBF=   108
 NBsUse=   108 1.00D-06 EigRej= -1.00D+00 NBFU=   108
 Precomputing XC quadrature grid using
 IXCGrd= 4 IRadAn=           5 IRanWt=          -1 IRanGd=           0 AccXCQ= 0.00D+00.
 Generated NRdTot=       0 NPtTot=           0 NUsed=           0 NTot=          32
 NSgBfM=   111   111   111   111   111 MxSgAt=     9 MxSgA2=     9.
 Leave Link  302 at Sun Oct 13 23:51:56 2019, MaxMem= 10737418240 cpu:               2.6 elap:               0.1
 (Enter /apps/cent7/gaussian/g16-A.03/g16-haswell/g16/l303.exe)
 DipDrv:  MaxL=1.
 Leave Link  303 at Sun Oct 13 23:51:56 2019, MaxMem= 10737418240 cpu:               0.7 elap:               0.0
 (Enter /apps/cent7/gaussian/g16-A.03/g16-haswell/g16/l401.exe)
 Initial guess from the checkpoint file:  "8_p.chk"
 B after Tr=    -0.000000   -0.000000   -0.000000
         Rot=    0.999941   -0.010617    0.002426    0.000004 Ang=  -1.25 deg.
 Guess basis will be translated and rotated to current coordinates.
 JPrj=2 DoOrth=T DoCkMO=T.
 Generating alternative initial guess.
 ExpMin= 3.60D-02 ExpMax= 8.59D+03 ExpMxC= 1.30D+03 IAcc=3 IRadAn=         5 AccDes= 0.00D+00
 Harris functional with IExCor= 1009 and IRadAn=       5 diagonalized for initial guess.
 HarFok:  IExCor= 1009 AccDes= 0.00D+00 IRadAn=         5 IDoV= 1 UseB2=F ITyADJ=14
 ICtDFT=  3500011 ScaDFX=  1.000000  1.000000  1.000000  1.000000
 FoFCou: FMM=F IPFlag=           0 FMFlag=      100000 FMFlg1=           0
         NFxFlg=           0 DoJE=T BraDBF=F KetDBF=T FulRan=T
         wScrn=  0.000000 ICntrl=       500 IOpCl=  0 I1Cent=   200000004 NGrid=           0
         NMat0=    1 NMatS0=      1 NMatT0=    0 NMatD0=    1 NMtDS0=    0 NMtDT0=    0
 Petite list used in FoFCou.
 Harris En= -171.338293162877    
 Leave Link  401 at Sun Oct 13 23:51:57 2019, MaxMem= 10737418240 cpu:               5.8 elap:               0.3
 (Enter /apps/cent7/gaussian/g16-A.03/g16-haswell/g16/l502.exe)
 Keep R1 ints in memory in canonical form, NReq=39756064.
 FoFCou: FMM=F IPFlag=           0 FMFlag=           0 FMFlg1=           0
         NFxFlg=           0 DoJE=F BraDBF=F KetDBF=F FulRan=T
         wScrn=  0.000000 ICntrl=       600 IOpCl=  0 I1Cent=           0 NGrid=           0
         NMat0=    1 NMatS0=   5886 NMatT0=    0 NMatD0=    1 NMtDS0=    0 NMtDT0=    0
 Symmetry not used in FoFCou.
 Two-electron integral symmetry not used.
 Closed shell SCF:
 Using DIIS extrapolation, IDIIS=  1040.
 NGot= 10737418240 LenX= 10720064220 LenY= 10720051458
 Requested convergence on RMS density matrix=1.00D-08 within 128 cycles.
 Requested convergence on MAX density matrix=1.00D-06.
 Requested convergence on             energy=1.00D-06.
 No special actions if energy rises.

 Cycle   1  Pass 1  IDiag  1:
 E= -171.333495380566    
 DIIS: error= 3.09D-03 at cycle   1 NSaved=   1.
 NSaved= 1 IEnMin= 1 EnMin= -171.333495380566     IErMin= 1 ErrMin= 3.09D-03
 ErrMax= 3.09D-03  0.00D+00 EMaxC= 1.00D-01 BMatC= 8.76D-04 BMatP= 8.76D-04
 IDIUse=3 WtCom= 9.69D-01 WtEn= 3.09D-02
 Coeff-Com:  0.100D+01
 Coeff-En:   0.100D+01
 Coeff:      0.100D+01
 Gap=     0.553 Goal=   None    Shift=    0.000
 GapD=    0.553 DampG=2.000 DampE=1.000 DampFc=2.0000 IDamp=-1.
 RMSDP=3.80D-04 MaxDP=6.17D-03              OVMax= 1.26D-02

 Cycle   2  Pass 1  IDiag  1:
 E= -171.334841442495     Delta-E=       -0.001346061929 Rises=F Damp=F
 DIIS: error= 8.08D-04 at cycle   2 NSaved=   2.
 NSaved= 2 IEnMin= 2 EnMin= -171.334841442495     IErMin= 2 ErrMin= 8.08D-04
 ErrMax= 8.08D-04  0.00D+00 EMaxC= 1.00D-01 BMatC= 2.93D-05 BMatP= 8.76D-04
 IDIUse=3 WtCom= 9.92D-01 WtEn= 8.08D-03
 Coeff-Com: -0.151D+00 0.115D+01
 Coeff-En:   0.000D+00 0.100D+01
 Coeff:     -0.150D+00 0.115D+01
 Gap=     0.445 Goal=   None    Shift=    0.000
 RMSDP=9.64D-05 MaxDP=1.26D-03 DE=-1.35D-03 OVMax= 3.45D-03

 Cycle   3  Pass 1  IDiag  1:
 E= -171.334902607108     Delta-E=       -0.000061164613 Rises=F Damp=F
 DIIS: error= 2.22D-04 at cycle   3 NSaved=   3.
 NSaved= 3 IEnMin= 3 EnMin= -171.334902607108     IErMin= 3 ErrMin= 2.22D-04
 ErrMax= 2.22D-04  0.00D+00 EMaxC= 1.00D-01 BMatC= 5.47D-06 BMatP= 2.93D-05
 IDIUse=3 WtCom= 9.98D-01 WtEn= 2.22D-03
 Coeff-Com: -0.672D-01 0.397D+00 0.670D+00
 Coeff-En:   0.000D+00 0.000D+00 0.100D+01
 Coeff:     -0.670D-01 0.396D+00 0.671D+00
 Gap=     0.444 Goal=   None    Shift=    0.000
 RMSDP=2.11D-05 MaxDP=6.15D-04 DE=-6.12D-05 OVMax= 6.07D-04

 Cycle   4  Pass 1  IDiag  1:
 E= -171.334906311489     Delta-E=       -0.000003704382 Rises=F Damp=F
 DIIS: error= 8.22D-05 at cycle   4 NSaved=   4.
 NSaved= 4 IEnMin= 4 EnMin= -171.334906311489     IErMin= 4 ErrMin= 8.22D-05
 ErrMax= 8.22D-05  0.00D+00 EMaxC= 1.00D-01 BMatC= 9.23D-07 BMatP= 5.47D-06
 IDIUse=1 WtCom= 1.00D+00 WtEn= 0.00D+00
 Coeff-Com: -0.349D-02-0.231D-01 0.273D+00 0.753D+00
 Coeff:     -0.349D-02-0.231D-01 0.273D+00 0.753D+00
 Gap=     0.445 Goal=   None    Shift=    0.000
 RMSDP=9.29D-06 MaxDP=1.87D-04 DE=-3.70D-06 OVMax= 2.51D-04

 Cycle   5  Pass 1  IDiag  1:
 E= -171.334907026277     Delta-E=       -0.000000714787 Rises=F Damp=F
 DIIS: error= 2.04D-05 at cycle   5 NSaved=   5.
 NSaved= 5 IEnMin= 5 EnMin= -171.334907026277     IErMin= 5 ErrMin= 2.04D-05
 ErrMax= 2.04D-05  0.00D+00 EMaxC= 1.00D-01 BMatC= 5.28D-08 BMatP= 9.23D-07
 IDIUse=1 WtCom= 1.00D+00 WtEn= 0.00D+00
 Coeff-Com:  0.374D-02-0.378D-01 0.441D-01 0.268D+00 0.722D+00
 Coeff:      0.374D-02-0.378D-01 0.441D-01 0.268D+00 0.722D+00
 Gap=     0.445 Goal=   None    Shift=    0.000
 RMSDP=1.97D-06 MaxDP=5.09D-05 DE=-7.15D-07 OVMax= 6.09D-05

 Cycle   6  Pass 1  IDiag  1:
 E= -171.334907070109     Delta-E=       -0.000000043832 Rises=F Damp=F
 DIIS: error= 8.10D-06 at cycle   6 NSaved=   6.
 NSaved= 6 IEnMin= 6 EnMin= -171.334907070109     IErMin= 6 ErrMin= 8.10D-06
 ErrMax= 8.10D-06  0.00D+00 EMaxC= 1.00D-01 BMatC= 6.22D-09 BMatP= 5.28D-08
 IDIUse=1 WtCom= 1.00D+00 WtEn= 0.00D+00
 Coeff-Com:  0.188D-02-0.154D-01 0.859D-03 0.665D-01 0.321D+00 0.625D+00
 Coeff:      0.188D-02-0.154D-01 0.859D-03 0.665D-01 0.321D+00 0.625D+00
 Gap=     0.445 Goal=   None    Shift=    0.000
 RMSDP=5.15D-07 MaxDP=1.49D-05 DE=-4.38D-08 OVMax= 1.79D-05

 Cycle   7  Pass 1  IDiag  1:
 E= -171.334907075442     Delta-E=       -0.000000005334 Rises=F Damp=F
 DIIS: error= 9.84D-07 at cycle   7 NSaved=   7.
 NSaved= 7 IEnMin= 7 EnMin= -171.334907075442     IErMin= 7 ErrMin= 9.84D-07
 ErrMax= 9.84D-07  0.00D+00 EMaxC= 1.00D-01 BMatC= 1.73D-10 BMatP= 6.22D-09
 IDIUse=1 WtCom= 1.00D+00 WtEn= 0.00D+00
 Coeff-Com: -0.184D-03 0.236D-02-0.406D-02-0.224D-01-0.459D-01 0.432D-01
 Coeff-Com:  0.103D+01
 Coeff:     -0.184D-03 0.236D-02-0.406D-02-0.224D-01-0.459D-01 0.432D-01
 Coeff:      0.103D+01
 Gap=     0.445 Goal=   None    Shift=    0.000
 RMSDP=2.64D-07 MaxDP=3.86D-06 DE=-5.33D-09 OVMax= 1.40D-05

 Cycle   8  Pass 1  IDiag  1:
 E= -171.334907075831     Delta-E=       -0.000000000388 Rises=F Damp=F
 DIIS: error= 4.03D-07 at cycle   8 NSaved=   8.
 NSaved= 8 IEnMin= 8 EnMin= -171.334907075831     IErMin= 8 ErrMin= 4.03D-07
 ErrMax= 4.03D-07  0.00D+00 EMaxC= 1.00D-01 BMatC= 2.49D-11 BMatP= 1.73D-10
 IDIUse=1 WtCom= 1.00D+00 WtEn= 0.00D+00
 Coeff-Com: -0.188D-03 0.180D-02-0.118D-02-0.114D-01-0.367D-01-0.357D-01
 Coeff-Com:  0.276D+00 0.807D+00
 Coeff:     -0.188D-03 0.180D-02-0.118D-02-0.114D-01-0.367D-01-0.357D-01
 Coeff:      0.276D+00 0.807D+00
 Gap=     0.445 Goal=   None    Shift=    0.000
 RMSDP=6.38D-08 MaxDP=1.33D-06 DE=-3.88D-10 OVMax= 3.63D-06

 Cycle   9  Pass 1  IDiag  1:
 E= -171.334907075868     Delta-E=       -0.000000000037 Rises=F Damp=F
 DIIS: error= 1.22D-07 at cycle   9 NSaved=   9.
 NSaved= 9 IEnMin= 9 EnMin= -171.334907075868     IErMin= 9 ErrMin= 1.22D-07
 ErrMax= 1.22D-07  0.00D+00 EMaxC= 1.00D-01 BMatC= 2.58D-12 BMatP= 2.49D-11
 IDIUse=1 WtCom= 1.00D+00 WtEn= 0.00D+00
 Coeff-Com: -0.319D-04 0.240D-03 0.167D-03-0.593D-03-0.510D-02-0.153D-01
 Coeff-Com: -0.448D-01 0.204D+00 0.862D+00
 Coeff:     -0.319D-04 0.240D-03 0.167D-03-0.593D-03-0.510D-02-0.153D-01
 Coeff:     -0.448D-01 0.204D+00 0.862D+00
 Gap=     0.445 Goal=   None    Shift=    0.000
 RMSDP=2.38D-08 MaxDP=3.83D-07 DE=-3.74D-11 OVMax= 1.31D-06

 Cycle  10  Pass 1  IDiag  1:
 E= -171.334907075872     Delta-E=       -0.000000000004 Rises=F Damp=F
 DIIS: error= 2.50D-08 at cycle  10 NSaved=  10.
 NSaved=10 IEnMin=10 EnMin= -171.334907075872     IErMin=10 ErrMin= 2.50D-08
 ErrMax= 2.50D-08  0.00D+00 EMaxC= 1.00D-01 BMatC= 9.27D-14 BMatP= 2.58D-12
 IDIUse=1 WtCom= 1.00D+00 WtEn= 0.00D+00
 Coeff-Com:  0.106D-04-0.110D-03 0.978D-04 0.816D-03 0.220D-02 0.139D-02
 Coeff-Com: -0.228D-01-0.451D-01 0.883D-01 0.975D+00
 Coeff:      0.106D-04-0.110D-03 0.978D-04 0.816D-03 0.220D-02 0.139D-02
 Coeff:     -0.228D-01-0.451D-01 0.883D-01 0.975D+00
 Gap=     0.445 Goal=   None    Shift=    0.000
 RMSDP=7.17D-09 MaxDP=7.80D-08 DE=-3.52D-12 OVMax= 3.40D-07

 SCF Done:  E(RM062X) =  -171.334907076     A.U. after   10 cycles
            NFock= 10  Conv=0.72D-08     -V/T= 2.0034
 KE= 1.707601179339D+02 PE=-5.751685598881D+02 EE= 1.426330754079D+02
 Leave Link  502 at Sun Oct 13 23:51:58 2019, MaxMem= 10737418240 cpu:              31.6 elap:               1.6
 (Enter /apps/cent7/gaussian/g16-A.03/g16-haswell/g16/l701.exe)
 ... and contract with generalized density number  0.
 Compute integral first derivatives.
 Leave Link  701 at Sun Oct 13 23:51:58 2019, MaxMem= 10737418240 cpu:               2.2 elap:               0.1
 (Enter /apps/cent7/gaussian/g16-A.03/g16-haswell/g16/l702.exe)
 L702 exits ... SP integral derivatives will be done elsewhere.
 Leave Link  702 at Sun Oct 13 23:51:58 2019, MaxMem= 10737418240 cpu:               0.4 elap:               0.0
 (Enter /apps/cent7/gaussian/g16-A.03/g16-haswell/g16/l703.exe)
 Integral derivatives from FoFJK, PRISM(SPDF).
 Compute integral first derivatives, UseDBF=F ICtDFT=           0.
 Calling FoFJK, ICntrl=      2127 FMM=F ISym2X=0 I1Cent= 0 IOpClX= 0 NMat=1 NMatS=1 NMatT=0.
 FoFJK:  IHMeth= 1 ICntrl=    2127 DoSepK=F KAlg= 0 I1Cent=           0 FoldK=F
 IRaf=         0 NMat=       1 IRICut=       1 DoRegI=T DoRafI=F ISym2E= 0 IDoP0=0 IntGTp=1.
 FoFCou: FMM=F IPFlag=           0 FMFlag=      100000 FMFlg1=         800
         NFxFlg=           0 DoJE=F BraDBF=F KetDBF=F FulRan=T
         wScrn=  0.000000 ICntrl=      2127 IOpCl=  0 I1Cent=           0 NGrid=           0
         NMat0=    1 NMatS0=      1 NMatT0=    0 NMatD0=    1 NMtDS0=    0 NMtDT0=    0
 Symmetry not used in FoFCou.
 Leave Link  703 at Sun Oct 13 23:51:59 2019, MaxMem= 10737418240 cpu:               9.1 elap:               0.4
 (Enter /apps/cent7/gaussian/g16-A.03/g16-haswell/g16/l716.exe)
 Dipole        = 2.33489110D-01 1.07439515D+00-6.00424347D-01
 ***** Axes restored to original set *****
 -------------------------------------------------------------------
 Center     Atomic                   Forces (Hartrees/Bohr)
 Number     Number              X              Y              Z
 -------------------------------------------------------------------
      1        6          -0.000375534   -0.000611503    0.000601088
      2        7          -0.001710412   -0.001007760   -0.003545154
      3        8           0.000016979   -0.000526633    0.001470859
      4        1          -0.000045736   -0.000971618   -0.000120397
      5        1          -0.000159569    0.000556529   -0.000902864
      6        1          -0.000159900    0.000581894    0.001003322
      7        1           0.001746608   -0.001428529    0.000423104
      8        1           0.000005772    0.001171565   -0.000065671
      9        1           0.000681793    0.002236057    0.001135714
 -------------------------------------------------------------------
 Cartesian Forces:  Max     0.003545154 RMS     0.001166035
 Leave Link  716 at Sun Oct 13 23:51:59 2019, MaxMem= 10737418240 cpu:               0.5 elap:               0.0
 (Enter /apps/cent7/gaussian/g16-A.03/g16-haswell/g16/l103.exe)

 GradGradGradGradGradGradGradGradGradGradGradGradGradGradGradGradGradGrad
 Berny optimization.
 Using GEDIIS/GDIIS optimizer.
 FormGI is forming the generalized inverse of G from B-inverse, IUseBI=4.
 Internal  Forces:  Max     0.001893155 RMS     0.000799608
 Search for a local minimum.
 Step number   3 out of a maximum of   43
 All quantities printed in internal units (Hartrees-Bohrs-Radians)
 RMS Force = .79961D-03 SwitMx=.10000D-02 MixMth= 2
 Mixed Optimization -- En-DIIS/RFO-DIIS
 Update second derivatives using D2CorX and points    1    2    3
 DE= -8.85D-04 DEPred=-6.83D-04 R= 1.30D+00
 TightC=F SS=  1.41D+00  RLast= 2.78D-01 DXNew= 8.4853D-01 8.3349D-01
 Trust test= 1.30D+00 RLast= 2.78D-01 DXMaxT set to 8.33D-01
 ITU=  1  1  0
 Use linear search instead of GDIIS.
     Eigenvalues ---    0.00349   0.01895   0.05653   0.06181   0.06376
     Eigenvalues ---    0.06452   0.11760   0.14096   0.15365   0.16000
     Eigenvalues ---    0.16058   0.19207   0.26667   0.34806   0.34813
     Eigenvalues ---    0.34957   0.36367   0.47692   0.50353   0.51898
     Eigenvalues ---    0.56192
 RFO step:  Lambda=-7.01958547D-04 EMin= 3.49048224D-03
 Quartic linear search produced a step of  0.56094.
 Iteration  1 RMS(Cart)=  0.07284240 RMS(Int)=  0.00303400
 Iteration  2 RMS(Cart)=  0.00320864 RMS(Int)=  0.00008426
 Iteration  3 RMS(Cart)=  0.00000468 RMS(Int)=  0.00008419
 Iteration  4 RMS(Cart)=  0.00000000 RMS(Int)=  0.00008419
 ITry= 1 IFail=0 DXMaxC= 1.83D-01 DCOld= 1.00D+10 DXMaxT= 8.33D-01 DXLimC= 3.00D+00 Rises=F
 Variable       Old X    -DE/DX   Delta X   Delta X   Delta X     New X
                                 (Linear)    (Quad)   (Total)
    R1        2.83464  -0.00099   0.00270  -0.00101   0.00169   2.83633
    R2        2.05491  -0.00014   0.00043  -0.00095  -0.00052   2.05440
    R3        2.05861   0.00014  -0.00102   0.00068  -0.00034   2.05827
    R4        2.05381   0.00004  -0.00083  -0.00005  -0.00089   2.05292
    R5        2.63898   0.00149   0.00587   0.00774   0.01361   2.65259
    R6        1.94635  -0.00189   0.00385  -0.00312   0.00073   1.94708
    R7        1.94465  -0.00188   0.00405  -0.00322   0.00082   1.94547
    R8        1.83306  -0.00069   0.00235  -0.00110   0.00125   1.83431
    A1        1.87325  -0.00010  -0.00236  -0.00273  -0.00518   1.86807
    A2        1.87741   0.00074  -0.01504   0.00831  -0.00687   1.87055
    A3        1.88687  -0.00098  -0.00685  -0.01019  -0.01718   1.86969
    A4        1.94466  -0.00012   0.00747   0.00165   0.00904   1.95370
    A5        1.93574   0.00032   0.00612   0.00135   0.00738   1.94311
    A6        1.94263   0.00011   0.00940   0.00127   0.01045   1.95308
    A7        1.93562  -0.00057  -0.01351  -0.00073  -0.01419   1.92143
    A8        1.93037  -0.00029   0.00950  -0.00195   0.00751   1.93788
    A9        1.92972   0.00051   0.00717   0.00258   0.00961   1.93932
[...]
     32 -0.266490D-01 -0.150866D-02  0.234146D-01  0.127484D-01  0.139704D-01
     33  0.150907D-02  0.266544D-01 -0.127571D-01 -0.234293D-01 -0.139764D-01
               21            22            23            24            25 
     21  0.227553D+00
     22 -0.500139D-03  0.170852D-01
     23  0.136460D-02  0.228509D-02  0.156432D-01
     24 -0.238767D-02  0.284758D-02  0.272320D-02  0.167662D-01
     25  0.811534D-05  0.654954D-02 -0.787195D-02 -0.787081D-02  0.166464D-01
     26  0.187286D-02 -0.825058D-02  0.548614D-02 -0.799519D-02  0.222496D-02
     27 -0.187942D-02 -0.768809D-02 -0.743385D-02  0.604785D-02  0.222610D-02
     28  0.515970D-03  0.692931D-02 -0.730922D-02 -0.787088D-02  0.655199D-02
     29  0.238071D-02 -0.787081D-02  0.604888D-02 -0.799527D-02 -0.786950D-02
     30 -0.137156D-02 -0.730832D-02 -0.687111D-02  0.604778D-02 -0.786835D-02
     31  0.000000D+00 -0.434685D-02  0.136005D-02  0.135568D-02 -0.334091D-02
     32 -0.537375D-03  0.798289D-03  0.290879D-03 -0.140780D-03 -0.911662D-04
     33  0.547349D-03  0.639945D-03 -0.293572D-03  0.132065D-03 -0.938399D-04
               26            27            28            29            30 
     26  0.159617D-01
     27  0.248035D-02  0.159620D-01
     28 -0.768653D-02 -0.824820D-02  0.170847D-01
     29  0.605019D-02 -0.799395D-02  0.284620D-02  0.167659D-01
     30 -0.743114D-02  0.548774D-02  0.228453D-02  0.272174D-02  0.156406D-01
     31  0.236599D-02  0.236162D-02 -0.434605D-02  0.136084D-02  0.135648D-02
     32 -0.598576D-03 -0.103023D-02  0.643011D-03  0.135601D-03 -0.296058D-03
     33 -0.102736D-02 -0.601720D-03  0.796964D-03 -0.136553D-03  0.289085D-03
               31            32            33 
     31  0.166652D-01
     32 -0.709140D-02  0.255031D-01
     33 -0.707390D-02 -0.153559D-01  0.255274D-01
 Leave Link  716 at Sun Oct 13 23:52:55 2019, MaxMem= 10737418240 cpu:               1.2 elap:               0.1
 (Enter /apps/cent7/gaussian/g16-A.03/g16-haswell/g16/l103.exe)

 GradGradGradGradGradGradGradGradGradGradGradGradGradGradGradGradGradGrad
 Berny optimization.
 Red2BG is reusing G-inverse.
 Internal  Forces:  Max     0.000143081 RMS     0.000050364
 Search for a local minimum.
 Step number   1 out of a maximum of    2
 All quantities printed in internal units (Hartrees-Bohrs-Radians)
 Second derivative matrix not updated -- analytic derivatives used.
 ITU=  0
     Eigenvalues ---    0.00215   0.00300   0.04659   0.04666   0.05298
     Eigenvalues ---    0.06309   0.10124   0.12697   0.13588   0.16389
     Eigenvalues ---    0.19183   0.20278   0.26071   0.32078   0.35484
     Eigenvalues ---    0.35759   0.36117   0.40980   0.41412   0.43723
     Eigenvalues ---    0.51249
 Angle between quadratic step and forces=  73.68 degrees.
 Linear search not attempted -- first point.
 Iteration  1 RMS(Cart)=  0.00061307 RMS(Int)=  0.00000071
 Iteration  2 RMS(Cart)=  0.00000066 RMS(Int)=  0.00000002
 ITry= 1 IFail=0 DXMaxC= 1.96D-03 DCOld= 1.00D+10 DXMaxT= 3.00D-01 DXLimC= 3.00D+00 Rises=F
 Variable       Old X    -DE/DX   Delta X   Delta X   Delta X     New X
                                 (Linear)    (Quad)   (Total)
    R1        2.82766  -0.00014   0.00000  -0.00057  -0.00057   2.82709
    R2        2.05442   0.00000   0.00000  -0.00001  -0.00001   2.05441
    R3        2.05808  -0.00001   0.00000  -0.00001  -0.00001   2.05806
    R4        2.05435   0.00001   0.00000   0.00005   0.00005   2.05441
    R5        2.63463  -0.00014   0.00000  -0.00028  -0.00028   2.63436
    R6        1.94253   0.00006   0.00000   0.00018   0.00018   1.94270
    R7        1.94253   0.00006   0.00000   0.00018   0.00018   1.94270
    R8        1.83567   0.00005   0.00000   0.00009   0.00009   1.83576
    A1        1.87239   0.00004   0.00000   0.00033   0.00033   1.87272
    A2        1.88021  -0.00007   0.00000  -0.00026  -0.00026   1.87994
    A3        1.87244   0.00005   0.00000   0.00028   0.00028   1.87272
    A4        1.94672   0.00003   0.00000   0.00037   0.00037   1.94709
    A5        1.94029  -0.00003   0.00000  -0.00023  -0.00023   1.94007
    A6        1.94755  -0.00001   0.00000  -0.00046  -0.00046   1.94709
    A7        1.87257  -0.00008   0.00000  -0.00009  -0.00009   1.87248
    A8        1.91913   0.00005   0.00000   0.00029   0.00029   1.91941
    A9        1.91927   0.00003   0.00000   0.00014   0.00014   1.91941
   A10        1.92601   0.00001   0.00000  -0.00006  -0.00006   1.92595
   A11        1.92575   0.00002   0.00000   0.00020   0.00020   1.92595
   A12        1.90113  -0.00004   0.00000  -0.00047  -0.00047   1.90066
   A13        1.89219  -0.00010   0.00000  -0.00032  -0.00032   1.89187
    D1        1.04338  -0.00000   0.00000  -0.00024  -0.00024   1.04314
    D2        3.13842  -0.00001   0.00000  -0.00020  -0.00020   3.13822
    D3       -1.05144  -0.00000   0.00000  -0.00051  -0.00051  -1.05195
    D4        3.14136   0.00001   0.00000   0.00023   0.00023  -3.14159
    D5       -1.04678   0.00001   0.00000   0.00027   0.00027  -1.04651
    D6        1.04654   0.00001   0.00000  -0.00003  -0.00003   1.04651
    D7       -1.04283  -0.00001   0.00000  -0.00030  -0.00030  -1.04313
    D8        1.05221  -0.00001   0.00000  -0.00026  -0.00026   1.05195
    D9       -3.13765  -0.00001   0.00000  -0.00057  -0.00057  -3.13822
   D10        3.13921   0.00001   0.00000   0.00242   0.00242  -3.14155
   D11        1.04856  -0.00001   0.00000   0.00217   0.00217   1.05072
   D12       -1.05330   0.00002   0.00000   0.00265   0.00265  -1.05064
         Item               Value     Threshold  Converged?
 Maximum Force            0.000143     0.000450     YES
 RMS     Force            0.000050     0.000300     YES
 Maximum Displacement     0.001960     0.001800     NO 
 RMS     Displacement     0.000613     0.001200     YES
 Predicted change in Energy=-1.826054D-07
                           ----------------------------
                           ! Non-Optimized Parameters !
                           ! (Angstroms and Degrees)  !
 --------------------------                            --------------------------
 ! Name  Definition              Value          Derivative Info.                !
 --------------------------------------------------------------------------------
 ! R1    R(1,2)                  1.496          -DE/DX =   -0.0001              !
 ! R2    R(1,4)                  1.0871         -DE/DX =    0.0                 !
 ! R3    R(1,5)                  1.0891         -DE/DX =    0.0                 !
 ! R4    R(1,6)                  1.0871         -DE/DX =    0.0                 !
 ! R5    R(2,3)                  1.394          -DE/DX =   -0.0001              !
 ! R6    R(2,7)                  1.028          -DE/DX =    0.0001              !
 ! R7    R(2,9)                  1.028          -DE/DX =    0.0001              !
 ! R8    R(3,8)                  0.9714         -DE/DX =    0.0                 !
 ! A1    A(2,1,4)              107.299          -DE/DX =    0.0                 !
 ! A2    A(2,1,5)              107.7128         -DE/DX =   -0.0001              !
 ! A3    A(2,1,6)              107.299          -DE/DX =    0.0                 !
 ! A4    A(4,1,5)              111.5602         -DE/DX =    0.0                 !
 ! A5    A(4,1,6)              111.1578         -DE/DX =    0.0                 !
 ! A6    A(5,1,6)              111.5602         -DE/DX =    0.0                 !
 ! A7    A(1,2,3)              107.2852         -DE/DX =   -0.0001              !
 ! A8    A(1,2,7)              109.9743         -DE/DX =    0.0                 !
 ! A9    A(1,2,9)              109.9742         -DE/DX =    0.0                 !
 ! A10   A(3,2,7)              110.3489         -DE/DX =    0.0                 !
 ! A11   A(3,2,9)              110.349          -DE/DX =    0.0                 !
 ! A12   A(7,2,9)              108.8998         -DE/DX =    0.0                 !
 ! A13   A(2,3,8)              108.396          -DE/DX =   -0.0001              !
 ! D1    D(4,1,2,3)             59.7672         -DE/DX =    0.0                 !
 ! D2    D(4,1,2,7)            179.8066         -DE/DX =    0.0                 !
 ! D3    D(4,1,2,9)            -60.2723         -DE/DX =    0.0                 !
 ! D4    D(5,1,2,3)           -179.9999         -DE/DX =    0.0                 !
 ! D5    D(5,1,2,7)            -59.9606         -DE/DX =    0.0                 !
 ! D6    D(5,1,2,9)             59.9606         -DE/DX =    0.0                 !
 ! D7    D(6,1,2,3)            -59.7672         -DE/DX =    0.0                 !
 ! D8    D(6,1,2,7)             60.2722         -DE/DX =    0.0                 !
 ! D9    D(6,1,2,9)           -179.8067         -DE/DX =    0.0                 !
 ! D10   D(1,2,3,8)           -179.9977         -DE/DX =    0.0                 !
 ! D11   D(7,2,3,8)             60.2019         -DE/DX =    0.0                 !
 ! D12   D(9,2,3,8)            -60.1974         -DE/DX =    0.0                 !
 --------------------------------------------------------------------------------
 GradGradGradGradGradGradGradGradGradGradGradGradGradGradGradGradGradGrad

 Leave Link  103 at Sun Oct 13 23:52:55 2019, MaxMem= 10737418240 cpu:               1.1 elap:               0.1
 (Enter /apps/cent7/gaussian/g16-A.03/g16-haswell/g16/l9999.exe)

 ----------------------------------------------------------------------

 Electric dipole moment (input orientation):
 (Debye = 10**-18 statcoulomb cm , SI units = C m)
                  (au)            (Debye)         (10**-30 SI)
   Tot        0.134655D+01      0.342260D+01      0.114166D+02
   x         -0.878528D+00     -0.223300D+01     -0.744847D+01
   y         -0.957952D+00     -0.243487D+01     -0.812186D+01
   z         -0.351745D+00     -0.894046D+00     -0.298222D+01

 Dipole polarizability, Alpha (input orientation).
 (esu units = cm**3 , SI units = C**2 m**2 J**-1)
 Alpha(0;0):
               (au)            (10**-24 esu)      (10**-40 SI)
   iso        0.238088D+02      0.352811D+01      0.392555D+01
   aniso      0.644330D+01      0.954799D+00      0.106236D+01
   xx         0.233135D+02      0.345471D+01      0.384388D+01
   yx        -0.644130D-01     -0.954502D-02     -0.106203D-01
   yy         0.222757D+02      0.330092D+01      0.367277D+01
   zx        -0.258022D+01     -0.382349D+00     -0.425420D+00
   zy         0.195495D+01      0.289693D+00      0.322327D+00
   zz         0.258373D+02      0.382869D+01      0.426000D+01

 ----------------------------------------------------------------------

 Dipole orientation:
     6          2.38694231          0.33913896         -1.65842321
     7          0.05150440          0.94303495         -0.18306715
     8         -1.86677157          1.43576036         -1.92051746
     1          2.81518901          1.97797372         -2.82094906
     1          3.89552587         -0.04790622         -0.31304272
     1          1.96840615         -1.30416166         -2.81806128
     1         -0.42884626         -0.56420049          0.94428149
     1         -3.40184785          1.82836369         -0.99364161
     1          0.36015769          2.49719342          0.94064926

 Electric dipole moment (dipole orientation):
 (Debye = 10**-18 statcoulomb cm , SI units = C m)
                  (au)            (Debye)         (10**-30 SI)
   Tot        0.134655D+01      0.342260D+01      0.114166D+02
   x          0.000000D+00      0.000000D+00      0.000000D+00
   y          0.000000D+00      0.000000D+00      0.000000D+00
   z          0.134655D+01      0.342260D+01      0.114166D+02

 Dipole polarizability, Alpha (dipole orientation).
 (esu units = cm**3 , SI units = C**2 m**2 J**-1)
 Alpha(0;0):
               (au)            (10**-24 esu)      (10**-40 SI)
   iso        0.238088D+02      0.352811D+01      0.392555D+01
   aniso      0.644330D+01      0.954799D+00      0.106236D+01
   xx         0.274479D+02      0.406736D+01      0.452555D+01
   yx        -0.171053D+01     -0.253474D+00     -0.282028D+00
   yy         0.212308D+02      0.314608D+01      0.350048D+01
   zx         0.616841D+00      0.914064D-01      0.101703D+00
   zy        -0.157365D+00     -0.233192D-01     -0.259461D-01
   zz         0.227478D+02      0.337088D+01      0.375061D+01

 ----------------------------------------------------------------------
 1\1\GINC-BROWN-A245\Freq\RM062X\6-311++G(d,p)\C1H6N1O1(1+)\FINEJ\13-Oc
 t-2019\0\\#P Geom=AllCheck Guess=TCheck SCRF=Check GenChk RM062X/6-311
 ++G(d,p) Freq\\Title Card Required\\1,1\C,1.4754291323,0.0520433818,-0
 .4671723137\N,0.2649100012,-0.2398922264,0.3625404046\O,0.2882094141,0
 .6316538438,1.4504857341\H,2.3460774043,-0.1129368721,0.1626315793\H,1
 .464442129,-0.6256009333,-1.3196908348\H,1.4090412787,1.0907537398,-0.
 7810152385\H,-0.5862318829,-0.0932165464,-0.1948699152\H,-0.4935042285
 ,0.4572785062,2.000147306\H,0.2878172018,-1.2154377634,0.6857271883\\V
 ersion=ES64L-G16RevA.03\State=1-A\HF=-171.3381128\RMSD=5.552e-09\RMSF=
 6.568e-05\ZeroPoint=0.0838815\Thermal=0.0838815\Dipole=-0.8785283,-0.9
 579521,-0.3517449\DipoleDeriv=0.3213081,0.0439885,-0.1977225,0.0755111
 ,0.084037,-0.051649,-0.1576512,-0.0204541,0.1963624,-0.0842892,-0.1506
 167,-0.0406288,-0.0853648,0.0769932,0.0953527,0.0427855,0.1600782,0.22
 98543,-0.313607,0.2072564,0.1805586,0.1146062,-0.2314019,0.1001714,0.0
 62267,0.0082647,-0.4496912,0.1125368,-0.0043739,0.0296123,-0.0060149,0
 .1161904,0.041846,-0.0172396,0.028145,0.0446732,0.070894,-0.0517242,-0
 .0024548,-0.0445749,0.0816091,-0.0235441,0.0067246,-0.0163808,0.107173
 9,0.0604928,0.058744,0.0223612,0.0188757,0.0891824,0.0088901,0.0162555
 ,-0.0186688,0.123862,0.2724812,-0.0039746,0.0517794,-0.0024379,0.19381
 9,-0.0537885,0.0647921,-0.044574,0.1763994,0.3486958,-0.0971551,-0.058
 3654,-0.0820227,0.3154962,-0.045961,-0.0390187,-0.0309212,0.4141445,0.
 2114873,-0.0021445,0.0148598,0.0114222,0.2740747,-0.0713177,0.0210849,
 -0.0654889,0.1572215\Polar=23.3135228,-0.064413,22.2757202,-2.5802175,
 1.9549479,25.8372991\Quadrupole=1.3068336,-1.8344742,0.5276405,0.34629
 13,-2.7716851,-0.2145742\PG=C01 [X(C1H6N1O1)]\NImag=0\\0.50289779,-0.0
 3212962,0.63830531,0.09707931,0.02688394,0.57972878,-0.15393297,-0.026
 48470,0.01924227,0.64664436,-0.01477940,-0.10393994,0.01036747,-0.0198
 6201,0.69662997,0.03414899,0.02197957,-0.10643580,0.09281943,-0.068043
 80,0.58652323,0.00429554,0.02762986,0.03625964,-0.10181464,-0.00622904
 ,0.02618386,0.43870925,0.00334020,0.00643085,-0.00194466,-0.03825312,-
 0.15756540,-0.07733754,0.12236467,0.22258037,0.00533096,-0.02600652,-0
 .03307942,-0.01467568,-0.10896015,-0.19156009,-0.23639264,0.11007558,0
 .41505567,-0.22693337,0.03510096,-0.12828067,-0.03117712,0.00307116,-0
 .01346717,0.00231510,-0.00075338,-0.00204008,0.25111462,0.03876966,-0.
 05877756,0.03028486,-0.00986538,0.00031946,-0.00599502,0.00135102,-0.0
 0028032,0.00009795,-0.03578553,0.05522353,-0.14522702,0.02858099,-0.15
 416188,0.02758903,-0.00351848,0.01119168,-0.00103686,0.00136005,0.0019
 6151,0.13924329,-0.03134660,0.15734732,-0.05173867,-0.01138044,-0.0116
 2972,-0.00168973,0.02094301,0.02524253,-0.00695826,-0.00196385,0.00488
 547,0.00414052,-0.01700556,-0.01848702,0.05410968,-0.00355774,-0.16401
 475,-0.14319464,0.00074546,0.00506899,0.00975331,-0.00288014,0.0002100
 5,0.00248141,-0.00072027,0.00382006,0.00610982,0.00572035,0.16649654,-
 0.00165207,-0.13541578,-0.21979022,-0.00052102,-0.01030350,-0.01578348
 ,0.00373536,0.00157877,-0.00118257,0.00115466,-0.00985287,-0.01039551,
 -0.00152459,0.14886726,0.23646505,-0.05314757,0.03237415,-0.00979791,-
 0.00491396,-0.03667961,0.01508838,0.00132958,0.00030507,-0.00318651,0.
 00223968,0.02462997,-0.00554097,-0.00029182,-0.00048637,-0.00107926,0.
 05831997,0.01783863,-0.31520196,0.08183613,-0.00056034,-0.00389435,0.0
 0068199,0.00077082,0.00073670,-0.00029631,0.00021292,-0.00067303,-0.00
 087667,0.00168620,-0.01315852,0.00612367,-0.01928117,0.33096791,-0.006
 71490,0.07273053,-0.07159751,0.00359741,0.02122805,-0.01086457,-0.0009
 1601,0.00099495,0.00193305,0.00015195,0.01640595,-0.00385535,0.0005670
 2,-0.02383866,0.01105195,0.00100403,-0.08658243,0.07444175,-0.02259868
 ,0.00438797,-0.01198416,-0.29609296,0.04836198,-0.15515654,0.00758983,
 -0.00176281,0.00473168,-0.00212534,-0.00128127,0.00392599,0.00059055,0
 .00060985,0.00015099,0.00141759,-0.00056267,-0.00061326,0.30560480,-0.
 00558458,0.00258560,-0.00447526,0.05099038,-0.07690262,0.03480549,-0.0
 2303138,-0.00199050,-0.02387807,-0.00148875,0.00013842,0.00057395,0.00
 055813,0.00014226,-0.00015365,-0.00105650,-0.00002592,-0.00057540,-0.0
 4973125,0.07490464,0.01776572,-0.00383387,0.01643742,-0.14611635,0.033
 96192,-0.15076550,-0.01983570,-0.00928830,-0.02587281,0.00374922,0.001
 62510,-0.00351008,-0.00024996,-0.00044659,0.00010183,-0.00002082,0.000
 16234,0.00023584,0.15615815,-0.02525600,0.16827143,-0.00180894,-0.0008
 6539,-0.00037158,0.00708592,-0.00294284,-0.01565644,-0.34691035,-0.082
 05068,0.23847469,0.00027265,-0.00014363,0.00010503,0.00098905,0.000015
 22,-0.00022430,0.00012316,-0.00001869,-0.00017831,0.00262904,-0.001130
 95,-0.00185891,0.33737838,-0.00107010,-0.00469921,-0.00355305,0.030427
 14,-0.00100093,-0.02499382,-0.11892211,-0.04937286,0.05385213,-0.00001
 268,-0.00012898,-0.00005955,0.00131128,0.00110425,-0.00084500,-0.00026
 735,0.00028287,-0.00014172,-0.00017464,0.00144895,0.00036959,0.0864662
 6,0.05242774,-0.00064801,-0.00378594,-0.00526346,0.02691970,0.00796264
 ,-0.02138851,0.19144802,0.01744376,-0.16628625,-0.00004861,-0.00020525
 ,0.00030459,0.00143877,0.00044484,-0.00011765,-0.00017231,-0.00011168,
 0.00004233,0.00079956,0.00057890,-0.00160665,-0.22019987,-0.02207126,0
 .19206309,0.00296687,-0.02863279,0.00948282,-0.06410889,0.00811676,-0.
 00920304,0.00144396,-0.00122609,0.00287211,0.00015327,-0.00066927,-0.0
 0057147,0.00084868,0.00055364,-0.00003976,-0.00507664,-0.00008570,0.00
 310208,0.00298517,0.03047489,-0.00959135,0.00024107,0.00224222,0.00046
 275,0.06054651,-0.00282704,-0.00068833,0.00379521,0.01286256,-0.358715
 17,0.10914982,-0.00105369,-0.02074888,-0.00736603,0.00037557,0.0003584
 2,-0.00082351,0.00013087,0.00033113,0.00000111,0.00046183,0.00096631,-
 0.00022127,0.00015285,-0.00030083,0.00270581,0.00067071,-0.00006184,-0
 .00025601,-0.01077366,0.37885919,-0.00008299,0.01886708,-0.00583792,-0
 .00885478,0.11730586,-0.10091696,0.00055434,-0.04288261,-0.00096909,-0
 .00046259,-0.00101412,0.00111772,-0.00024249,-0.00017677,-0.00034940,0
 .00370537,-0.00093703,-0.00138747,0.00198759,0.01838004,-0.00329147,-0
 .00009031,-0.00255732,0.00225250,0.00348586,-0.10698512,0.10938208\\0.
 00006412,0.00003179,-0.00016768,-0.00013437,-0.00011900,-0.00000431,-0
 .00010450,0.00000412,0.00013238,-0.00001113,-0.00003616,0.00000332,0.0
 0005377,-0.00001666,-0.00000070,-0.00002366,-0.00000478,0.00002895,0.0
 0006895,0.00002067,0.00001310,0.00004677,0.00005485,0.00000450,0.00004
 004,0.00006517,-0.00000956\\\@


 THERE IS AN OLD, OLD RECIPE IN MAINE FOR STEWING COOT. PLACE THE
 BIRD IN A KETTLE OF WATER WITH A RED BUILDING BRICK FREE OF MORTAR AND
 BLEMISHES. PARBOIL THE COOT AND BRICK TOGETHER FOR THREE HOURS.
 POUR OFF THE WATER, REFILL THE KETTLE, AND AGAIN PARBOIL FOR THREE HOURS.
 ONCE AGAIN POUR OFF THE WATER, FOR THE LAST TIME ADD FRESH WATER,
 AND LET THE COOT AND BRICK SIMMER TOGETHER OVERNIGHT. IN THE MORNING,
 THROW AWAY THE COOT AND EAT THE BRICK.
 Job cpu time:       0 days  0 hours  4 minutes 24.1 seconds.
 Elapsed time:       0 days  0 hours  0 minutes 11.5 seconds.
 File lengths (MBytes):  RWF=     14 Int=      0 D2E=      0 Chk=      2 Scr=      1
 Normal termination of Gaussian 16 at Sun Oct 13 23:52:55 2019.
real 65.78
user 1291.85
sys 20.43
Machine:
brown-a245
brown-a245
brown-a245
brown-a245
brown-a245
brown-a245
brown-a245
brown-a245
brown-a245
brown-a245
brown-a245
brown-a245
brown-a245
brown-a245
brown-a245
brown-a245
brown-a245
brown-a245
brown-a245
brown-a245
brown-a245
brown-a245
brown-a245
brown-a245
