Title Card Required                                                     
Freq      RM062X                                                      6-311++G(d,p)       
Number of atoms                            I               18
Info1-9                                    I   N=           9
          46          46        1002           0           0         100
           6          18        -502
Full Title                                 C   N=           2
Title Card Required     
Route                                      C   N=           6
#P opt freq m062x/6-311++g(d,p) geom=connectivity temperatur
e=0.001     
Charge                                     I                1
Multiplicity                               I                1
Number of electrons                        I               50
Number of alpha electrons                  I               25
Number of beta electrons                   I               25
Number of basis functions                  I              216
Number of independent functions            I              216
Number of point charges in /Mol/           I                0
Number of translation vectors              I                0
Atomic numbers                             I   N=          18
           6           6           7           8           6           6
           1           1           1           1           1           1
           1           1           1           1           1           1
Nuclear charges                            R   N=          18
  6.00000000E+00  6.00000000E+00  7.00000000E+00  8.00000000E+00  6.00000000E+00
  6.00000000E+00  1.00000000E+00  1.00000000E+00  1.00000000E+00  1.00000000E+00
  1.00000000E+00  1.00000000E+00  1.00000000E+00  1.00000000E+00  1.00000000E+00
  1.00000000E+00  1.00000000E+00  1.00000000E+00
Current cartesian coordinates              R   N=          54
 -7.05815850E-01  2.92128029E+00 -3.41194907E-01 -8.53247090E-01  7.80629612E-02
  8.36336396E-02  1.56420452E+00 -1.08469212E+00 -1.03087673E+00  3.82987876E+00
 -2.32453179E-01 -6.84534337E-03 -9.26690702E-01 -6.30548661E-01  2.86844033E+00
 -2.98864827E+00 -1.13382298E+00 -1.42512722E+00 -2.51864139E+00  3.74873856E+00
  1.85542381E-01  7.18990469E-01  3.82462743E+00  8.49918986E-01 -3.73682169E-01
  3.39786539E+00 -2.32627834E+00  1.58046680E+00 -2.99150205E+00 -6.71451769E-01
  3.89114151E+00  1.57724633E+00 -2.92818624E-01 -1.05023338E+00 -2.67623355E+00
  3.12702673E+00  7.20833504E-01  8.03653692E-02  3.88178978E+00 -2.61060101E+00
  2.08931341E-01  3.71015109E+00 -4.78453609E+00 -4.59640583E-01 -6.71566417E-01
 -2.92011895E+00 -6.16076634E-01 -3.42434324E+00 -2.98451629E+00 -3.19256144E+00
 -1.24905764E+00  1.58884677E+00 -8.59119542E-01 -2.96252413E+00
Number of symbols in /Mol/                 I                0
Force Field                                I                0
Atom Types                                 C   N=          18
                                                            
                                                            
                                                            
                                    
Int Atom Types                             I   N=          18
           0           0           0           0           0           0
           0           0           0           0           0           0
           0           0           0           0           0           0
MM charges                                 R   N=          18
  0.00000000E+00  0.00000000E+00  0.00000000E+00  0.00000000E+00  0.00000000E+00
  0.00000000E+00  0.00000000E+00  0.00000000E+00  0.00000000E+00  0.00000000E+00
  0.00000000E+00  0.00000000E+00  0.00000000E+00  0.00000000E+00  0.00000000E+00
  0.00000000E+00  0.00000000E+00  0.00000000E+00
Integer atomic weights                     I   N=          18
          12          12          14          16          12          12
           1           1           1           1           1           1
           1           1           1           1           1           1
Real atomic weights                        R   N=          18
  1.20000000E+01  1.20000000E+01  1.40030740E+01  1.59949146E+01  1.20000000E+01
  1.20000000E+01  1.00782504E+00  1.00782504E+00  1.00782504E+00  1.00782504E+00
  1.00782504E+00  1.00782504E+00  1.00782504E+00  1.00782504E+00  1.00782504E+00
  1.00782504E+00  1.00782504E+00  1.00782504E+00
Atom fragment info                         I   N=          18
           0           0           0           0           0           0
           0           0           0           0           0           0
           0           0           0           0           0           0
Atom residue num                           I   N=          18
           0           0           0           0           0           0
           0           0           0           0           0           0
           0           0           0           0           0           0
Nuclear spins                              I   N=          18
           0           0           2           0           0           0
           1           1           1           1           1           1
           1           1           1           1           1           1
Nuclear ZEff                               R   N=          18
 -3.60000000E+00 -3.60000000E+00 -4.55000000E+00 -5.60000000E+00 -3.60000000E+00
 -3.60000000E+00 -1.00000000E+00 -1.00000000E+00 -1.00000000E+00 -1.00000000E+00
 -1.00000000E+00 -1.00000000E+00 -1.00000000E+00 -1.00000000E+00 -1.00000000E+00
 -1.00000000E+00 -1.00000000E+00 -1.00000000E+00
Nuclear ZNuc                               R   N=          18
  6.00000000E+00  6.00000000E+00  7.00000000E+00  8.00000000E+00  6.00000000E+00
  6.00000000E+00  1.00000000E+00  1.00000000E+00  1.00000000E+00  1.00000000E+00
  1.00000000E+00  1.00000000E+00  1.00000000E+00  1.00000000E+00  1.00000000E+00
  1.00000000E+00  1.00000000E+00  1.00000000E+00
Nuclear QMom                               R   N=          18
  0.00000000E+00  0.00000000E+00  2.04400000E+00  0.00000000E+00  0.00000000E+00
  0.00000000E+00  0.00000000E+00  0.00000000E+00  0.00000000E+00  0.00000000E+00
  0.00000000E+00  0.00000000E+00  0.00000000E+00  0.00000000E+00  0.00000000E+00
  0.00000000E+00  0.00000000E+00  0.00000000E+00
Nuclear GFac                               R   N=          18
  0.00000000E+00  0.00000000E+00  4.03761000E-01  0.00000000E+00  0.00000000E+00
  0.00000000E+00  2.79284600E+00  2.79284600E+00  2.79284600E+00  2.79284600E+00
  2.79284600E+00  2.79284600E+00  2.79284600E+00  2.79284600E+00  2.79284600E+00
  2.79284600E+00  2.79284600E+00  2.79284600E+00
MicOpt                                     I   N=          18
          -1          -1          -1          -1          -1          -1
          -1          -1          -1          -1          -1          -1
          -1          -1          -1          -1          -1          -1
Number of residues                         I                0
Number of secondary structures             I                0
Redundant internal dimensions              I   N=           4
          87          17          31          39
Redundant internal coordinate indices      I   N=         348
           1           2           0           0           1           7
           0           0           1           8           0           0
           1           9           0           0           2           3
           0           0           2           5           0           0
           2           6           0           0           3           4
           0           0           3          10           0           0
           3          18           0           0           4          11
           0           0           5          12           0           0
           5          13           0           0           5          14
           0           0           6          15           0           0
           6          16           0           0           6          17
           0           0           2           1           7           0
           2           1           8           0           2           1
           9           0           7           1           8           0
           7           1           9           0           8           1
           9           0           1           2           3           0
           1           2           5           0           1           2
           6           0           3           2           5           0
           3           2           6           0           5           2
           6           0           2           3           4           0
           2           3          10           0           2           3
          18           0           4           3          10           0
           4           3          18           0          10           3
          18           0           3           4          11           0
           2           5          12           0           2           5
          13           0           2           5          14           0
          12           5          13           0          12           5
          14           0          13           5          14           0
           2           6          15           0           2           6
          16           0           2           6          17           0
          15           6          16           0          15           6
          17           0          16           6          17           0
           7           1           2           3           7           1
           2           5           7           1           2           6
           8           1           2           3           8           1
           2           5           8           1           2           6
           9           1           2           3           9           1
           2           5           9           1           2           6
           1           2           3           4           1           2
           3          10           1           2           3          18
           5           2           3           4           5           2
           3          10           5           2           3          18
           6           2           3           4           6           2
           3          10           6           2           3          18
           1           2           5          12           1           2
           5          13           1           2           5          14
           3           2           5          12           3           2
           5          13           3           2           5          14
           6           2           5          12           6           2
           5          13           6           2           5          14
           1           2           6          15           1           2
           6          16           1           2           6          17
           3           2           6          15           3           2
           6          16           3           2           6          17
           5           2           6          15           5           2
           6          16           5           2           6          17
           2           3           4          11          10           3
           4          11          18           3           4          11
Redundant internal coordinates             R   N=          87
  2.87855868E+00  2.06118311E+00  2.06515409E+00  2.06833324E+00  2.90485886E+00
  2.87448651E+00  2.88183363E+00  2.62835144E+00  1.94045739E+00  1.94492980E+00
  1.83317925E+00  2.06566125E+00  2.06073091E+00  2.06125147E+00  2.06096794E+00
  2.06630643E+00  2.06625788E+00  1.88994520E+00  1.96304542E+00  1.95784702E+00
  1.85855078E+00  1.86920024E+00  1.91981198E+00  1.87142216E+00  1.96901716E+00
  1.95632371E+00  1.86950706E+00  1.82085491E+00  1.96558032E+00  2.02428464E+00
  1.90630209E+00  1.92321696E+00  1.81237481E+00  1.91603475E+00  1.87320926E+00
  1.86306390E+00  1.94651327E+00  1.95080666E+00  1.89239512E+00  1.90487906E+00
  1.87900363E+00  1.88791039E+00  1.89303908E+00  1.95691828E+00  1.95293087E+00
  1.87621989E+00  1.87183783E+00  1.90925438E+00  2.99938359E+00 -1.22972411E+00
  1.01114786E+00 -1.23483018E+00  8.19247424E-01  3.06011940E+00  9.40363540E-01
  2.99444115E+00 -1.04787219E+00  1.03729344E+00  3.07685894E+00 -1.15268180E+00
 -1.08066031E+00  9.58905199E-01  3.01254976E+00  3.11505233E+00 -1.12856747E+00
  9.25077090E-01  3.13217979E+00 -1.01318541E+00  1.06626209E+00 -1.09580193E+00
  1.04201818E+00  3.12146568E+00  8.96135841E-01  3.03395594E+00 -1.16978186E+00
 -1.16913778E+00  8.99968053E-01  3.05272565E+00  3.09489418E+00 -1.11918530E+00
  1.03357229E+00  1.07354678E+00 -3.14053270E+00 -9.87775105E-01 -1.04274434E+00
 -3.13402845E+00  1.15088214E+00
ZRed-IntVec                                I   N=          87
           0           0           0           0           0           0
           0           0           0           0           0           0
           0           0           0           0           0           0
           0           0           0           0           0           0
           0           0           0           0           0           0
           0           0           0           0           0           0
           0           0           0           0           0           0
           0           0           0           0           0           0
           0           0           0           0           0           0
           0           0           0           0           0           0
           0           0           0           0           0           0
           0           0           0           0           0           0
           0           0           0           0           0           0
           0           0           0           0           0           0
           0           0           0
ZRed-FPVec                                 R   N=          87
  0.00000000E+00  0.00000000E+00  0.00000000E+00  0.00000000E+00  0.00000000E+00
  0.00000000E+00  0.00000000E+00  0.00000000E+00  0.00000000E+00  0.00000000E+00
  0.00000000E+00  0.00000000E+00  0.00000000E+00  0.00000000E+00  0.00000000E+00
  0.00000000E+00  0.00000000E+00  0.00000000E+00  0.00000000E+00  0.00000000E+00
  0.00000000E+00  0.00000000E+00  0.00000000E+00  0.00000000E+00  0.00000000E+00
  0.00000000E+00  0.00000000E+00  0.00000000E+00  0.00000000E+00  0.00000000E+00
  0.00000000E+00  0.00000000E+00  0.00000000E+00  0.00000000E+00  0.00000000E+00
  0.00000000E+00  0.00000000E+00  0.00000000E+00  0.00000000E+00  0.00000000E+00
  0.00000000E+00  0.00000000E+00  0.00000000E+00  0.00000000E+00  0.00000000E+00
  0.00000000E+00  0.00000000E+00  0.00000000E+00  0.00000000E+00  0.00000000E+00
  0.00000000E+00  0.00000000E+00  0.00000000E+00  0.00000000E+00  0.00000000E+00
  0.00000000E+00  0.00000000E+00  0.00000000E+00  0.00000000E+00  0.00000000E+00
  0.00000000E+00  0.00000000E+00  0.00000000E+00  0.00000000E+00  0.00000000E+00
  0.00000000E+00  0.00000000E+00  0.00000000E+00  0.00000000E+00  0.00000000E+00
  0.00000000E+00  0.00000000E+00  0.00000000E+00  0.00000000E+00  0.00000000E+00
  0.00000000E+00  0.00000000E+00  0.00000000E+00  0.00000000E+00  0.00000000E+00
  0.00000000E+00  0.00000000E+00  0.00000000E+00  0.00000000E+00  0.00000000E+00
  0.00000000E+00  0.00000000E+00
ZRed-Constraint1                           R   N=          87
  2.87855868E+00  2.06118311E+00  2.06515409E+00  2.06833324E+00  2.90485886E+00
  2.87448651E+00  2.88183363E+00  2.62835144E+00  1.94045739E+00  1.94492980E+00
  1.83317925E+00  2.06566125E+00  2.06073091E+00  2.06125147E+00  2.06096794E+00
  2.06630643E+00  2.06625788E+00  1.88994520E+00  1.96304542E+00  1.95784702E+00
  1.85855078E+00  1.86920024E+00  1.91981198E+00  1.87142216E+00  1.96901716E+00
  1.95632371E+00  1.86950706E+00  1.82085491E+00  1.96558032E+00  2.02428464E+00
  1.90630209E+00  1.92321696E+00  1.81237481E+00  1.91603475E+00  1.87320926E+00
  1.86306390E+00  1.94651327E+00  1.95080666E+00  1.89239512E+00  1.90487906E+00
  1.87900363E+00  1.88791039E+00  1.89303908E+00  1.95691828E+00  1.95293087E+00
  1.87621989E+00  1.87183783E+00  1.90925438E+00  2.99938359E+00 -1.22972411E+00
  1.01114786E+00 -1.23483018E+00  8.19247424E-01  3.06011940E+00  9.40363540E-01
  2.99444115E+00 -1.04787219E+00  1.03729344E+00  3.07685894E+00 -1.15268180E+00
 -1.08066031E+00  9.58905199E-01  3.01254976E+00  3.11505233E+00 -1.12856747E+00
  9.25077090E-01  3.13217979E+00 -1.01318541E+00  1.06626209E+00 -1.09580193E+00
  1.04201818E+00  3.12146568E+00  8.96135841E-01  3.03395594E+00 -1.16978186E+00
 -1.16913778E+00  8.99968053E-01  3.05272565E+00  3.09489418E+00 -1.11918530E+00
  1.03357229E+00  1.07354678E+00 -3.14053270E+00 -9.87775105E-01 -1.04274434E+00
 -3.13402845E+00  1.15088214E+00
ZRed-Constraint2                           R   N=          87
  2.94728635E+00  2.05984163E+00  2.05971189E+00  2.05994375E+00  2.81129172E+00
  2.95066584E+00  2.94514608E+00  2.56842506E+00  1.88972613E+00  1.88972612E+00
  1.81408859E+00  2.05977665E+00  2.05994981E+00  2.05972125E+00  2.05983714E+00
  2.05985433E+00  2.05979442E+00  1.91064131E+00  1.91068305E+00  1.91063285E+00
  1.91066076E+00  1.91057469E+00  1.91060675E+00  1.91595427E+00  1.94069382E+00
  1.90658568E+00  1.93138208E+00  1.86074333E+00  1.90660355E+00  1.97907048E+00
  1.89651043E+00  1.89651043E+00  1.89651044E+00  1.89651044E+00  1.89733057E+00
  1.91064331E+00  1.91057152E+00  1.91062989E+00  1.91059010E+00  1.91058532E+00
  1.91072454E+00  1.91069805E+00  1.91064127E+00  1.91061098E+00  1.91066268E+00
  1.91061150E+00  1.91067264E+00  1.91060034E+00  2.79342571E+00 -1.34668585E+00
  7.58910188E-01 -1.39529533E+00  7.47778426E-01  2.85337446E+00  6.99097603E-01
  2.84217136E+00 -1.33541792E+00  1.09797905E+00 -3.07446316E+00 -1.01276404E+00
 -1.05058910E+00  1.06015399E+00  3.12185311E+00 -3.12206515E+00 -1.01132205E+00
  1.05037706E+00  2.59230472E+00 -1.59658401E+00  4.97862008E-01 -1.55671404E+00
  5.37582535E-01  2.63202855E+00  4.86719213E-01  2.58101579E+00 -1.60772350E+00
 -7.34279233E-01  1.36008054E+00 -2.82874555E+00 -2.80356252E+00 -7.09202748E-01
  1.38515647E+00  1.39201914E+00 -2.79680639E+00 -7.02447173E-01 -3.57861270E-01
 -2.46860436E+00  1.75288182E+00
SymInf integers                            I   N=          26
           1           1           1           1           1           0
           0           0           0           0           0           0
           0           0           0           0           0           0
           0           0           0           0           0           0
           0           0
RotTr to input orientation                 R   N=          12
  5.21742356E-03  8.81017205E-01 -4.73055455E-01  2.19660875E-01 -4.62517379E-01
 -8.58968436E-01 -9.75562340E-01 -9.94301731E-02 -1.95938159E-01  2.83726434E+00
  6.22604975E-01 -3.71137285E-01
Number of contracted shells                I               96
Number of primitive shells                 I              162
Pure/Cartesian d shells                    I                0
Pure/Cartesian f shells                    I                0
Highest angular momentum                   I                2
Largest degree of contraction              I                6
Shell types                                I   N=          96
           0          -1          -1          -1          -1          -2
           0          -1          -1          -1          -1          -2
           0          -1          -1          -1          -1          -2
           0          -1          -1          -1          -1          -2
           0          -1          -1          -1          -1          -2
           0          -1          -1          -1          -1          -2
           0           0           0           0           1           0
           0           0           0           1           0           0
           0           0           1           0           0           0
           0           1           0           0           0           0
           1           0           0           0           0           1
           0           0           0           0           1           0
           0           0           0           1           0           0
           0           0           1           0           0           0
           0           1           0           0           0           0
           1           0           0           0           0           1
Number of primitives per shell             I   N=          96
           6           3           1           1           1           1
           6           3           1           1           1           1
           6           3           1           1           1           1
           6           3           1           1           1           1
           6           3           1           1           1           1
           6           3           1           1           1           1
           3           1           1           1           1           3
           1           1           1           1           3           1
           1           1           1           3           1           1
           1           1           3           1           1           1
           1           3           1           1           1           1
           3           1           1           1           1           3
           1           1           1           1           3           1
           1           1           1           3           1           1
           1           1           3           1           1           1
           1           3           1           1           1           1
Shell to atom map                          I   N=          96
           1           1           1           1           1           1
           2           2           2           2           2           2
           3           3           3           3           3           3
           4           4           4           4           4           4
           5           5           5           5           5           5
           6           6           6           6           6           6
           7           7           7           7           7           8
           8           8           8           8           9           9
           9           9           9          10          10          10
          10          10          11          11          11          11
          11          12          12          12          12          12
          13          13          13          13          13          14
          14          14          14          14          15          15
          15          15          15          16          16          16
          16          16          17          17          17          17
          17          18          18          18          18          18
Primitive exponents                        R   N=         162
  4.56324000E+03  6.82024000E+02  1.54973000E+02  4.44553000E+01  1.30290000E+01
  1.82773000E+00  2.09642000E+01  4.80331000E+00  1.45933000E+00  4.83456000E-01
  1.45585000E-01  4.38000000E-02  6.26000000E-01  4.56324000E+03  6.82024000E+02
  1.54973000E+02  4.44553000E+01  1.30290000E+01  1.82773000E+00  2.09642000E+01
  4.80331000E+00  1.45933000E+00  4.83456000E-01  1.45585000E-01  4.38000000E-02
  6.26000000E-01  6.29348000E+03  9.49044000E+02  2.18776000E+02  6.36916000E+01
  1.88282000E+01  2.72023000E+00  3.06331000E+01  7.02614000E+00  2.11205000E+00
  6.84009000E-01  2.00878000E-01  6.39000000E-02  9.13000000E-01  8.58850000E+03
  1.29723000E+03  2.99296000E+02  8.73771000E+01  2.56789000E+01  3.74004000E+00
  4.21175000E+01  9.62837000E+00  2.85332000E+00  9.05661000E-01  2.55611000E-01
  8.45000000E-02  1.29200000E+00  4.56324000E+03  6.82024000E+02  1.54973000E+02
  4.44553000E+01  1.30290000E+01  1.82773000E+00  2.09642000E+01  4.80331000E+00
  1.45933000E+00  4.83456000E-01  1.45585000E-01  4.38000000E-02  6.26000000E-01
  4.56324000E+03  6.82024000E+02  1.54973000E+02  4.44553000E+01  1.30290000E+01
  1.82773000E+00  2.09642000E+01  4.80331000E+00  1.45933000E+00  4.83456000E-01
  1.45585000E-01  4.38000000E-02  6.26000000E-01  3.38650000E+01  5.09479000E+00
  1.15879000E+00  3.25840000E-01  1.02741000E-01  3.60000000E-02  7.50000000E-01
  3.38650000E+01  5.09479000E+00  1.15879000E+00  3.25840000E-01  1.02741000E-01
  3.60000000E-02  7.50000000E-01  3.38650000E+01  5.09479000E+00  1.15879000E+00
  3.25840000E-01  1.02741000E-01  3.60000000E-02  7.50000000E-01  3.38650000E+01
  5.09479000E+00  1.15879000E+00  3.25840000E-01  1.02741000E-01  3.60000000E-02
  7.50000000E-01  3.38650000E+01  5.09479000E+00  1.15879000E+00  3.25840000E-01
  1.02741000E-01  3.60000000E-02  7.50000000E-01  3.38650000E+01  5.09479000E+00
  1.15879000E+00  3.25840000E-01  1.02741000E-01  3.60000000E-02  7.50000000E-01
  3.38650000E+01  5.09479000E+00  1.15879000E+00  3.25840000E-01  1.02741000E-01
  3.60000000E-02  7.50000000E-01  3.38650000E+01  5.09479000E+00  1.15879000E+00
  3.25840000E-01  1.02741000E-01  3.60000000E-02  7.50000000E-01  3.38650000E+01
  5.09479000E+00  1.15879000E+00  3.25840000E-01  1.02741000E-01  3.60000000E-02
  7.50000000E-01  3.38650000E+01  5.09479000E+00  1.15879000E+00  3.25840000E-01
  1.02741000E-01  3.60000000E-02  7.50000000E-01  3.38650000E+01  5.09479000E+00
  1.15879000E+00  3.25840000E-01  1.02741000E-01  3.60000000E-02  7.50000000E-01
  3.38650000E+01  5.09479000E+00  1.15879000E+00  3.25840000E-01  1.02741000E-01
  3.60000000E-02  7.50000000E-01
Contraction coefficients                   R   N=         162
  1.96665025E-03  1.52306019E-02  7.61269097E-02  2.60801033E-01  6.16462078E-01
  2.21006028E-01  1.14660081E-01  9.19999648E-01 -3.03068213E-03  1.00000000E+00
  1.00000000E+00  1.00000000E+00  1.00000000E+00  1.96665025E-03  1.52306019E-02
  7.61269097E-02  2.60801033E-01  6.16462078E-01  2.21006028E-01  1.14660081E-01
  9.19999648E-01 -3.03068213E-03  1.00000000E+00  1.00000000E+00  1.00000000E+00
  1.00000000E+00  1.96978815E-03  1.49612859E-02  7.35005308E-02  2.48936766E-01
  6.02459433E-01  2.56201759E-01  1.11906080E-01  9.21666655E-01 -2.56919183E-03
  1.00000000E+00  1.00000000E+00  1.00000000E+00  1.00000000E+00  1.89515008E-03
  1.43859006E-02  7.07320031E-02  2.40001011E-01  5.94797026E-01  2.80802012E-01
  1.13889012E-01  9.20811101E-01 -3.27447036E-03  1.00000000E+00  1.00000000E+00
  1.00000000E+00  1.00000000E+00  1.96665025E-03  1.52306019E-02  7.61269097E-02
  2.60801033E-01  6.16462078E-01  2.21006028E-01  1.14660081E-01  9.19999648E-01
 -3.03068213E-03  1.00000000E+00  1.00000000E+00  1.00000000E+00  1.00000000E+00
  1.96665025E-03  1.52306019E-02  7.61269097E-02  2.60801033E-01  6.16462078E-01
  2.21006028E-01  1.14660081E-01  9.19999648E-01 -3.03068213E-03  1.00000000E+00
  1.00000000E+00  1.00000000E+00  1.00000000E+00  2.54938145E-02  1.90373109E-01
  8.52161486E-01  1.00000000E+00  1.00000000E+00  1.00000000E+00  1.00000000E+00
  2.54938145E-02  1.90373109E-01  8.52161486E-01  1.00000000E+00  1.00000000E+00
  1.00000000E+00  1.00000000E+00  2.54938145E-02  1.90373109E-01  8.52161486E-01
  1.00000000E+00  1.00000000E+00  1.00000000E+00  1.00000000E+00  2.54938145E-02
  1.90373109E-01  8.52161486E-01  1.00000000E+00  1.00000000E+00  1.00000000E+00
  1.00000000E+00  2.54938145E-02  1.90373109E-01  8.52161486E-01  1.00000000E+00
  1.00000000E+00  1.00000000E+00  1.00000000E+00  2.54938145E-02  1.90373109E-01
  8.52161486E-01  1.00000000E+00  1.00000000E+00  1.00000000E+00  1.00000000E+00
  2.54938145E-02  1.90373109E-01  8.52161486E-01  1.00000000E+00  1.00000000E+00
  1.00000000E+00  1.00000000E+00  2.54938145E-02  1.90373109E-01  8.52161486E-01
  1.00000000E+00  1.00000000E+00  1.00000000E+00  1.00000000E+00  2.54938145E-02
  1.90373109E-01  8.52161486E-01  1.00000000E+00  1.00000000E+00  1.00000000E+00
  1.00000000E+00  2.54938145E-02  1.90373109E-01  8.52161486E-01  1.00000000E+00
  1.00000000E+00  1.00000000E+00  1.00000000E+00  2.54938145E-02  1.90373109E-01
  8.52161486E-01  1.00000000E+00  1.00000000E+00  1.00000000E+00  1.00000000E+00
  2.54938145E-02  1.90373109E-01  8.52161486E-01  1.00000000E+00  1.00000000E+00
  1.00000000E+00  1.00000000E+00
P(S=P) Contraction coefficients            R   N=         162
  0.00000000E+00  0.00000000E+00  0.00000000E+00  0.00000000E+00  0.00000000E+00
  0.00000000E+00  4.02486927E-02  2.37593957E-01  8.15853851E-01  1.00000000E+00
  1.00000000E+00  1.00000000E+00  0.00000000E+00  0.00000000E+00  0.00000000E+00
  0.00000000E+00  0.00000000E+00  0.00000000E+00  0.00000000E+00  4.02486927E-02
  2.37593957E-01  8.15853851E-01  1.00000000E+00  1.00000000E+00  1.00000000E+00
  0.00000000E+00  0.00000000E+00  0.00000000E+00  0.00000000E+00  0.00000000E+00
  0.00000000E+00  0.00000000E+00  3.83119186E-02  2.37403116E-01  8.17592398E-01
  1.00000000E+00  1.00000000E+00  1.00000000E+00  0.00000000E+00  0.00000000E+00
  0.00000000E+00  0.00000000E+00  0.00000000E+00  0.00000000E+00  0.00000000E+00
  3.65113974E-02  2.37152983E-01  8.19701941E-01  1.00000000E+00  1.00000000E+00
  1.00000000E+00  0.00000000E+00  0.00000000E+00  0.00000000E+00  0.00000000E+00
  0.00000000E+00  0.00000000E+00  0.00000000E+00  4.02486927E-02  2.37593957E-01
  8.15853851E-01  1.00000000E+00  1.00000000E+00  1.00000000E+00  0.00000000E+00
  0.00000000E+00  0.00000000E+00  0.00000000E+00  0.00000000E+00  0.00000000E+00
  0.00000000E+00  4.02486927E-02  2.37593957E-01  8.15853851E-01  1.00000000E+00
  1.00000000E+00  1.00000000E+00  0.00000000E+00  0.00000000E+00  0.00000000E+00