 Entering Gaussian System, Link 0=/apps/cent7/gaussian/g16-A.03/g16-haswell/g16/g16
 Initial command:
 /apps/cent7/gaussian/g16-A.03/g16-haswell/g16/l1.exe "/scratch/brown/finej/gaussian/Gau-54405.inp" -scrdir="/scratch/brown/finej/gaussian/"
 Entering Link 1 = /apps/cent7/gaussian/g16-A.03/g16-haswell/g16/l1.exe PID=     54406.
  
 Copyright (c) 1988,1990,1992,1993,1995,1998,2003,2009,2016,
            Gaussian, Inc.  All Rights Reserved.
  
 This is part of the Gaussian(R) 16 program.  It is based on
 the Gaussian(R) 09 system (copyright 2009, Gaussian, Inc.),
 the Gaussian(R) 03 system (copyright 2003, Gaussian, Inc.),
 the Gaussian(R) 98 system (copyright 1998, Gaussian, Inc.),
 the Gaussian(R) 94 system (copyright 1995, Gaussian, Inc.),
 the Gaussian 92(TM) system (copyright 1992, Gaussian, Inc.),
 the Gaussian 90(TM) system (copyright 1990, Gaussian, Inc.),
 the Gaussian 88(TM) system (copyright 1988, Gaussian, Inc.),
 the Gaussian 86(TM) system (copyright 1986, Carnegie Mellon
 University), and the Gaussian 82(TM) system (copyright 1983,
 Carnegie Mellon University). Gaussian is a federally registered
 trademark of Gaussian, Inc.
  
 This software contains proprietary and confidential information,
 including trade secrets, belonging to Gaussian, Inc.
  
 This software is provided under written license and may be
 used, copied, transmitted, or stored only in accord with that
 written license.
  
 The following legend is applicable only to US Government
 contracts under FAR:
  
                    RESTRICTED RIGHTS LEGEND
  
 Use, reproduction and disclosure by the US Government is
 subject to restrictions as set forth in subparagraphs (a)
 and (c) of the Commercial Computer Software - Restricted
 Rights clause in FAR 52.227-19.
  
 Gaussian, Inc.
 340 Quinnipiac St., Bldg. 40, Wallingford CT 06492
  
  
 ---------------------------------------------------------------
 Warning -- This program may not be used in any manner that
 competes with the business of Gaussian, Inc. or will provide
 assistance to any competitor of Gaussian, Inc.  The licensee
 of this program is prohibited from giving any competitor of
 Gaussian, Inc. access to this program.  By using this program,
 the user acknowledges that Gaussian, Inc. is engaged in the
 business of creating and licensing software in the field of
 computational chemistry and represents and warrants to the
 licensee that it is not a competitor of Gaussian, Inc. and that
 it will not use this program in any manner prohibited above.
 ---------------------------------------------------------------
  

 Cite this work as:
 Gaussian 16, Revision A.03,
 M. J. Frisch, G. W. Trucks, H. B. Schlegel, G. E. Scuseria, 
 M. A. Robb, J. R. Cheeseman, G. Scalmani, V. Barone, 
 G. A. Petersson, H. Nakatsuji, X. Li, M. Caricato, A. V. Marenich, 
 J. Bloino, B. G. Janesko, R. Gomperts, B. Mennucci, H. P. Hratchian, 
 J. V. Ortiz, A. F. Izmaylov, J. L. Sonnenberg, D. Williams-Young, 
 F. Ding, F. Lipparini, F. Egidi, J. Goings, B. Peng, A. Petrone, 
 T. Henderson, D. Ranasinghe, V. G. Zakrzewski, J. Gao, N. Rega, 
 G. Zheng, W. Liang, M. Hada, M. Ehara, K. Toyota, R. Fukuda, 
 J. Hasegawa, M. Ishida, T. Nakajima, Y. Honda, O. Kitao, H. Nakai, 
 T. Vreven, K. Throssell, J. A. Montgomery, Jr., J. E. Peralta, 
 F. Ogliaro, M. J. Bearpark, J. J. Heyd, E. N. Brothers, K. N. Kudin, 
 V. N. Staroverov, T. A. Keith, R. Kobayashi, J. Normand, 
 K. Raghavachari, A. P. Rendell, J. C. Burant, S. S. Iyengar, 
 J. Tomasi, M. Cossi, J. M. Millam, M. Klene, C. Adamo, R. Cammi, 
 J. W. Ochterski, R. L. Martin, K. Morokuma, O. Farkas, 
 J. B. Foresman, and D. J. Fox, Gaussian, Inc., Wallingford CT, 2016.
 
 ******************************************
 Gaussian 16:  ES64L-G16RevA.03 25-Dec-2016
                14-Oct-2019 
 ******************************************
 %chk=9_p.chk
 %nprocshared=24
 Will use up to   24 processors via shared memory.
 %mem=80GB
 -------------------------------------------------------------------
 #P opt freq m062x/6-311++g(d,p) geom=connectivity temperature=0.001
 -------------------------------------------------------------------
 1/18=20,19=15,26=3,38=1,57=2,112=-1000/1,3;
 2/9=110,12=2,17=6,18=5,40=1/2;
 3/5=4,6=6,7=1111,11=2,25=1,30=1,71=1,74=-55/1,2,3;
 4//1;
 5/5=2,38=5/2;
 6/7=2,8=2,9=2,10=2,28=1/1;
 7//1,2,3,16;
 1/18=20,19=15,26=3/3(2);
 2/9=110/2;
 99//99;
 2/9=110/2;
 3/5=4,6=6,7=1111,11=2,25=1,30=1,71=1,74=-55/1,2,3;
 4/5=5,16=3,69=1/1;
 5/5=2,38=5/2;
 7//1,2,3,16;
 1/18=20,19=15,26=3/3(-5);
 2/9=110/2;
 6/7=2,8=2,9=2,10=2,19=2,28=1/1;
 99/9=1/99;
 Leave Link    1 at Mon Oct 14 00:04:05 2019, MaxMem= 10737418240 cpu:               0.9 elap:               0.0
 (Enter /apps/cent7/gaussian/g16-A.03/g16-haswell/g16/l101.exe)
 -------------------
 Title Card Required
 -------------------
 Symbolic Z-matrix:
 Charge =  1 Multiplicity = 1
 C                     2.0476   -0.764    -1.2874 
 C                     1.5073   -0.008    -0.0348 
 N                     2.0241    1.387    -0.0271 
 O                     1.6058    2.1233   -1.0902 
 C                    -0.0537   -0.0174    0.0004 
 C                     2.0542   -0.6929    1.2539 
 H                     1.9762   -1.839    -1.1218 
 H                     1.455    -0.4907   -2.1604 
 H                     3.0894   -0.4907   -1.4554 
 H                     1.71988   1.83631   0.81288 
 H                     1.3279    1.5359   -1.7968 
 H                    -0.3937   -0.0194    1.036 
 H                    -0.4339    0.8704   -0.5051 
 H                    -0.4231   -0.9096   -0.5051 
 H                     2.0053   -1.7757    1.1386 
 H                     3.0892   -0.391     1.4145 
 H                     1.4507   -0.391     2.1099 
 H                     3.02367   1.35796  -0.03142 
 
 ITRead=  0  0  0  0  0  0  0  0  0  0  0  0  0  0  0  0  0  0
 MicOpt= -1 -1 -1 -1 -1 -1 -1 -1 -1 -1 -1 -1 -1 -1 -1 -1 -1 -1
 NAtoms=     18 NQM=       18 NQMF=       0 NMMI=      0 NMMIF=      0
                NMic=       0 NMicF=      0.
                    Isotopes and Nuclear Properties:
 (Nuclear quadrupole moments (NQMom) in fm**2, nuclear magnetic moments (NMagM)
  in nuclear magnetons)

  Atom         1           2           3           4           5           6           7           8           9          10
 IAtWgt=          12          12          14          16          12          12           1           1           1           1
 AtmWgt=  12.0000000  12.0000000  14.0030740  15.9949146  12.0000000  12.0000000   1.0078250   1.0078250   1.0078250   1.0078250
 NucSpn=           0           0           2           0           0           0           1           1           1           1
 AtZEff=  -0.0000000  -0.0000000  -0.0000000  -0.0000000  -0.0000000  -0.0000000  -0.0000000  -0.0000000  -0.0000000  -0.0000000
 NQMom=    0.0000000   0.0000000   2.0440000   0.0000000   0.0000000   0.0000000   0.0000000   0.0000000   0.0000000   0.0000000
 NMagM=    0.0000000   0.0000000   0.4037610   0.0000000   0.0000000   0.0000000   2.7928460   2.7928460   2.7928460   2.7928460
 AtZNuc=   6.0000000   6.0000000   7.0000000   8.0000000   6.0000000   6.0000000   1.0000000   1.0000000   1.0000000   1.0000000

  Atom        11          12          13          14          15          16          17          18
 IAtWgt=           1           1           1           1           1           1           1           1
 AtmWgt=   1.0078250   1.0078250   1.0078250   1.0078250   1.0078250   1.0078250   1.0078250   1.0078250
 NucSpn=           1           1           1           1           1           1           1           1
 AtZEff=  -0.0000000  -0.0000000  -0.0000000  -0.0000000  -0.0000000  -0.0000000  -0.0000000  -0.0000000
 NQMom=    0.0000000   0.0000000   0.0000000   0.0000000   0.0000000   0.0000000   0.0000000   0.0000000
 NMagM=    2.7928460   2.7928460   2.7928460   2.7928460   2.7928460   2.7928460   2.7928460   2.7928460
 AtZNuc=   1.0000000   1.0000000   1.0000000   1.0000000   1.0000000   1.0000000   1.0000000   1.0000000
 Leave Link  101 at Mon Oct 14 00:04:06 2019, MaxMem= 10737418240 cpu:               9.0 elap:               0.4
 (Enter /apps/cent7/gaussian/g16-A.03/g16-haswell/g16/l103.exe)

 GradGradGradGradGradGradGradGradGradGradGradGradGradGradGradGradGradGrad
 Berny optimization.
 Initialization pass.
                           ----------------------------
                           !    Initial Parameters    !
                           ! (Angstroms and Degrees)  !
 --------------------------                            --------------------------
 ! Name  Definition              Value          Derivative Info.                !
 --------------------------------------------------------------------------------
 ! R1    R(1,2)                  1.5596         estimate D2E/DX2                !
 ! R2    R(1,7)                  1.09           estimate D2E/DX2                !
 ! R3    R(1,8)                  1.09           estimate D2E/DX2                !
 ! R4    R(1,9)                  1.0901         estimate D2E/DX2                !
 ! R5    R(2,3)                  1.4877         estimate D2E/DX2                !
 ! R6    R(2,5)                  1.5614         estimate D2E/DX2                !
 ! R7    R(2,6)                  1.5585         estimate D2E/DX2                !
 ! R8    R(3,4)                  1.3592         estimate D2E/DX2                !
 ! R9    R(3,10)                 1.0            estimate D2E/DX2                !
 ! R10   R(3,18)                 1.0            estimate D2E/DX2                !
 ! R11   R(4,11)                 0.96           estimate D2E/DX2                !
 ! R12   R(5,12)                 1.09           estimate D2E/DX2                !
 ! R13   R(5,13)                 1.0901         estimate D2E/DX2                !
 ! R14   R(5,14)                 1.09           estimate D2E/DX2                !
 ! R15   R(6,15)                 1.09           estimate D2E/DX2                !
 ! R16   R(6,16)                 1.09           estimate D2E/DX2                !
 ! R17   R(6,17)                 1.09           estimate D2E/DX2                !
 ! A1    A(2,1,7)              109.4717         estimate D2E/DX2                !
 ! A2    A(2,1,8)              109.4741         estimate D2E/DX2                !
 ! A3    A(2,1,9)              109.4712         estimate D2E/DX2                !
 ! A4    A(7,1,8)              109.4728         estimate D2E/DX2                !
 ! A5    A(7,1,9)              109.4679         estimate D2E/DX2                !
 ! A6    A(8,1,9)              109.4697         estimate D2E/DX2                !
 ! A7    A(1,2,3)              109.7761         estimate D2E/DX2                !
 ! A8    A(1,2,5)              111.1936         estimate D2E/DX2                !
 ! A9    A(1,2,6)              109.2393         estimate D2E/DX2                !
 ! A10   A(3,2,5)              110.66           estimate D2E/DX2                !
 ! A11   A(3,2,6)              106.6127         estimate D2E/DX2                !
 ! A12   A(5,2,6)              109.2403         estimate D2E/DX2                !
 ! A13   A(2,3,4)              113.3924         estimate D2E/DX2                !
 ! A14   A(2,3,10)             108.662          estimate D2E/DX2                !
 ! A15   A(2,3,18)             108.662          estimate D2E/DX2                !
 ! A16   A(4,3,10)             108.662          estimate D2E/DX2                !
 ! A17   A(4,3,18)             108.662          estimate D2E/DX2                !
 ! A18   A(10,3,18)            108.709          estimate D2E/DX2                !
 ! A19   A(3,4,11)             109.4718         estimate D2E/DX2                !
 ! A20   A(2,5,12)             109.4677         estimate D2E/DX2                !
 ! A21   A(2,5,13)             109.471          estimate D2E/DX2                !
 ! A22   A(2,5,14)             109.4687         estimate D2E/DX2                !
 ! A23   A(12,5,13)            109.4685         estimate D2E/DX2                !
 ! A24   A(12,5,14)            109.4765         estimate D2E/DX2                !
 ! A25   A(13,5,14)            109.4749         estimate D2E/DX2                !
 ! A26   A(2,6,15)             109.4717         estimate D2E/DX2                !
 ! A27   A(2,6,16)             109.4699         estimate D2E/DX2                !
 ! A28   A(2,6,17)             109.4729         estimate D2E/DX2                !
 ! A29   A(15,6,16)            109.47           estimate D2E/DX2                !
 ! A30   A(15,6,17)            109.4735         estimate D2E/DX2                !
 ! A31   A(16,6,17)            109.4693         estimate D2E/DX2                !
 ! D1    D(7,1,2,3)            160.0515         estimate D2E/DX2                !
 ! D2    D(7,1,2,5)            -77.1594         estimate D2E/DX2                !
 ! D3    D(7,1,2,6)             43.4824         estimate D2E/DX2                !
 ! D4    D(8,1,2,3)            -79.9445         estimate D2E/DX2                !
 ! D5    D(8,1,2,5)             42.8445         estimate D2E/DX2                !
 ! D6    D(8,1,2,6)            163.4863         estimate D2E/DX2                !
 ! D7    D(9,1,2,3)             40.0553         estimate D2E/DX2                !
 ! D8    D(9,1,2,5)            162.8444         estimate D2E/DX2                !
 ! D9    D(9,1,2,6)            -76.5138         estimate D2E/DX2                !
 ! D10   D(1,2,3,4)             62.9096         estimate D2E/DX2                !
 ! D11   D(1,2,3,10)          -176.1538         estimate D2E/DX2                !
 ! D12   D(1,2,3,18)           -58.0271         estimate D2E/DX2                !
 ! D13   D(5,2,3,4)            -60.1943         estimate D2E/DX2                !
 ! D14   D(5,2,3,10)            60.7423         estimate D2E/DX2                !
 ! D15   D(5,2,3,18)           178.869          estimate D2E/DX2                !
 ! D16   D(6,2,3,4)           -178.8812         estimate D2E/DX2                !
 ! D17   D(6,2,3,10)           -57.9445         estimate D2E/DX2                !
 ! D18   D(6,2,3,18)            60.1822         estimate D2E/DX2                !
 ! D19   D(1,2,5,12)           148.5281         estimate D2E/DX2                !
 ! D20   D(1,2,5,13)           -91.4775         estimate D2E/DX2                !
 ! D21   D(1,2,5,14)            28.5254         estimate D2E/DX2                !
 ! D22   D(3,2,5,12)           -89.1931         estimate D2E/DX2                !
 ! D23   D(3,2,5,13)            30.8012         estimate D2E/DX2                !
 ! D24   D(3,2,5,14)           150.8041         estimate D2E/DX2                !
 ! D25   D(6,2,5,12)            27.887          estimate D2E/DX2                !
 ! D26   D(6,2,5,13)           147.8813         estimate D2E/DX2                !
 ! D27   D(6,2,5,14)           -92.1158         estimate D2E/DX2                !
 ! D28   D(1,2,6,15)           -42.0711         estimate D2E/DX2                !
 ! D29   D(1,2,6,16)            77.9269         estimate D2E/DX2                !
 ! D30   D(1,2,6,17)          -162.0752         estimate D2E/DX2                !
 ! D31   D(3,2,6,15)          -160.6323         estimate D2E/DX2                !
 ! D32   D(3,2,6,16)           -40.6343         estimate D2E/DX2                !
 ! D33   D(3,2,6,17)            79.3636         estimate D2E/DX2                !
 ! D34   D(5,2,6,15)            79.7568         estimate D2E/DX2                !
 ! D35   D(5,2,6,16)          -160.2452         estimate D2E/DX2                !
 ! D36   D(5,2,6,17)           -40.2473         estimate D2E/DX2                !
 ! D37   D(2,3,4,11)           -20.5039         estimate D2E/DX2                !
 ! D38   D(10,3,4,11)         -141.4406         estimate D2E/DX2                !
 ! D39   D(18,3,4,11)          100.4327         estimate D2E/DX2                !
 --------------------------------------------------------------------------------
 Trust Radius=3.00D-01 FncErr=1.00D-07 GrdErr=1.00D-06 EigMax=2.50D+02 EigMin=1.00D-04
 Number of steps in this run=     97 maximum allowed number of steps=    108.
 GradGradGradGradGradGradGradGradGradGradGradGradGradGradGradGradGradGrad

 Leave Link  103 at Mon Oct 14 00:04:06 2019, MaxMem= 10737418240 cpu:               0.3 elap:               0.0
 (Enter /apps/cent7/gaussian/g16-A.03/g16-haswell/g16/l202.exe)
                          Input orientation:                          
 ---------------------------------------------------------------------
 Center     Atomic      Atomic             Coordinates (Angstroms)
 Number     Number       Type             X           Y           Z
 ---------------------------------------------------------------------
      1          6           0        2.047600   -0.764000   -1.287400
      2          6           0        1.507300   -0.008000   -0.034800
      3          7           0        2.024100    1.387000   -0.027100
      4          8           0        1.605800    2.123300   -1.090200
      5          6           0       -0.053700   -0.017400    0.000400
      6          6           0        2.054200   -0.692900    1.253900
      7          1           0        1.976200   -1.839000   -1.121800
      8          1           0        1.455000   -0.490700   -2.160400
      9          1           0        3.089400   -0.490700   -1.455400
     10          1           0        1.719883    1.836308    0.812885
     11          1           0        1.327900    1.535900   -1.796800
     12          1           0       -0.393700   -0.019400    1.036000
     13          1           0       -0.433900    0.870400   -0.505100
     14          1           0       -0.423100   -0.909600   -0.505100
     15          1           0        2.005300   -1.775700    1.138600
     16          1           0        3.089200   -0.391000    1.414500
     17          1           0        1.450700   -0.391000    2.109900
     18          1           0        3.023669    1.357960   -0.031420
 ---------------------------------------------------------------------
                    Distance matrix (angstroms):
                    1          2          3          4          5
     1  C    0.000000
     2  C    1.559637   0.000000
     3  N    2.493132   1.487672   0.000000
     4  O    2.927555   2.380338   1.359152   0.000000
     5  C    2.575131   1.561425   2.508057   2.919922   0.000000
     6  C    2.542303   1.558504   2.442919   3.691456   2.543778
     7  H    1.090021   2.180366   3.407013   3.979700   2.949246
     8  H    1.089953   2.180346   2.898379   2.828615   2.677545
     9  H    1.090075   2.180400   2.588564   3.027777   3.496061
    10  H    3.358600   2.040890   1.000000   1.927981   2.691090
    11  H    2.463127   2.349565   1.907539   0.959974   2.747997
    12  H    3.451458   2.181867   2.992307   3.620758   1.089987
    13  H    3.072637   2.181978   2.556780   2.464240   1.090078
    14  H    2.595679   2.181859   3.389933   3.695573   1.089958
    15  H    2.628840   2.179366   3.370739   4.508808   2.937107
    16  H    2.919644   2.179350   2.524665   3.846518   3.466565
    17  H    3.469447   2.179365   2.838457   4.072640   2.617783
    18  H    2.651963   2.040890   1.000000   1.927981   3.370879
                    6          7          8          9         10
     6  C    0.000000
     7  H    2.638860   0.000000
     8  H    3.472372   1.779959   0.000000
     9  H    2.907375   1.780005   1.779969   0.000000
    10  H    2.589045   4.161321   3.784911   3.526423   0.000000
    11  H    3.847315   3.502266   2.062878   2.706759   2.656003
    12  H    2.548195   3.685576   3.722471   4.308269   2.821465
    13  H    3.424709   3.678281   2.856668   3.894779   2.703488
    14  H    3.045990   2.645892   2.538258   3.662814   3.724174
    15  H    1.090019   2.261473   3.582940   3.091170   3.637878
    16  H    1.090028   3.125426   3.931979   2.871631   2.682884
    17  H    1.089996   3.580047   4.271466   3.925130   2.591449
    18  H    2.607287   3.536477   3.226580   2.334434   1.625277
                   11         12         13         14         15
    11  H    0.000000
    12  H    3.661642   0.000000
    13  H    2.283707   1.779986   0.000000
    14  H    3.273371   1.779975   1.780033   0.000000
    15  H    4.476845   2.974948   3.956424   3.057614   0.000000
    16  H    4.138547   3.523059   4.205737   4.036095   1.779987
    17  H    4.357789   2.166370   3.461369   3.258573   1.780000
    18  H    2.454355   3.836003   3.523758   4.152881   3.496548
                   16         17         18
    16  H    0.000000
    17  H    1.779962   0.000000
    18  H    2.270207   3.180935   0.000000
 Stoichiometry    C4H12NO(1+)
 Framework group  C1[X(C4H12NO)]
 Deg. of freedom    48
 Full point group                 C1      NOp   1
 Largest Abelian subgroup         C1      NOp   1
 Largest concise Abelian subgroup C1      NOp   1
                         Standard orientation:                         
 ---------------------------------------------------------------------
 Center     Atomic      Atomic             Coordinates (Angstroms)
 Number     Number       Type             X           Y           Z
 ---------------------------------------------------------------------
      1          6           0       -0.410654    1.219419   -0.995517
      2          6           0       -0.382361    0.026590    0.008885
      3          7           0        0.840414   -0.790742   -0.214625
      4          8           0        1.994059   -0.109801    0.014981
      5          6           0       -0.446002    0.530327    1.485451
      6          6           0       -1.599148   -0.907014   -0.268148
      7          1           0       -1.429358    1.597425   -1.082109
      8          1           0        0.242282    2.013992   -0.634513
      9          1           0       -0.064702    0.880424   -1.972075
     10          1           0        0.810631   -1.584024    0.393500
     11          1           0        1.823815    0.833709   -0.033554
     12          1           0       -0.965650   -0.206083    2.098426
     13          1           0        0.566025    0.670325    1.865548
     14          1           0       -0.982678    1.478256    1.523082
     15          1           0       -2.485865   -0.301855   -0.456978
     16          1           0       -1.390173   -1.527222   -1.139831
     17          1           0       -1.772401   -1.544956    0.598516
     18          1           0        0.841692   -1.112316   -1.161509
 ---------------------------------------------------------------------
 Rotational constants (GHZ):           4.2646897           2.6649948           2.6594527
 Leave Link  202 at Mon Oct 14 00:04:06 2019, MaxMem= 10737418240 cpu:               1.8 elap:               0.1
 (Enter /apps/cent7/gaussian/g16-A.03/g16-haswell/g16/l301.exe)
 Standard basis: 6-311++G(d,p) (5D, 7F)
 Ernie: Thresh=  0.10000D-02 Tol=  0.10000D-05 Strict=F.
 There are   222 symmetry adapted cartesian basis functions of A   symmetry.
 There are   216 symmetry adapted basis functions of A   symmetry.
   216 basis functions,   324 primitive gaussians,   222 cartesian basis functions
    25 alpha electrons       25 beta electrons
       nuclear repulsion energy       283.4323952423 Hartrees.
 IExCor= 4336 DFT=T Ex+Corr=M062X ExCW=0 ScaHFX=  0.540000
 ScaDFX=  1.000000  1.000000  1.000000  1.000000 ScalE2=  1.000000  1.000000
 IRadAn=      5 IRanWt=     -1 IRanGd=            0 ICorTp=0 IEmpDi=  4
 NAtoms=   18 NActive=   18 NUniq=   18 SFac= 1.00D+00 NAtFMM=   60 NAOKFM=F Big=F
 Integral buffers will be    131072 words long.
 Raffenetti 2 integral format.
 Two-electron integral symmetry is turned on.
 Leave Link  301 at Mon Oct 14 00:04:06 2019, MaxMem= 10737418240 cpu:               1.3 elap:               0.1
 (Enter /apps/cent7/gaussian/g16-A.03/g16-haswell/g16/l302.exe)
 NPDir=0 NMtPBC=     1 NCelOv=     1 NCel=       1 NClECP=     1 NCelD=      1
         NCelK=      1 NCelE2=     1 NClLst=     1 CellRange=     0.0.
 One-electron integrals computed using PRISM.
 One-electron integral symmetry used in STVInt
 NBasis=   216 RedAO= T EigKep=  1.63D-05  NBF=   216
 NBsUse=   216 1.00D-06 EigRej= -1.00D+00 NBFU=   216
 Precomputing XC quadrature grid using
 IXCGrd= 4 IRadAn=           5 IRanWt=          -1 IRanGd=           0 AccXCQ= 0.00D+00.
 Generated NRdTot=       0 NPtTot=           0 NUsed=           0 NTot=          32
 NSgBfM=   222   222   222   222   222 MxSgAt=    18 MxSgA2=    18.
 Leave Link  302 at Mon Oct 14 00:04:06 2019, MaxMem= 10737418240 cpu:               4.0 elap:               0.2
 (Enter /apps/cent7/gaussian/g16-A.03/g16-haswell/g16/l303.exe)
 DipDrv:  MaxL=1.
 Leave Link  303 at Mon Oct 14 00:04:06 2019, MaxMem= 10737418240 cpu:               0.9 elap:               0.1
 (Enter /apps/cent7/gaussian/g16-A.03/g16-haswell/g16/l401.exe)
 ExpMin= 3.60D-02 ExpMax= 8.59D+03 ExpMxC= 1.30D+03 IAcc=3 IRadAn=         5 AccDes= 0.00D+00
 Harris functional with IExCor= 1009 and IRadAn=       5 diagonalized for initial guess.
 HarFok:  IExCor= 1009 AccDes= 0.00D+00 IRadAn=         5 IDoV= 1 UseB2=F ITyADJ=14
 ICtDFT=  3500011 ScaDFX=  1.000000  1.000000  1.000000  1.000000
 FoFCou: FMM=F IPFlag=           0 FMFlag=      100000 FMFlg1=           0
         NFxFlg=           0 DoJE=T BraDBF=F KetDBF=T FulRan=T
         wScrn=  0.000000 ICntrl=       500 IOpCl=  0 I1Cent=   200000004 NGrid=           0
         NMat0=    1 NMatS0=      1 NMatT0=    0 NMatD0=    1 NMtDS0=    0 NMtDT0=    0
 Petite list used in FoFCou.
 Harris En= -289.232164691797    
 JPrj=0 DoOrth=F DoCkMO=F.
 Leave Link  401 at Mon Oct 14 00:04:07 2019, MaxMem= 10737418240 cpu:               9.3 elap:               0.4
 (Enter /apps/cent7/gaussian/g16-A.03/g16-haswell/g16/l502.exe)
 Integral symmetry usage will be decided dynamically.
 Closed shell SCF:
 Using DIIS extrapolation, IDIIS=  1040.
 NGot= 10737418240 LenX= 10737311970 LenY= 10737262245
 Requested convergence on RMS density matrix=1.00D-08 within 128 cycles.
 Requested convergence on MAX density matrix=1.00D-06.
 Requested convergence on             energy=1.00D-06.
 No special actions if energy rises.
 Fock matrices will be formed incrementally for  20 cycles.

 Cycle   1  Pass 1  IDiag  1:
 FoFJK:  IHMeth= 1 ICntrl=       0 DoSepK=F KAlg= 0 I1Cent=           0 FoldK=F
 IRaf= 990000000 NMat=       1 IRICut=       1 DoRegI=T DoRafI=F ISym2E= 0 IDoP0=0 IntGTp=1.
 FoFCou: FMM=F IPFlag=           0 FMFlag=      100000 FMFlg1=           0
         NFxFlg=           0 DoJE=F BraDBF=F KetDBF=F FulRan=T
         wScrn=  0.000000 ICntrl=         0 IOpCl=  0 I1Cent=           0 NGrid=           0
         NMat0=    1 NMatS0=      1 NMatT0=    0 NMatD0=    1 NMtDS0=    0 NMtDT0=    0
 Symmetry not used in FoFCou.
 E= -289.043425065563    
 DIIS: error= 2.77D-02 at cycle   1 NSaved=   1.
 NSaved= 1 IEnMin= 1 EnMin= -289.043425065563     IErMin= 1 ErrMin= 2.77D-02
 ErrMax= 2.77D-02  0.00D+00 EMaxC= 1.00D-01 BMatC= 2.76D-01 BMatP= 2.76D-01
 IDIUse=3 WtCom= 7.23D-01 WtEn= 2.77D-01
 Coeff-Com:  0.100D+01
 Coeff-En:   0.100D+01
 Coeff:      0.100D+01
 Gap=     0.472 Goal=   None    Shift=    0.000
 GapD=    0.472 DampG=2.000 DampE=0.500 DampFc=1.0000 IDamp=-1.
 RMSDP=6.38D-03 MaxDP=1.68D-01              OVMax= 1.58D-01

 Cycle   2  Pass 1  IDiag  1:
 RMSU=  6.36D-03    CP:  1.03D+00
 E= -289.099915677722     Delta-E=       -0.056490612160 Rises=F Damp=F
 DIIS: error= 2.60D-02 at cycle   2 NSaved=   2.
 NSaved= 2 IEnMin= 2 EnMin= -289.099915677722     IErMin= 2 ErrMin= 2.60D-02
 ErrMax= 2.60D-02  0.00D+00 EMaxC= 1.00D-01 BMatC= 1.77D-01 BMatP= 2.76D-01
 IDIUse=3 WtCom= 7.40D-01 WtEn= 2.60D-01
 Coeff-Com:  0.440D+00 0.560D+00
 Coeff-En:   0.416D+00 0.584D+00
 Coeff:      0.434D+00 0.566D+00
 Gap=     0.426 Goal=   None    Shift=    0.000
 RMSDP=2.97D-03 MaxDP=1.14D-01 DE=-5.65D-02 OVMax= 8.11D-02

 Cycle   3  Pass 1  IDiag  1:
 RMSU=  1.86D-03    CP:  1.00D+00  6.45D-01
 E= -289.256974112395     Delta-E=       -0.157058434673 Rises=F Damp=F
 DIIS: error= 4.26D-03 at cycle   3 NSaved=   3.
 NSaved= 3 IEnMin= 3 EnMin= -289.256974112395     IErMin= 3 ErrMin= 4.26D-03
 ErrMax= 4.26D-03  0.00D+00 EMaxC= 1.00D-01 BMatC= 5.10D-03 BMatP= 1.77D-01
 IDIUse=3 WtCom= 9.57D-01 WtEn= 4.26D-02
 Coeff-Com:  0.751D-01 0.181D+00 0.744D+00
 Coeff-En:   0.000D+00 0.000D+00 0.100D+01
 Coeff:      0.719D-01 0.173D+00 0.755D+00
 Gap=     0.424 Goal=   None    Shift=    0.000
 RMSDP=3.88D-04 MaxDP=1.51D-02 DE=-1.57D-01 OVMax= 1.83D-02

 Cycle   4  Pass 1  IDiag  1:
 RMSU=  3.37D-04    CP:  1.00D+00  6.74D-01  9.75D-01
 E= -289.260068859709     Delta-E=       -0.003094747314 Rises=F Damp=F
 DIIS: error= 1.70D-03 at cycle   4 NSaved=   4.
 NSaved= 4 IEnMin= 4 EnMin= -289.260068859709     IErMin= 4 ErrMin= 1.70D-03
 ErrMax= 1.70D-03  0.00D+00 EMaxC= 1.00D-01 BMatC= 8.81D-04 BMatP= 5.10D-03
 IDIUse=3 WtCom= 9.83D-01 WtEn= 1.70D-02
 Coeff-Com:  0.403D-02 0.454D-01 0.368D+00 0.583D+00
 Coeff-En:   0.000D+00 0.000D+00 0.408D-01 0.959D+00
 Coeff:      0.397D-02 0.446D-01 0.362D+00 0.589D+00
 Gap=     0.421 Goal=   None    Shift=    0.000
 RMSDP=1.83D-04 MaxDP=1.22D-02 DE=-3.09D-03 OVMax= 6.02D-03

 Cycle   5  Pass 1  IDiag  1:
 RMSU=  1.33D-04    CP:  9.94D-01  6.67D-01  9.94D-01  8.10D-01
 E= -289.260710242403     Delta-E=       -0.000641382694 Rises=F Damp=F
 DIIS: error= 2.76D-04 at cycle   5 NSaved=   5.
 NSaved= 5 IEnMin= 5 EnMin= -289.260710242403     IErMin= 5 ErrMin= 2.76D-04
 ErrMax= 2.76D-04  0.00D+00 EMaxC= 1.00D-01 BMatC= 1.45D-05 BMatP= 8.81D-04
 IDIUse=3 WtCom= 9.97D-01 WtEn= 2.76D-03
 Coeff-Com: -0.247D-02 0.507D-02 0.708D-01 0.175D+00 0.752D+00
 Coeff-En:   0.000D+00 0.000D+00 0.000D+00 0.000D+00 0.100D+01
 Coeff:     -0.246D-02 0.506D-02 0.706D-01 0.174D+00 0.753D+00
 Gap=     0.421 Goal=   None    Shift=    0.000
 RMSDP=6.66D-05 MaxDP=4.53D-03 DE=-6.41D-04 OVMax= 7.94D-04

 Cycle   6  Pass 1  IDiag  1:
 RMSU=  4.26D-05    CP:  9.96D-01  6.70D-01  1.00D+00  8.26D-01  7.94D-01
 E= -289.260720127282     Delta-E=       -0.000009884879 Rises=F Damp=F
 DIIS: error= 7.69D-05 at cycle   6 NSaved=   6.
 NSaved= 6 IEnMin= 6 EnMin= -289.260720127282     IErMin= 6 ErrMin= 7.69D-05
 ErrMax= 7.69D-05  0.00D+00 EMaxC= 1.00D-01 BMatC= 1.50D-06 BMatP= 1.45D-05
 IDIUse=1 WtCom= 1.00D+00 WtEn= 0.00D+00
 Coeff-Com: -0.100D-02-0.185D-03 0.888D-02 0.372D-01 0.290D+00 0.665D+00
 Coeff:     -0.100D-02-0.185D-03 0.888D-02 0.372D-01 0.290D+00 0.665D+00
 Gap=     0.421 Goal=   None    Shift=    0.000
 RMSDP=1.25D-05 MaxDP=1.16D-03 DE=-9.88D-06 OVMax= 3.26D-04

 Cycle   7  Pass 1  IDiag  1:
 RMSU=  7.88D-06    CP:  9.96D-01  6.70D-01  1.01D+00  8.29D-01  8.42D-01
                    CP:  9.11D-01
 E= -289.260721247013     Delta-E=       -0.000001119731 Rises=F Damp=F
 DIIS: error= 1.75D-05 at cycle   7 NSaved=   7.
 NSaved= 7 IEnMin= 7 EnMin= -289.260721247013     IErMin= 7 ErrMin= 1.75D-05
 ErrMax= 1.75D-05  0.00D+00 EMaxC= 1.00D-01 BMatC= 1.05D-07 BMatP= 1.50D-06
 IDIUse=1 WtCom= 1.00D+00 WtEn= 0.00D+00
 Coeff-Com:  0.175D-04-0.790D-03-0.691D-02-0.138D-01-0.235D-01 0.189D+00
 Coeff-Com:  0.856D+00
 Coeff:      0.175D-04-0.790D-03-0.691D-02-0.138D-01-0.235D-01 0.189D+00
 Coeff:      0.856D+00
 Gap=     0.421 Goal=   None    Shift=    0.000
 RMSDP=4.20D-06 MaxDP=1.26D-04 DE=-1.12D-06 OVMax= 6.22D-05

 Cycle   8  Pass 1  IDiag  1:
 RMSU=  1.88D-06    CP:  9.96D-01  6.70D-01  1.01D+00  8.33D-01  8.46D-01
                    CP:  9.84D-01  1.05D+00
 E= -289.260721344267     Delta-E=       -0.000000097254 Rises=F Damp=F
 DIIS: error= 3.04D-06 at cycle   8 NSaved=   8.
 NSaved= 8 IEnMin= 8 EnMin= -289.260721344267     IErMin= 8 ErrMin= 3.04D-06
 ErrMax= 3.04D-06  0.00D+00 EMaxC= 1.00D-01 BMatC= 2.03D-09 BMatP= 1.05D-07
 IDIUse=1 WtCom= 1.00D+00 WtEn= 0.00D+00
 Coeff-Com:  0.257D-04-0.142D-03-0.125D-02-0.330D-02-0.115D-01 0.138D-01
 Coeff-Com:  0.136D+00 0.867D+00
 Coeff:      0.257D-04-0.142D-03-0.125D-02-0.330D-02-0.115D-01 0.138D-01
 Coeff:      0.136D+00 0.867D+00
 Gap=     0.421 Goal=   None    Shift=    0.000
 RMSDP=1.13D-06 MaxDP=9.84D-05 DE=-9.73D-08 OVMax= 1.35D-05

 Cycle   9  Pass 1  IDiag  1:
 RMSU=  7.74D-07    CP:  9.96D-01  6.70D-01  1.01D+00  8.33D-01  8.50D-01
                    CP:  9.89D-01  1.08D+00  1.09D+00
 E= -289.260721346542     Delta-E=       -0.000000002275 Rises=F Damp=F
 DIIS: error= 1.39D-06 at cycle   9 NSaved=   9.
 NSaved= 9 IEnMin= 9 EnMin= -289.260721346542     IErMin= 9 ErrMin= 1.39D-06
 ErrMax= 1.39D-06  0.00D+00 EMaxC= 1.00D-01 BMatC= 3.16D-10 BMatP= 2.03D-09
 IDIUse=1 WtCom= 1.00D+00 WtEn= 0.00D+00
 Coeff-Com:  0.788D-05 0.773D-05 0.703D-04-0.135D-03-0.219D-02-0.976D-02
 Coeff-Com: -0.219D-01 0.276D+00 0.758D+00
 Coeff:      0.788D-05 0.773D-05 0.703D-04-0.135D-03-0.219D-02-0.976D-02
 Coeff:     -0.219D-01 0.276D+00 0.758D+00
 Gap=     0.421 Goal=   None    Shift=    0.000
 RMSDP=2.65D-07 MaxDP=1.77D-05 DE=-2.28D-09 OVMax= 5.11D-06

 Cycle  10  Pass 1  IDiag  1:
 RMSU=  1.12D-07    CP:  9.96D-01  6.70D-01  1.01D+00  8.33D-01  8.49D-01
                    CP:  9.91D-01  1.09D+00  1.15D+00  9.31D-01
 E= -289.260721346850     Delta-E=       -0.000000000308 Rises=F Damp=F
 DIIS: error= 5.80D-07 at cycle  10 NSaved=  10.
 NSaved=10 IEnMin=10 EnMin= -289.260721346850     IErMin=10 ErrMin= 5.80D-07
 ErrMax= 5.80D-07  0.00D+00 EMaxC= 1.00D-01 BMatC= 3.41D-11 BMatP= 3.16D-10
 IDIUse=1 WtCom= 1.00D+00 WtEn= 0.00D+00
 Coeff-Com:  0.104D-05 0.120D-04 0.111D-03 0.157D-03-0.995D-04-0.499D-02
 Coeff-Com: -0.183D-01 0.516D-01 0.308D+00 0.664D+00
 Coeff:      0.104D-05 0.120D-04 0.111D-03 0.157D-03-0.995D-04-0.499D-02
 Coeff:     -0.183D-01 0.516D-01 0.308D+00 0.664D+00
 Gap=     0.421 Goal=   None    Shift=    0.000
 RMSDP=8.29D-08 MaxDP=7.16D-06 DE=-3.08D-10 OVMax= 1.25D-06

 Cycle  11  Pass 1  IDiag  1:
 RMSU=  3.36D-08    CP:  9.96D-01  6.70D-01  1.01D+00  8.33D-01  8.49D-01
                    CP:  9.90D-01  1.09D+00  1.16D+00  9.66D-01  9.10D-01
 E= -289.260721346887     Delta-E=       -0.000000000037 Rises=F Damp=F
 DIIS: error= 4.52D-08 at cycle  11 NSaved=  11.
 NSaved=11 IEnMin=11 EnMin= -289.260721346887     IErMin=11 ErrMin= 4.52D-08
 ErrMax= 4.52D-08  0.00D+00 EMaxC= 1.00D-01 BMatC= 7.29D-13 BMatP= 3.41D-11
 IDIUse=1 WtCom= 1.00D+00 WtEn= 0.00D+00
 Coeff-Com: -0.324D-06 0.172D-06-0.247D-05 0.295D-05 0.141D-03 0.563D-03
 Coeff-Com:  0.112D-02-0.172D-01-0.397D-01 0.426D-01 0.101D+01
 Coeff:     -0.324D-06 0.172D-06-0.247D-05 0.295D-05 0.141D-03 0.563D-03
 Coeff:      0.112D-02-0.172D-01-0.397D-01 0.426D-01 0.101D+01
 Gap=     0.421 Goal=   None    Shift=    0.000
 RMSDP=1.58D-08 MaxDP=4.70D-07 DE=-3.69D-11 OVMax= 4.52D-07

 Cycle  12  Pass 1  IDiag  1:
 RMSU=  7.71D-09    CP:  9.96D-01  6.70D-01  1.01D+00  8.33D-01  8.49D-01
                    CP:  9.90D-01  1.09D+00  1.16D+00  9.76D-01  9.70D-01
                    CP:  1.12D+00
 E= -289.260721346886     Delta-E=        0.000000000001 Rises=F Damp=F
 DIIS: error= 1.39D-08 at cycle  12 NSaved=  12.
 NSaved=12 IEnMin=11 EnMin= -289.260721346887     IErMin=12 ErrMin= 1.39D-08
 ErrMax= 1.39D-08  0.00D+00 EMaxC= 1.00D-01 BMatC= 4.20D-14 BMatP= 7.29D-13
 IDIUse=1 WtCom= 1.00D+00 WtEn= 0.00D+00
 Coeff-Com: -0.985D-07-0.597D-06-0.607D-05-0.830D-05 0.287D-04 0.354D-03
 Coeff-Com:  0.113D-02-0.575D-02-0.235D-01-0.268D-01 0.174D+00 0.881D+00
 Coeff:     -0.985D-07-0.597D-06-0.607D-05-0.830D-05 0.287D-04 0.354D-03
 Coeff:      0.113D-02-0.575D-02-0.235D-01-0.268D-01 0.174D+00 0.881D+00
 Gap=     0.421 Goal=   None    Shift=    0.000
 RMSDP=4.47D-09 MaxDP=2.78D-07 DE= 7.96D-13 OVMax= 1.17D-07

 SCF Done:  E(RM062X) =  -289.260721347     A.U. after   12 cycles
            NFock= 12  Conv=0.45D-08     -V/T= 2.0035
 KE= 2.882585145105D+02 PE=-1.230012282611D+03 EE= 3.690606515115D+02
 Leave Link  502 at Mon Oct 14 00:04:16 2019, MaxMem= 10737418240 cpu:             210.7 elap:               8.8
 (Enter /apps/cent7/gaussian/g16-A.03/g16-haswell/g16/l601.exe)
 Copying SCF densities to generalized density rwf, IOpCl= 0 IROHF=0.

 **********************************************************************

            Population analysis using the SCF density.

 **********************************************************************

 Orbital symmetries:
       Occupied  (A) (A) (A) (A) (A) (A) (A) (A) (A) (A) (A) (A)
                 (A) (A) (A) (A) (A) (A) (A) (A) (A) (A) (A) (A)
                 (A)
       Virtual   (A) (A) (A) (A) (A) (A) (A) (A) (A) (A) (A) (A)
                 (A) (A) (A) (A) (A) (A) (A) (A) (A) (A) (A) (A)
                 (A) (A) (A) (A) (A) (A) (A) (A) (A) (A) (A) (A)
                 (A) (A) (A) (A) (A) (A) (A) (A) (A) (A) (A) (A)
                 (A) (A) (A) (A) (A) (A) (A) (A) (A) (A) (A) (A)
                 (A) (A) (A) (A) (A) (A) (A) (A) (A) (A) (A) (A)
                 (A) (A) (A) (A) (A) (A) (A) (A) (A) (A) (A) (A)
                 (A) (A) (A) (A) (A) (A) (A) (A) (A) (A) (A) (A)
                 (A) (A) (A) (A) (A) (A) (A) (A) (A) (A) (A) (A)
                 (A) (A) (A) (A) (A) (A) (A) (A) (A) (A) (A) (A)
                 (A) (A) (A) (A) (A) (A) (A) (A) (A) (A) (A) (A)
                 (A) (A) (A) (A) (A) (A) (A) (A) (A) (A) (A) (A)
                 (A) (A) (A) (A) (A) (A) (A) (A) (A) (A) (A) (A)
                 (A) (A) (A) (A) (A) (A) (A) (A) (A) (A) (A) (A)
                 (A) (A) (A) (A) (A) (A) (A) (A) (A) (A) (A) (A)
                 (A) (A) (A) (A) (A) (A) (A) (A) (A) (A) (A)
 The electronic state is 1-A.
 Alpha  occ. eigenvalues --  -19.89238 -15.12221 -10.80029 -10.72112 -10.71551
 Alpha  occ. eigenvalues --  -10.71072  -1.49263  -1.24134  -1.09547  -0.98202
 Alpha  occ. eigenvalues --   -0.97119  -0.91511  -0.89806  -0.86449  -0.76744
 Alpha  occ. eigenvalues --   -0.71087  -0.69682  -0.68163  -0.64712  -0.64437
 Alpha  occ. eigenvalues --   -0.63160  -0.62178  -0.61375  -0.58349  -0.58009
 Alpha virt. eigenvalues --   -0.15885  -0.13845  -0.12289  -0.10991  -0.08925
 Alpha virt. eigenvalues --   -0.08876  -0.08477  -0.07789  -0.07395  -0.06901
 Alpha virt. eigenvalues --   -0.05971  -0.05222  -0.04361  -0.03852  -0.03251
 Alpha virt. eigenvalues --   -0.02843  -0.02306  -0.01447  -0.00413  -0.00149
 Alpha virt. eigenvalues --    0.01455   0.01598   0.02201   0.02294   0.02976
 Alpha virt. eigenvalues --    0.03868   0.04123   0.04201   0.04576   0.05018
 Alpha virt. eigenvalues --    0.05416   0.05639   0.06433   0.06936   0.07638
 Alpha virt. eigenvalues --    0.08100   0.09485   0.10895   0.11454   0.11767
 Alpha virt. eigenvalues --    0.12530   0.13355   0.14281   0.14884   0.15888
 Alpha virt. eigenvalues --    0.17095   0.18188   0.18893   0.19578   0.20011
 Alpha virt. eigenvalues --    0.21061   0.26751   0.28885   0.29782   0.31758
 Alpha virt. eigenvalues --    0.34537   0.35275   0.36822   0.38424   0.40055
 Alpha virt. eigenvalues --    0.42149   0.42849   0.43540   0.47148   0.48731
 Alpha virt. eigenvalues --    0.50636   0.51641   0.52543   0.53741   0.54500
 Alpha virt. eigenvalues --    0.55268   0.55652   0.56386   0.57343   0.59675
 Alpha virt. eigenvalues --    0.62441   0.63607   0.65186   0.68068   0.68844
 Alpha virt. eigenvalues --    0.74727   0.79113   0.82221   0.86668   0.89124
 Alpha virt. eigenvalues --    0.90366   0.96941   1.00585   1.02845   1.06369
 Alpha virt. eigenvalues --    1.08386   1.11215   1.16303   1.24195   1.27250
 Alpha virt. eigenvalues --    1.28078   1.31619   1.33271   1.33883   1.34599
 Alpha virt. eigenvalues --    1.38482   1.40251   1.41131   1.43191   1.43538
 Alpha virt. eigenvalues --    1.46076   1.47985   1.49787   1.51239   1.52262
 Alpha virt. eigenvalues --    1.54702   1.55952   1.59744   1.60707   1.63445
 Alpha virt. eigenvalues --    1.63828   1.66846   1.68819   1.70696   1.72438
 Alpha virt. eigenvalues --    1.76781   1.78555   1.82180   1.83106   1.86789
 Alpha virt. eigenvalues --    1.92136   1.92906   1.93790   1.96279   2.00718
 Alpha virt. eigenvalues --    2.04629   2.07798   2.10540   2.16199   2.23683
 Alpha virt. eigenvalues --    2.26443   2.30276   2.32133   2.34295   2.35746
 Alpha virt. eigenvalues --    2.36287   2.37519   2.38839   2.39921   2.42006
 Alpha virt. eigenvalues --    2.42491   2.43930   2.47819   2.49333   2.51847
 Alpha virt. eigenvalues --    2.53094   2.54713   2.56297   2.57672   2.62077
 Alpha virt. eigenvalues --    2.64478   2.67985   2.74749   2.82214   2.83748
 Alpha virt. eigenvalues --    2.91708   2.94340   2.96553   2.99152   3.06722
 Alpha virt. eigenvalues --    3.11303   3.13585   3.16825   3.25436   3.58763
 Alpha virt. eigenvalues --    3.62684   3.65523   3.66899   3.67073   3.69541
 Alpha virt. eigenvalues --    3.70631   3.74329   4.09490   4.10114   4.31409
 Alpha virt. eigenvalues --    4.56402   4.62195   4.95142   5.34509   5.70194
 Alpha virt. eigenvalues --   23.59293  23.84853  23.86516  23.88313  35.35934
 Alpha virt. eigenvalues --   49.80382
          Condensed to atoms (all electrons):
               1          2          3          4          5          6
     1  C    6.241047  -0.740540   0.427496  -0.139270   0.145405  -0.329936
     2  C   -0.740540   7.729836  -1.007881   0.258569  -0.469874   0.359757
     3  N    0.427496  -1.007881   7.481984  -0.022451   0.231190  -0.256533
     4  O   -0.139270   0.258569  -0.022451   7.603816  -0.094890   0.056835
     5  C    0.145405  -0.469874   0.231190  -0.094890   5.817452  -0.219220
     6  C   -0.329936   0.359757  -0.256533   0.056835  -0.219220   5.639407
     7  H    0.446487  -0.033387   0.002528   0.003775  -0.035428  -0.013644
     8  H    0.235339   0.155996  -0.066519   0.002242  -0.032941   0.029252
     9  H    0.303445  -0.032608   0.053887  -0.013169   0.018779   0.010421
    10  H    0.033756  -0.026813   0.344632  -0.049123  -0.002781  -0.002360
    11  H    0.005572   0.041466  -0.086183   0.344847  -0.018931   0.003418
    12  H    0.024448  -0.030233   0.000999  -0.006047   0.398245  -0.039548
    13  H   -0.055212   0.148076  -0.037676   0.028054   0.259808   0.019220
    14  H   -0.032901  -0.003037  -0.015579   0.005710   0.388778   0.023002
    15  H   -0.028569  -0.002488   0.014677  -0.003099   0.000767   0.396755
    16  H    0.034579  -0.120504   0.053500  -0.002324   0.047258   0.338322
    17  H    0.002151   0.046032  -0.021395   0.002315  -0.071125   0.371793
    18  H   -0.123007   0.177143   0.182159  -0.016999  -0.024090   0.025348
               7          8          9         10         11         12
     1  C    0.446487   0.235339   0.303445   0.033756   0.005572   0.024448
     2  C   -0.033387   0.155996  -0.032608  -0.026813   0.041466  -0.030233
     3  N    0.002528  -0.066519   0.053887   0.344632  -0.086183   0.000999
     4  O    0.003775   0.002242  -0.013169  -0.049123   0.344847  -0.006047
     5  C   -0.035428  -0.032941   0.018779  -0.002781  -0.018931   0.398245
     6  C   -0.013644   0.029252   0.010421  -0.002360   0.003418  -0.039548
     7  H    0.465865  -0.020553  -0.039897   0.000694   0.001910  -0.001112
     8  H   -0.020553   0.538858  -0.031175  -0.002166  -0.003813  -0.001481
     9  H   -0.039897  -0.031175   0.543826   0.003755  -0.001426  -0.004032
    10  H    0.000694  -0.002166   0.003755   0.358726   0.007251  -0.004264
    11  H    0.001910  -0.003813  -0.001426   0.007251   0.390801  -0.001212
    12  H   -0.001112  -0.001481  -0.004032  -0.004264  -0.001212   0.506019
    13  H    0.002578   0.004173   0.000552  -0.004795  -0.009305  -0.023422
    14  H   -0.003426   0.002844   0.000012  -0.000704   0.002344  -0.028222
    15  H   -0.009426   0.002079   0.006531  -0.002853  -0.001307   0.005256
    16  H    0.007870  -0.002810  -0.005884   0.006599   0.002706   0.001158
    17  H    0.000823  -0.004776   0.001581  -0.007322  -0.000040   0.007439
    18  H    0.001086   0.008755  -0.010885  -0.044802  -0.003781   0.001713
              13         14         15         16         17         18
     1  C   -0.055212  -0.032901  -0.028569   0.034579   0.002151  -0.123007
     2  C    0.148076  -0.003037  -0.002488  -0.120504   0.046032   0.177143
     3  N   -0.037676  -0.015579   0.014677   0.053500  -0.021395   0.182159
     4  O    0.028054   0.005710  -0.003099  -0.002324   0.002315  -0.016999
     5  C    0.259808   0.388778   0.000767   0.047258  -0.071125  -0.024090
     6  C    0.019220   0.023002   0.396755   0.338322   0.371793   0.025348
     7  H    0.002578  -0.003426  -0.009426   0.007870   0.000823   0.001086
     8  H    0.004173   0.002844   0.002079  -0.002810  -0.004776   0.008755
     9  H    0.000552   0.000012   0.006531  -0.005884   0.001581  -0.010885
    10  H   -0.004795  -0.000704  -0.002853   0.006599  -0.007322  -0.044802
    11  H   -0.009305   0.002344  -0.001307   0.002706  -0.000040  -0.003781
    12  H   -0.023422  -0.028222   0.005256   0.001158   0.007439   0.001713
    13  H    0.515579  -0.030795  -0.000467  -0.007765   0.007656   0.006836
    14  H   -0.030795   0.471559  -0.003378   0.000664   0.002326   0.000997
    15  H   -0.000467  -0.003378   0.474049  -0.037195  -0.025802  -0.001106
    16  H   -0.007765   0.000664  -0.037195   0.572708  -0.037666  -0.010950
    17  H    0.007656   0.002326  -0.025802  -0.037666   0.524294   0.007065
    18  H    0.006836   0.000997  -0.001106  -0.010950   0.007065   0.421870
 Mulliken charges:
               1
     1  C   -0.450290
     2  C   -0.449509
     3  N   -0.278836
     4  O    0.041212
     5  C   -0.338400
     6  C   -0.412289
     7  H    0.223258
     8  H    0.186695
     9  H    0.196287
    10  H    0.392570
    11  H    0.325685
    12  H    0.194294
    13  H    0.176907
    14  H    0.219803
    15  H    0.215577
    16  H    0.159737
    17  H    0.194650
    18  H    0.402650
 Sum of Mulliken charges =   1.00000
 Mulliken charges with hydrogens summed into heavy atoms:
               1
     1  C    0.155950
     2  C   -0.449509
     3  N    0.516384
     4  O    0.366897
     5  C    0.252604
     6  C    0.157674
 Electronic spatial extent (au):  <R**2>=            619.2349
 Charge=              1.0000 electrons
 Dipole moment (field-independent basis, Debye):
    X=              0.0997    Y=             -1.1468    Z=             -0.8884  Tot=              1.4541
 Quadrupole moment (field-independent basis, Debye-Ang):
   XX=            -33.2194   YY=            -28.2377   ZZ=            -32.8724
   XY=             -0.1580   XZ=             -0.9243   YZ=              0.5669
 Traceless Quadrupole moment (field-independent basis, Debye-Ang):
   XX=             -1.7763   YY=              3.2055   ZZ=             -1.4292
   XY=             -0.1580   XZ=             -0.9243   YZ=              0.5669
 Octapole moment (field-independent basis, Debye-Ang**2):
  XXX=             -1.0078  YYY=             -6.9524  ZZZ=             -2.0449  XYY=              8.0137
  XXY=              3.9926  XXZ=             -1.6586  XZZ=              2.7315  YZZ=             -3.0609
  YYZ=             -0.8124  XYZ=              1.8430
 Hexadecapole moment (field-independent basis, Debye-Ang**3):
 XXXX=           -348.6082 YYYY=           -188.5300 ZZZZ=           -203.1916 XXXY=              7.5499
 XXXZ=              3.0337 YYYX=             -9.4909 YYYZ=              0.0756 ZZZX=             -6.3174
 ZZZY=              3.8385 XXYY=            -77.9256 XXZZ=            -91.7250 YYZZ=            -63.0799
 XXYZ=             -0.6537 YYXZ=             -0.9668 ZZXY=             -3.3503
 N-N= 2.834323952423D+02 E-N=-1.230012282334D+03  KE= 2.882585145105D+02
 No NMR shielding tensors so no spin-rotation constants.
 Leave Link  601 at Mon Oct 14 00:04:16 2019, MaxMem= 10737418240 cpu:               3.1 elap:               0.2
 (Enter /apps/cent7/gaussian/g16-A.03/g16-haswell/g16/l701.exe)
 ... and contract with generalized density number  0.
 Compute integral first derivatives.
 Leave Link  701 at Mon Oct 14 00:04:16 2019, MaxMem= 10737418240 cpu:               3.2 elap:               0.2
 (Enter /apps/cent7/gaussian/g16-A.03/g16-haswell/g16/l702.exe)
 L702 exits ... SP integral derivatives will be done elsewhere.
 Leave Link  702 at Mon Oct 14 00:04:16 2019, MaxMem= 10737418240 cpu:               0.5 elap:               0.0
 (Enter /apps/cent7/gaussian/g16-A.03/g16-haswell/g16/l703.exe)
 Integral derivatives from FoFJK, PRISM(SPDF).
 Compute integral first derivatives, UseDBF=F ICtDFT=           0.
 Calling FoFJK, ICntrl=      2127 FMM=F ISym2X=0 I1Cent= 0 IOpClX= 0 NMat=1 NMatS=1 NMatT=0.
 FoFJK:  IHMeth= 1 ICntrl=    2127 DoSepK=F KAlg= 0 I1Cent=           0 FoldK=F
 IRaf=         0 NMat=       1 IRICut=       1 DoRegI=T DoRafI=F ISym2E= 0 IDoP0=0 IntGTp=1.
 FoFCou: FMM=F IPFlag=           0 FMFlag=      100000 FMFlg1=         800
         NFxFlg=           0 DoJE=F BraDBF=F KetDBF=F FulRan=T
         wScrn=  0.000000 ICntrl=      2127 IOpCl=  0 I1Cent=           0 NGrid=           0
         NMat0=    1 NMatS0=      1 NMatT0=    0 NMatD0=    1 NMtDS0=    0 NMtDT0=    0
 Symmetry not used in FoFCou.
 Leave Link  703 at Mon Oct 14 00:04:18 2019, MaxMem= 10737418240 cpu:              37.2 elap:               1.6
 (Enter /apps/cent7/gaussian/g16-A.03/g16-haswell/g16/l716.exe)
 Dipole        = 3.92346373D-02-4.51181622D-01-3.49512788D-01
 ***** Axes restored to original set *****
 -------------------------------------------------------------------
 Center     Atomic                   Forces (Hartrees/Bohr)
 Number     Number              X              Y              Z
 -------------------------------------------------------------------
      1        6          -0.003982724    0.023091754    0.010912468
      2        6          -0.014386896   -0.055183904    0.011027034
      3        7          -0.011798855   -0.025287649   -0.012572467
      4        8          -0.003696087    0.033321232   -0.007702986
      5        6           0.018808269    0.008707664    0.000160287
      6        6          -0.002999498    0.015734454   -0.011434464
      7        1          -0.001661614    0.002595587   -0.001127153
      8        1           0.001409707   -0.004105660   -0.005114758
      9        1           0.003612456   -0.003784065   -0.003055513
     10        1          -0.008530797    0.016254410    0.017560768
     11        1           0.000229552   -0.008643528   -0.004669090
     12        1          -0.003414592    0.001307406   -0.001883897
     13        1          -0.006209372   -0.001783295   -0.001509053
     14        1           0.000189263    0.000817126    0.001001722
     15        1          -0.000211323    0.001950614    0.001468855
     16        1           0.004430407   -0.004917464    0.003093323
     17        1           0.002807472   -0.001179319    0.002892556
     18        1           0.025404633    0.001104638    0.000952367
 -------------------------------------------------------------------
 Cartesian Forces:  Max     0.055183904 RMS     0.012620213
 Leave Link  716 at Mon Oct 14 00:04:18 2019, MaxMem= 10737418240 cpu:               0.7 elap:               0.1
 (Enter /apps/cent7/gaussian/g16-A.03/g16-haswell/g16/l103.exe)

 GradGradGradGradGradGradGradGradGradGradGradGradGradGradGradGradGradGrad
 Berny optimization.
 FormGI is forming the generalized inverse of G from B-inverse, IUseBI=4.
 Internal  Forces:  Max     0.025356863 RMS     0.006438926
 Search for a local minimum.
 Step number   1 out of a maximum of   97
 All quantities printed in internal units (Hartrees-Bohrs-Radians)
 RMS Force = .64389D-02 SwitMx=.10000D-02 MixMth= 1
 Mixed Optimization -- RFO/linear search
 Second derivative matrix not updated -- first step.
 ITU=  0
     Eigenvalues ---    0.00230   0.00230   0.00230   0.00532   0.01835
     Eigenvalues ---    0.04360   0.04783   0.04960   0.05276   0.05715
     Eigenvalues ---    0.05715   0.05715   0.05715   0.05715   0.05716
     Eigenvalues ---    0.06050   0.11794   0.14059   0.14276   0.14535
     Eigenvalues ---    0.16000   0.16000   0.16000   0.16000   0.16000
     Eigenvalues ---    0.16000   0.16000   0.16000   0.16000   0.16000
     Eigenvalues ---    0.22123   0.26702   0.26848   0.26941   0.33706
     Eigenvalues ---    0.34804   0.34804   0.34809   0.34810   0.34810
     Eigenvalues ---    0.34813   0.34814   0.34818   0.34818   0.47688
     Eigenvalues ---    0.47688   0.53119   0.55479
 RFO step:  Lambda=-1.49963914D-02 EMin= 2.30000000D-03
 Linear search not attempted -- first point.
 Iteration  1 RMS(Cart)=  0.04729198 RMS(Int)=  0.00173824
 Iteration  2 RMS(Cart)=  0.00215245 RMS(Int)=  0.00065506
 Iteration  3 RMS(Cart)=  0.00000285 RMS(Int)=  0.00065506
 Iteration  4 RMS(Cart)=  0.00000000 RMS(Int)=  0.00065506
 ITry= 1 IFail=0 DXMaxC= 1.53D-01 DCOld= 1.00D+10 DXMaxT= 3.00D-01 DXLimC= 3.00D+00 Rises=F
 Variable       Old X    -DE/DX   Delta X   Delta X   Delta X     New X
                                 (Linear)    (Quad)   (Total)
    R1        2.94729  -0.01014   0.00000  -0.03577  -0.03577   2.91152
    R2        2.05984  -0.00262   0.00000  -0.00723  -0.00723   2.05261
    R3        2.05971   0.00230   0.00000   0.00634   0.00634   2.06605
    R4        2.05994   0.00298   0.00000   0.00820   0.00820   2.06814
    R5        2.81129   0.01623   0.00000   0.04611   0.04611   2.85740
    R6        2.95067  -0.00948   0.00000  -0.03360  -0.03360   2.91707
    R7        2.94515  -0.00697   0.00000  -0.02451  -0.02451   2.92064
    R8        2.56843   0.02411   0.00000   0.04415   0.04415   2.61257
    R9        1.88973   0.02465   0.00000   0.05012   0.05012   1.93984
   R10        1.88973   0.02536   0.00000   0.05155   0.05155   1.94128
   R11        1.81409   0.00866   0.00000   0.01519   0.01519   1.82928
   R12        2.05978  -0.00073   0.00000  -0.00200  -0.00200   2.05777
   R13        2.05995   0.00141   0.00000   0.00389   0.00389   2.06384
   R14        2.05972  -0.00120   0.00000  -0.00330  -0.00330   2.05643
   R15        2.05984  -0.00208   0.00000  -0.00573  -0.00573   2.05410
   R16        2.05985   0.00330   0.00000   0.00909   0.00909   2.06894
   R17        2.05979   0.00039   0.00000   0.00107   0.00107   2.06087
    A1        1.91064  -0.00334   0.00000  -0.02726  -0.02680   1.88384
    A2        1.91068   0.00830   0.00000   0.05057   0.04966   1.96034
    A3        1.91063   0.00631   0.00000   0.04107   0.04010   1.95074
    A4        1.91066  -0.00402   0.00000  -0.03298  -0.03247   1.87819
    A5        1.91057  -0.00244   0.00000  -0.02024  -0.01985   1.89073
    A6        1.91061  -0.00481   0.00000  -0.01116  -0.01321   1.89740
    A7        1.91595  -0.00213   0.00000  -0.04040  -0.04006   1.87589
    A8        1.94069   0.00035   0.00000   0.01489   0.01228   1.95298
    A9        1.90659   0.00248   0.00000   0.03712   0.03546   1.94205
   A10        1.93138  -0.00139   0.00000  -0.02995  -0.02957   1.90182
   A11        1.86074  -0.00242   0.00000  -0.02832  -0.02729   1.83345
   A12        1.90660   0.00309   0.00000   0.04637   0.04512   1.95173
   A13        1.97907   0.01736   0.00000   0.07666   0.07628   2.05535
   A14        1.89651  -0.00063   0.00000   0.00381   0.00454   1.90105
   A15        1.89651  -0.00224   0.00000   0.00425   0.00381   1.90032
   A16        1.89651  -0.00958   0.00000  -0.05761  -0.05796   1.83855
   A17        1.89651  -0.00583   0.00000  -0.01778  -0.01919   1.87732
   A18        1.89733   0.00045   0.00000  -0.01220  -0.01281   1.88452
   A19        1.91064  -0.00767   0.00000  -0.04384  -0.04384   1.86681
   A20        1.91057   0.00453   0.00000   0.02850   0.02792   1.93849
   A21        1.91063   0.00817   0.00000   0.04884   0.04832   1.95895
   A22        1.91059  -0.00227   0.00000  -0.01774  -0.01750   1.89309
   A23        1.91059  -0.00489   0.00000  -0.01844  -0.01966   1.89093
   A24        1.91072  -0.00180   0.00000  -0.01459  -0.01441   1.89632
   A25        1.91070  -0.00374   0.00000  -0.02656  -0.02627   1.88443
   A26        1.91064  -0.00113   0.00000  -0.01190  -0.01170   1.89894
   A27        1.91061   0.00710   0.00000   0.04233   0.04177   1.95238
   A28        1.91066   0.00487   0.00000   0.03147   0.03087   1.94153
   A29        1.91061  -0.00411   0.00000  -0.03079  -0.03057   1.88004
   A30        1.91067  -0.00242   0.00000  -0.01737  -0.01723   1.89345
   A31        1.91060  -0.00431   0.00000  -0.01373  -0.01495   1.89566
    D1        2.79343   0.00095   0.00000   0.04545   0.04535   2.83877
    D2       -1.34669  -0.00205   0.00000  -0.01045  -0.01045  -1.35714
    D3        0.75891   0.00365   0.00000   0.08123   0.08143   0.84034
    D4       -1.39530  -0.00094   0.00000   0.01934   0.01854  -1.37675
    D5        0.74778  -0.00394   0.00000  -0.03657  -0.03726   0.71052
    D6        2.85337   0.00177   0.00000   0.05511   0.05462   2.90800
    D7        0.69910   0.00213   0.00000   0.06178   0.06227   0.76137
    D8        2.84217  -0.00087   0.00000   0.00588   0.00647   2.84864
    D9       -1.33542   0.00483   0.00000   0.09756   0.09836  -1.23706
   D10        1.09798  -0.00016   0.00000  -0.02300  -0.02284   1.07513
   D11       -3.07446  -0.00144   0.00000  -0.04342  -0.04320  -3.11767
   D12       -1.01276  -0.00251   0.00000  -0.05348  -0.05384  -1.06660
   D13       -1.05059   0.00180   0.00000   0.00606   0.00611  -1.04447
   D14        1.06015   0.00052   0.00000  -0.01437  -0.01424   1.04591
   D15        3.12185  -0.00056   0.00000  -0.02443  -0.02488   3.09698
   D16       -3.12207   0.00028   0.00000  -0.01644  -0.01621  -3.13828
   D17       -1.01132  -0.00100   0.00000  -0.03687  -0.03657  -1.04789
   D18        1.05038  -0.00207   0.00000  -0.04693  -0.04720   1.00317
   D19        2.59230   0.00294   0.00000   0.08844   0.08822   2.68053
   D20       -1.59658   0.00473   0.00000   0.11320   0.11374  -1.48285
   D21        0.49786   0.00376   0.00000   0.09972   0.09983   0.59769
   D22       -1.55671  -0.00050   0.00000   0.02631   0.02603  -1.53069
   D23        0.53758   0.00129   0.00000   0.05108   0.05154   0.58912
   D24        2.63203   0.00031   0.00000   0.03759   0.03764   2.66967
   D25        0.48672  -0.00240   0.00000   0.00222   0.00163   0.48835
   D26        2.58102  -0.00061   0.00000   0.02698   0.02715   2.60817
   D27       -1.60772  -0.00158   0.00000   0.01349   0.01325  -1.59448
   D28       -0.73428  -0.00312   0.00000  -0.10390  -0.10446  -0.83874
   D29        1.36008  -0.00450   0.00000  -0.12298  -0.12393   1.23615
   D30       -2.82875  -0.00245   0.00000  -0.09461  -0.09484  -2.92358
   D31       -2.80356  -0.00055   0.00000  -0.05987  -0.05986  -2.86342
   D32       -0.70920  -0.00193   0.00000  -0.07895  -0.07933  -0.78853
   D33        1.38516   0.00012   0.00000  -0.05058  -0.05024   1.33492
   D34        1.39202   0.00080   0.00000  -0.03319  -0.03259   1.35943
   D35       -2.79681  -0.00057   0.00000  -0.05227  -0.05206  -2.84886
   D36       -0.70245   0.00147   0.00000  -0.02390  -0.02296  -0.72541
   D37       -0.35786  -0.00130   0.00000  -0.04241  -0.04301  -0.40088
   D38       -2.46860  -0.00507   0.00000  -0.05659  -0.05511  -2.52371
   D39        1.75288   0.00308   0.00000   0.00049  -0.00039   1.75250
         Item               Value     Threshold  Converged?
 Maximum Force            0.025357     0.000450     NO 
 RMS     Force            0.006439     0.000300     NO 
 Maximum Displacement     0.152640     0.001800     NO 
 RMS     Displacement     0.047349     0.001200     NO 
 Predicted change in Energy=-8.893258D-03
 Lowest energy point so far.  Saving SCF results.
 GradGradGradGradGradGradGradGradGradGradGradGradGradGradGradGradGradGrad

 Leave Link  103 at Mon Oct 14 00:04:18 2019, MaxMem= 10737418240 cpu:               1.0 elap:               0.1
 (Enter /apps/cent7/gaussian/g16-A.03/g16-haswell/g16/l202.exe)
                          Input orientation:                          
 ---------------------------------------------------------------------
 Center     Atomic      Atomic             Coordinates (Angstroms)
 Number     Number       Type             X           Y           Z
 ---------------------------------------------------------------------
      1          6           0        2.033084   -0.748673   -1.287837
      2          6           0        1.487493   -0.055076   -0.024888
      3          7           0        1.999511    1.367653   -0.030952
      4          8           0        1.623414    2.182954   -1.082226
      5          6           0       -0.055814   -0.032764   -0.001541
      6          6           0        2.072509   -0.686635    1.258688
      7          1           0        1.941135   -1.821683   -1.146346
      8          1           0        1.466725   -0.483524   -2.184638
      9          1           0        3.088404   -0.512931   -1.456551
     10          1           0        1.667127    1.844662    0.815054
     11          1           0        1.389461    1.602056   -1.820383
     12          1           0       -0.431225    0.012441    1.019627
     13          1           0       -0.465403    0.814266   -0.556106
     14          1           0       -0.420821   -0.946491   -0.466387
     15          1           0        1.985636   -1.767842    1.188106
     16          1           0        3.132857   -0.445110    1.385171
     17          1           0        1.531474   -0.353378    2.145000
     18          1           0        3.026288    1.351544   -0.003128
 ---------------------------------------------------------------------
                    Distance matrix (angstroms):
                    1          2          3          4          5
     1  C    0.000000
     2  C    1.540710   0.000000
     3  N    2.461651   1.512071   0.000000
     4  O    2.967245   2.478955   1.382513   0.000000
     5  C    2.555499   1.543645   2.487246   2.982799   0.000000
     6  C    2.547585   1.545535   2.426645   3.730430   2.558414
     7  H    1.086197   2.141112   3.379257   4.017732   2.915238
     8  H    1.093307   2.201936   2.889478   2.889631   2.699485
     9  H    1.094413   2.195952   2.598965   3.090973   3.497673
    10  H    3.358789   2.084892   1.026520   1.927700   2.675832
    11  H    2.494751   2.445302   1.905037   0.968014   2.840711
    12  H    3.460708   2.185646   2.974693   3.653827   1.088927
    13  H    3.036551   2.202669   2.580277   2.552110   1.092137
    14  H    2.595295   2.152023   3.376814   3.788347   1.088214
    15  H    2.677919   2.157097   3.364168   4.571039   2.931428
    16  H    2.906308   2.201730   2.564369   3.908093   3.501517
    17  H    3.491739   2.190738   2.813499   4.105657   2.688850
    18  H    2.654777   2.084932   1.027280   1.955441   3.378707
                    6          7          8          9         10
     6  C    0.000000
     7  H    2.662664   0.000000
     8  H    3.502103   1.758916   0.000000
     9  H    2.904262   1.767847   1.777869   0.000000
    10  H    2.601655   4.167044   3.802468   3.569099   0.000000
    11  H    3.896837   3.532798   2.118560   2.737143   2.661106
    12  H    2.610468   3.699127   3.757062   4.335350   2.793199
    13  H    3.462250   3.617739   2.840686   3.898948   2.736692
    14  H    3.043041   2.609050   2.594138   3.671928   3.713778
    15  H    1.086985   2.335497   3.646113   3.128116   3.645654
    16  H    1.094838   3.118290   3.939671   2.842879   2.777850
    17  H    1.090563   3.627217   4.332078   3.926915   2.572652
    18  H    2.579932   3.543144   3.249415   2.364860   1.661296
                   11         12         13         14         15
    11  H    0.000000
    12  H    3.729267   0.000000
    13  H    2.378977   1.768340   0.000000
    14  H    3.406687   1.768586   1.763604   0.000000
    15  H    4.556604   3.006494   3.964485   3.033644   0.000000
    16  H    4.184005   3.611877   4.278090   4.038350   1.761979
    17  H    4.423590   2.291828   3.556245   3.313997   1.767093
    18  H    2.458531   3.846247   3.575802   4.168708   3.497508
                   16         17         18
    16  H    0.000000
    17  H    1.774875   0.000000
    18  H    2.273037   3.123409   0.000000
 Stoichiometry    C4H12NO(1+)
 Framework group  C1[X(C4H12NO)]
 Deg. of freedom    48
 Full point group                 C1      NOp   1
 RotChk:  IX=2 Diff= 4.85D-01
 Largest Abelian subgroup         C1      NOp   1
 Largest concise Abelian subgroup C1      NOp   1
                         Standard orientation:                         
 ---------------------------------------------------------------------
 Center     Atomic      Atomic             Coordinates (Angstroms)
 Number     Number       Type             X           Y           Z
 ---------------------------------------------------------------------
      1          6           0       -0.404040    0.813043   -1.336255
      2          6           0       -0.429681    0.049104    0.001476
      3          7           0        0.828923   -0.785956    0.071839
      4          8           0        2.042601   -0.124067    0.056696
      5          6           0       -0.464208    1.007428    1.211129
      6          6           0       -1.590527   -0.970411    0.042779
      7          1           0       -1.411906    1.162240   -1.541417
      8          1           0        0.248986    1.689212   -1.301587
      9          1           0       -0.086921    0.171309   -2.164116
     10          1           0        0.823473   -1.323224    0.946515
     11          1           0        1.889168    0.737625   -0.356821
     12          1           0       -0.933058    0.533927    2.072371
     13          1           0        0.534033    1.340577    1.503176
     14          1           0       -1.044964    1.886297    0.938146
     15          1           0       -2.501996   -0.476916   -0.284669
     16          1           0       -1.412163   -1.818668   -0.626037
     17          1           0       -1.746831   -1.350488    1.052946
     18          1           0        0.829648   -1.452638   -0.709722
 ---------------------------------------------------------------------
 Rotational constants (GHZ):           4.2588963           2.6239132           2.6041273
 Leave Link  202 at Mon Oct 14 00:04:18 2019, MaxMem= 10737418240 cpu:               1.4 elap:               0.1
 (Enter /apps/cent7/gaussian/g16-A.03/g16-haswell/g16/l301.exe)
 Standard basis: 6-311++G(d,p) (5D, 7F)
 Ernie: Thresh=  0.10000D-02 Tol=  0.10000D-05 Strict=F.
 There are   222 symmetry adapted cartesian basis functions of A   symmetry.
 There are   216 symmetry adapted basis functions of A   symmetry.
   216 basis functions,   324 primitive gaussians,   222 cartesian basis functions
    25 alpha electrons       25 beta electrons
       nuclear repulsion energy       281.8272712917 Hartrees.
 IExCor= 4336 DFT=T Ex+Corr=M062X ExCW=0 ScaHFX=  0.540000
 ScaDFX=  1.000000  1.000000  1.000000  1.000000 ScalE2=  1.000000  1.000000
 IRadAn=      5 IRanWt=     -1 IRanGd=            0 ICorTp=0 IEmpDi=  4
 NAtoms=   18 NActive=   18 NUniq=   18 SFac= 1.00D+00 NAtFMM=   60 NAOKFM=F Big=F
 Integral buffers will be    131072 words long.
 Raffenetti 2 integral format.
 Two-electron integral symmetry is turned on.
 Leave Link  301 at Mon Oct 14 00:04:18 2019, MaxMem= 10737418240 cpu:               1.2 elap:               0.1
 (Enter /apps/cent7/gaussian/g16-A.03/g16-haswell/g16/l302.exe)
 NPDir=0 NMtPBC=     1 NCelOv=     1 NCel=       1 NClECP=     1 NCelD=      1
         NCelK=      1 NCelE2=     1 NClLst=     1 CellRange=     0.0.
 One-electron integrals computed using PRISM.
 One-electron integral symmetry used in STVInt
 NBasis=   216 RedAO= T EigKep=  1.74D-05  NBF=   216
 NBsUse=   216 1.00D-06 EigRej= -1.00D+00 NBFU=   216
 Precomputing XC quadrature grid using
 IXCGrd= 4 IRadAn=           5 IRanWt=          -1 IRanGd=           0 AccXCQ= 0.00D+00.
 Generated NRdTot=       0 NPtTot=           0 NUsed=           0 NTot=          32
 NSgBfM=   222   222   222   222   222 MxSgAt=    18 MxSgA2=    18.
 Leave Link  302 at Mon Oct 14 00:04:18 2019, MaxMem= 10737418240 cpu:               3.6 elap:               0.2
 (Enter /apps/cent7/gaussian/g16-A.03/g16-haswell/g16/l303.exe)
 DipDrv:  MaxL=1.
 Leave Link  303 at Mon Oct 14 00:04:18 2019, MaxMem= 10737418240 cpu:               0.9 elap:               0.1
 (Enter /apps/cent7/gaussian/g16-A.03/g16-haswell/g16/l401.exe)
 Initial guess from the checkpoint file:  "9_p.chk"
 B after Tr=    -0.000000   -0.000000   -0.000000
         Rot=    0.985179    0.171520    0.001546   -0.001202 Ang=  19.75 deg.
 Guess basis will be translated and rotated to current coordinates.
 JPrj=2 DoOrth=T DoCkMO=T.
 Generating alternative initial guess.
 ExpMin= 3.60D-02 ExpMax= 8.59D+03 ExpMxC= 1.30D+03 IAcc=3 IRadAn=         5 AccDes= 0.00D+00
 Harris functional with IExCor= 1009 and IRadAn=       5 diagonalized for initial guess.
 HarFok:  IExCor= 1009 AccDes= 0.00D+00 IRadAn=         5 IDoV= 1 UseB2=F ITyADJ=14
 ICtDFT=  3500011 ScaDFX=  1.000000  1.000000  1.000000  1.000000
 FoFCou: FMM=F IPFlag=           0 FMFlag=      100000 FMFlg1=           0
         NFxFlg=           0 DoJE=T BraDBF=F KetDBF=T FulRan=T
         wScrn=  0.000000 ICntrl=       500 IOpCl=  0 I1Cent=   200000004 NGrid=           0
         NMat0=    1 NMatS0=      1 NMatT0=    0 NMatD0=    1 NMtDS0=    0 NMtDT0=    0
 Petite list used in FoFCou.
 Harris En= -289.240936108633    
 Leave Link  401 at Mon Oct 14 00:04:19 2019, MaxMem= 10737418240 cpu:              10.8 elap:               0.5
 (Enter /apps/cent7/gaussian/g16-A.03/g16-haswell/g16/l502.exe)
 Integral symmetry usage will be decided dynamically.
 Closed shell SCF:
 Using DIIS extrapolation, IDIIS=  1040.
 NGot= 10737418240 LenX= 10737311970 LenY= 10737262245
 Requested convergence on RMS density matrix=1.00D-08 within 128 cycles.
 Requested convergence on MAX density matrix=1.00D-06.
 Requested convergence on             energy=1.00D-06.
 No special actions if energy rises.
 Fock matrices will be formed incrementally for  20 cycles.

 Cycle   1  Pass 1  IDiag  1:
 FoFJK:  IHMeth= 1 ICntrl=       0 DoSepK=F KAlg= 0 I1Cent=           0 FoldK=F
 IRaf= 990000000 NMat=       1 IRICut=       1 DoRegI=T DoRafI=F ISym2E= 0 IDoP0=0 IntGTp=1.
 FoFCou: FMM=F IPFlag=           0 FMFlag=      100000 FMFlg1=           0
         NFxFlg=           0 DoJE=F BraDBF=F KetDBF=F FulRan=T
         wScrn=  0.000000 ICntrl=         0 IOpCl=  0 I1Cent=           0 NGrid=           0
         NMat0=    1 NMatS0=      1 NMatT0=    0 NMatD0=    1 NMtDS0=    0 NMtDT0=    0
 Symmetry not used in FoFCou.
 E= -289.262902650516    
 DIIS: error= 2.81D-03 at cycle   1 NSaved=   1.
 NSaved= 1 IEnMin= 1 EnMin= -289.262902650516     IErMin= 1 ErrMin= 2.81D-03
 ErrMax= 2.81D-03  0.00D+00 EMaxC= 1.00D-01 BMatC= 4.72D-03 BMatP= 4.72D-03
 IDIUse=3 WtCom= 9.72D-01 WtEn= 2.81D-02
 Coeff-Com:  0.100D+01
 Coeff-En:   0.100D+01
 Coeff:      0.100D+01
 Gap=     0.553 Goal=   None    Shift=    0.000
 GapD=    0.553 DampG=2.000 DampE=1.000 DampFc=2.0000 IDamp=-1.
 RMSDP=2.05D-03 MaxDP=1.37D-01              OVMax= 1.77D-02

 Cycle   2  Pass 1  IDiag  1:
 RMSU=  2.01D-03    CP:  9.75D-01
 E= -289.269198960916     Delta-E=       -0.006296310400 Rises=F Damp=F
 DIIS: error= 1.40D-03 at cycle   2 NSaved=   2.
 NSaved= 2 IEnMin= 2 EnMin= -289.269198960916     IErMin= 2 ErrMin= 1.40D-03
 ErrMax= 1.40D-03  0.00D+00 EMaxC= 1.00D-01 BMatC= 4.41D-04 BMatP= 4.72D-03
 IDIUse=3 WtCom= 9.86D-01 WtEn= 1.40D-02
 Coeff-Com:  0.502D-01 0.950D+00
 Coeff-En:   0.000D+00 0.100D+01
 Coeff:      0.495D-01 0.951D+00
 Gap=     0.428 Goal=   None    Shift=    0.000
 RMSDP=3.68D-04 MaxDP=2.45D-02 DE=-6.30D-03 OVMax= 6.77D-03

 Cycle   3  Pass 1  IDiag  1:
 RMSU=  2.81D-04    CP:  9.65D-01  1.09D+00
 E= -289.269464558836     Delta-E=       -0.000265597920 Rises=F Damp=F
 DIIS: error= 1.09D-03 at cycle   3 NSaved=   3.
 NSaved= 3 IEnMin= 3 EnMin= -289.269464558836     IErMin= 3 ErrMin= 1.09D-03
 ErrMax= 1.09D-03  0.00D+00 EMaxC= 1.00D-01 BMatC= 3.24D-04 BMatP= 4.41D-04
 IDIUse=3 WtCom= 9.89D-01 WtEn= 1.09D-02
 Coeff-Com: -0.743D-01 0.476D+00 0.598D+00
 Coeff-En:   0.000D+00 0.208D+00 0.792D+00
 Coeff:     -0.735D-01 0.473D+00 0.600D+00
 Gap=     0.429 Goal=   None    Shift=    0.000
 RMSDP=1.02D-04 MaxDP=4.87D-03 DE=-2.66D-04 OVMax= 3.50D-03

 Cycle   4  Pass 1  IDiag  1:
 RMSU=  8.56D-05    CP:  9.64D-01  1.11D+00  9.25D-01
 E= -289.269716391717     Delta-E=       -0.000251832881 Rises=F Damp=F
 DIIS: error= 1.24D-04 at cycle   4 NSaved=   4.
 NSaved= 4 IEnMin= 4 EnMin= -289.269716391717     IErMin= 4 ErrMin= 1.24D-04
 ErrMax= 1.24D-04  0.00D+00 EMaxC= 1.00D-01 BMatC= 3.38D-06 BMatP= 3.24D-04
 IDIUse=3 WtCom= 9.99D-01 WtEn= 1.24D-03
 Coeff-Com: -0.129D-01 0.328D-01 0.909D-01 0.889D+00
 Coeff-En:   0.000D+00 0.000D+00 0.000D+00 0.100D+01
 Coeff:     -0.128D-01 0.328D-01 0.908D-01 0.889D+00
 Gap=     0.429 Goal=   None    Shift=    0.000
 RMSDP=3.72D-05 MaxDP=3.09D-03 DE=-2.52D-04 OVMax= 6.72D-04

 Cycle   5  Pass 1  IDiag  1:
 RMSU=  1.97D-05    CP:  9.63D-01  1.12D+00  1.01D+00  1.02D+00
 E= -289.269719957536     Delta-E=       -0.000003565819 Rises=F Damp=F
 DIIS: error= 8.31D-05 at cycle   5 NSaved=   5.
 NSaved= 5 IEnMin= 5 EnMin= -289.269719957536     IErMin= 5 ErrMin= 8.31D-05
 ErrMax= 8.31D-05  0.00D+00 EMaxC= 1.00D-01 BMatC= 1.53D-06 BMatP= 3.38D-06
 IDIUse=1 WtCom= 1.00D+00 WtEn= 0.00D+00
 Coeff-Com:  0.251D-02-0.411D-01-0.305D-01 0.427D+00 0.642D+00
 Coeff:      0.251D-02-0.411D-01-0.305D-01 0.427D+00 0.642D+00
 Gap=     0.429 Goal=   None    Shift=    0.000
 RMSDP=1.69D-05 MaxDP=1.15D-03 DE=-3.57D-06 OVMax= 2.59D-04

 Cycle   6  Pass 1  IDiag  1:
 RMSU=  7.94D-06    CP:  9.63D-01  1.12D+00  1.05D+00  1.08D+00  1.03D+00
 E= -289.269721095223     Delta-E=       -0.000001137687 Rises=F Damp=F
 DIIS: error= 2.30D-05 at cycle   6 NSaved=   6.
 NSaved= 6 IEnMin= 6 EnMin= -289.269721095223     IErMin= 6 ErrMin= 2.30D-05
 ErrMax= 2.30D-05  0.00D+00 EMaxC= 1.00D-01 BMatC= 7.94D-08 BMatP= 1.53D-06
 IDIUse=1 WtCom= 1.00D+00 WtEn= 0.00D+00
 Coeff-Com:  0.203D-02-0.176D-01-0.207D-01 0.702D-01 0.228D+00 0.738D+00
 Coeff:      0.203D-02-0.176D-01-0.207D-01 0.702D-01 0.228D+00 0.738D+00
 Gap=     0.429 Goal=   None    Shift=    0.000
 RMSDP=4.01D-06 MaxDP=3.15D-04 DE=-1.14D-06 OVMax= 8.86D-05

 Cycle   7  Pass 1  IDiag  1:
 RMSU=  2.60D-06    CP:  9.63D-01  1.12D+00  1.05D+00  1.10D+00  1.00D+00
                    CP:  8.37D-01
 E= -289.269721173612     Delta-E=       -0.000000078388 Rises=F Damp=F
 DIIS: error= 4.60D-06 at cycle   7 NSaved=   7.
 NSaved= 7 IEnMin= 7 EnMin= -289.269721173612     IErMin= 7 ErrMin= 4.60D-06
 ErrMax= 4.60D-06  0.00D+00 EMaxC= 1.00D-01 BMatC= 5.29D-09 BMatP= 7.94D-08
 IDIUse=1 WtCom= 1.00D+00 WtEn= 0.00D+00
 Coeff-Com:  0.282D-03-0.262D-03-0.204D-02-0.247D-01-0.152D-01 0.151D+00
 Coeff-Com:  0.890D+00
 Coeff:      0.282D-03-0.262D-03-0.204D-02-0.247D-01-0.152D-01 0.151D+00
 Coeff:      0.890D+00
 Gap=     0.429 Goal=   None    Shift=    0.000
 RMSDP=1.19D-06 MaxDP=5.85D-05 DE=-7.84D-08 OVMax= 3.61D-05

 Cycle   8  Pass 1  IDiag  1:
 RMSU=  6.34D-07    CP:  9.63D-01  1.12D+00  1.05D+00  1.10D+00  1.03D+00
                    CP:  8.89D-01  1.12D+00
 E= -289.269721181323     Delta-E=       -0.000000007712 Rises=F Damp=F
 DIIS: error= 2.35D-06 at cycle   8 NSaved=   8.
 NSaved= 8 IEnMin= 8 EnMin= -289.269721181323     IErMin= 8 ErrMin= 2.35D-06
 ErrMax= 2.35D-06  0.00D+00 EMaxC= 1.00D-01 BMatC= 1.10D-09 BMatP= 5.29D-09
 IDIUse=1 WtCom= 1.00D+00 WtEn= 0.00D+00
 Coeff-Com: -0.150D-03 0.223D-02 0.198D-02-0.182D-01-0.351D-01-0.337D-01
 Coeff-Com:  0.342D+00 0.741D+00
 Coeff:     -0.150D-03 0.223D-02 0.198D-02-0.182D-01-0.351D-01-0.337D-01
 Coeff:      0.342D+00 0.741D+00
 Gap=     0.429 Goal=   None    Shift=    0.000
 RMSDP=4.40D-07 MaxDP=2.28D-05 DE=-7.71D-09 OVMax= 1.35D-05

 Cycle   9  Pass 1  IDiag  1:
 RMSU=  3.48D-07    CP:  9.63D-01  1.12D+00  1.05D+00  1.10D+00  1.03D+00
                    CP:  8.89D-01  1.20D+00  9.77D-01
 E= -289.269721182722     Delta-E=       -0.000000001398 Rises=F Damp=F
 DIIS: error= 4.49D-07 at cycle   9 NSaved=   9.
 NSaved= 9 IEnMin= 9 EnMin= -289.269721182722     IErMin= 9 ErrMin= 4.49D-07
 ErrMax= 4.49D-07  0.00D+00 EMaxC= 1.00D-01 BMatC= 4.98D-11 BMatP= 1.10D-09
 IDIUse=1 WtCom= 1.00D+00 WtEn= 0.00D+00
 Coeff-Com: -0.518D-04 0.487D-03 0.579D-03-0.225D-02-0.630D-02-0.146D-01
 Coeff-Com: -0.259D-02 0.150D+00 0.875D+00
 Coeff:     -0.518D-04 0.487D-03 0.579D-03-0.225D-02-0.630D-02-0.146D-01
 Coeff:     -0.259D-02 0.150D+00 0.875D+00
 Gap=     0.429 Goal=   None    Shift=    0.000
 RMSDP=1.67D-07 MaxDP=1.41D-05 DE=-1.40D-09 OVMax= 3.74D-06

 Cycle  10  Pass 1  IDiag  1:
 RMSU=  8.78D-08    CP:  9.63D-01  1.12D+00  1.05D+00  1.10D+00  1.03D+00
                    CP:  8.97D-01  1.20D+00  1.05D+00  1.06D+00
 E= -289.269721182797     Delta-E=       -0.000000000075 Rises=F Damp=F
 DIIS: error= 1.84D-07 at cycle  10 NSaved=  10.
 NSaved=10 IEnMin=10 EnMin= -289.269721182797     IErMin=10 ErrMin= 1.84D-07
 ErrMax= 1.84D-07  0.00D+00 EMaxC= 1.00D-01 BMatC= 6.54D-12 BMatP= 4.98D-11
 IDIUse=1 WtCom= 1.00D+00 WtEn= 0.00D+00
 Coeff-Com:  0.181D-05-0.853D-04-0.330D-04 0.969D-03 0.177D-02-0.366D-03
 Coeff-Com: -0.358D-01-0.332D-01 0.252D+00 0.814D+00
 Coeff:      0.181D-05-0.853D-04-0.330D-04 0.969D-03 0.177D-02-0.366D-03
 Coeff:     -0.358D-01-0.332D-01 0.252D+00 0.814D+00
 Gap=     0.429 Goal=   None    Shift=    0.000
 RMSDP=3.61D-08 MaxDP=1.86D-06 DE=-7.53D-11 OVMax= 1.00D-06

 Cycle  11  Pass 1  IDiag  1:
 RMSU=  1.71D-08    CP:  9.63D-01  1.12D+00  1.05D+00  1.10D+00  1.03D+00
                    CP:  8.96D-01  1.20D+00  1.07D+00  1.13D+00  9.62D-01
 E= -289.269721182806     Delta-E=       -0.000000000009 Rises=F Damp=F
 DIIS: error= 4.96D-08 at cycle  11 NSaved=  11.
 NSaved=11 IEnMin=11 EnMin= -289.269721182806     IErMin=11 ErrMin= 4.96D-08
 ErrMax= 4.96D-08  0.00D+00 EMaxC= 1.00D-01 BMatC= 5.85D-13 BMatP= 6.54D-12
 IDIUse=1 WtCom= 1.00D+00 WtEn= 0.00D+00
 Coeff-Com:  0.392D-05-0.595D-04-0.492D-04 0.451D-03 0.109D-02 0.897D-03
 Coeff-Com: -0.111D-01-0.226D-01 0.147D-01 0.270D+00 0.747D+00
 Coeff:      0.392D-05-0.595D-04-0.492D-04 0.451D-03 0.109D-02 0.897D-03
 Coeff:     -0.111D-01-0.226D-01 0.147D-01 0.270D+00 0.747D+00
 Gap=     0.429 Goal=   None    Shift=    0.000
 RMSDP=1.02D-08 MaxDP=5.57D-07 DE=-8.87D-12 OVMax= 2.11D-07

 Cycle  12  Pass 1  IDiag  1:
 RMSU=  4.73D-09    CP:  9.63D-01  1.12D+00  1.05D+00  1.10D+00  1.03D+00
                    CP:  8.96D-01  1.20D+00  1.08D+00  1.14D+00  1.00D+00
                    CP:  1.02D+00
 E= -289.269721182804     Delta-E=        0.000000000002 Rises=F Damp=F
 DIIS: error= 7.92D-09 at cycle  12 NSaved=  12.
 NSaved=12 IEnMin=11 EnMin= -289.269721182806     IErMin=12 ErrMin= 7.92D-09
 ErrMax= 7.92D-09  0.00D+00 EMaxC= 1.00D-01 BMatC= 2.80D-14 BMatP= 5.85D-13
 IDIUse=1 WtCom= 1.00D+00 WtEn= 0.00D+00
 Coeff-Com:  0.485D-06-0.491D-06-0.499D-05-0.376D-04 0.160D-04 0.220D-03
 Coeff-Com:  0.227D-02-0.519D-03-0.269D-01-0.377D-01 0.113D+00 0.949D+00
 Coeff:      0.485D-06-0.491D-06-0.499D-05-0.376D-04 0.160D-04 0.220D-03
 Coeff:      0.227D-02-0.519D-03-0.269D-01-0.377D-01 0.113D+00 0.949D+00
 Gap=     0.429 Goal=   None    Shift=    0.000
 RMSDP=4.44D-09 MaxDP=3.77D-07 DE= 1.71D-12 OVMax= 7.68D-08

 SCF Done:  E(RM062X) =  -289.269721183     A.U. after   12 cycles
            NFock= 12  Conv=0.44D-08     -V/T= 2.0040
 KE= 2.881297507819D+02 PE=-1.226845586149D+03 EE= 3.676188428924D+02
 Leave Link  502 at Mon Oct 14 00:04:28 2019, MaxMem= 10737418240 cpu:             208.8 elap:               8.8
 (Enter /apps/cent7/gaussian/g16-A.03/g16-haswell/g16/l701.exe)
 ... and contract with generalized density number  0.
 Compute integral first derivatives.
 Leave Link  701 at Mon Oct 14 00:04:28 2019, MaxMem= 10737418240 cpu:               2.8 elap:               0.1
 (Enter /apps/cent7/gaussian/g16-A.03/g16-haswell/g16/l702.exe)
[...]
 65,-0.0142419,0.0034954,0.2566523,0.0474942,-0.0198396,0.0582003,0.236
 0267,0.2921833,0.1170517,-0.0392293,0.0845353,0.3321766,-0.0496223,-0.
 0171619,-0.0585636,0.3865688,0.0479199,-0.0006271,-0.0018412,0.0206847
 ,0.0589439,-0.0696278,0.0267325,-0.0709197,-0.0294919,0.0549423,0.0092
 226,-0.00388,0.0308822,0.0754976,0.0482402,-0.0236352,0.0530629,0.0030
 145,0.0879483,0.0096693,0.0069917,-0.0093501,-0.0059009,-0.0058723,0.0
 035608,-0.0089457,0.1029006,0.0819067,-0.0359494,-0.0172924,-0.0288225
 ,0.0320952,-0.0066177,-0.0209317,-0.0218417,0.0836382,-0.0635089,-0.01
 59665,0.0047396,-0.0318564,0.0911092,0.0109089,0.0367861,0.0215503,0.0
 510221,0.0562445,0.0564245,0.0319188,0.0437394,0.0317851,-0.0750812,0.
 0130752,-0.0461303,-0.0025584,0.2199994,0.0370362,-0.0120712,0.0377867
 ,0.198843,0.0413284,-0.0001483,0.042775,0.1667857\Polar=55.7575929,-0.
 6551106,58.1310247,0.2094117,-2.4126506,58.8383628\Quadrupole=-0.86991
 49,-0.5418317,1.4117465,2.1868259,-0.6068813,0.4871294\PG=C01 [X(C4H12
 N1O1)]\NImag=0\\0.57796512,0.01641781,0.56401310,0.03361815,-0.0355532
 5,0.52189787,-0.10022846,0.01336087,0.03579985,0.53945103,0.01836387,-
 0.08922858,-0.03899918,-0.03758785,0.39801832,0.03914633,-0.02947266,-
 0.16857607,0.00387030,0.00958119,0.54813915,0.00320342,0.01263952,0.00
 054536,-0.09457551,-0.00626695,-0.00152279,0.73006898,-0.00469564,-0.0
 3593533,-0.00598597,-0.00955860,-0.08852725,-0.01931460,-0.06062822,0.
 47505985,-0.00961204,-0.03687517,-0.00037377,-0.00173061,-0.00924935,-
 0.08726729,-0.05489606,0.06941331,0.68521585,-0.00028401,-0.00000097,-
 0.00067297,0.00425078,0.00178753,0.00455299,-0.10278765,0.04704023,-0.
 01915599,0.17754398,-0.00101481,0.00113235,-0.00083853,0.01565423,-0.0
 1765830,0.03392201,0.05512820,-0.13912013,0.04323568,-0.16814777,0.286
 23349,-0.00006936,-0.00426838,-0.00089395,-0.00218554,0.00587165,-0.00
 815190,-0.05156810,0.08785519,-0.21461953,-0.09204955,0.05496522,0.615
 92861,-0.01655740,0.00361956,0.00641490,-0.19846327,0.00311890,0.00353
 507,-0.01865503,-0.01144383,0.00144063,-0.00091962,0.00002373,-0.00112
 815,0.48709794,0.01507547,0.00305044,-0.00022391,0.01527241,-0.0773870
 9,0.00002526,-0.04899264,-0.01440496,-0.00124830,-0.00063452,0.0021722
 8,-0.00024780,-0.00665315,0.59434997,0.03242863,0.00073312,-0.00304785
 ,0.00630598,0.00054426,-0.08346708,-0.00068987,-0.00074921,0.00022883,
 -0.00064262,-0.00086935,0.00049475,0.00600408,-0.00191512,0.59757398,0
 .00535405,-0.00541249,0.00836907,-0.10366441,0.02214390,-0.04187328,0.
 00292601,-0.00307083,0.00798035,0.00029641,-0.00489090,0.00206472,-0.0
 1936331,0.01748607,-0.03037212,0.57485411,-0.00653814,0.00885047,-0.01
 078068,0.01652979,-0.09056664,0.02880452,0.01394852,-0.03018614,0.0368
 4437,-0.00108458,-0.00906939,0.00302265,0.00342624,0.00196966,-0.00035
 578,0.01730505,0.56917715,-0.01166733,0.01030567,-0.03216246,-0.039248
 37,0.03648073,-0.15881769,-0.00038944,0.00995559,-0.00549452,0.0001953
 5,-0.00301203,0.00276774,-0.00476781,-0.00075599,0.00032449,-0.0362104
 5,0.03727908,0.51989739,-0.05104317,-0.04760114,0.00251147,0.00064515,
 0.01131948,-0.00158364,-0.00063669,0.00198008,0.00183985,0.00036099,0.
 00026268,0.00045232,0.00017364,0.00010111,-0.00045357,0.00021720,-0.00
 002619,-0.00054790,0.05400354,-0.04649711,-0.31766059,0.00646676,-0.00
 229540,-0.01342955,0.00002582,0.00130234,0.00008837,-0.00134937,-0.000
 20146,0.00038783,-0.00023548,-0.00045514,0.00014929,0.00049723,-0.0002
 6973,0.00063343,0.00122508,0.04973790,0.34082647,0.00305727,0.01009713
 ,-0.04400686,-0.00595175,-0.02751099,0.00080024,0.00246769,-0.00421723
 ,-0.00778608,-0.00020695,0.00133006,0.00080991,-0.00073113,0.00034176,
 0.00058662,-0.00038903,-0.00038391,0.00116120,-0.00335979,-0.00683263,
 0.05061684,-0.10958083,0.04660224,-0.10296114,0.00536372,-0.00704398,0
 .01034220,-0.00008736,0.00002847,-0.00110795,-0.00019834,0.00085868,0.
 00053124,0.00108576,-0.00060701,0.00059780,-0.00085836,0.00145420,0.00
 217014,0.00200561,-0.00190815,0.00494534,0.11227075,0.04509550,-0.0798
 4772,0.07759752,-0.00777164,0.00406721,-0.01226814,-0.00066687,0.00130
 339,0.00015958,0.00001289,-0.00150979,0.00042736,-0.00078872,0.0003640
 7,0.00030088,0.00094903,-0.00103185,-0.00150487,0.01614809,-0.01020609
 ,0.02668205,-0.05023318,0.08787751,-0.09997650,0.07733795,-0.22383253,
 -0.01244230,0.01142975,-0.02077961,-0.00048968,0.00136323,-0.00132412,
 0.00033246,0.00119247,0.00215455,-0.00153188,0.00043559,0.00102771,0.0
 0270403,-0.00376999,-0.00338525,-0.00031351,0.00029328,-0.00077120,0.1
 0997961,-0.08356698,0.24287760,-0.30754747,-0.03640728,0.01981100,-0.0
 1093492,-0.00209325,-0.00011510,0.00106823,-0.00044739,-0.00049298,0.0
 0036838,0.00047368,-0.00050343,0.00086872,0.00119381,0.00228307,0.0004
 5043,0.00016597,-0.00059955,-0.00492790,-0.00006294,-0.00005901,-0.011
 32678,-0.00263394,0.00192418,0.33244055,-0.03572504,-0.05010422,0.0030
 4044,0.01533900,-0.00123616,-0.00172729,0.00138783,0.00162532,0.000826
 85,-0.00032937,-0.00002174,0.00021560,0.00062425,-0.00111986,-0.002796
 17,-0.00025178,-0.00036056,0.00079048,-0.03211318,-0.00238379,0.002446
 57,0.01196131,0.00067273,-0.00229456,0.03832909,0.05231356,0.01807485,
 0.00198193,-0.05272438,0.02790561,0.00626757,-0.00175916,0.00009043,0.
 00108016,0.00162651,0.00006719,-0.00013690,0.00003516,0.00055543,-0.00
 254831,-0.00468966,0.00108529,-0.00006930,0.00156777,0.00058108,0.0003
 2342,-0.00093242,-0.02493361,-0.00579245,0.00422843,-0.02346371,-0.000
 20350,0.05315486,-0.00083996,-0.00272785,0.00022177,0.00653966,-0.0026
 5282,-0.01002626,-0.12261640,0.06158152,0.11761640,0.00804956,-0.00617
 227,-0.01876021,0.00175614,-0.00068137,-0.00227869,-0.00040626,0.00019
 489,-0.00010094,0.00056465,-0.00023789,-0.00063461,0.00012725,0.000226
 62,0.00003012,0.00013979,0.00000433,-0.00006789,0.12102976,-0.00260590
 ,-0.00612099,0.00187473,0.01264339,-0.01427891,-0.02520987,0.06934729,
 -0.12526324,-0.13859561,-0.00940691,0.00909585,0.03329229,0.00066015,0
 .00174938,-0.00025251,0.00062953,0.00116488,-0.00107342,0.00048220,-0.
 00033088,-0.00178054,-0.00012079,0.00010737,-0.00000697,-0.00008403,0.
 00030704,0.00038606,-0.06974435,0.13434945,0.00009769,0.00163561,0.000
 65348,-0.00110746,-0.00473168,0.00142644,0.11067607,-0.11811315,-0.269
 06208,0.00982218,-0.00732472,-0.03705324,-0.00070192,0.00139834,0.0008
 2776,-0.00015334,0.00056320,0.00251732,-0.00003425,0.00015615,0.000419
 05,0.00001221,-0.00004354,-0.00011747,0.00019234,-0.00010759,-0.000081
 68,-0.11525030,0.12116172,0.29875490,0.00151827,-0.00062509,0.00067912
 ,0.00017127,-0.00092811,0.00092014,0.00371207,-0.00499963,-0.02310725,
 -0.08804363,0.10077407,0.17012331,0.00008153,-0.00022214,0.00054610,0.
 00017117,0.00004622,0.00016768,-0.00081107,0.00013253,0.00000323,0.000
 53339,-0.00050207,-0.00071698,-0.00116994,0.00058899,-0.00031597,-0.00
 103274,0.00220225,-0.00288559,0.08510991,0.00159863,0.00097778,0.00195
 584,-0.00045176,0.00267964,0.00394847,-0.01183208,0.00911306,0.0375417
 0,0.10705339,-0.12526712,-0.19161001,-0.00002798,-0.00075870,-0.000236
 63,-0.00000851,-0.00128114,-0.00057359,-0.00045134,0.00031574,-0.00110
 337,-0.00138318,-0.00248735,-0.00242383,0.00057197,-0.00041781,-0.0000
 1473,0.00204306,-0.00389097,0.00424077,-0.09650420,0.11988875,0.000158
 85,-0.00001418,0.00111523,0.00183832,0.00212123,0.00104866,0.01242720,
 -0.01450331,-0.03359877,0.13091041,-0.13601902,-0.34774303,0.00016718,
 -0.00054007,-0.00020471,-0.00041695,-0.00140756,-0.00049644,-0.0000581
 7,-0.00014262,-0.00026140,-0.00053770,-0.00136273,0.00024423,-0.000022
 05,0.00017456,0.00007309,-0.00288499,0.00339611,-0.00260411,-0.1412373
 0,0.14916382,0.38193189,-0.00631419,-0.00131240,-0.00112479,-0.0120178
 0,0.01436666,0.02918306,0.00179076,0.00133070,0.00069324,0.00008635,-0
 .00019463,-0.00009302,-0.07775553,0.03435880,0.07348715,0.00156203,-0.
 00024416,0.00152032,0.00002423,0.00003980,-0.00014679,-0.00001302,-0.0
 0018494,-0.00002399,-0.00048240,0.00087900,0.00168895,-0.00063429,-0.0
 0122619,-0.00005583,-0.00012899,0.00022988,0.00000586,0.08600274,-0.00
 007633,0.00072727,0.00039792,-0.00235145,-0.00251891,0.00185446,-0.000
 11408,0.00147820,0.00126097,0.00022481,-0.00031317,-0.00029375,0.03589
 141,-0.08855346,-0.09074674,0.00001141,-0.00017812,-0.00016767,-0.0002
 3762,0.00033842,0.00023158,-0.00009990,-0.00008556,-0.00021161,0.00001
 381,0.00052757,-0.00017490,-0.00014483,0.00010598,-0.00027429,0.000144
 94,0.00005977,0.00004082,-0.03794115,0.09152656,-0.00020522,0.00040212
 ,0.00089484,-0.00047784,0.00046783,-0.00060310,-0.00032867,0.00035355,
 0.00031786,0.00019621,0.00050575,0.00013380,0.07569753,-0.09234433,-0.
 24746266,-0.00062544,0.00040478,0.00076490,-0.00008574,-0.00005761,-0.
 00004587,-0.00017111,-0.00000401,0.00036873,0.00010450,-0.00012843,0.0
 0035226,0.00137843,0.00052157,-0.00019798,-0.00025531,-0.00023909,-0.0
 0008177,-0.08311804,0.10043418,0.26394530,0.00137547,-0.00047844,-0.00
 152224,-0.01299414,0.01760891,-0.02657307,0.00086659,0.00112249,-0.001
 26688,0.00076564,-0.00027409,0.00097610,-0.09048643,0.05339703,-0.0807
 6971,-0.00616470,-0.00127553,0.00180480,-0.00000701,-0.00004832,0.0000
 6551,-0.00010527,0.00021341,0.00098627,0.00022978,-0.00030225,0.000192
 12,-0.00020802,-0.00016587,-0.00014391,-0.00075977,-0.00046260,0.00026
 270,0.00442492,-0.00688697,0.00822904,0.09938673,0.00009787,-0.0003564
 8,0.00020062,-0.00232877,-0.00048278,-0.00275505,0.00060541,0.00050350
 ,-0.00046756,-0.00113964,-0.00110232,0.00013437,0.05604387,-0.11494576
 ,0.10711345,-0.00056118,0.00011778,-0.00010021,0.00012809,-0.00001275,
 0.00011577,0.00042981,0.00015320,-0.00031319,-0.00012694,0.00005878,-0
 .00020193,0.00002291,0.00004141,-0.00024106,-0.00023564,0.00008767,0.0
 0023668,-0.00690352,0.00705959,-0.01101769,-0.05871852,0.12117944,0.00
 023212,-0.00059676,0.00097016,0.00016417,-0.00342332,0.00145266,-0.000
 87784,0.00079487,-0.00067766,0.00151216,0.00071191,0.00007598,-0.08329
 260,0.10670408,-0.21501146,0.00040266,-0.00003514,0.00060135,0.0001135
 4,-0.00009723,-0.00002185,0.00020468,0.00011704,0.00017218,-0.00006903
 ,-0.00004661,0.00001254,-0.00015268,0.00021979,-0.00029427,0.00020484,
 0.00004769,0.00012138,-0.01065748,0.01392736,-0.01831058,0.08993672,-0
 .11669031,0.22853002,0.00143099,-0.00025516,-0.00036076,-0.00948224,-0
 .03186941,-0.00141436,-0.00908166,-0.00086974,-0.00085453,0.00075670,0
 .00070772,0.00011916,-0.07204972,-0.07896907,-0.00333030,0.00143373,-0
 .00047938,0.00034706,-0.00049960,0.00043440,0.00047225,-0.00005967,0.0
 0007339,0.00010384,0.00026030,0.00022470,-0.00027241,-0.00049458,0.000
 44830,0.00033626,0.00002378,-0.00019247,-0.00011905,0.00340055,0.01110
 090,-0.00035044,0.00425137,0.01288812,0.00188295,0.08051167,0.00051584
 ,0.00015081,-0.00007535,-0.00054194,-0.00077676,0.00010026,0.00203448,
 0.00149050,0.00051209,-0.00046974,-0.00001119,-0.00019624,-0.08264670,
 -0.29856142,-0.01190245,0.00032965,0.00018391,0.00005187,0.00015749,0.
 00037636,0.00005328,-0.00021773,-0.00006661,-0.00001574,0.00000306,0.0
 0023921,0.00000842,0.00039992,0.00012824,0.00007477,0.00005333,-0.0000
 1863,-0.00007106,-0.00323019,-0.01036806,0.00045449,-0.00455520,-0.013
 23244,-0.00179618,0.08797387,0.31945412,0.00007253,-0.00002019,0.00007
 483,-0.00019677,0.00077308,-0.00215441,-0.00031623,0.00072149,-0.00045
 369,0.00085986,0.00028696,0.00035694,-0.00349859,-0.01208817,-0.044350
 58,-0.00002252,-0.00024468,-0.00022186,0.00057990,-0.00007637,0.000106
 42,0.00002370,0.00022185,-0.00008712,-0.00016772,-0.00002699,-0.000092
 64,0.00048352,0.00037147,-0.00006390,-0.00019841,-0.00004403,0.0001052
 7,-0.00987747,-0.02651209,-0.00083459,0.00929355,0.02371723,0.00169114
 ,0.00368577,0.01272596,0.04553733,-0.00012150,-0.00011400,0.00052968,0
 .00301799,0.01365951,0.00034478,-0.00165147,0.00125375,-0.00238875,0.0
 0066939,0.00157541,-0.00097173,0.00042789,0.00024816,0.00030207,-0.068
 01357,-0.08056229,0.00381993,0.00034891,-0.00010309,0.00016003,-0.0000
 8321,0.00010910,0.00008272,0.00002572,-0.00016205,0.00002712,-0.000104
 44,-0.00041491,-0.00012028,-0.00004894,0.00011807,0.00009912,-0.000047
 82,0.00012610,0.00007874,0.00007510,-0.00010702,0.00016670,-0.00041644
 ,0.00014194,-0.00059629,0.07231685,-0.00008047,0.00037069,-0.00083432,
 -0.00344747,-0.01362401,0.00056675,0.00140280,-0.00000481,0.00195850,-
 0.00039917,-0.00005649,-0.00002453,-0.00058065,0.00047463,-0.00079176,
 -0.07862411,-0.30055340,0.01540830,-0.00012420,0.00056619,0.00011142,0
 .00017146,0.00026569,-0.00007724,0.00010068,0.00003990,-0.00000085,-0.
 00009088,0.00041543,-0.00005798,0.00002181,-0.00019108,-0.00008705,0.0
 0007248,-0.00012460,0.00014261,-0.00002392,0.00034070,0.00001333,0.000
 49772,0.00035509,0.00015590,0.08425919,0.32262777,0.00049361,0.0002455
 5,0.00111118,0.00889719,0.02582140,-0.00175384,-0.00208646,0.00168081,
 -0.00502629,-0.00003723,0.00276351,-0.00063460,0.00091249,-0.00024498,
 0.00088530,0.00292323,0.01260567,-0.04474123,-0.00004423,-0.00022954,-
 0.00092410,-0.00012008,-0.00033976,0.00028198,-0.00007012,0.00003960,-
 0.00012064,-0.00020395,0.00024260,-0.00050665,-0.00004764,0.00015294,0
 .00044334,-0.00012424,-0.00016298,-0.00002220,0.00024498,-0.00019372,-
 0.00008359,-0.00054345,-0.00010141,0.00007256,-0.00221156,-0.01706271,
 0.05025373,0.00065250,-0.00008654,0.00094945,-0.01232149,-0.00130766,0
 .00122062,0.00050978,-0.00052445,0.00070774,0.00059999,0.00014472,-0.0
 0006517,0.00045969,0.00160336,-0.00262527,-0.31566657,-0.00398248,0.01
 373438,-0.00009032,0.00007887,-0.00013353,0.00029935,0.00010108,-0.000
 00202,0.00050855,-0.00017581,-0.00052812,-0.00025794,-0.00010477,-0.00
 001206,-0.00013107,-0.00003403,-0.00006276,0.00029254,-0.00011120,0.00
 004661,-0.00062342,-0.00017811,0.00007388,0.00023617,-0.00001783,0.000
 13312,-0.00856034,0.00071622,0.00072676,0.34114303,-0.00018920,-0.0000
 2187,-0.00085397,0.01434586,-0.00263480,-0.00089143,0.00179293,0.00097
 350,-0.00034690,-0.00040883,0.00016038,-0.00021866,0.00048575,-0.00099
 006,0.00206226,-0.00365831,-0.04650450,0.00006611,-0.00024355,-0.00004
 266,0.00003192,0.00001690,-0.00018329,-0.00008137,-0.00025004,0.000304
 06,-0.00002819,0.00023969,0.00001476,-0.00006823,0.00001473,0.00010601
 ,0.00011343,-0.00026672,-0.00002386,0.00015870,0.00069595,0.00050826,0
 .00017404,0.00030825,0.00021619,0.00011939,-0.03126381,0.00158548,0.00
 145682,0.00326027,0.04772156,-0.00093262,-0.00000995,0.00173677,-0.027
 86915,-0.00219069,0.00134748,-0.00060671,-0.00113964,0.00071480,0.0003
 4290,-0.00028106,-0.00000767,-0.00095030,0.00284067,-0.00453269,0.0158
 4015,0.00063003,-0.05121631,-0.00001232,-0.00019561,-0.00008803,0.0002
 7213,-0.00001022,0.00017346,0.00035520,0.00020175,-0.00061740,0.000168
 64,0.00017386,-0.00015415,-0.00011163,0.00004223,-0.00002542,-0.000186
 40,0.00023443,0.00013470,-0.00166413,0.00007599,0.00045613,0.00022724,
 0.00000769,-0.00005948,0.00190113,-0.00050595,-0.00101571,-0.01343180,
 -0.00292025,0.05229182,-0.00088568,0.00128677,-0.00188227,0.00312400,-
 0.00868511,-0.01095675,0.00027329,-0.00030709,0.00011952,-0.00010074,-
 0.00029811,0.00002395,0.00109425,-0.00080472,-0.00058988,-0.07512649,0
 .04078504,0.06901048,-0.00018778,0.00020901,0.00005233,0.00078981,-0.0
 0005425,-0.00071154,0.00025776,0.00007247,-0.00039509,0.00049953,-0.00
 004567,0.00050063,-0.00004694,-0.00004361,-0.00002564,-0.00036277,0.00
 041416,-0.00017831,-0.00001191,0.00004690,0.00023140,-0.00011200,-0.00
 005955,-0.00013616,0.00230668,-0.00405501,-0.00845516,-0.00691361,0.01
 509986,0.02633145,0.07559831,0.00126342,-0.00124975,0.00200343,-0.0053
 6417,0.00492668,0.01387555,-0.00025035,0.00137010,0.00111248,-0.000017
 36,0.00039241,-0.00052044,-0.00091937,0.00013489,-0.00016132,0.0394147
 2,-0.10414954,-0.10372948,0.00009351,0.00028529,0.00023563,-0.00015943
 ,0.00060958,0.00072099,0.00009326,-0.00011031,-0.00005020,0.00022565,-
 0.00037567,0.00015625,-0.00001512,0.00012950,0.00011682,-0.00002674,0.
 00017289,-0.00017154,-0.00016184,-0.00003198,0.00003348,0.00009310,0.0
 0001021,-0.00013411,0.01066428,-0.01258511,-0.02638041,-0.00090190,-0.
 00038504,0.00239263,-0.04385585,0.11084474,-0.00315633,0.00329097,-0.0
 0296242,0.00840606,-0.01292665,-0.02175254,0.00066826,-0.00125669,0.00
 061682,-0.00038329,0.00031988,0.00077219,0.00150327,-0.00033686,0.0007
 5336,0.06739940,-0.10284844,-0.23361644,-0.00007018,0.00012800,0.00030
 085,0.00068906,-0.00057986,-0.00113353,0.00005621,0.00007661,0.0001295
 7,-0.00004301,0.00160803,-0.00078026,0.00003807,-0.00049709,-0.0000263
 4,-0.00086379,0.00021906,0.00043965,-0.00002628,0.00027757,0.00034799,
 -0.00002937,0.00009234,0.00001858,-0.00089141,0.00115051,0.00216358,-0
 .00009913,0.00062506,0.00048395,-0.07332005,0.11056963,0.25462464,0.00
 190287,0.00109460,-0.00092566,-0.00788136,-0.00393362,0.00094977,-0.39
 432737,-0.01779180,-0.01578471,-0.00141419,0.00538948,-0.00689654,0.00
 120476,-0.00117162,-0.00020285,0.00199853,0.00033684,0.00076164,-0.000
 14038,0.00014438,0.00038893,-0.00016280,-0.00009350,0.00006517,-0.0002
 2879,-0.00035150,-0.00029127,-0.01211169,-0.00249372,-0.00117244,0.000
 85167,-0.00022323,-0.00050503,0.00017268,0.00003599,0.00006504,-0.0000
 1491,0.00003637,-0.00007621,-0.00010935,0.00012929,-0.00012181,-0.0001
 4079,0.00018354,-0.00025415,-0.00013685,0.00002026,0.00032621,-0.00019
 569,-0.00017581,0.00012249,0.41073365,-0.00100575,0.00125261,0.0006079
 3,-0.03144651,0.00265787,-0.00106526,-0.03083812,-0.05956394,-0.004733
 25,0.02612146,-0.00544495,0.01183097,-0.00037830,-0.00769331,-0.000474
 16,-0.00152152,0.00178402,-0.00064566,0.00038660,0.00009892,0.00015150
 ,0.00025028,-0.00000250,-0.00001178,0.00116049,-0.00033372,-0.00082629
 ,0.01751365,0.00278088,0.00157544,0.00005314,0.00095487,-0.00121584,0.
 00025332,0.00016947,0.00011713,0.00031578,0.00011417,-0.00005803,-0.00
 211524,0.00043047,0.00005331,0.00057165,0.00009792,-0.00029340,0.00152
 026,-0.00080413,0.00065410,0.00029475,0.00001111,0.00008793,0.01886406
 ,0.06349023,-0.00176063,0.00078051,0.00012594,-0.00197769,-0.00032682,
 0.00086809,-0.01310318,-0.00793839,-0.06303683,-0.03564313,0.00924817,
 -0.01442571,0.00037180,0.00074814,0.00006387,0.00129424,-0.00025880,0.
 00055007,0.00048512,0.00010072,0.00003668,0.00006349,-0.00003370,-0.00
 009804,0.00083619,-0.00048132,-0.00016220,0.03050464,0.00367069,0.0063
 1684,-0.00380642,-0.00035110,-0.00004110,-0.00030676,-0.00005673,0.000
 20671,-0.00002558,0.00010905,-0.00003213,0.00010013,0.00007725,0.00035
 522,-0.00033202,-0.00006495,-0.00038282,-0.00063269,0.00060128,0.00037
 775,0.00038108,-0.00006937,-0.00037964,0.02355143,-0.00575463,0.069657
 29\\0.00000048,-0.00000392,0.00001201,-0.00000347,0.00000814,0.0000032
 6,-0.00001772,-0.00003534,0.00001428,-0.00001032,0.00002063,-0.0000085
 0,0.00001799,0.00000413,0.00001173,-0.00001754,0.00001163,0.00000255,-
 0.00000422,0.00000193,-0.00000558,-0.00000237,-0.00000420,-0.00000575,
 0.00000047,-0.00000196,-0.00000052,0.00000310,0.00000927,-0.00000021,0
 .00000730,-0.00000263,-0.00000046,0.00000125,0.00000227,-0.00000749,-0
 .00000016,0.00000295,0.00000143,0.00000767,0.00000280,-0.00000616,0.00
 000644,-0.00000430,0.00000238,0.00000131,-0.00000579,-0.00000110,0.000
 00066,-0.00000076,-0.00000485,0.00000912,-0.00000483,-0.00000703\\\@


 The impersonal hand of government can
 never replace the helping hand of a neighbor.
                        -- Hubert H. Humphrey
 Job cpu time:       0 days  0 hours 31 minutes  0.1 seconds.
 Elapsed time:       0 days  0 hours  1 minutes 18.2 seconds.
 File lengths (MBytes):  RWF=     78 Int=      0 D2E=      0 Chk=      5 Scr=      1
 Normal termination of Gaussian 16 at Mon Oct 14 00:07:19 2019.
real 193.76
user 4453.14
sys 18.12
Machine:
brown-a005
brown-a005
brown-a005
brown-a005
brown-a005
brown-a005
brown-a005
brown-a005
brown-a005
brown-a005
brown-a005
brown-a005
brown-a005
brown-a005
brown-a005
brown-a005
brown-a005
brown-a005
brown-a005
brown-a005
brown-a005
brown-a005
brown-a005
brown-a005
