Title Card Required                                                     
Freq      RM062X                                                      6-311++G(d,p)       
Number of atoms                            I               18
Info1-9                                    I   N=           9
          46          46        1002           0           0         100
           6          18        -502
Full Title                                 C   N=           2
Title Card Required     
Route                                      C   N=           6
#p opt freq m062x/6-311++g(d,p) geom=connectivity temperatur
e=0.001     
Charge                                     I                1
Multiplicity                               I                1
Number of electrons                        I               50
Number of alpha electrons                  I               25
Number of beta electrons                   I               25
Number of basis functions                  I              216
Number of independent functions            I              216
Number of point charges in /Mol/           I                0
Number of translation vectors              I                0
Atomic numbers                             I   N=          18
           6           6           7           8           6           6
           1           1           1           1           1           1
           1           1           1           1           1           1
Nuclear charges                            R   N=          18
  6.00000000E+00  6.00000000E+00  7.00000000E+00  8.00000000E+00  6.00000000E+00
  6.00000000E+00  1.00000000E+00  1.00000000E+00  1.00000000E+00  1.00000000E+00
  1.00000000E+00  1.00000000E+00  1.00000000E+00  1.00000000E+00  1.00000000E+00
  1.00000000E+00  1.00000000E+00  1.00000000E+00
Current cartesian coordinates              R   N=          54
 -6.64219696E-01 -1.49328725E+00 -2.50506612E+00 -8.53857746E-01  4.63477432E-02
 -6.91540715E-02  1.32057807E+00 -4.25944108E-01  1.64188404E+00  3.71344444E+00
  7.63852236E-02  1.68182658E-01 -1.01916086E+00  2.87485701E+00 -5.76846504E-01
 -3.06325827E+00 -8.62499753E-01  1.57556487E+00 -2.41479705E+00 -1.30151738E+00
 -3.57684308E+00  8.46944067E-01 -8.09566323E-01 -3.74085011E+00 -4.00808046E-01
 -3.50944302E+00 -2.12153873E+00  1.45884107E+00 -2.32435636E+00  2.00853720E+00
  4.29008264E+00 -1.24019308E+00 -9.90875563E-01 -1.14136750E+00  3.92674254E+00
  1.19148900E+00  6.07870238E-01  3.54867947E+00 -1.65239339E+00 -2.70845612E+00
  3.26761150E+00 -1.69085411E+00 -4.81403182E+00 -4.71175314E-01  5.60113245E-01
 -2.98076030E+00 -2.89646676E+00  1.92662247E+00 -3.11856386E+00  1.42060267E-01
  3.37441336E+00  5.02642414E+00  6.45644922E-01  1.32654116E+00
Number of symbols in /Mol/                 I                0
Force Field                                I                0
Atom Types                                 C   N=          18
                                                            
                                                            
                                                            
                                    
Int Atom Types                             I   N=          18
           0           0           0           0           0           0
           0           0           0           0           0           0
           0           0           0           0           0           0
MM charges                                 R   N=          18
  0.00000000E+00  0.00000000E+00  0.00000000E+00  0.00000000E+00  0.00000000E+00
  0.00000000E+00  0.00000000E+00  0.00000000E+00  0.00000000E+00  0.00000000E+00
  0.00000000E+00  0.00000000E+00  0.00000000E+00  0.00000000E+00  0.00000000E+00
  0.00000000E+00  0.00000000E+00  0.00000000E+00
Integer atomic weights                     I   N=          18
          12          12          14          16          12          12
           1           1           1           1           1           1
           1           1           1           1           1           1
Real atomic weights                        R   N=          18
  1.20000000E+01  1.20000000E+01  1.40030740E+01  1.59949146E+01  1.20000000E+01
  1.20000000E+01  1.00782504E+00  1.00782504E+00  1.00782504E+00  1.00782504E+00
  1.00782504E+00  1.00782504E+00  1.00782504E+00  1.00782504E+00  1.00782504E+00
  1.00782504E+00  1.00782504E+00  1.00782504E+00
Atom fragment info                         I   N=          18
           0           0           0           0           0           0
           0           0           0           0           0           0
           0           0           0           0           0           0
Atom residue num                           I   N=          18
           0           0           0           0           0           0
           0           0           0           0           0           0
           0           0           0           0           0           0
Nuclear spins                              I   N=          18
           0           0           2           0           0           0
           1           1           1           1           1           1
           1           1           1           1           1           1
Nuclear ZEff                               R   N=          18
 -3.60000000E+00 -3.60000000E+00 -4.55000000E+00 -5.60000000E+00 -3.60000000E+00
 -3.60000000E+00 -1.00000000E+00 -1.00000000E+00 -1.00000000E+00 -1.00000000E+00
 -1.00000000E+00 -1.00000000E+00 -1.00000000E+00 -1.00000000E+00 -1.00000000E+00
 -1.00000000E+00 -1.00000000E+00 -1.00000000E+00
Nuclear ZNuc                               R   N=          18
  6.00000000E+00  6.00000000E+00  7.00000000E+00  8.00000000E+00  6.00000000E+00
  6.00000000E+00  1.00000000E+00  1.00000000E+00  1.00000000E+00  1.00000000E+00
  1.00000000E+00  1.00000000E+00  1.00000000E+00  1.00000000E+00  1.00000000E+00
  1.00000000E+00  1.00000000E+00  1.00000000E+00
Nuclear QMom                               R   N=          18
  0.00000000E+00  0.00000000E+00  2.04400000E+00  0.00000000E+00  0.00000000E+00
  0.00000000E+00  0.00000000E+00  0.00000000E+00  0.00000000E+00  0.00000000E+00
  0.00000000E+00  0.00000000E+00  0.00000000E+00  0.00000000E+00  0.00000000E+00
  0.00000000E+00  0.00000000E+00  0.00000000E+00
Nuclear GFac                               R   N=          18
  0.00000000E+00  0.00000000E+00  4.03761000E-01  0.00000000E+00  0.00000000E+00
  0.00000000E+00  2.79284600E+00  2.79284600E+00  2.79284600E+00  2.79284600E+00
  2.79284600E+00  2.79284600E+00  2.79284600E+00  2.79284600E+00  2.79284600E+00
  2.79284600E+00  2.79284600E+00  2.79284600E+00
MicOpt                                     I   N=          18
          -1          -1          -1          -1          -1          -1
          -1          -1          -1          -1          -1          -1
          -1          -1          -1          -1          -1          -1
Number of residues                         I                0
Number of secondary structures             I                0
Redundant internal dimensions              I   N=           4
          84          17          30          37
Redundant internal coordinate indices      I   N=         336
           1           2           0           0           1           7
           0           0           1           8           0           0
           1           9           0           0           2           3
           0           0           2           5           0           0
           2           6           0           0           3           4
           0           0           3          10           0           0
           4          11           0           0           4          18
           0           0           5          12           0           0
           5          13           0           0           5          14
           0           0           6          15           0           0
           6          16           0           0           6          17
           0           0           2           1           7           0
           2           1           8           0           2           1
           9           0           7           1           8           0
           7           1           9           0           8           1
           9           0           1           2           3           0
           1           2           5           0           1           2
           6           0           3           2           5           0
           3           2           6           0           5           2
           6           0           2           3           4           0
           2           3          10           0           4           3
          10           0           3           4          11           0
           3           4          18           0          11           4
          18           0           2           5          12           0
           2           5          13           0           2           5
          14           0          12           5          13           0
          12           5          14           0          13           5
          14           0           2           6          15           0
           2           6          16           0           2           6
          17           0          15           6          16           0
          15           6          17           0          16           6
          17           0           7           1           2           3
           7           1           2           5           7           1
           2           6           8           1           2           3
           8           1           2           5           8           1
           2           6           9           1           2           3
           9           1           2           5           9           1
           2           6           1           2           3           4
           1           2           3          10           5           2
           3           4           5           2           3          10
           6           2           3           4           6           2
           3          10           1           2           5          12
           1           2           5          13           1           2
           5          14           3           2           5          12
           3           2           5          13           3           2
           5          14           6           2           5          12
           6           2           5          13           6           2
           5          14           1           2           6          15
           1           2           6          16           1           2
           6          17           3           2           6          15
           3           2           6          16           3           2
           6          17           5           2           6          15
           5           2           6          16           5           2
           6          17           2           3           4          11
           2           3           4          18          10           3
           4          11          10           3           4          18
Redundant internal coordinates             R   N=          84
  2.88792417E+00  2.06155344E+00  2.06839364E+00  2.06914549E+00  2.80693465E+00
  2.87846163E+00  2.90044045E+00  2.85480997E+00  1.93843242E+00  1.84643062E+00
  1.84113192E+00  2.06116668E+00  2.06350867E+00  2.06130723E+00  2.06142787E+00
  2.06568854E+00  2.06108113E+00  1.91045260E+00  1.95594141E+00  1.95141081E+00
  1.85357876E+00  1.87036183E+00  1.91752744E+00  1.95367588E+00  1.95937947E+00
  1.94042522E+00  1.89372038E+00  1.76370099E+00  1.94354926E+00  1.88077187E+00
  1.91276310E+00  1.78255810E+00  2.04917872E+00  1.90431172E+00  1.97435337E+00
  1.93217608E+00  1.94714402E+00  1.90669086E+00  1.90421466E+00  1.89423619E+00
  1.87787161E+00  1.88403170E+00  1.95463653E+00  1.94188167E+00  1.88026296E+00
  1.89084249E+00  1.90991615E+00  3.00048722E+00 -1.14791417E+00  1.04239395E+00
 -1.23100615E+00  9.03777768E-01  3.09408588E+00  9.30750411E-01  3.06553433E+00
 -1.02734286E+00  9.54501076E-01 -9.72027779E-01 -1.21732580E+00  3.13933066E+00
  3.02083218E+00  1.09430333E+00 -3.13580992E+00 -1.01162417E+00  1.06236602E+00
 -9.67373288E-01  1.15681247E+00 -3.05238265E+00  9.58775383E-01  3.08296114E+00
 -1.12623398E+00 -1.14074616E+00  9.26223624E-01  3.06997539E+00  3.06653268E+00
 -1.14968284E+00  9.94068919E-01  1.05836282E+00  3.12533261E+00 -1.01410094E+00
 -1.37898994E+00  2.62870094E+00  6.35222383E-01 -1.64027204E+00
ZRed-IntVec                                I   N=          84
           0           0           0           0           0           0
           0           0           0           0           0           0
           0           0           0           0           0           0
           0           0           0           0           0           0
           0           0           0           0           0           0
           0           0           0           0           0           0
           0           0           0           0           0           0
           0           0           0           0           0           0
           0           0           0           0           0           0
           0           0           0           0           0           0
           0           0           0           0           0           0
           0           0           0           0           0           0
           0           0           0           0           0           0
           0           0           0           0           0           0
ZRed-FPVec                                 R   N=          84
  0.00000000E+00  0.00000000E+00  0.00000000E+00  0.00000000E+00  0.00000000E+00
  0.00000000E+00  0.00000000E+00  0.00000000E+00  0.00000000E+00  0.00000000E+00
  0.00000000E+00  0.00000000E+00  0.00000000E+00  0.00000000E+00  0.00000000E+00
  0.00000000E+00  0.00000000E+00  0.00000000E+00  0.00000000E+00  0.00000000E+00
  0.00000000E+00  0.00000000E+00  0.00000000E+00  0.00000000E+00  0.00000000E+00
  0.00000000E+00  0.00000000E+00  0.00000000E+00  0.00000000E+00  0.00000000E+00
  0.00000000E+00  0.00000000E+00  0.00000000E+00  0.00000000E+00  0.00000000E+00
  0.00000000E+00  0.00000000E+00  0.00000000E+00  0.00000000E+00  0.00000000E+00
  0.00000000E+00  0.00000000E+00  0.00000000E+00  0.00000000E+00  0.00000000E+00
  0.00000000E+00  0.00000000E+00  0.00000000E+00  0.00000000E+00  0.00000000E+00
  0.00000000E+00  0.00000000E+00  0.00000000E+00  0.00000000E+00  0.00000000E+00
  0.00000000E+00  0.00000000E+00  0.00000000E+00  0.00000000E+00  0.00000000E+00
  0.00000000E+00  0.00000000E+00  0.00000000E+00  0.00000000E+00  0.00000000E+00
  0.00000000E+00  0.00000000E+00  0.00000000E+00  0.00000000E+00  0.00000000E+00
  0.00000000E+00  0.00000000E+00  0.00000000E+00  0.00000000E+00  0.00000000E+00
  0.00000000E+00  0.00000000E+00  0.00000000E+00  0.00000000E+00  0.00000000E+00
  0.00000000E+00  0.00000000E+00  0.00000000E+00  0.00000000E+00
ZRed-Constraint1                           R   N=          84
  2.88792417E+00  2.06155344E+00  2.06839364E+00  2.06914549E+00  2.80693465E+00
  2.87846163E+00  2.90044045E+00  2.85480997E+00  1.93843242E+00  1.84643062E+00
  1.84113192E+00  2.06116668E+00  2.06350867E+00  2.06130723E+00  2.06142787E+00
  2.06568854E+00  2.06108113E+00  1.91045260E+00  1.95594141E+00  1.95141081E+00
  1.85357876E+00  1.87036183E+00  1.91752744E+00  1.95367588E+00  1.95937947E+00
  1.94042522E+00  1.89372038E+00  1.76370099E+00  1.94354926E+00  1.88077187E+00
  1.91276310E+00  1.78255810E+00  2.04917872E+00  1.90431172E+00  1.97435337E+00
  1.93217608E+00  1.94714402E+00  1.90669086E+00  1.90421466E+00  1.89423619E+00
  1.87787161E+00  1.88403170E+00  1.95463653E+00  1.94188167E+00  1.88026296E+00
  1.89084249E+00  1.90991615E+00  3.00048722E+00 -1.14791417E+00  1.04239395E+00
 -1.23100615E+00  9.03777768E-01  3.09408588E+00  9.30750411E-01  3.06553433E+00
 -1.02734286E+00  9.54501076E-01 -9.72027779E-01 -1.21732580E+00  3.13933066E+00
  3.02083218E+00  1.09430333E+00 -3.13580992E+00 -1.01162417E+00  1.06236602E+00
 -9.67373288E-01  1.15681247E+00 -3.05238265E+00  9.58775383E-01  3.08296114E+00
 -1.12623398E+00 -1.14074616E+00  9.26223624E-01  3.06997539E+00  3.06653268E+00
 -1.14968284E+00  9.94068919E-01  1.05836282E+00  3.12533261E+00 -1.01410094E+00
 -1.37898994E+00  2.62870094E+00  6.35222383E-01 -1.64027204E+00
ZRed-Constraint2                           R   N=          84
  2.94728635E+00  2.05984163E+00  2.05971189E+00  2.05994375E+00  2.81129172E+00
  2.95066584E+00  2.94514608E+00  2.56842506E+00  1.90852368E+00  1.81413709E+00
  1.81413708E+00  2.05977665E+00  2.05994981E+00  2.05972125E+00  2.05983714E+00
  2.05985433E+00  2.05979442E+00  1.91064131E+00  1.91068305E+00  1.91063285E+00
  1.91066076E+00  1.91057469E+00  1.91060675E+00  1.91595427E+00  1.94069382E+00
  1.90658568E+00  1.93138208E+00  1.86074333E+00  1.90660355E+00  1.97907048E+00
  2.22077304E+00  2.08334179E+00  1.91063324E+00  1.91063324E+00  1.91063323E+00
  1.91057152E+00  1.91062989E+00  1.91059010E+00  1.91058532E+00  1.91072454E+00
  1.91069805E+00  1.91064127E+00  1.91061098E+00  1.91066268E+00  1.91061150E+00
  1.91067264E+00  1.91060034E+00  2.79342571E+00 -1.34668585E+00  7.58910188E-01
 -1.39529533E+00  7.47778426E-01  2.85337446E+00  6.99097603E-01  2.84217136E+00
 -1.33541792E+00  1.09797905E+00 -2.04369190E+00 -1.05058910E+00  2.09092526E+00
 -3.12206515E+00  1.94492116E-02  2.59230472E+00 -1.59658401E+00  4.97862008E-01
 -1.55671404E+00  5.37582535E-01  2.63202855E+00  4.86719213E-01  2.58101579E+00
 -1.60772350E+00 -7.34279233E-01  1.36008054E+00 -2.82874555E+00 -2.80356252E+00
 -7.09202748E-01  1.38515647E+00  1.39201914E+00 -2.79680639E+00 -7.02447173E-01
 -1.08965169E+00  3.09913851E+00  2.05201248E+00 -4.23826175E-02
SymInf integers                            I   N=          26
           1           1           1           1           1           0
           0           0           0           0           0           0
           0           0           0           0           0           0
           0           0           0           0           0           0
           0           0
RotTr to input orientation                 R   N=          12
  4.50572128E-02  8.70704815E-01 -4.89737657E-01 -9.86054927E-01  1.17380994E-01
  1.17971957E-01  1.60204644E-01  4.77592742E-01  8.63851633E-01  2.88608788E+00
  7.06077670E-01 -3.69959104E-01
Number of contracted shells                I               96
Number of primitive shells                 I              162
Pure/Cartesian d shells                    I                0
Pure/Cartesian f shells                    I                0
Highest angular momentum                   I                2
Largest degree of contraction              I                6
Shell types                                I   N=          96
           0          -1          -1          -1          -1          -2
           0          -1          -1          -1          -1          -2
           0          -1          -1          -1          -1          -2
           0          -1          -1          -1          -1          -2
           0          -1          -1          -1          -1          -2
           0          -1          -1          -1          -1          -2
           0           0           0           0           1           0
           0           0           0           1           0           0
           0           0           1           0           0           0
           0           1           0           0           0           0
           1           0           0           0           0           1
           0           0           0           0           1           0
           0           0           0           1           0           0
           0           0           1           0           0           0
           0           1           0           0           0           0
           1           0           0           0           0           1
Number of primitives per shell             I   N=          96
           6           3           1           1           1           1
           6           3           1           1           1           1
           6           3           1           1           1           1
           6           3           1           1           1           1
           6           3           1           1           1           1
           6           3           1           1           1           1
           3           1           1           1           1           3
           1           1           1           1           3           1
           1           1           1           3           1           1
           1           1           3           1           1           1
           1           3           1           1           1           1
           3           1           1           1           1           3
           1           1           1           1           3           1
           1           1           1           3           1           1
           1           1           3           1           1           1
           1           3           1           1           1           1
Shell to atom map                          I   N=          96
           1           1           1           1           1           1
           2           2           2           2           2           2
           3           3           3           3           3           3
           4           4           4           4           4           4
           5           5           5           5           5           5
           6           6           6           6           6           6
           7           7           7           7           7           8
           8           8           8           8           9           9
           9           9           9          10          10          10
          10          10          11          11          11          11
          11          12          12          12          12          12
          13          13          13          13          13          14
          14          14          14          14          15          15
          15          15          15          16          16          16
          16          16          17          17          17          17
          17          18          18          18          18          18
Primitive exponents                        R   N=         162
  4.56324000E+03  6.82024000E+02  1.54973000E+02  4.44553000E+01  1.30290000E+01
  1.82773000E+00  2.09642000E+01  4.80331000E+00  1.45933000E+00  4.83456000E-01
  1.45585000E-01  4.38000000E-02  6.26000000E-01  4.56324000E+03  6.82024000E+02
  1.54973000E+02  4.44553000E+01  1.30290000E+01  1.82773000E+00  2.09642000E+01
  4.80331000E+00  1.45933000E+00  4.83456000E-01  1.45585000E-01  4.38000000E-02
  6.26000000E-01  6.29348000E+03  9.49044000E+02  2.18776000E+02  6.36916000E+01
  1.88282000E+01  2.72023000E+00  3.06331000E+01  7.02614000E+00  2.11205000E+00
  6.84009000E-01  2.00878000E-01  6.39000000E-02  9.13000000E-01  8.58850000E+03
  1.29723000E+03  2.99296000E+02  8.73771000E+01  2.56789000E+01  3.74004000E+00
  4.21175000E+01  9.62837000E+00  2.85332000E+00  9.05661000E-01  2.55611000E-01
  8.45000000E-02  1.29200000E+00  4.56324000E+03  6.82024000E+02  1.54973000E+02
  4.44553000E+01  1.30290000E+01  1.82773000E+00  2.09642000E+01  4.80331000E+00
  1.45933000E+00  4.83456000E-01  1.45585000E-01  4.38000000E-02  6.26000000E-01
  4.56324000E+03  6.82024000E+02  1.54973000E+02  4.44553000E+01  1.30290000E+01
  1.82773000E+00  2.09642000E+01  4.80331000E+00  1.45933000E+00  4.83456000E-01
  1.45585000E-01  4.38000000E-02  6.26000000E-01  3.38650000E+01  5.09479000E+00
  1.15879000E+00  3.25840000E-01  1.02741000E-01  3.60000000E-02  7.50000000E-01
  3.38650000E+01  5.09479000E+00  1.15879000E+00  3.25840000E-01  1.02741000E-01
  3.60000000E-02  7.50000000E-01  3.38650000E+01  5.09479000E+00  1.15879000E+00
  3.25840000E-01  1.02741000E-01  3.60000000E-02  7.50000000E-01  3.38650000E+01
  5.09479000E+00  1.15879000E+00  3.25840000E-01  1.02741000E-01  3.60000000E-02
  7.50000000E-01  3.38650000E+01  5.09479000E+00  1.15879000E+00  3.25840000E-01
  1.02741000E-01  3.60000000E-02  7.50000000E-01  3.38650000E+01  5.09479000E+00
  1.15879000E+00  3.25840000E-01  1.02741000E-01  3.60000000E-02  7.50000000E-01
  3.38650000E+01  5.09479000E+00  1.15879000E+00  3.25840000E-01  1.02741000E-01
  3.60000000E-02  7.50000000E-01  3.38650000E+01  5.09479000E+00  1.15879000E+00
  3.25840000E-01  1.02741000E-01  3.60000000E-02  7.50000000E-01  3.38650000E+01
  5.09479000E+00  1.15879000E+00  3.25840000E-01  1.02741000E-01  3.60000000E-02
  7.50000000E-01  3.38650000E+01  5.09479000E+00  1.15879000E+00  3.25840000E-01
  1.02741000E-01  3.60000000E-02  7.50000000E-01  3.38650000E+01  5.09479000E+00
  1.15879000E+00  3.25840000E-01  1.02741000E-01  3.60000000E-02  7.50000000E-01
  3.38650000E+01  5.09479000E+00  1.15879000E+00  3.25840000E-01  1.02741000E-01
  3.60000000E-02  7.50000000E-01
Contraction coefficients                   R   N=         162
  1.96665025E-03  1.52306019E-02  7.61269097E-02  2.60801033E-01  6.16462078E-01
  2.21006028E-01  1.14660081E-01  9.19999648E-01 -3.03068213E-03  1.00000000E+00
  1.00000000E+00  1.00000000E+00  1.00000000E+00  1.96665025E-03  1.52306019E-02
  7.61269097E-02  2.60801033E-01  6.16462078E-01  2.21006028E-01  1.14660081E-01
  9.19999648E-01 -3.03068213E-03  1.00000000E+00  1.00000000E+00  1.00000000E+00
  1.00000000E+00  1.96978815E-03  1.49612859E-02  7.35005308E-02  2.48936766E-01
  6.02459433E-01  2.56201759E-01  1.11906080E-01  9.21666655E-01 -2.56919183E-03
  1.00000000E+00  1.00000000E+00  1.00000000E+00  1.00000000E+00  1.89515008E-03
  1.43859006E-02  7.07320031E-02  2.40001011E-01  5.94797026E-01  2.80802012E-01
  1.13889012E-01  9.20811101E-01 -3.27447036E-03  1.00000000E+00  1.00000000E+00
  1.00000000E+00  1.00000000E+00  1.96665025E-03  1.52306019E-02  7.61269097E-02
  2.60801033E-01  6.16462078E-01  2.21006028E-01  1.14660081E-01  9.19999648E-01
 -3.03068213E-03  1.00000000E+00  1.00000000E+00  1.00000000E+00  1.00000000E+00
  1.96665025E-03  1.52306019E-02  7.61269097E-02  2.60801033E-01  6.16462078E-01
  2.21006028E-01  1.14660081E-01  9.19999648E-01 -3.03068213E-03  1.00000000E+00
  1.00000000E+00  1.00000000E+00  1.00000000E+00  2.54938145E-02  1.90373109E-01
  8.52161486E-01  1.00000000E+00  1.00000000E+00  1.00000000E+00  1.00000000E+00
  2.54938145E-02  1.90373109E-01  8.52161486E-01  1.00000000E+00  1.00000000E+00
  1.00000000E+00  1.00000000E+00  2.54938145E-02  1.90373109E-01  8.52161486E-01
  1.00000000E+00  1.00000000E+00  1.00000000E+00  1.00000000E+00  2.54938145E-02
  1.90373109E-01  8.52161486E-01  1.00000000E+00  1.00000000E+00  1.00000000E+00
  1.00000000E+00  2.54938145E-02  1.90373109E-01  8.52161486E-01  1.00000000E+00
  1.00000000E+00  1.00000000E+00  1.00000000E+00  2.54938145E-02  1.90373109E-01
  8.52161486E-01  1.00000000E+00  1.00000000E+00  1.00000000E+00  1.00000000E+00
  2.54938145E-02  1.90373109E-01  8.52161486E-01  1.00000000E+00  1.00000000E+00
  1.00000000E+00  1.00000000E+00  2.54938145E-02  1.90373109E-01  8.52161486E-01
  1.00000000E+00  1.00000000E+00  1.00000000E+00  1.00000000E+00  2.54938145E-02
  1.90373109E-01  8.52161486E-01  1.00000000E+00  1.00000000E+00  1.00000000E+00
  1.00000000E+00  2.54938145E-02  1.90373109E-01  8.52161486E-01  1.00000000E+00
  1.00000000E+00  1.00000000E+00  1.00000000E+00  2.54938145E-02  1.90373109E-01
  8.52161486E-01  1.00000000E+00  1.00000000E+00  1.00000000E+00  1.00000000E+00
  2.54938145E-02  1.90373109E-01  8.52161486E-01  1.00000000E+00  1.00000000E+00
  1.00000000E+00  1.00000000E+00
P(S=P) Contraction coefficients            R   N=         162
  0.00000000E+00  0.00000000E+00  0.00000000E+00  0.00000000E+00  0.00000000E+00
  0.00000000E+00  4.02486927E-02  2.37593957E-01  8.15853851E-01  1.00000000E+00
  1.00000000E+00  1.00000000E+00  0.00000000E+00  0.00000000E+00  0.00000000E+00
  0.00000000E+00  0.00000000E+00  0.00000000E+00  0.00000000E+00  4.02486927E-02
  2.37593957E-01  8.15853851E-01  1.00000000E+00  1.00000000E+00  1.00000000E+00
  0.00000000E+00  0.00000000E+00  0.00000000E+00  0.00000000E+00  0.00000000E+00
  0.00000000E+00  0.00000000E+00  3.83119186E-02  2.37403116E-01  8.17592398E-01
  1.00000000E+00  1.00000000E+00  1.00000000E+00  0.00000000E+00  0.00000000E+00
  0.00000000E+00  0.00000000E+00  0.00000000E+00  0.00000000E+00  0.00000000E+00
  3.65113974E-02  2.37152983E-01  8.19701941E-01  1.00000000E+00  1.00000000E+00
  1.00000000E+00  0.00000000E+00  0.00000000E+00  0.00000000E+00  0.00000000E+00
  0.00000000E+00  0.00000000E+00  0.00000000E+00  4.02486927E-02  2.37593957E-01
  8.15853851E-01  1.00000000E+00  1.00000000E+00  1.00000000E+00  0.00000000E+00
  0.00000000E+00  0.00000000E+00  0.00000000E+00  0.00000000E+00  0.00000000E+00
  0.00000000E+00  4.02486927E-02  2.37593957E-01  8.15853851E-01  1.00000000E+00
  1.00000000E+00  1.00000000E+00  0.00000000E+00  0.00000000E+00  0.00000000E+00
  0.00000000E+00  0.00000000E+00  0.00000000E+00  0.00000000E+00  0.00000000E+00
  0.00000000E+00  0.00000000E+00  0.00000000E+00  0.00000000E+00  0.00000000E+00
  0.00000000E+00  0.00000000E+00  0.00000000E+00  0.00000000E+00  0.00000000E+00
  0.00000000E+00  0.00000000E+00  0.00000000E+00  0.00000000E+00  0.00000000E+00
  0.00000000E+00  0.00000000E+00  0.00000000E+00  0.00000000E+00  0.00000000E+00