 Entering Gaussian System, Link 0=/apps/cent7/gaussian/g16-A.03/g16-haswell/g16/g16
 Initial command:
 /apps/cent7/gaussian/g16-A.03/g16-haswell/g16/l1.exe "/scratch/brown/finej/gaussian/Gau-20581.inp" -scrdir="/scratch/brown/finej/gaussian/"
 Entering Link 1 = /apps/cent7/gaussian/g16-A.03/g16-haswell/g16/l1.exe PID=     20582.
  
 Copyright (c) 1988,1990,1992,1993,1995,1998,2003,2009,2016,
            Gaussian, Inc.  All Rights Reserved.
  
 This is part of the Gaussian(R) 16 program.  It is based on
 the Gaussian(R) 09 system (copyright 2009, Gaussian, Inc.),
 the Gaussian(R) 03 system (copyright 2003, Gaussian, Inc.),
 the Gaussian(R) 98 system (copyright 1998, Gaussian, Inc.),
 the Gaussian(R) 94 system (copyright 1995, Gaussian, Inc.),
 the Gaussian 92(TM) system (copyright 1992, Gaussian, Inc.),
 the Gaussian 90(TM) system (copyright 1990, Gaussian, Inc.),
 the Gaussian 88(TM) system (copyright 1988, Gaussian, Inc.),
 the Gaussian 86(TM) system (copyright 1986, Carnegie Mellon
 University), and the Gaussian 82(TM) system (copyright 1983,
 Carnegie Mellon University). Gaussian is a federally registered
 trademark of Gaussian, Inc.
  
 This software contains proprietary and confidential information,
 including trade secrets, belonging to Gaussian, Inc.
  
 This software is provided under written license and may be
 used, copied, transmitted, or stored only in accord with that
 written license.
  
 The following legend is applicable only to US Government
 contracts under FAR:
  
                    RESTRICTED RIGHTS LEGEND
  
 Use, reproduction and disclosure by the US Government is
 subject to restrictions as set forth in subparagraphs (a)
 and (c) of the Commercial Computer Software - Restricted
 Rights clause in FAR 52.227-19.
  
 Gaussian, Inc.
 340 Quinnipiac St., Bldg. 40, Wallingford CT 06492
  
  
 ---------------------------------------------------------------
 Warning -- This program may not be used in any manner that
 competes with the business of Gaussian, Inc. or will provide
 assistance to any competitor of Gaussian, Inc.  The licensee
 of this program is prohibited from giving any competitor of
 Gaussian, Inc. access to this program.  By using this program,
 the user acknowledges that Gaussian, Inc. is engaged in the
 business of creating and licensing software in the field of
 computational chemistry and represents and warrants to the
 licensee that it is not a competitor of Gaussian, Inc. and that
 it will not use this program in any manner prohibited above.
 ---------------------------------------------------------------
  

 Cite this work as:
 Gaussian 16, Revision A.03,
 M. J. Frisch, G. W. Trucks, H. B. Schlegel, G. E. Scuseria, 
 M. A. Robb, J. R. Cheeseman, G. Scalmani, V. Barone, 
 G. A. Petersson, H. Nakatsuji, X. Li, M. Caricato, A. V. Marenich, 
 J. Bloino, B. G. Janesko, R. Gomperts, B. Mennucci, H. P. Hratchian, 
 J. V. Ortiz, A. F. Izmaylov, J. L. Sonnenberg, D. Williams-Young, 
 F. Ding, F. Lipparini, F. Egidi, J. Goings, B. Peng, A. Petrone, 
 T. Henderson, D. Ranasinghe, V. G. Zakrzewski, J. Gao, N. Rega, 
 G. Zheng, W. Liang, M. Hada, M. Ehara, K. Toyota, R. Fukuda, 
 J. Hasegawa, M. Ishida, T. Nakajima, Y. Honda, O. Kitao, H. Nakai, 
 T. Vreven, K. Throssell, J. A. Montgomery, Jr., J. E. Peralta, 
 F. Ogliaro, M. J. Bearpark, J. J. Heyd, E. N. Brothers, K. N. Kudin, 
 V. N. Staroverov, T. A. Keith, R. Kobayashi, J. Normand, 
 K. Raghavachari, A. P. Rendell, J. C. Burant, S. S. Iyengar, 
 J. Tomasi, M. Cossi, J. M. Millam, M. Klene, C. Adamo, R. Cammi, 
 J. W. Ochterski, R. L. Martin, K. Morokuma, O. Farkas, 
 J. B. Foresman, and D. J. Fox, Gaussian, Inc., Wallingford CT, 2016.
 
 ******************************************
 Gaussian 16:  ES64L-G16RevA.03 25-Dec-2016
                13-Oct-2019 
 ******************************************
 %chk=1.chk
 %nprocshared=24
 Will use up to   24 processors via shared memory.
 %mem=80GB
 -------------------------------------------------------------------
 #P opt freq m062x/6-311++g(d,p) geom=connectivity temperature=0.001
 -------------------------------------------------------------------
 1/18=20,19=15,26=3,38=1,57=2,112=-1000/1,3;
 2/9=110,12=2,17=6,18=5,40=1/2;
 3/5=4,6=6,7=1111,11=2,25=1,30=1,71=1,74=-55/1,2,3;
 4//1;
 5/5=2,38=5/2;
 6/7=2,8=2,9=2,10=2,28=1/1;
 7//1,2,3,16;
 1/18=20,19=15,26=3/3(2);
 2/9=110/2;
 99//99;
 2/9=110/2;
 3/5=4,6=6,7=1111,11=2,25=1,30=1,71=1,74=-55/1,2,3;
 4/5=5,16=3,69=1/1;
 5/5=2,38=5/2;
 7//1,2,3,16;
 1/18=20,19=15,26=3/3(-5);
 2/9=110/2;
 6/7=2,8=2,9=2,10=2,19=2,28=1/1;
 99/9=1/99;
 Leave Link    1 at Sun Oct 13 21:28:57 2019, MaxMem= 10737418240 cpu:               1.6 elap:               0.1
 (Enter /apps/cent7/gaussian/g16-A.03/g16-haswell/g16/l101.exe)
 -------------------
 Title Card Required
 -------------------
 Symbolic Z-matrix:
 Charge =  0 Multiplicity = 1
 C                     2.3617   -2.8939   -2.3784 
 C                     1.9997   -2.1258   -1.0882 
 N                     2.1434   -0.6498   -1.2274 
 O                     1.277    -0.1964   -2.179 
 C                     1.9127    0.075     0.0556 
 C                     2.1843    1.5911   -0.0453 
 H                     2.3088   -3.9661   -2.1898 
 H                     1.6591   -2.6288   -3.1683 
 H                     3.3728   -2.6288   -2.6874 
 H                     0.9379   -2.2961   -0.9102 
 H                     2.7321   -2.4165   -0.335 
 H                     0.5145    0.2026   -1.7535 
 H                     0.8486   -0.038     0.263 
 H                     2.6492   -0.3281    0.7507 
 H                     2.2601    2.0141    0.9564 
 H                     3.1183    1.758    -0.5818 
 H                     1.3663    2.0718   -0.5818 
 
 ITRead=  0  0  0  0  0  0  0  0  0  0  0  0  0  0  0  0  0
 MicOpt= -1 -1 -1 -1 -1 -1 -1 -1 -1 -1 -1 -1 -1 -1 -1 -1 -1
 NAtoms=     17 NQM=       17 NQMF=       0 NMMI=      0 NMMIF=      0
                NMic=       0 NMicF=      0.
                    Isotopes and Nuclear Properties:
 (Nuclear quadrupole moments (NQMom) in fm**2, nuclear magnetic moments (NMagM)
  in nuclear magnetons)

  Atom         1           2           3           4           5           6           7           8           9          10
 IAtWgt=          12          12          14          16          12          12           1           1           1           1
 AtmWgt=  12.0000000  12.0000000  14.0030740  15.9949146  12.0000000  12.0000000   1.0078250   1.0078250   1.0078250   1.0078250
 NucSpn=           0           0           2           0           0           0           1           1           1           1
 AtZEff=  -0.0000000  -0.0000000  -0.0000000  -0.0000000  -0.0000000  -0.0000000  -0.0000000  -0.0000000  -0.0000000  -0.0000000
 NQMom=    0.0000000   0.0000000   2.0440000   0.0000000   0.0000000   0.0000000   0.0000000   0.0000000   0.0000000   0.0000000
 NMagM=    0.0000000   0.0000000   0.4037610   0.0000000   0.0000000   0.0000000   2.7928460   2.7928460   2.7928460   2.7928460
 AtZNuc=   6.0000000   6.0000000   7.0000000   8.0000000   6.0000000   6.0000000   1.0000000   1.0000000   1.0000000   1.0000000

  Atom        11          12          13          14          15          16          17
 IAtWgt=           1           1           1           1           1           1           1
 AtmWgt=   1.0078250   1.0078250   1.0078250   1.0078250   1.0078250   1.0078250   1.0078250
 NucSpn=           1           1           1           1           1           1           1
 AtZEff=  -0.0000000  -0.0000000  -0.0000000  -0.0000000  -0.0000000  -0.0000000  -0.0000000
 NQMom=    0.0000000   0.0000000   0.0000000   0.0000000   0.0000000   0.0000000   0.0000000
 NMagM=    2.7928460   2.7928460   2.7928460   2.7928460   2.7928460   2.7928460   2.7928460
 AtZNuc=   1.0000000   1.0000000   1.0000000   1.0000000   1.0000000   1.0000000   1.0000000
 Leave Link  101 at Sun Oct 13 21:28:58 2019, MaxMem= 10737418240 cpu:               8.5 elap:               0.4
 (Enter /apps/cent7/gaussian/g16-A.03/g16-haswell/g16/l103.exe)

 GradGradGradGradGradGradGradGradGradGradGradGradGradGradGradGradGradGrad
 Berny optimization.
 Initialization pass.
                           ----------------------------
                           !    Initial Parameters    !
                           ! (Angstroms and Degrees)  !
 --------------------------                            --------------------------
 ! Name  Definition              Value          Derivative Info.                !
 --------------------------------------------------------------------------------
 ! R1    R(1,2)                  1.5446         estimate D2E/DX2                !
 ! R2    R(1,7)                  1.0899         estimate D2E/DX2                !
 ! R3    R(1,8)                  1.0899         estimate D2E/DX2                !
 ! R4    R(1,9)                  1.09           estimate D2E/DX2                !
 ! R5    R(2,3)                  1.4895         estimate D2E/DX2                !
 ! R6    R(2,10)                 1.09           estimate D2E/DX2                !
 ! R7    R(2,11)                 1.0901         estimate D2E/DX2                !
 ! R8    R(3,4)                  1.3645         estimate D2E/DX2                !
 ! R9    R(3,5)                  1.4915         estimate D2E/DX2                !
 ! R10   R(4,12)                 0.96           estimate D2E/DX2                !
 ! R11   R(5,6)                  1.5435         estimate D2E/DX2                !
 ! R12   R(5,13)                 1.09           estimate D2E/DX2                !
 ! R13   R(5,14)                 1.09           estimate D2E/DX2                !
 ! R14   R(6,15)                 1.09           estimate D2E/DX2                !
 ! R15   R(6,16)                 1.09           estimate D2E/DX2                !
 ! R16   R(6,17)                 1.09           estimate D2E/DX2                !
 ! A1    A(2,1,7)              109.4682         estimate D2E/DX2                !
 ! A2    A(2,1,8)              109.4724         estimate D2E/DX2                !
 ! A3    A(2,1,9)              109.467          estimate D2E/DX2                !
 ! A4    A(7,1,8)              109.475          estimate D2E/DX2                !
 ! A5    A(7,1,9)              109.4709         estimate D2E/DX2                !
 ! A6    A(8,1,9)              109.4738         estimate D2E/DX2                !
 ! A7    A(1,2,3)              113.0861         estimate D2E/DX2                !
 ! A8    A(1,2,10)             106.6797         estimate D2E/DX2                !
 ! A9    A(1,2,11)             106.684          estimate D2E/DX2                !
 ! A10   A(3,2,10)             105.3113         estimate D2E/DX2                !
 ! A11   A(3,2,11)             105.3087         estimate D2E/DX2                !
 ! A12   A(10,2,11)            120.0002         estimate D2E/DX2                !
 ! A13   A(2,3,4)              109.463          estimate D2E/DX2                !
 ! A14   A(2,3,5)              112.7202         estimate D2E/DX2                !
 ! A15   A(4,3,5)              109.8905         estimate D2E/DX2                !
 ! A16   A(3,4,12)             109.4707         estimate D2E/DX2                !
 ! A17   A(3,5,6)              113.195          estimate D2E/DX2                !
 ! A18   A(3,5,13)             105.3251         estimate D2E/DX2                !
 ! A19   A(3,5,14)             105.3272         estimate D2E/DX2                !
 ! A20   A(6,5,13)             106.6213         estimate D2E/DX2                !
 ! A21   A(6,5,14)             106.6209         estimate D2E/DX2                !
 ! A22   A(13,5,14)            119.9973         estimate D2E/DX2                !
 ! A23   A(5,6,15)             109.4717         estimate D2E/DX2                !
 ! A24   A(5,6,16)             109.4726         estimate D2E/DX2                !
 ! A25   A(5,6,17)             109.4695         estimate D2E/DX2                !
 ! A26   A(15,6,16)            109.471          estimate D2E/DX2                !
 ! A27   A(15,6,17)            109.4744         estimate D2E/DX2                !
 ! A28   A(16,6,17)            109.4681         estimate D2E/DX2                !
 ! D1    D(7,1,2,3)            175.7823         estimate D2E/DX2                !
 ! D2    D(7,1,2,10)           -68.9165         estimate D2E/DX2                !
 ! D3    D(7,1,2,11)            60.4816         estimate D2E/DX2                !
 ! D4    D(8,1,2,3)            -64.2143         estimate D2E/DX2                !
 ! D5    D(8,1,2,10)            51.0869         estimate D2E/DX2                !
 ! D6    D(8,1,2,11)          -179.5149         estimate D2E/DX2                !
 ! D7    D(9,1,2,3)             55.7871         estimate D2E/DX2                !
 ! D8    D(9,1,2,10)           171.0882         estimate D2E/DX2                !
 ! D9    D(9,1,2,11)           -59.5136         estimate D2E/DX2                !
 ! D10   D(1,2,3,4)             62.6001         estimate D2E/DX2                !
 ! D11   D(1,2,3,5)           -174.7725         estimate D2E/DX2                !
 ! D12   D(10,2,3,4)           -53.5159         estimate D2E/DX2                !
 ! D13   D(10,2,3,5)            69.1115         estimate D2E/DX2                !
 ! D14   D(11,2,3,4)           178.7196         estimate D2E/DX2                !
 ! D15   D(11,2,3,5)           -58.653          estimate D2E/DX2                !
 ! D16   D(2,3,4,12)           101.8628         estimate D2E/DX2                !
 ! D17   D(5,3,4,12)           -22.4345         estimate D2E/DX2                !
 ! D18   D(2,3,5,6)            174.7499         estimate D2E/DX2                !
 ! D19   D(2,3,5,13)           -69.14           estimate D2E/DX2                !
 ! D20   D(2,3,5,14)            58.6391         estimate D2E/DX2                !
 ! D21   D(4,3,5,6)            -62.8626         estimate D2E/DX2                !
 ! D22   D(4,3,5,13)            53.2474         estimate D2E/DX2                !
 ! D23   D(4,3,5,14)          -178.9735         estimate D2E/DX2                !
 ! D24   D(3,5,6,15)          -164.9961         estimate D2E/DX2                !
 ! D25   D(3,5,6,16)           -44.9952         estimate D2E/DX2                !
 ! D26   D(3,5,6,17)            75.0008         estimate D2E/DX2                !
 ! D27   D(13,5,6,15)           79.6639         estimate D2E/DX2                !
 ! D28   D(13,5,6,16)         -160.3352         estimate D2E/DX2                !
 ! D29   D(13,5,6,17)          -40.3392         estimate D2E/DX2                !
 ! D30   D(14,5,6,15)          -49.6538         estimate D2E/DX2                !
 ! D31   D(14,5,6,16)           70.3471         estimate D2E/DX2                !
 ! D32   D(14,5,6,17)         -169.657          estimate D2E/DX2                !
 --------------------------------------------------------------------------------
 Trust Radius=3.00D-01 FncErr=1.00D-07 GrdErr=1.00D-06 EigMax=2.50D+02 EigMin=1.00D-04
 Number of steps in this run=     86 maximum allowed number of steps=    102.
 GradGradGradGradGradGradGradGradGradGradGradGradGradGradGradGradGradGrad

 Leave Link  103 at Sun Oct 13 21:28:58 2019, MaxMem= 10737418240 cpu:               0.3 elap:               0.0
 (Enter /apps/cent7/gaussian/g16-A.03/g16-haswell/g16/l202.exe)
                          Input orientation:                          
 ---------------------------------------------------------------------
 Center     Atomic      Atomic             Coordinates (Angstroms)
 Number     Number       Type             X           Y           Z
 ---------------------------------------------------------------------
      1          6           0        2.361700   -2.893900   -2.378400
      2          6           0        1.999700   -2.125800   -1.088200
      3          7           0        2.143400   -0.649800   -1.227400
      4          8           0        1.277000   -0.196400   -2.179000
      5          6           0        1.912700    0.075000    0.055600
      6          6           0        2.184300    1.591100   -0.045300
      7          1           0        2.308800   -3.966100   -2.189800
      8          1           0        1.659100   -2.628800   -3.168300
      9          1           0        3.372800   -2.628800   -2.687400
     10          1           0        0.937900   -2.296100   -0.910200
     11          1           0        2.732100   -2.416500   -0.335000
     12          1           0        0.514500    0.202600   -1.753500
     13          1           0        0.848600   -0.038000    0.263000
     14          1           0        2.649200   -0.328100    0.750700
     15          1           0        2.260100    2.014100    0.956400
     16          1           0        3.118300    1.758000   -0.581800
     17          1           0        1.366300    2.071800   -0.581800
 ---------------------------------------------------------------------
                    Distance matrix (angstroms):
                    1          2          3          4          5
     1  C    0.000000
     2  C    1.544551   0.000000
     3  N    2.531490   1.489497   0.000000
     4  O    2.914248   2.331250   1.364464   0.000000
     5  C    3.865272   2.481807   1.491525   2.339062   0.000000
     6  C    5.058661   3.864850   2.533903   2.927631   1.543537
     7  H    1.089946   2.166972   3.457082   3.908371   4.639957
     8  H    1.089893   2.166987   2.813908   2.653542   4.215255
     9  H    1.089992   2.166992   2.749448   3.250757   4.119038
    10  H    2.130770   1.090002   2.064982   2.476607   2.739547
    11  H    2.130866   1.090058   2.064988   3.232104   2.651708
    12  H    3.659366   2.840755   1.912245   0.960030   2.289997
    13  H    4.174042   2.740380   2.066906   2.484347   1.089997
    14  H    4.056754   2.652382   2.066931   3.237811   1.089994
    15  H    5.934617   4.624605   3.446587   3.960244   2.166157
    16  H    5.043847   4.073280   2.676701   3.124278   2.166158
    17  H    5.373711   4.275217   2.903066   2.775564   2.166112
                    6          7          8          9         10
     6  C    0.000000
     7  H    5.957923   0.000000
     8  H    5.276033   1.779872   0.000000
     9  H    5.118670   1.779908   1.779897   0.000000
    10  H    4.172756   2.511104   2.393707   3.032799   0.000000
    11  H    4.055227   2.453717   3.037102   2.447316   1.887990
    12  H    2.762990   4.559378   3.365798   4.130239   2.670941
    13  H    2.129110   4.855758   4.375269   4.667836   2.546250
    14  H    2.129102   4.690145   4.651030   4.199684   3.091951
    15  H    1.089990   6.757495   6.239461   6.005989   4.879573
    16  H    1.089974   6.000523   5.297477   4.872611   4.614945
    17  H    1.089967   6.319035   5.373207   5.527679   4.401128
                   11         12         13         14         15
    11  H    0.000000
    12  H    3.713432   0.000000
    13  H    3.092319   2.058102   0.000000
    14  H    2.355214   3.333107   1.887901   0.000000
    15  H    4.639042   3.697595   2.585392   2.383194   0.000000
    16  H    4.199585   3.251450   3.015102   2.519410   1.779931
    17  H    4.697995   2.364816   2.330870   3.030001   1.779963
                   16         17
    16  H    0.000000
    17  H    1.779880   0.000000
 Stoichiometry    C4H11NO
 Framework group  C1[X(C4H11NO)]
 Deg. of freedom    45
 Full point group                 C1      NOp   1
 Largest Abelian subgroup         C1      NOp   1
 Largest concise Abelian subgroup C1      NOp   1
                         Standard orientation:                         
 ---------------------------------------------------------------------
 Center     Atomic      Atomic             Coordinates (Angstroms)
 Number     Number       Type             X           Y           Z
 ---------------------------------------------------------------------
      1          6           0       -2.540920   -0.042104   -0.314065
      2          6           0       -1.253640   -0.637259    0.297767
      3          7           0       -0.012042    0.009257   -0.211206
      4          8           0       -0.009094    1.327686    0.140219
      5          6           0        1.228107   -0.651856    0.288401
      6          6           0        2.517610   -0.073569   -0.332301
      7          1           0       -3.404937   -0.604542    0.039657
      8          1           0       -2.637982    1.000759   -0.012600
      9          1           0       -2.488148   -0.102725   -1.401090
     10          1           0       -1.280045   -0.410582    1.363612
     11          1           0       -1.197326   -1.672788   -0.037993
     12          1           0        0.571177    1.456621    0.894088
     13          1           0        1.266144   -0.425234    1.353900
     14          1           0        1.157831   -1.686755   -0.046458
     15          1           0        3.348453   -0.753228   -0.142983
     16          1           0        2.382244    0.044153   -1.407411
     17          1           0        2.732699    0.896766    0.115155
 ---------------------------------------------------------------------
 Rotational constants (GHZ):           7.9974585           1.9407222           1.7100920
 Leave Link  202 at Sun Oct 13 21:28:58 2019, MaxMem= 10737418240 cpu:               0.9 elap:               0.1
 (Enter /apps/cent7/gaussian/g16-A.03/g16-haswell/g16/l301.exe)
 Standard basis: 6-311++G(d,p) (5D, 7F)
 Ernie: Thresh=  0.10000D-02 Tol=  0.10000D-05 Strict=F.
 There are   215 symmetry adapted cartesian basis functions of A   symmetry.
 There are   209 symmetry adapted basis functions of A   symmetry.
   209 basis functions,   315 primitive gaussians,   215 cartesian basis functions
    25 alpha electrons       25 beta electrons
       nuclear repulsion energy       262.7473552478 Hartrees.
 IExCor= 4336 DFT=T Ex+Corr=M062X ExCW=0 ScaHFX=  0.540000
 ScaDFX=  1.000000  1.000000  1.000000  1.000000 ScalE2=  1.000000  1.000000
 IRadAn=      5 IRanWt=     -1 IRanGd=            0 ICorTp=0 IEmpDi=  4
 NAtoms=   17 NActive=   17 NUniq=   17 SFac= 1.00D+00 NAtFMM=   60 NAOKFM=F Big=F
 Integral buffers will be    131072 words long.
 Raffenetti 2 integral format.
 Two-electron integral symmetry is turned on.
 Leave Link  301 at Sun Oct 13 21:28:58 2019, MaxMem= 10737418240 cpu:               1.3 elap:               0.1
 (Enter /apps/cent7/gaussian/g16-A.03/g16-haswell/g16/l302.exe)
 NPDir=0 NMtPBC=     1 NCelOv=     1 NCel=       1 NClECP=     1 NCelD=      1
         NCelK=      1 NCelE2=     1 NClLst=     1 CellRange=     0.0.
 One-electron integrals computed using PRISM.
 One-electron integral symmetry used in STVInt
 NBasis=   209 RedAO= T EigKep=  3.22D-05  NBF=   209
 NBsUse=   209 1.00D-06 EigRej= -1.00D+00 NBFU=   209
 Precomputing XC quadrature grid using
 IXCGrd= 4 IRadAn=           5 IRanWt=          -1 IRanGd=           0 AccXCQ= 0.00D+00.
 Generated NRdTot=       0 NPtTot=           0 NUsed=           0 NTot=          32
 NSgBfM=   215   215   215   215   215 MxSgAt=    17 MxSgA2=    17.
 Leave Link  302 at Sun Oct 13 21:28:58 2019, MaxMem= 10737418240 cpu:               3.7 elap:               0.2
 (Enter /apps/cent7/gaussian/g16-A.03/g16-haswell/g16/l303.exe)
 DipDrv:  MaxL=1.
 Leave Link  303 at Sun Oct 13 21:28:58 2019, MaxMem= 10737418240 cpu:               0.9 elap:               0.1
 (Enter /apps/cent7/gaussian/g16-A.03/g16-haswell/g16/l401.exe)
 ExpMin= 3.60D-02 ExpMax= 8.59D+03 ExpMxC= 1.30D+03 IAcc=3 IRadAn=         5 AccDes= 0.00D+00
 Harris functional with IExCor= 1009 and IRadAn=       5 diagonalized for initial guess.
 HarFok:  IExCor= 1009 AccDes= 0.00D+00 IRadAn=         5 IDoV= 1 UseB2=F ITyADJ=14
 ICtDFT=  3500011 ScaDFX=  1.000000  1.000000  1.000000  1.000000
 FoFCou: FMM=F IPFlag=           0 FMFlag=      100000 FMFlg1=           0
         NFxFlg=           0 DoJE=T BraDBF=F KetDBF=T FulRan=T
         wScrn=  0.000000 ICntrl=       500 IOpCl=  0 I1Cent=   200000004 NGrid=           0
         NMat0=    1 NMatS0=      1 NMatT0=    0 NMatD0=    1 NMtDS0=    0 NMtDT0=    0
 Petite list used in FoFCou.
 Harris En= -288.819142493983    
 JPrj=0 DoOrth=F DoCkMO=F.
 Leave Link  401 at Sun Oct 13 21:28:59 2019, MaxMem= 10737418240 cpu:               8.4 elap:               0.4
 (Enter /apps/cent7/gaussian/g16-A.03/g16-haswell/g16/l502.exe)
 Integral symmetry usage will be decided dynamically.
 Closed shell SCF:
 Using DIIS extrapolation, IDIIS=  1040.
 NGot= 10737418240 LenX= 10737318341 LenY= 10737271675
 Requested convergence on RMS density matrix=1.00D-08 within 128 cycles.
 Requested convergence on MAX density matrix=1.00D-06.
 Requested convergence on             energy=1.00D-06.
 No special actions if energy rises.
 Fock matrices will be formed incrementally for  20 cycles.

 Cycle   1  Pass 1  IDiag  1:
 FoFJK:  IHMeth= 1 ICntrl=       0 DoSepK=F KAlg= 0 I1Cent=           0 FoldK=F
 IRaf= 970000000 NMat=       1 IRICut=       1 DoRegI=T DoRafI=F ISym2E= 0 IDoP0=0 IntGTp=1.
 FoFCou: FMM=F IPFlag=           0 FMFlag=      100000 FMFlg1=           0
         NFxFlg=           0 DoJE=F BraDBF=F KetDBF=F FulRan=T
         wScrn=  0.000000 ICntrl=         0 IOpCl=  0 I1Cent=           0 NGrid=           0
         NMat0=    1 NMatS0=      1 NMatT0=    0 NMatD0=    1 NMtDS0=    0 NMtDT0=    0
 Symmetry not used in FoFCou.
 E= -288.671854450612    
 DIIS: error= 3.47D-02 at cycle   1 NSaved=   1.
 NSaved= 1 IEnMin= 1 EnMin= -288.671854450612     IErMin= 1 ErrMin= 3.47D-02
 ErrMax= 3.47D-02  0.00D+00 EMaxC= 1.00D-01 BMatC= 2.72D-01 BMatP= 2.72D-01
 IDIUse=3 WtCom= 6.53D-01 WtEn= 3.47D-01
 Coeff-Com:  0.100D+01
 Coeff-En:   0.100D+01
 Coeff:      0.100D+01
 Gap=     0.266 Goal=   None    Shift=    0.000
 GapD=    0.266 DampG=1.000 DampE=0.500 DampFc=0.5000 IDamp=-1.
 Damping current iteration by 5.00D-01
 RMSDP=5.18D-03 MaxDP=3.23D-01              OVMax= 1.42D-01

 Cycle   2  Pass 1  IDiag  1:
 RMSU=  2.58D-03    CP:  9.82D-01
 E= -288.787283017686     Delta-E=       -0.115428567074 Rises=F Damp=T
 DIIS: error= 6.84D-03 at cycle   2 NSaved=   2.
 NSaved= 2 IEnMin= 2 EnMin= -288.787283017686     IErMin= 2 ErrMin= 6.84D-03
 ErrMax= 6.84D-03  0.00D+00 EMaxC= 1.00D-01 BMatC= 1.73D-02 BMatP= 2.72D-01
 IDIUse=3 WtCom= 9.32D-01 WtEn= 6.84D-02
 Coeff-Com: -0.115D+00 0.111D+01
 Coeff-En:   0.000D+00 0.100D+01
 Coeff:     -0.107D+00 0.111D+01
 Gap=     0.279 Goal=   None    Shift=    0.000
 RMSDP=1.58D-03 MaxDP=3.62D-02 DE=-1.15D-01 OVMax= 6.66D-02

 Cycle   3  Pass 1  IDiag  1:
 RMSU=  1.54D-03    CP:  9.63D-01  1.11D+00
 E= -288.892972095600     Delta-E=       -0.105689077913 Rises=F Damp=F
 DIIS: error= 3.64D-03 at cycle   3 NSaved=   3.
 NSaved= 3 IEnMin= 3 EnMin= -288.892972095600     IErMin= 3 ErrMin= 3.64D-03
 ErrMax= 3.64D-03  0.00D+00 EMaxC= 1.00D-01 BMatC= 2.98D-03 BMatP= 1.73D-02
 IDIUse=3 WtCom= 9.64D-01 WtEn= 3.64D-02
 Coeff-Com: -0.747D-01 0.302D+00 0.773D+00
 Coeff-En:   0.000D+00 0.000D+00 0.100D+01
 Coeff:     -0.720D-01 0.291D+00 0.781D+00
 Gap=     0.274 Goal=   None    Shift=    0.000
 RMSDP=4.90D-04 MaxDP=1.55D-02 DE=-1.06D-01 OVMax= 1.10D-02

 Cycle   4  Pass 1  IDiag  1:
 RMSU=  4.68D-04    CP:  9.60D-01  1.16D+00  1.01D+00
 E= -288.894402652549     Delta-E=       -0.001430556950 Rises=F Damp=F
 DIIS: error= 2.17D-03 at cycle   4 NSaved=   4.
 NSaved= 4 IEnMin= 4 EnMin= -288.894402652549     IErMin= 4 ErrMin= 2.17D-03
 ErrMax= 2.17D-03  0.00D+00 EMaxC= 1.00D-01 BMatC= 9.19D-04 BMatP= 2.98D-03
 IDIUse=3 WtCom= 9.78D-01 WtEn= 2.17D-02
 Coeff-Com: -0.270D-01 0.740D-01 0.403D+00 0.550D+00
 Coeff-En:   0.000D+00 0.000D+00 0.199D+00 0.801D+00
 Coeff:     -0.264D-01 0.724D-01 0.399D+00 0.555D+00
 Gap=     0.271 Goal=   None    Shift=    0.000
 RMSDP=2.36D-04 MaxDP=1.48D-02 DE=-1.43D-03 OVMax= 4.41D-03

 Cycle   5  Pass 1  IDiag  1:
 RMSU=  1.25D-04    CP:  9.57D-01  1.13D+00  9.97D-01  6.17D-01
 E= -288.895052240950     Delta-E=       -0.000649588401 Rises=F Damp=F
 DIIS: error= 2.41D-04 at cycle   5 NSaved=   5.
 NSaved= 5 IEnMin= 5 EnMin= -288.895052240950     IErMin= 5 ErrMin= 2.41D-04
 ErrMax= 2.41D-04  0.00D+00 EMaxC= 1.00D-01 BMatC= 1.28D-05 BMatP= 9.19D-04
 IDIUse=3 WtCom= 9.98D-01 WtEn= 2.41D-03
 Coeff-Com: -0.244D-02 0.334D-02 0.674D-01 0.158D+00 0.773D+00
 Coeff-En:   0.000D+00 0.000D+00 0.000D+00 0.000D+00 0.100D+01
 Coeff:     -0.244D-02 0.333D-02 0.673D-01 0.158D+00 0.774D+00
 Gap=     0.272 Goal=   None    Shift=    0.000
 RMSDP=4.21D-05 MaxDP=1.10D-03 DE=-6.50D-04 OVMax= 8.61D-04

 Cycle   6  Pass 1  IDiag  1:
 RMSU=  3.22D-05    CP:  9.58D-01  1.13D+00  1.00D+00  6.60D-01  8.84D-01
 E= -288.895063416512     Delta-E=       -0.000011175562 Rises=F Damp=F
 DIIS: error= 4.14D-05 at cycle   6 NSaved=   6.
 NSaved= 6 IEnMin= 6 EnMin= -288.895063416512     IErMin= 6 ErrMin= 4.14D-05
 ErrMax= 4.14D-05  0.00D+00 EMaxC= 1.00D-01 BMatC= 4.60D-07 BMatP= 1.28D-05
 IDIUse=1 WtCom= 1.00D+00 WtEn= 0.00D+00
 Coeff-Com:  0.919D-03-0.279D-02-0.342D-02 0.844D-02 0.145D+00 0.852D+00
 Coeff:      0.919D-03-0.279D-02-0.342D-02 0.844D-02 0.145D+00 0.852D+00
 Gap=     0.271 Goal=   None    Shift=    0.000
 RMSDP=1.03D-05 MaxDP=5.97D-04 DE=-1.12D-05 OVMax= 4.76D-04

 Cycle   7  Pass 1  IDiag  1:
 RMSU=  6.11D-06    CP:  9.58D-01  1.13D+00  1.00D+00  6.70D-01  9.18D-01
                    CP:  1.08D+00
 E= -288.895063863854     Delta-E=       -0.000000447342 Rises=F Damp=F
 DIIS: error= 2.95D-05 at cycle   7 NSaved=   7.
 NSaved= 7 IEnMin= 7 EnMin= -288.895063863854     IErMin= 7 ErrMin= 2.95D-05
 ErrMax= 2.95D-05  0.00D+00 EMaxC= 1.00D-01 BMatC= 1.93D-07 BMatP= 4.60D-07
 IDIUse=1 WtCom= 1.00D+00 WtEn= 0.00D+00
 Coeff-Com:  0.842D-03-0.187D-02-0.111D-01-0.178D-01-0.314D-01 0.431D+00
 Coeff-Com:  0.630D+00
 Coeff:      0.842D-03-0.187D-02-0.111D-01-0.178D-01-0.314D-01 0.431D+00
 Coeff:      0.630D+00
 Gap=     0.272 Goal=   None    Shift=    0.000
 RMSDP=5.10D-06 MaxDP=2.36D-04 DE=-4.47D-07 OVMax= 1.67D-04

 Cycle   8  Pass 1  IDiag  1:
 RMSU=  3.02D-06    CP:  9.58D-01  1.13D+00  1.00D+00  6.75D-01  9.22D-01
                    CP:  1.15D+00  8.98D-01
 E= -288.895064044461     Delta-E=       -0.000000180607 Rises=F Damp=F
 DIIS: error= 4.04D-06 at cycle   8 NSaved=   8.
 NSaved= 8 IEnMin= 8 EnMin= -288.895064044461     IErMin= 8 ErrMin= 4.04D-06
 ErrMax= 4.04D-06  0.00D+00 EMaxC= 1.00D-01 BMatC= 5.19D-09 BMatP= 1.93D-07
 IDIUse=1 WtCom= 1.00D+00 WtEn= 0.00D+00
 Coeff-Com:  0.148D-03-0.290D-03-0.265D-02-0.555D-02-0.201D-01 0.369D-01
 Coeff-Com:  0.150D+00 0.841D+00
 Coeff:      0.148D-03-0.290D-03-0.265D-02-0.555D-02-0.201D-01 0.369D-01
 Coeff:      0.150D+00 0.841D+00
 Gap=     0.272 Goal=   None    Shift=    0.000
 RMSDP=1.26D-06 MaxDP=4.14D-05 DE=-1.81D-07 OVMax= 6.99D-05

 Cycle   9  Pass 1  IDiag  1:
 RMSU=  8.59D-07    CP:  9.58D-01  1.13D+00  1.00D+00  6.76D-01  9.23D-01
                    CP:  1.16D+00  9.55D-01  1.17D+00
 E= -288.895064052750     Delta-E=       -0.000000008290 Rises=F Damp=F
 DIIS: error= 8.58D-07 at cycle   9 NSaved=   9.
 NSaved= 9 IEnMin= 9 EnMin= -288.895064052750     IErMin= 9 ErrMin= 8.58D-07
 ErrMax= 8.58D-07  0.00D+00 EMaxC= 1.00D-01 BMatC= 3.63D-10 BMatP= 5.19D-09
 IDIUse=1 WtCom= 1.00D+00 WtEn= 0.00D+00
 Coeff-Com: -0.465D-04 0.108D-03 0.505D-03 0.720D-03 0.324D-03-0.284D-01
 Coeff-Com: -0.375D-01 0.102D+00 0.962D+00
 Coeff:     -0.465D-04 0.108D-03 0.505D-03 0.720D-03 0.324D-03-0.284D-01
 Coeff:     -0.375D-01 0.102D+00 0.962D+00
 Gap=     0.272 Goal=   None    Shift=    0.000
 RMSDP=6.09D-07 MaxDP=2.73D-05 DE=-8.29D-09 OVMax= 2.33D-05

 Cycle  10  Pass 1  IDiag  1:
 RMSU=  2.01D-07    CP:  9.58D-01  1.13D+00  1.00D+00  6.77D-01  9.23D-01
                    CP:  1.16D+00  9.79D-01  1.28D+00  1.15D+00
 E= -288.895064053479     Delta-E=       -0.000000000729 Rises=F Damp=F
 DIIS: error= 7.21D-07 at cycle  10 NSaved=  10.
 NSaved=10 IEnMin=10 EnMin= -288.895064053479     IErMin=10 ErrMin= 7.21D-07
 ErrMax= 7.21D-07  0.00D+00 EMaxC= 1.00D-01 BMatC= 7.09D-11 BMatP= 3.63D-10
 IDIUse=1 WtCom= 1.00D+00 WtEn= 0.00D+00
 Coeff-Com: -0.239D-04 0.529D-04 0.350D-03 0.624D-03 0.154D-02-0.113D-01
 Coeff-Com: -0.247D-01-0.245D-01 0.348D+00 0.710D+00
 Coeff:     -0.239D-04 0.529D-04 0.350D-03 0.624D-03 0.154D-02-0.113D-01
 Coeff:     -0.247D-01-0.245D-01 0.348D+00 0.710D+00
 Gap=     0.272 Goal=   None    Shift=    0.000
 RMSDP=9.82D-08 MaxDP=2.40D-06 DE=-7.29D-10 OVMax= 5.15D-06

 Cycle  11  Pass 1  IDiag  1:
 RMSU=  6.75D-08    CP:  9.58D-01  1.13D+00  1.00D+00  6.77D-01  9.23D-01
                    CP:  1.16D+00  9.82D-01  1.29D+00  1.19D+00  1.05D+00
 E= -288.895064053566     Delta-E=       -0.000000000088 Rises=F Damp=F
 DIIS: error= 1.89D-07 at cycle  11 NSaved=  11.
 NSaved=11 IEnMin=11 EnMin= -288.895064053566     IErMin=11 ErrMin= 1.89D-07
 ErrMax= 1.89D-07  0.00D+00 EMaxC= 1.00D-01 BMatC= 6.25D-12 BMatP= 7.09D-11
 IDIUse=1 WtCom= 1.00D+00 WtEn= 0.00D+00
 Coeff-Com:  0.519D-06-0.672D-06 0.271D-04 0.612D-04 0.290D-03 0.643D-03
 Coeff-Com: -0.257D-02-0.167D-01-0.241D-01 0.200D+00 0.842D+00
 Coeff:      0.519D-06-0.672D-06 0.271D-04 0.612D-04 0.290D-03 0.643D-03
 Coeff:     -0.257D-02-0.167D-01-0.241D-01 0.200D+00 0.842D+00
 Gap=     0.272 Goal=   None    Shift=    0.000
 RMSDP=4.09D-08 MaxDP=1.05D-06 DE=-8.75D-11 OVMax= 1.75D-06

 Cycle  12  Pass 1  IDiag  1:
 RMSU=  1.85D-08    CP:  9.58D-01  1.13D+00  1.00D+00  6.77D-01  9.23D-01
                    CP:  1.16D+00  9.82D-01  1.30D+00  1.21D+00  1.17D+00
                    CP:  1.06D+00
 E= -288.895064053578     Delta-E=       -0.000000000011 Rises=F Damp=F
 DIIS: error= 3.26D-08 at cycle  12 NSaved=  12.
 NSaved=12 IEnMin=12 EnMin= -288.895064053578     IErMin=12 ErrMin= 3.26D-08
 ErrMax= 3.26D-08  0.00D+00 EMaxC= 1.00D-01 BMatC= 2.57D-13 BMatP= 6.25D-12
 IDIUse=1 WtCom= 1.00D+00 WtEn= 0.00D+00
 Coeff-Com:  0.150D-05-0.316D-05-0.127D-04-0.202D-04-0.204D-04 0.770D-03
 Coeff-Com:  0.713D-03-0.282D-02-0.306D-01-0.505D-02 0.166D+00 0.871D+00
 Coeff:      0.150D-05-0.316D-05-0.127D-04-0.202D-04-0.204D-04 0.770D-03
 Coeff:      0.713D-03-0.282D-02-0.306D-01-0.505D-02 0.166D+00 0.871D+00
 Gap=     0.272 Goal=   None    Shift=    0.000
 RMSDP=1.48D-08 MaxDP=6.68D-07 DE=-1.10D-11 OVMax= 4.63D-07

 Cycle  13  Pass 1  IDiag  1:
 RMSU=  5.66D-09    CP:  9.58D-01  1.13D+00  1.00D+00  6.77D-01  9.23D-01
                    CP:  1.16D+00  9.82D-01  1.30D+00  1.21D+00  1.21D+00
                    CP:  1.12D+00  1.08D+00
 E= -288.895064053579     Delta-E=       -0.000000000001 Rises=F Damp=F
 DIIS: error= 6.48D-09 at cycle  13 NSaved=  13.
 NSaved=13 IEnMin=13 EnMin= -288.895064053579     IErMin=13 ErrMin= 6.48D-09
 ErrMax= 6.48D-09  0.00D+00 EMaxC= 1.00D-01 BMatC= 1.55D-14 BMatP= 2.57D-13
 IDIUse=1 WtCom= 1.00D+00 WtEn= 0.00D+00
 Coeff-Com:  0.130D-06-0.352D-06-0.339D-05-0.674D-05-0.221D-04 0.543D-04
 Coeff-Com:  0.292D-03 0.103D-02-0.202D-02-0.138D-01-0.331D-01 0.134D+00
 Coeff-Com:  0.914D+00
 Coeff:      0.130D-06-0.352D-06-0.339D-05-0.674D-05-0.221D-04 0.543D-04
 Coeff:      0.292D-03 0.103D-02-0.202D-02-0.138D-01-0.331D-01 0.134D+00
 Coeff:      0.914D+00
 Gap=     0.272 Goal=   None    Shift=    0.000
 RMSDP=2.39D-09 MaxDP=2.05D-07 DE=-1.48D-12 OVMax= 8.43D-08

 SCF Done:  E(RM062X) =  -288.895064054     A.U. after   13 cycles
            NFock= 13  Conv=0.24D-08     -V/T= 2.0039
 KE= 2.877766621311D+02 PE=-1.199060551556D+03 EE= 3.596414701233D+02
 Leave Link  502 at Sun Oct 13 21:29:07 2019, MaxMem= 10737418240 cpu:             197.5 elap:               8.3
 (Enter /apps/cent7/gaussian/g16-A.03/g16-haswell/g16/l601.exe)
 Copying SCF densities to generalized density rwf, IOpCl= 0 IROHF=0.

 **********************************************************************

            Population analysis using the SCF density.

 **********************************************************************

 Orbital symmetries:
       Occupied  (A) (A) (A) (A) (A) (A) (A) (A) (A) (A) (A) (A)
                 (A) (A) (A) (A) (A) (A) (A) (A) (A) (A) (A) (A)
                 (A)
       Virtual   (A) (A) (A) (A) (A) (A) (A) (A) (A) (A) (A) (A)
                 (A) (A) (A) (A) (A) (A) (A) (A) (A) (A) (A) (A)
                 (A) (A) (A) (A) (A) (A) (A) (A) (A) (A) (A) (A)
                 (A) (A) (A) (A) (A) (A) (A) (A) (A) (A) (A) (A)
                 (A) (A) (A) (A) (A) (A) (A) (A) (A) (A) (A) (A)
                 (A) (A) (A) (A) (A) (A) (A) (A) (A) (A) (A) (A)
                 (A) (A) (A) (A) (A) (A) (A) (A) (A) (A) (A) (A)
                 (A) (A) (A) (A) (A) (A) (A) (A) (A) (A) (A) (A)
                 (A) (A) (A) (A) (A) (A) (A) (A) (A) (A) (A) (A)
                 (A) (A) (A) (A) (A) (A) (A) (A) (A) (A) (A) (A)
                 (A) (A) (A) (A) (A) (A) (A) (A) (A) (A) (A) (A)
                 (A) (A) (A) (A) (A) (A) (A) (A) (A) (A) (A) (A)
                 (A) (A) (A) (A) (A) (A) (A) (A) (A) (A) (A) (A)
                 (A) (A) (A) (A) (A) (A) (A) (A) (A) (A) (A) (A)
                 (A) (A) (A) (A) (A) (A) (A) (A) (A) (A) (A) (A)
                 (A) (A) (A) (A)
 The electronic state is 1-A.
 Alpha  occ. eigenvalues --  -19.64681 -14.78502 -10.57390 -10.56170 -10.53232
 Alpha  occ. eigenvalues --  -10.51937  -1.21418  -0.95228  -0.86863  -0.80437
 Alpha  occ. eigenvalues --   -0.70957  -0.69186  -0.58522  -0.57676  -0.54493
 Alpha  occ. eigenvalues --   -0.52518  -0.48305  -0.46376  -0.44853  -0.43110
 Alpha  occ. eigenvalues --   -0.42158  -0.41264  -0.40620  -0.37982  -0.27536
 Alpha virt. eigenvalues --   -0.00381   0.00980   0.01252   0.01904   0.03211
 Alpha virt. eigenvalues --    0.03807   0.03974   0.04634   0.06226   0.06571
 Alpha virt. eigenvalues --    0.07213   0.07616   0.09352   0.09684   0.11601
 Alpha virt. eigenvalues --    0.12421   0.12483   0.13065   0.13690   0.13856
 Alpha virt. eigenvalues --    0.14147   0.15097   0.16362   0.16528   0.17250
 Alpha virt. eigenvalues --    0.17890   0.18822   0.19769   0.21240   0.21472
 Alpha virt. eigenvalues --    0.21874   0.22590   0.23239   0.23895   0.25241
 Alpha virt. eigenvalues --    0.26004   0.26454   0.26955   0.27832   0.28408
 Alpha virt. eigenvalues --    0.29184   0.30510   0.32411   0.32655   0.33622
 Alpha virt. eigenvalues --    0.34097   0.37062   0.38116   0.39438   0.40436
 Alpha virt. eigenvalues --    0.43149   0.47458   0.48315   0.49505   0.50620
 Alpha virt. eigenvalues --    0.51963   0.55037   0.58895   0.62061   0.63182
 Alpha virt. eigenvalues --    0.64865   0.66500   0.68775   0.70704   0.71389
 Alpha virt. eigenvalues --    0.71609   0.72291   0.72974   0.74131   0.74656
 Alpha virt. eigenvalues --    0.75823   0.76685   0.77021   0.80308   0.86342
 Alpha virt. eigenvalues --    0.88652   0.91456   0.94714   0.96205   1.00429
 Alpha virt. eigenvalues --    1.03581   1.07227   1.11807   1.18586   1.20334
 Alpha virt. eigenvalues --    1.20879   1.24405   1.32060   1.33906   1.36229
 Alpha virt. eigenvalues --    1.38573   1.43739   1.49099   1.51247   1.52505
 Alpha virt. eigenvalues --    1.54317   1.56049   1.57045   1.58893   1.61023
 Alpha virt. eigenvalues --    1.62593   1.63316   1.65314   1.65732   1.68565
 Alpha virt. eigenvalues --    1.70450   1.71694   1.71783   1.76438   1.79028
 Alpha virt. eigenvalues --    1.80536   1.83538   1.83856   1.85978   1.89045
 Alpha virt. eigenvalues --    1.90483   1.97803   2.00033   2.01256   2.06727
 Alpha virt. eigenvalues --    2.09132   2.10290   2.15220   2.19239   2.21377
 Alpha virt. eigenvalues --    2.25081   2.27460   2.29244   2.33078   2.43002
 Alpha virt. eigenvalues --    2.43728   2.45724   2.49891   2.52349   2.53886
 Alpha virt. eigenvalues --    2.54815   2.55926   2.59423   2.61072   2.63618
 Alpha virt. eigenvalues --    2.64259   2.64936   2.65782   2.67976   2.69709
 Alpha virt. eigenvalues --    2.70245   2.71132   2.71689   2.78120   2.78489
 Alpha virt. eigenvalues --    2.81316   2.87965   2.94186   2.98190   3.02661
 Alpha virt. eigenvalues --    3.14209   3.19655   3.24430   3.33050   3.38735
 Alpha virt. eigenvalues --    3.48244   3.52296   3.66569   3.80124   3.84350
 Alpha virt. eigenvalues --    3.86729   3.87460   3.91326   3.95991   3.97123
 Alpha virt. eigenvalues --    4.09688   4.19140   4.32164   4.63645   4.87812
 Alpha virt. eigenvalues --    5.22210   5.55587   5.88624  23.92521  23.94753
 Alpha virt. eigenvalues --   24.04546  24.06575  35.54922  50.05074
          Condensed to atoms (all electrons):
               1          2          3          4          5          6
     1  C    5.503087   0.164237  -0.200713  -0.003538   0.025582  -0.040796
     2  C    0.164237   5.560004   0.137578  -0.036628  -0.236157   0.019759
     3  N   -0.200713   0.137578   7.788979  -0.219868  -0.117045  -0.146228
     4  O   -0.003538  -0.036628  -0.219868   8.059806   0.095026   0.009878
     5  C    0.025582  -0.236157  -0.117045   0.095026   5.752226   0.157581
     6  C   -0.040796   0.019759  -0.146228   0.009878   0.157581   5.490504
     7  H    0.381920  -0.013818   0.007636   0.003571  -0.002416  -0.000345
     8  H    0.416785  -0.054374  -0.037706   0.017080   0.016220   0.001442
     9  H    0.389871  -0.046546   0.027024  -0.011557  -0.008712   0.000961
    10  H   -0.083384   0.373647  -0.002992  -0.028718  -0.012278  -0.005941
    11  H   -0.040068   0.369174  -0.089432   0.027387   0.042017   0.005050
    12  H   -0.007449  -0.000727   0.017595   0.210684  -0.050566  -0.019977
    13  H   -0.005939   0.002242   0.027903  -0.029575   0.319029  -0.088682
    14  H    0.006619   0.033220  -0.076192   0.009989   0.373237  -0.052940
    15  H    0.000865  -0.005231  -0.005096   0.007535   0.008281   0.375991
    16  H   -0.000014  -0.004773   0.033680  -0.017869  -0.058525   0.405704
    17  H    0.001907   0.012957  -0.039033   0.016238  -0.031634   0.377897
               7          8          9         10         11         12
     1  C    0.381920   0.416785   0.389871  -0.083384  -0.040068  -0.007449
     2  C   -0.013818  -0.054374  -0.046546   0.373647   0.369174  -0.000727
     3  N    0.007636  -0.037706   0.027024  -0.002992  -0.089432   0.017595
     4  O    0.003571   0.017080  -0.011557  -0.028718   0.027387   0.210684
     5  C   -0.002416   0.016220  -0.008712  -0.012278   0.042017  -0.050566
     6  C   -0.000345   0.001442   0.000961  -0.005941   0.005050  -0.019977
     7  H    0.566616  -0.036617  -0.040448  -0.002794  -0.010422   0.000348
     8  H   -0.036617   0.544579  -0.036516  -0.012204   0.010432  -0.006423
     9  H   -0.040448  -0.036516   0.548892   0.010519  -0.006757   0.003585
    10  H   -0.002794  -0.012204   0.010519   0.605861  -0.031269   0.019436
    11  H   -0.010422   0.010432  -0.006757  -0.031269   0.596498  -0.005329
    12  H    0.000348  -0.006423   0.003585   0.019436  -0.005329   0.588980
    13  H    0.001492  -0.003154   0.002553   0.029065  -0.006306   0.026255
    14  H    0.000394   0.000746  -0.001248  -0.003300  -0.004470   0.001038
    15  H   -0.000206   0.000256  -0.000013   0.000873  -0.000354  -0.001230
    16  H    0.000118  -0.000668   0.000615   0.002634  -0.000918   0.008023
    17  H    0.000202   0.000237  -0.000624  -0.002194   0.000884  -0.001936
              13         14         15         16         17
     1  C   -0.005939   0.006619   0.000865  -0.000014   0.001907
     2  C    0.002242   0.033220  -0.005231  -0.004773   0.012957
     3  N    0.027903  -0.076192  -0.005096   0.033680  -0.039033
     4  O   -0.029575   0.009989   0.007535  -0.017869   0.016238
     5  C    0.319029   0.373237   0.008281  -0.058525  -0.031634
     6  C   -0.088682  -0.052940   0.375991   0.405704   0.377897
     7  H    0.001492   0.000394  -0.000206   0.000118   0.000202
     8  H   -0.003154   0.000746   0.000256  -0.000668   0.000237
     9  H    0.002553  -0.001248  -0.000013   0.000615  -0.000624
    10  H    0.029065  -0.003300   0.000873   0.002634  -0.002194
    11  H   -0.006306  -0.004470  -0.000354  -0.000918   0.000884
    12  H    0.026255   0.001038  -0.001230   0.008023  -0.001936
    13  H    0.622711  -0.025020  -0.007478   0.014133  -0.025484
    14  H   -0.025020   0.587246  -0.009649  -0.005039   0.017355
    15  H   -0.007478  -0.009649   0.561667  -0.042622  -0.036143
    16  H    0.014133  -0.005039  -0.042622   0.524644  -0.042195
    17  H   -0.025484   0.017355  -0.036143  -0.042195   0.618348
 Mulliken charges:
               1
     1  C   -0.508972
     2  C   -0.274563
     3  N   -0.106092
     4  O   -0.109441
     5  C   -0.271866
     6  C   -0.489855
     7  H    0.144771
     8  H    0.179887
     9  H    0.168401
    10  H    0.143038
    11  H    0.143885
    12  H    0.217694
    13  H    0.146255
    14  H    0.148014
    15  H    0.152554
    16  H    0.183072
    17  H    0.133218
 Sum of Mulliken charges =  -0.00000
 Mulliken charges with hydrogens summed into heavy atoms:
               1
     1  C   -0.015913
     2  C    0.012359
     3  N   -0.106092
     4  O    0.108253
     5  C    0.022403
     6  C   -0.021011
 Electronic spatial extent (au):  <R**2>=            772.4742
 Charge=             -0.0000 electrons
 Dipole moment (field-independent basis, Debye):
    X=              0.9924    Y=             -1.4106    Z=              1.5769  Tot=              2.3370
 Quadrupole moment (field-independent basis, Debye-Ang):
   XX=            -37.0139   YY=            -40.0112   ZZ=            -40.1671
   XY=              1.1363   XZ=              0.7781   YZ=              2.6033
 Traceless Quadrupole moment (field-independent basis, Debye-Ang):
   XX=              2.0501   YY=             -0.9471   ZZ=             -1.1030
   XY=              1.1363   XZ=              0.7781   YZ=              2.6033
 Octapole moment (field-independent basis, Debye-Ang**2):
  XXX=              1.3556  YYY=              1.3065  ZZZ=              0.8189  XYY=              2.9525
  XXY=             -0.6164  XXZ=              0.4659  XZZ=              1.1699  YZZ=              4.3379
  YYZ=              1.9590  XYZ=              1.7651
 Hexadecapole moment (field-independent basis, Debye-Ang**3):
 XXXX=           -794.1378 YYYY=           -171.0901 ZZZZ=            -96.4712 XXXY=             -1.5245
 XXXZ=             -2.2720 YYYX=              2.6782 YYYZ=             10.6541 ZZZX=              0.7805
 ZZZY=              4.3586 XXYY=           -155.6311 XXZZ=           -149.9912 YYZZ=            -45.4215
 XXYZ=              2.5494 YYXZ=              2.7510 ZZXY=              2.0116
 N-N= 2.627473552478D+02 E-N=-1.199060551310D+03  KE= 2.877766621311D+02
 No NMR shielding tensors so no spin-rotation constants.
 Leave Link  601 at Sun Oct 13 21:29:07 2019, MaxMem= 10737418240 cpu:               2.6 elap:               0.1
 (Enter /apps/cent7/gaussian/g16-A.03/g16-haswell/g16/l701.exe)
 ... and contract with generalized density number  0.
 Compute integral first derivatives.
 Leave Link  701 at Sun Oct 13 21:29:07 2019, MaxMem= 10737418240 cpu:               3.3 elap:               0.2
 (Enter /apps/cent7/gaussian/g16-A.03/g16-haswell/g16/l702.exe)
 L702 exits ... SP integral derivatives will be done elsewhere.
 Leave Link  702 at Sun Oct 13 21:29:07 2019, MaxMem= 10737418240 cpu:               0.5 elap:               0.0
 (Enter /apps/cent7/gaussian/g16-A.03/g16-haswell/g16/l703.exe)
 Integral derivatives from FoFJK, PRISM(SPDF).
 Compute integral first derivatives, UseDBF=F ICtDFT=           0.
 Calling FoFJK, ICntrl=      2127 FMM=F ISym2X=0 I1Cent= 0 IOpClX= 0 NMat=1 NMatS=1 NMatT=0.
 FoFJK:  IHMeth= 1 ICntrl=    2127 DoSepK=F KAlg= 0 I1Cent=           0 FoldK=F
 IRaf=         0 NMat=       1 IRICut=       1 DoRegI=T DoRafI=F ISym2E= 0 IDoP0=0 IntGTp=1.
 FoFCou: FMM=F IPFlag=           0 FMFlag=      100000 FMFlg1=         800
         NFxFlg=           0 DoJE=F BraDBF=F KetDBF=F FulRan=T
         wScrn=  0.000000 ICntrl=      2127 IOpCl=  0 I1Cent=           0 NGrid=           0
         NMat0=    1 NMatS0=      1 NMatT0=    0 NMatD0=    1 NMtDS0=    0 NMtDT0=    0
 Symmetry not used in FoFCou.
 Leave Link  703 at Sun Oct 13 21:29:09 2019, MaxMem= 10737418240 cpu:              30.5 elap:               1.3
 (Enter /apps/cent7/gaussian/g16-A.03/g16-haswell/g16/l716.exe)
 Dipole        = 3.90458480D-01-5.54988495D-01 6.20388466D-01
 ***** Axes restored to original set *****
 -------------------------------------------------------------------
 Center     Atomic                   Forces (Hartrees/Bohr)
 Number     Number              X              Y              Z
 -------------------------------------------------------------------
      1        6          -0.002058628    0.014487441    0.006976222
      2        6           0.003923578    0.017411995   -0.021816985
      3        7           0.035287521   -0.008719776    0.029327843
      4        8          -0.012674589    0.010324456   -0.028558440
      5        6           0.015529778    0.005002655   -0.031060569
      6        6          -0.001293456   -0.012782549   -0.007283977
      7        1          -0.000462014   -0.000544645    0.000033922
      8        1           0.001494171   -0.000921305   -0.001573061
      9        1           0.000494634   -0.000792859   -0.001723595
     10        1          -0.002757483   -0.010625489    0.016387243
     11        1          -0.011044782   -0.002006960    0.009359649
     12        1          -0.010192098   -0.001444041    0.004764916
     13        1          -0.004797436   -0.009107695    0.019076062
     14        1          -0.012168494   -0.007307036    0.006559247
     15        1          -0.001629615    0.000952939   -0.000148244
     16        1           0.000187434    0.001499275   -0.000090518
     17        1           0.002161478    0.004573594   -0.000229717
 -------------------------------------------------------------------
 Cartesian Forces:  Max     0.035287521 RMS     0.011929311
 Leave Link  716 at Sun Oct 13 21:29:09 2019, MaxMem= 10737418240 cpu:               0.6 elap:               0.0
 (Enter /apps/cent7/gaussian/g16-A.03/g16-haswell/g16/l103.exe)

 GradGradGradGradGradGradGradGradGradGradGradGradGradGradGradGradGradGrad
 Berny optimization.
 FormGI is forming the generalized inverse of G from B-inverse, IUseBI=4.
 Internal  Forces:  Max     0.034064315 RMS     0.007324701
 Search for a local minimum.
 Step number   1 out of a maximum of   86
 All quantities printed in internal units (Hartrees-Bohrs-Radians)
 RMS Force = .73247D-02 SwitMx=.10000D-02 MixMth= 1
 Mixed Optimization -- RFO/linear search
 Second derivative matrix not updated -- first step.
 ITU=  0
     Eigenvalues ---    0.00230   0.00230   0.00481   0.00508   0.01765
     Eigenvalues ---    0.03208   0.04469   0.04488   0.05611   0.05611
     Eigenvalues ---    0.05715   0.05715   0.05715   0.05716   0.09065
     Eigenvalues ---    0.09066   0.12571   0.12579   0.16000   0.16000
     Eigenvalues ---    0.16000   0.16000   0.16000   0.16000   0.16000
     Eigenvalues ---    0.17138   0.20717   0.22554   0.22556   0.28120
     Eigenvalues ---    0.28208   0.33283   0.33505   0.34806   0.34812
     Eigenvalues ---    0.34813   0.34813   0.34814   0.34814   0.34816
     Eigenvalues ---    0.34816   0.34819   0.34825   0.52055   0.55467
 RFO step:  Lambda=-1.94189219D-02 EMin= 2.30000000D-03
 Linear search not attempted -- first point.
 Iteration  1 RMS(Cart)=  0.07542879 RMS(Int)=  0.00238648
 Iteration  2 RMS(Cart)=  0.00236680 RMS(Int)=  0.00036490
 Iteration  3 RMS(Cart)=  0.00000449 RMS(Int)=  0.00036488
 Iteration  4 RMS(Cart)=  0.00000000 RMS(Int)=  0.00036488
 ITry= 1 IFail=0 DXMaxC= 2.43D-01 DCOld= 1.00D+10 DXMaxT= 3.00D-01 DXLimC= 3.00D+00 Rises=F
 Variable       Old X    -DE/DX   Delta X   Delta X   Delta X     New X
                                 (Linear)    (Quad)   (Total)
    R1        2.91878  -0.00931   0.00000  -0.03096  -0.03096   2.88782
    R2        2.05970   0.00056   0.00000   0.00153   0.00153   2.06123
    R3        2.05960  -0.00005   0.00000  -0.00013  -0.00013   2.05947
    R4        2.05979   0.00075   0.00000   0.00205   0.00205   2.06184
    R5        2.81474  -0.01514   0.00000  -0.04271  -0.04271   2.77204
    R6        2.05981   0.00702   0.00000   0.01910   0.01910   2.07891
    R7        2.05991  -0.00042   0.00000  -0.00114  -0.00114   2.05877
    R8        2.57846   0.03406   0.00000   0.06309   0.06309   2.64155
    R9        2.81857  -0.01937   0.00000  -0.05498  -0.05498   2.76359
   R10        1.81419   0.00961   0.00000   0.01674   0.01674   1.83093
   R11        2.91686  -0.00525   0.00000  -0.01741  -0.01741   2.89945
   R12        2.05980   0.00926   0.00000   0.02518   0.02518   2.08498
   R13        2.05979  -0.00134   0.00000  -0.00364  -0.00364   2.05615
   R14        2.05978   0.00012   0.00000   0.00033   0.00033   2.06011
   R15        2.05975   0.00043   0.00000   0.00118   0.00118   2.06093
   R16        2.05974   0.00051   0.00000   0.00138   0.00138   2.06112
    A1        1.91058  -0.00101   0.00000  -0.00627  -0.00624   1.90434
    A2        1.91065   0.00296   0.00000   0.01685   0.01679   1.92745
    A3        1.91056   0.00218   0.00000   0.01245   0.01239   1.92295
    A4        1.91070  -0.00107   0.00000  -0.00655  -0.00652   1.90418
    A5        1.91063  -0.00071   0.00000  -0.00470  -0.00467   1.90596
    A6        1.91068  -0.00235   0.00000  -0.01179  -0.01193   1.89875
    A7        1.97373  -0.01925   0.00000  -0.06066  -0.05979   1.91393
    A8        1.86191   0.00657   0.00000   0.04403   0.04480   1.90671
    A9        1.86199   0.00940   0.00000   0.04776   0.04796   1.90995
   A10        1.83803   0.00964   0.00000   0.06977   0.07057   1.90860
   A11        1.83798   0.00351   0.00000   0.00870   0.00960   1.84759
   A12        2.09440  -0.01254   0.00000  -0.11856  -0.11851   1.97589
   A13        1.91049  -0.00262   0.00000  -0.03170  -0.03230   1.87819
   A14        1.96734  -0.00598   0.00000  -0.03930  -0.03987   1.92747
   A15        1.91795   0.00439   0.00000   0.00521   0.00365   1.92160
   A16        1.91062  -0.00103   0.00000  -0.00574  -0.00574   1.90488
   A17        1.97562  -0.01742   0.00000  -0.05135  -0.05072   1.92491
   A18        1.83827   0.00828   0.00000   0.06118   0.06175   1.90002
   A19        1.83831   0.00345   0.00000   0.01088   0.01168   1.84999
   A20        1.86089   0.00731   0.00000   0.05086   0.05132   1.91221
   A21        1.86089   0.00903   0.00000   0.04841   0.04868   1.90956
   A22        2.09435  -0.01311   0.00000  -0.12815  -0.12800   1.96635
   A23        1.91064  -0.00054   0.00000  -0.00423  -0.00423   1.90641
   A24        1.91066   0.00096   0.00000   0.00558   0.00545   1.91611
   A25        1.91060   0.00691   0.00000   0.03946   0.03931   1.94992
   A26        1.91063  -0.00053   0.00000  -0.00486  -0.00485   1.90578
   A27        1.91069  -0.00326   0.00000  -0.01867  -0.01870   1.89199
   A28        1.91058  -0.00353   0.00000  -0.01728  -0.01754   1.89304
    D1        3.06798  -0.00171   0.00000  -0.01509  -0.01522   3.05276
    D2       -1.20282   0.00373   0.00000   0.06405   0.06390  -1.13892
    D3        1.05560  -0.00147   0.00000  -0.02257  -0.02229   1.03331
    D4       -1.12075  -0.00183   0.00000  -0.01662  -0.01680  -1.13755
    D5        0.89164   0.00361   0.00000   0.06251   0.06232   0.95396
    D6       -3.13313  -0.00158   0.00000  -0.02411  -0.02388   3.12618
    D7        0.97367  -0.00156   0.00000  -0.01312  -0.01322   0.96045
    D8        2.98605   0.00388   0.00000   0.06601   0.06591   3.05196
    D9       -1.03871  -0.00132   0.00000  -0.02061  -0.02029  -1.05900
   D10        1.09258   0.00019   0.00000   0.02818   0.02739   1.11996
   D11       -3.05036  -0.00018   0.00000  -0.01509  -0.01494  -3.06529
   D12       -0.93403  -0.00369   0.00000  -0.03608  -0.03636  -0.97039
   D13        1.20622  -0.00406   0.00000  -0.07934  -0.07869   1.12753
   D14        3.11925   0.00374   0.00000   0.05973   0.05939  -3.10454
   D15       -1.02369   0.00337   0.00000   0.01646   0.01707  -1.00662
   D16        1.77784  -0.00831   0.00000  -0.17235  -0.17248   1.60536
   D17       -0.39156  -0.00196   0.00000  -0.10485  -0.10472  -0.49627
   D18        3.04996   0.00185   0.00000   0.02003   0.02024   3.07020
   D19       -1.20672   0.00674   0.00000   0.09221   0.09221  -1.11451
   D20        1.02344  -0.00215   0.00000  -0.01845  -0.01851   1.00494
   D21       -1.09716  -0.00248   0.00000  -0.04427  -0.04416  -1.14132
   D22        0.92934   0.00240   0.00000   0.02791   0.02781   0.95716
   D23       -3.12368  -0.00649   0.00000  -0.08275  -0.08291   3.07660
   D24       -2.87973   0.00120   0.00000  -0.00092  -0.00080  -2.88052
   D25       -0.78531   0.00080   0.00000  -0.00605  -0.00600  -0.79132
   D26        1.30901   0.00130   0.00000   0.00037   0.00055   1.30956
   D27        1.39040  -0.00404   0.00000  -0.07897  -0.07887   1.31153
   D28       -2.79838  -0.00443   0.00000  -0.08410  -0.08407  -2.88245
   D29       -0.70405  -0.00394   0.00000  -0.07768  -0.07752  -0.78157
   D30       -0.86662   0.00164   0.00000   0.01468   0.01447  -0.85215
   D31        1.22779   0.00125   0.00000   0.00956   0.00927   1.23706
   D32       -2.96107   0.00174   0.00000   0.01598   0.01582  -2.94525
         Item               Value     Threshold  Converged?
 Maximum Force            0.034064     0.000450     NO 
 RMS     Force            0.007325     0.000300     NO 
 Maximum Displacement     0.242713     0.001800     NO 
 RMS     Displacement     0.075178     0.001200     NO 
 Predicted change in Energy=-1.142232D-02
 Lowest energy point so far.  Saving SCF results.
 GradGradGradGradGradGradGradGradGradGradGradGradGradGradGradGradGradGrad

 Leave Link  103 at Sun Oct 13 21:29:09 2019, MaxMem= 10737418240 cpu:               1.4 elap:               0.1
 (Enter /apps/cent7/gaussian/g16-A.03/g16-haswell/g16/l202.exe)
                          Input orientation:                          
 ---------------------------------------------------------------------
 Center     Atomic      Atomic             Coordinates (Angstroms)
 Number     Number       Type             X           Y           Z
 ---------------------------------------------------------------------
      1          6           0        2.364139   -2.800396   -2.364049
      2          6           0        1.986828   -2.090109   -1.064654
      3          7           0        2.171614   -0.643364   -1.221413
      4          8           0        1.272045   -0.205398   -2.197599
      5          6           0        1.914719    0.044230    0.043465
      6          6           0        2.207144    1.543848   -0.097209
      7          1           0        2.310679   -3.878897   -2.210012
      8          1           0        1.678944   -2.519968   -3.163793
      9          1           0        3.378964   -2.529983   -2.659782
     10          1           0        0.932732   -2.299685   -0.829700
     11          1           0        2.671621   -2.393722   -0.273583
     12          1           0        0.449327    0.074162   -1.768967
     13          1           0        0.856644   -0.101449    0.320189
     14          1           0        2.601028   -0.391730    0.766524
     15          1           0        2.270926    1.991804    0.894618
     16          1           0        3.154833    1.687963   -0.617329
     17          1           0        1.424312    2.056993   -0.657104
 ---------------------------------------------------------------------
                    Distance matrix (angstroms):
                    1          2          3          4          5
     1  C    0.000000
     2  C    1.528169   0.000000
     3  N    2.448565   1.466898   0.000000
     4  O    2.820353   2.312275   1.397848   0.000000
     5  C    3.753665   2.405936   1.462429   2.344720   0.000000
     6  C    4.902619   3.766979   2.459470   2.888929   1.534325
     7  H    1.090757   2.148602   3.386052   3.817527   4.541572
     8  H    1.089826   2.164707   2.745397   2.540932   4.113053
     9  H    1.091078   2.162398   2.661941   3.171186   4.009754
    10  H    2.157282   1.100111   2.105153   2.524345   2.687128
    11  H    2.151738   1.089457   2.052351   3.232555   2.572359
    12  H    3.504812   2.746640   1.944461   0.968887   2.330918
    13  H    4.094141   2.673924   2.097464   2.553942   1.103323
    14  H    3.957054   2.571954   2.049295   3.253758   1.088070
    15  H    5.795928   4.536680   3.381059   3.922661   2.155084
    16  H    4.880737   3.979718   2.601292   3.102734   2.162495
    17  H    5.233657   4.204875   2.858117   2.741299   2.186895
                    6          7          8          9         10
     6  C    0.000000
     7  H    5.820724   0.000000
     8  H    5.118352   1.776366   0.000000
     9  H    4.953387   1.778510   1.773188   0.000000
    10  H    4.115023   2.509565   2.460356   3.063705   0.000000
    11  H    3.968791   2.466938   3.058538   2.492558   1.828072
    12  H    2.836313   4.391563   3.191709   4.019688   2.598278
    13  H    2.169119   4.773390   4.320132   4.597836   2.481989
    14  H    2.155839   4.593953   4.563664   4.113014   2.995236
    15  H    1.090162   6.641193   6.097313   5.857309   4.814656
    16  H    1.090600   5.851425   5.135115   4.691792   4.569920
    17  H    1.090700   6.199352   5.224643   5.373242   4.387719
                   11         12         13         14         15
    11  H    0.000000
    12  H    3.642144   0.000000
    13  H    2.983491   2.135724   0.000000
    14  H    2.257162   3.357914   1.823830   0.000000
    15  H    4.556105   3.753699   2.590728   2.409691   0.000000
    16  H    4.124537   3.354159   3.059838   2.558685   1.777525
    17  H    4.638074   2.473551   2.436437   3.067185   1.768855
                   16         17
    16  H    0.000000
    17  H    1.769877   0.000000
 Stoichiometry    C4H11NO
 Framework group  C1[X(C4H11NO)]
 Deg. of freedom    45
 Full point group                 C1      NOp   1
 RotChk:  IX=0 Diff= 3.94D-02
 Largest Abelian subgroup         C1      NOp   1
 Largest concise Abelian subgroup C1      NOp   1
                         Standard orientation:                         
 ---------------------------------------------------------------------
 Center     Atomic      Atomic             Coordinates (Angstroms)
 Number     Number       Type             X           Y           Z
 ---------------------------------------------------------------------
      1          6           0       -2.451826   -0.026676   -0.336096
      2          6           0       -1.209911   -0.655994    0.293909
      3          7           0       -0.005682   -0.002417   -0.229978
      4          8           0       -0.035803    1.332886    0.182376
      5          6           0        1.195995   -0.659689    0.282529
      6          6           0        2.450766   -0.039564   -0.346081
      7          1           0       -3.335349   -0.577403   -0.010770
      8          1           0       -2.547813    1.014737   -0.029558
      9          1           0       -2.383771   -0.067881   -1.424271
     10          1           0       -1.250658   -0.524340    1.385354
     11          1           0       -1.138467   -1.699674   -0.010300
     12          1           0        0.438385    1.416532    1.023145
     13          1           0        1.231300   -0.534511    1.378160
     14          1           0        1.118680   -1.702563   -0.018023
     15          1           0        3.302894   -0.696099   -0.169180
     16          1           0        2.305750    0.078046   -1.420579
     17          1           0        2.675097    0.938520    0.081297
 ---------------------------------------------------------------------
 Rotational constants (GHZ):           7.7727226           2.0465153           1.7932382
 Leave Link  202 at Sun Oct 13 21:29:09 2019, MaxMem= 10737418240 cpu:               0.2 elap:               0.0
 (Enter /apps/cent7/gaussian/g16-A.03/g16-haswell/g16/l301.exe)
 Standard basis: 6-311++G(d,p) (5D, 7F)
 Ernie: Thresh=  0.10000D-02 Tol=  0.10000D-05 Strict=F.
 There are   215 symmetry adapted cartesian basis functions of A   symmetry.
 There are   209 symmetry adapted basis functions of A   symmetry.
   209 basis functions,   315 primitive gaussians,   215 cartesian basis functions
    25 alpha electrons       25 beta electrons
       nuclear repulsion energy       265.1262815019 Hartrees.
 IExCor= 4336 DFT=T Ex+Corr=M062X ExCW=0 ScaHFX=  0.540000
 ScaDFX=  1.000000  1.000000  1.000000  1.000000 ScalE2=  1.000000  1.000000
 IRadAn=      5 IRanWt=     -1 IRanGd=            0 ICorTp=0 IEmpDi=  4
 NAtoms=   17 NActive=   17 NUniq=   17 SFac= 1.00D+00 NAtFMM=   60 NAOKFM=F Big=F
 Integral buffers will be    131072 words long.
 Raffenetti 2 integral format.
 Two-electron integral symmetry is turned on.
 Leave Link  301 at Sun Oct 13 21:29:09 2019, MaxMem= 10737418240 cpu:               1.2 elap:               0.1
 (Enter /apps/cent7/gaussian/g16-A.03/g16-haswell/g16/l302.exe)
 NPDir=0 NMtPBC=     1 NCelOv=     1 NCel=       1 NClECP=     1 NCelD=      1
         NCelK=      1 NCelE2=     1 NClLst=     1 CellRange=     0.0.
 One-electron integrals computed using PRISM.
 One-electron integral symmetry used in STVInt
 NBasis=   209 RedAO= T EigKep=  3.24D-05  NBF=   209
 NBsUse=   209 1.00D-06 EigRej= -1.00D+00 NBFU=   209
 Precomputing XC quadrature grid using
 IXCGrd= 4 IRadAn=           5 IRanWt=          -1 IRanGd=           0 AccXCQ= 0.00D+00.
 Generated NRdTot=       0 NPtTot=           0 NUsed=           0 NTot=          32
 NSgBfM=   215   215   215   215   215 MxSgAt=    17 MxSgA2=    17.
 Leave Link  302 at Sun Oct 13 21:29:09 2019, MaxMem= 10737418240 cpu:               3.5 elap:               0.2
 (Enter /apps/cent7/gaussian/g16-A.03/g16-haswell/g16/l303.exe)
 DipDrv:  MaxL=1.
 Leave Link  303 at Sun Oct 13 21:29:09 2019, MaxMem= 10737418240 cpu:               0.6 elap:               0.0
 (Enter /apps/cent7/gaussian/g16-A.03/g16-haswell/g16/l401.exe)
 Initial guess from the checkpoint file:  "1.chk"
 B after Tr=     0.000000    0.000000    0.000000
         Rot=    0.999903   -0.013533    0.001474   -0.002989 Ang=  -1.60 deg.
 Guess basis will be translated and rotated to current coordinates.
 JPrj=2 DoOrth=T DoCkMO=T.
 Generating alternative initial guess.
 ExpMin= 3.60D-02 ExpMax= 8.59D+03 ExpMxC= 1.30D+03 IAcc=3 IRadAn=         5 AccDes= 0.00D+00
 Harris functional with IExCor= 1009 and IRadAn=       5 diagonalized for initial guess.
 HarFok:  IExCor= 1009 AccDes= 0.00D+00 IRadAn=         5 IDoV= 1 UseB2=F ITyADJ=14
 ICtDFT=  3500011 ScaDFX=  1.000000  1.000000  1.000000  1.000000
 FoFCou: FMM=F IPFlag=           0 FMFlag=      100000 FMFlg1=           0
         NFxFlg=           0 DoJE=T BraDBF=F KetDBF=T FulRan=T
         wScrn=  0.000000 ICntrl=       500 IOpCl=  0 I1Cent=   200000004 NGrid=           0
         NMat0=    1 NMatS0=      1 NMatT0=    0 NMatD0=    1 NMtDS0=    0 NMtDT0=    0
 Petite list used in FoFCou.
 Harris En= -288.832368349862    
 Leave Link  401 at Sun Oct 13 21:29:10 2019, MaxMem= 10737418240 cpu:               9.9 elap:               0.4
 (Enter /apps/cent7/gaussian/g16-A.03/g16-haswell/g16/l502.exe)
 Integral symmetry usage will be decided dynamically.
 Closed shell SCF:
 Using DIIS extrapolation, IDIIS=  1040.
 NGot= 10737418240 LenX= 10737318341 LenY= 10737271675
 Requested convergence on RMS density matrix=1.00D-08 within 128 cycles.
 Requested convergence on MAX density matrix=1.00D-06.
 Requested convergence on             energy=1.00D-06.
 No special actions if energy rises.
 Fock matrices will be formed incrementally for  20 cycles.

 Cycle   1  Pass 1  IDiag  1:
 FoFJK:  IHMeth= 1 ICntrl=       0 DoSepK=F KAlg= 0 I1Cent=           0 FoldK=F
 IRaf= 980000000 NMat=       1 IRICut=       1 DoRegI=T DoRafI=F ISym2E= 0 IDoP0=0 IntGTp=1.
 FoFCou: FMM=F IPFlag=           0 FMFlag=      100000 FMFlg1=           0
         NFxFlg=           0 DoJE=F BraDBF=F KetDBF=F FulRan=T
         wScrn=  0.000000 ICntrl=         0 IOpCl=  0 I1Cent=           0 NGrid=           0
         NMat0=    1 NMatS0=      1 NMatT0=    0 NMatD0=    1 NMtDS0=    0 NMtDT0=    0
 Symmetry not used in FoFCou.
 E= -288.900755044801    
 DIIS: error= 2.86D-03 at cycle   1 NSaved=   1.
 NSaved= 1 IEnMin= 1 EnMin= -288.900755044801     IErMin= 1 ErrMin= 2.86D-03
 ErrMax= 2.86D-03  0.00D+00 EMaxC= 1.00D-01 BMatC= 4.82D-03 BMatP= 4.82D-03
 IDIUse=3 WtCom= 9.71D-01 WtEn= 2.86D-02
 Coeff-Com:  0.100D+01
 Coeff-En:   0.100D+01
 Coeff:      0.100D+01
 Gap=     0.463 Goal=   None    Shift=    0.000
 GapD=    0.463 DampG=2.000 DampE=1.000 DampFc=2.0000 IDamp=-1.
 RMSDP=1.38D-03 MaxDP=6.22D-02              OVMax= 2.16D-02

 Cycle   2  Pass 1  IDiag  1:
 RMSU=  1.37D-03    CP:  1.01D+00
 E= -288.906775878331     Delta-E=       -0.006020833530 Rises=F Damp=F
 DIIS: error= 8.92D-04 at cycle   2 NSaved=   2.
 NSaved= 2 IEnMin= 2 EnMin= -288.906775878331     IErMin= 2 ErrMin= 8.92D-04
 ErrMax= 8.92D-04  0.00D+00 EMaxC= 1.00D-01 BMatC= 2.43D-04 BMatP= 4.82D-03
 IDIUse=3 WtCom= 9.91D-01 WtEn= 8.92D-03
 Coeff-Com: -0.433D-01 0.104D+01
 Coeff-En:   0.000D+00 0.100D+01
 Coeff:     -0.429D-01 0.104D+01
 Gap=     0.288 Goal=   None    Shift=    0.000
 RMSDP=2.27D-04 MaxDP=7.07D-03 DE=-6.02D-03 OVMax= 6.37D-03

 Cycle   3  Pass 1  IDiag  1:
 RMSU=  2.20D-04    CP:  1.01D+00  1.02D+00
 E= -288.906920275693     Delta-E=       -0.000144397362 Rises=F Damp=F
 DIIS: error= 1.05D-03 at cycle   3 NSaved=   3.
 NSaved= 3 IEnMin= 3 EnMin= -288.906920275693     IErMin= 2 ErrMin= 8.92D-04
 ErrMax= 1.05D-03  0.00D+00 EMaxC= 1.00D-01 BMatC= 2.70D-04 BMatP= 2.43D-04
 IDIUse=3 WtCom= 2.36D-01 WtEn= 7.64D-01
 Coeff-Com: -0.737D-01 0.568D+00 0.506D+00
 Coeff-En:   0.000D+00 0.216D+00 0.784D+00
 Coeff:     -0.174D-01 0.299D+00 0.718D+00
 Gap=     0.289 Goal=   None    Shift=    0.000
 RMSDP=1.87D-04 MaxDP=1.17D-02 DE=-1.44D-04 OVMax= 3.88D-03

 Cycle   4  Pass 1  IDiag  1:
 RMSU=  9.60D-05    CP:  1.01D+00  1.10D+00  4.63D-01
 E= -288.907032989590     Delta-E=       -0.000112713897 Rises=F Damp=F
 DIIS: error= 7.22D-04 at cycle   4 NSaved=   4.
 NSaved= 4 IEnMin= 4 EnMin= -288.907032989590     IErMin= 4 ErrMin= 7.22D-04
 ErrMax= 7.22D-04  0.00D+00 EMaxC= 1.00D-01 BMatC= 1.17D-04 BMatP= 2.43D-04
 IDIUse=3 WtCom= 9.93D-01 WtEn= 7.22D-03
 Coeff-Com: -0.629D-02-0.515D-01 0.400D+00 0.658D+00
 Coeff-En:   0.000D+00 0.000D+00 0.299D+00 0.701D+00
 Coeff:     -0.625D-02-0.511D-01 0.399D+00 0.658D+00
 Gap=     0.288 Goal=   None    Shift=    0.000
 RMSDP=8.13D-05 MaxDP=5.89D-03 DE=-1.13D-04 OVMax= 1.61D-03

 Cycle   5  Pass 1  IDiag  1:
 RMSU=  1.92D-05    CP:  1.01D+00  1.07D+00  7.43D-01  7.38D-01
 E= -288.907113292260     Delta-E=       -0.000080302670 Rises=F Damp=F
 DIIS: error= 4.37D-05 at cycle   5 NSaved=   5.
 NSaved= 5 IEnMin= 5 EnMin= -288.907113292260     IErMin= 5 ErrMin= 4.37D-05
 ErrMax= 4.37D-05  0.00D+00 EMaxC= 1.00D-01 BMatC= 6.00D-07 BMatP= 1.17D-04
 IDIUse=1 WtCom= 1.00D+00 WtEn= 0.00D+00
 Coeff-Com:  0.366D-02-0.640D-01 0.101D+00 0.235D+00 0.725D+00
 Coeff:      0.366D-02-0.640D-01 0.101D+00 0.235D+00 0.725D+00
 Gap=     0.288 Goal=   None    Shift=    0.000
 RMSDP=6.09D-06 MaxDP=1.79D-04 DE=-8.03D-05 OVMax= 2.88D-04

 Cycle   6  Pass 1  IDiag  1:
 RMSU=  5.57D-06    CP:  1.01D+00  1.07D+00  7.49D-01  7.59D-01  9.80D-01
 E= -288.907113902738     Delta-E=       -0.000000610478 Rises=F Damp=F
 DIIS: error= 1.78D-05 at cycle   6 NSaved=   6.
 NSaved= 6 IEnMin= 6 EnMin= -288.907113902738     IErMin= 6 ErrMin= 1.78D-05
 ErrMax= 1.78D-05  0.00D+00 EMaxC= 1.00D-01 BMatC= 6.88D-08 BMatP= 6.00D-07
 IDIUse=1 WtCom= 1.00D+00 WtEn= 0.00D+00
 Coeff-Com:  0.188D-02-0.187D-01-0.446D-02 0.195D-01 0.273D+00 0.728D+00
 Coeff:      0.188D-02-0.187D-01-0.446D-02 0.195D-01 0.273D+00 0.728D+00
 Gap=     0.288 Goal=   None    Shift=    0.000
 RMSDP=2.45D-06 MaxDP=6.91D-05 DE=-6.10D-07 OVMax= 1.11D-04

 Cycle   7  Pass 1  IDiag  1:
 RMSU=  2.35D-06    CP:  1.01D+00  1.07D+00  7.50D-01  7.64D-01  9.89D-01
                    CP:  1.06D+00
 E= -288.907113982410     Delta-E=       -0.000000079672 Rises=F Damp=F
 DIIS: error= 4.86D-06 at cycle   7 NSaved=   7.
 NSaved= 7 IEnMin= 7 EnMin= -288.907113982410     IErMin= 7 ErrMin= 4.86D-06
 ErrMax= 4.86D-06  0.00D+00 EMaxC= 1.00D-01 BMatC= 5.93D-09 BMatP= 6.88D-08
 IDIUse=1 WtCom= 1.00D+00 WtEn= 0.00D+00
 Coeff-Com:  0.126D-03 0.239D-02-0.137D-01-0.228D-01-0.147D-01 0.211D+00
 Coeff-Com:  0.837D+00
 Coeff:      0.126D-03 0.239D-02-0.137D-01-0.228D-01-0.147D-01 0.211D+00
 Coeff:      0.837D+00
 Gap=     0.288 Goal=   None    Shift=    0.000
 RMSDP=1.18D-06 MaxDP=3.52D-05 DE=-7.97D-08 OVMax= 4.89D-05

 Cycle   8  Pass 1  IDiag  1:
 RMSU=  6.60D-07    CP:  1.01D+00  1.07D+00  7.49D-01  7.66D-01  1.02D+00
                    CP:  1.16D+00  8.99D-01
 E= -288.907113990806     Delta-E=       -0.000000008395 Rises=F Damp=F
 DIIS: error= 1.61D-06 at cycle   8 NSaved=   8.
 NSaved= 8 IEnMin= 8 EnMin= -288.907113990806     IErMin= 8 ErrMin= 1.61D-06
 ErrMax= 1.61D-06  0.00D+00 EMaxC= 1.00D-01 BMatC= 7.31D-10 BMatP= 5.93D-09
 IDIUse=1 WtCom= 1.00D+00 WtEn= 0.00D+00
 Coeff-Com: -0.157D-03 0.294D-02-0.464D-02-0.109D-01-0.356D-01 0.383D-02
 Coeff-Com:  0.301D+00 0.744D+00
 Coeff:     -0.157D-03 0.294D-02-0.464D-02-0.109D-01-0.356D-01 0.383D-02
 Coeff:      0.301D+00 0.744D+00
 Gap=     0.288 Goal=   None    Shift=    0.000
 RMSDP=2.76D-07 MaxDP=6.96D-06 DE=-8.40D-09 OVMax= 1.49D-05

 Cycle   9  Pass 1  IDiag  1:
 RMSU=  1.91D-07    CP:  1.01D+00  1.07D+00  7.49D-01  7.66D-01  1.03D+00
                    CP:  1.18D+00  9.48D-01  1.08D+00
 E= -288.907113991727     Delta-E=       -0.000000000922 Rises=F Damp=F
 DIIS: error= 3.91D-07 at cycle   9 NSaved=   9.
 NSaved= 9 IEnMin= 9 EnMin= -288.907113991727     IErMin= 9 ErrMin= 3.91D-07
 ErrMax= 3.91D-07  0.00D+00 EMaxC= 1.00D-01 BMatC= 5.62D-11 BMatP= 7.31D-10
 IDIUse=1 WtCom= 1.00D+00 WtEn= 0.00D+00
 Coeff-Com: -0.459D-04 0.537D-03-0.103D-04-0.948D-03-0.860D-02-0.172D-01
 Coeff-Com:  0.817D-02 0.231D+00 0.787D+00
 Coeff:     -0.459D-04 0.537D-03-0.103D-04-0.948D-03-0.860D-02-0.172D-01
 Coeff:      0.817D-02 0.231D+00 0.787D+00
 Gap=     0.288 Goal=   None    Shift=    0.000
 RMSDP=1.18D-07 MaxDP=1.09D-05 DE=-9.22D-10 OVMax= 3.28D-06

 Cycle  10  Pass 1  IDiag  1:
 RMSU=  7.50D-08    CP:  1.01D+00  1.07D+00  7.49D-01  7.66D-01  1.02D+00
                    CP:  1.19D+00  9.51D-01  1.15D+00  9.88D-01
 E= -288.907113991796     Delta-E=       -0.000000000069 Rises=F Damp=F
 DIIS: error= 1.08D-07 at cycle  10 NSaved=  10.
 NSaved=10 IEnMin=10 EnMin= -288.907113991796     IErMin=10 ErrMin= 1.08D-07
 ErrMax= 1.08D-07  0.00D+00 EMaxC= 1.00D-01 BMatC= 2.23D-12 BMatP= 5.62D-11
 IDIUse=1 WtCom= 1.00D+00 WtEn= 0.00D+00
 Coeff-Com:  0.349D-05-0.131D-03 0.385D-03 0.701D-03 0.117D-02-0.369D-02
 Coeff-Com: -0.232D-01-0.100D-01 0.157D+00 0.878D+00
 Coeff:      0.349D-05-0.131D-03 0.385D-03 0.701D-03 0.117D-02-0.369D-02
 Coeff:     -0.232D-01-0.100D-01 0.157D+00 0.878D+00
 Gap=     0.288 Goal=   None    Shift=    0.000
 RMSDP=3.54D-08 MaxDP=1.51D-06 DE=-6.87D-11 OVMax= 1.12D-06

 Cycle  11  Pass 1  IDiag  1:
 RMSU=  1.58D-08    CP:  1.01D+00  1.07D+00  7.49D-01  7.66D-01  1.03D+00
                    CP:  1.19D+00  9.46D-01  1.18D+00  1.08D+00  9.99D-01
 E= -288.907113991799     Delta-E=       -0.000000000003 Rises=F Damp=F
 DIIS: error= 1.83D-08 at cycle  11 NSaved=  11.
 NSaved=11 IEnMin=11 EnMin= -288.907113991799     IErMin=11 ErrMin= 1.83D-08
 ErrMax= 1.83D-08  0.00D+00 EMaxC= 1.00D-01 BMatC= 1.33D-13 BMatP= 2.23D-12
 IDIUse=1 WtCom= 1.00D+00 WtEn= 0.00D+00
 Coeff-Com:  0.310D-05-0.603D-04 0.969D-04 0.225D-03 0.690D-03-0.190D-03
 Coeff-Com: -0.664D-02-0.123D-01 0.559D-02 0.198D+00 0.815D+00
 Coeff:      0.310D-05-0.603D-04 0.969D-04 0.225D-03 0.690D-03-0.190D-03
 Coeff:     -0.664D-02-0.123D-01 0.559D-02 0.198D+00 0.815D+00
 Gap=     0.288 Goal=   None    Shift=    0.000
 RMSDP=7.86D-09 MaxDP=3.41D-07 DE=-2.73D-12 OVMax= 2.93D-07

 SCF Done:  E(RM062X) =  -288.907113992     A.U. after   11 cycles
            NFock= 11  Conv=0.79D-08     -V/T= 2.0038
 KE= 2.878145262246D+02 PE=-1.203890951599D+03 EE= 3.620430298806D+02
 Leave Link  502 at Sun Oct 13 21:29:17 2019, MaxMem= 10737418240 cpu:             162.4 elap:               6.8
 (Enter /apps/cent7/gaussian/g16-A.03/g16-haswell/g16/l701.exe)
 ... and contract with generalized density number  0.
 Compute integral first derivatives.
 Leave Link  701 at Sun Oct 13 21:29:17 2019, MaxMem= 10737418240 cpu:               2.7 elap:               0.1
 (Enter /apps/cent7/gaussian/g16-A.03/g16-haswell/g16/l702.exe)
 L702 exits ... SP integral derivatives will be done elsewhere.
 Leave Link  702 at Sun Oct 13 21:29:17 2019, MaxMem= 10737418240 cpu:               0.5 elap:               0.0
 (Enter /apps/cent7/gaussian/g16-A.03/g16-haswell/g16/l703.exe)
 Integral derivatives from FoFJK, PRISM(SPDF).
 Compute integral first derivatives, UseDBF=F ICtDFT=           0.
 Calling FoFJK, ICntrl=      2127 FMM=F ISym2X=0 I1Cent= 0 IOpClX= 0 NMat=1 NMatS=1 NMatT=0.
 FoFJK:  IHMeth= 1 ICntrl=    2127 DoSepK=F KAlg= 0 I1Cent=           0 FoldK=F
 IRaf=         0 NMat=       1 IRICut=       1 DoRegI=T DoRafI=F ISym2E= 0 IDoP0=0 IntGTp=1.
 FoFCou: FMM=F IPFlag=           0 FMFlag=      100000 FMFlg1=         800
         NFxFlg=           0 DoJE=F BraDBF=F KetDBF=F FulRan=T
         wScrn=  0.000000 ICntrl=      2127 IOpCl=  0 I1Cent=           0 NGrid=           0
         NMat0=    1 NMatS0=      1 NMatT0=    0 NMatD0=    1 NMtDS0=    0 NMtDT0=    0
 Symmetry not used in FoFCou.
 Leave Link  703 at Sun Oct 13 21:29:18 2019, MaxMem= 10737418240 cpu:              30.7 elap:               1.3
 (Enter /apps/cent7/gaussian/g16-A.03/g16-haswell/g16/l716.exe)
 Dipole        = 3.32327929D-01-5.91013802D-01 6.80484666D-01
 ***** Axes restored to original set *****
 -------------------------------------------------------------------
 Center     Atomic                   Forces (Hartrees/Bohr)
 Number     Number              X              Y              Z
 -------------------------------------------------------------------
      1        6          -0.001902588   -0.000959780    0.004727744
      2        6           0.004491288    0.005630184   -0.017125458
      3        7           0.004322969   -0.009521639    0.014060382
      4        8          -0.003619809    0.010811738   -0.009673446
      5        6           0.005299668    0.013818390   -0.018278024
      6        6          -0.001725751   -0.004533186    0.003414468
      7        1           0.000300773   -0.001269547   -0.002012967
      8        1           0.000625797   -0.000140480    0.000056074
      9        1          -0.000180566   -0.000176997    0.000292775
     10        1           0.001150747   -0.002918910    0.006747861
     11        1          -0.004132623   -0.002611463    0.004126795
     12        1          -0.001744722   -0.004479406    0.002387975
     13        1           0.000975394   -0.003318843    0.007254756
     14        1          -0.004092466   -0.002237940    0.003879477
     15        1          -0.000430739    0.002306890    0.000107685
     16        1           0.000024877   -0.000393551    0.000533143
     17        1           0.000637750   -0.000005460   -0.000499241
 -------------------------------------------------------------------
 Cartesian Forces:  Max     0.018278024 RMS     0.005824936
 Leave Link  716 at Sun Oct 13 21:29:18 2019, MaxMem= 10737418240 cpu:               0.6 elap:               0.0
 (Enter /apps/cent7/gaussian/g16-A.03/g16-haswell/g16/l103.exe)

 GradGradGradGradGradGradGradGradGradGradGradGradGradGradGradGradGradGrad
 Berny optimization.
 Using GEDIIS/GDIIS optimizer.
 FormGI is forming the generalized inverse of G from B-inverse, IUseBI=4.
 Internal  Forces:  Max     0.010523885 RMS     0.002370645
 Search for a local minimum.
[...]
 1\1\GINC-BROWN-A041\Freq\RM062X\6-311++G(d,p)\C4H11N1O1\FINEJ\13-Oct-2
 019\0\\#P Geom=AllCheck Guess=TCheck SCRF=Check GenChk RM062X/6-311++G
 (d,p) Freq\\Title Card Required\\0,1\C,2.3317784923,-2.780129363,-2.38
 67752223\C,1.9991396289,-2.0563182114,-1.0926217356\N,2.1731031056,-0.
 6145967913,-1.2208792961\O,1.242131647,-0.1340699517,-2.1664237498\C,1
 .9524569839,0.0825498975,0.0403113437\C,2.2367444928,1.5703310961,-0.0
 824457155\H,2.2110069837,-3.8576580525,-2.2607627524\H,1.6786941241,-2
 .4475724193,-3.1932654459\H,3.3631360927,-2.5724349872,-2.6752969553\H
 ,0.9646483024,-2.2867114672,-0.7733967789\H,2.6665427226,-2.3839283813
 ,-0.2918611187\H,0.3560802985,-0.3373686719,-1.818860243\H,0.916663106
 7,-0.0874330937,0.3915854042\H,2.6226919042,-0.3729979446,0.7732693457
 \H,2.0816620443,2.0667680484,0.8772579466\H,3.2691755671,1.7275459638,
 -0.3978041511\H,1.580844503,2.0283243292,-0.8224308756\\Version=ES64L-
 G16RevA.03\State=1-A\HF=-288.9125353\RMSD=1.785e-09\RMSF=2.655e-06\Zer
 oPoint=0.154322\Thermal=0.154322\Dipole=-0.4119718,-0.4180803,0.772507
 6\DipoleDeriv=0.042645,0.0157667,0.0188003,0.0142877,0.0139344,-0.0513
 446,-0.0047752,-0.0486994,-0.0258892,0.3719819,0.0089168,-0.0967627,0.
 0881133,0.456027,0.0713383,-0.1129928,0.0069498,0.1654294,-0.337802,-0
 .1940027,0.3712925,-0.1201178,-0.3853632,-0.1461687,0.2318137,-0.14920
 13,-0.1689576,-0.1107668,0.1786204,-0.3164556,0.0649685,-0.5624884,-0.
 0980378,-0.1019024,-0.0933518,-0.4437326,0.3715745,0.0743903,-0.064899
 5,0.0444697,0.2975809,0.1159384,-0.1417034,0.1782938,0.3242659,0.04380
 03,-0.0208469,-0.0026059,-0.0005694,-0.060667,0.0012637,-0.0145215,-0.
 0021608,0.0475544,0.0767662,-0.0271402,0.015757,-0.0093864,-0.1533949,
 -0.0155383,0.0198073,0.022978,0.0432916,0.003075,0.0232604,-0.077974,0
 .0362784,0.0764933,0.0498398,-0.0419459,-0.0049747,-0.0273814,-0.08779
 64,-0.0063275,0.0665602,-0.0549565,0.0679826,0.0068328,0.0262575,-0.02
 44224,0.0331706,-0.2107995,-0.0946785,0.0997652,0.0524175,-0.0567863,-
 0.0291079,0.0792651,0.0075699,-0.0087735,-0.003973,0.02788,-0.0919841,
 0.0170365,0.0175794,0.003001,-0.06619,0.0282705,-0.0654115,0.0644086,-
 0.0120463,0.0111036,-0.0877608,0.301193,0.0856861,0.1540584,0.0887928,
 0.1871682,-0.2087753,-0.034455,0.1313573,-0.1008277,-0.0383655,-0.0051
 762,-0.0005413,-0.0451843,-0.0292195,-0.0052754,0.0604864,-0.0762984,0
 .0447946,-0.021078,0.0552024,-0.0519936,0.0310304,-0.0254396,0.0758958
 ,0.0073045,0.0367733,-0.0067127,-0.0154749,-0.0697871,0.0256799,-0.108
 4537,-0.0937527,-0.0879823,-0.0562316,0.0399229,0.0049872,0.0343895,-0
 .0011548,0.0564512,0.0295872,0.0669624,0.0030233,0.0491033,-0.064352,0
 .012978,0.028438,0.027213,-0.0567671,0.0829759,0.0207151\Polar=60.2857
 449,-0.5232233,70.0132453,0.4661761,5.4660724,62.6194522\Quadrupole=1.
 1509258,0.2465787,-1.3975045,-0.3319125,0.6361356,1.2349438\PG=C01 [X(
 C4H11N1O1)]\NImag=0\\0.57943327,0.01228118,0.56780847,0.01945878,-0.04
 000979,0.51803163,-0.08817414,0.01318732,0.02644907,0.58459122,0.01519
 472,-0.09933918,-0.05154958,-0.02153745,0.48632062,0.02776620,-0.04319
 894,-0.18421966,0.04335270,-0.01336617,0.57380050,0.00194686,0.0057668
 8,-0.00084396,-0.07192520,0.00291915,-0.00786408,0.33486270,-0.0008513
 9,-0.02997436,-0.00379519,-0.05808951,-0.21243999,0.00963779,-0.035411
 25,0.51553220,-0.00548708,-0.03608618,0.00571058,0.00047283,-0.0001258
 1,-0.09080169,0.05848920,0.04029228,0.46397040,0.00105705,0.00048180,-
 0.00027853,-0.01805221,-0.00320746,-0.00577355,-0.13071644,0.05926777,
 -0.11439591,0.52309646,-0.00071639,0.00011510,-0.00069832,0.03731053,-
 0.02104255,0.03909871,0.00912763,-0.08978608,0.03809831,0.04097554,0.1
 5336382,0.00031775,-0.00260918,-0.00021947,-0.01927903,0.01371324,-0.0
 1684448,-0.01972424,0.04015624,-0.14644341,-0.05943885,-0.12725563,0.3
 2294083,-0.00034367,0.00096640,0.00013315,-0.00440681,-0.01132847,-0.0
 0138116,-0.07409929,0.03505727,0.05188741,-0.01731602,-0.00574180,-0.0
 4188732,0.58456087,-0.00118930,-0.00513646,0.00192135,0.00894840,-0.02
 712943,-0.03694734,0.00749253,-0.12341122,-0.04807019,0.00539868,0.006
 39494,0.01916071,-0.02118895,0.53222767,0.00019726,0.00296171,-0.00037
 646,0.00871896,-0.00761656,0.00331195,-0.00291396,-0.05921002,-0.17764
 290,0.00006659,-0.00501507,-0.04502107,0.04475485,-0.04452082,0.527918
 11,0.00080193,0.00046492,0.00010076,-0.00034793,0.00049427,0.00125655,
 0.00193937,0.00662704,-0.00207113,0.00104636,0.00025784,0.00074489,-0.
 08632975,-0.02804033,0.00233496,0.58089060,-0.00031534,-0.00025120,0.0
 0037419,-0.00064530,0.00038544,-0.00180401,-0.00151393,-0.02396018,-0.
 00790468,0.00004285,-0.00164517,0.00052676,-0.02567297,-0.20342036,0.0
 1740344,-0.02026517,0.49507889,-0.00026152,-0.00196828,0.00082645,-0.0
 0059688,-0.00080528,-0.00589456,-0.00383666,-0.04013362,-0.00029721,-0
 .00051556,-0.00142517,0.00155032,0.00297135,0.02574010,-0.08198456,0.0
 0032771,0.00801761,0.58930603,-0.05057199,-0.03030756,0.00419505,-0.00
 081293,0.00747574,-0.00210903,-0.00029218,0.00030442,0.00066070,0.0003
 0755,0.00072050,0.00067490,0.00047525,0.00045169,-0.00020695,-0.000065
 39,0.00006608,0.00018969,0.04960426,-0.02945132,-0.31077591,0.03175858
 ,-0.00282677,-0.01298423,0.00518495,0.00095026,-0.00082591,-0.00367691
 ,-0.00033056,-0.00006256,-0.00052007,0.00027506,-0.00050620,0.00083741
 ,0.00009256,-0.00006453,-0.00033104,0.03253133,0.33743117,0.00450553,0
 .03429920,-0.05172769,-0.00482447,-0.02862155,0.00616930,0.00063436,-0
 .00298742,-0.00725765,0.00017394,0.00096479,0.00071849,0.00004731,-0.0
 0153048,0.00084561,0.00012423,-0.00013657,-0.00058079,-0.00498762,-0.0
 3403228,0.05422189,-0.15006210,0.05086955,-0.12307699,0.00561442,-0.00
 405319,0.00700318,-0.00022427,0.00004502,-0.00114823,-0.00009461,0.001
 14346,0.00094446,-0.00004693,-0.00008005,-0.00002365,-0.00004229,0.000
 02878,-0.00008012,0.00238511,-0.00134382,0.00495836,0.15841561,0.05211
 591,-0.07277135,0.06475393,-0.01115246,0.00517098,-0.01292812,-0.00101
 531,0.00102964,0.00021433,0.00099657,-0.00156578,-0.00019200,0.0000730
 6,-0.00020349,-0.00004160,0.00003660,-0.00005820,0.00012141,0.02002150
 ,-0.00834793,0.02326619,-0.05776540,0.07649942,-0.12146637,0.06185614,
 -0.19501917,-0.01855271,0.00886237,-0.02243075,-0.00080941,0.00158814,
 -0.00034998,0.00078422,0.00126752,0.00181797,-0.00020003,-0.00018896,-
 0.00018481,0.00008642,-0.00001406,0.00010337,-0.00066351,0.00060093,-0
 .00205621,0.13241627,-0.06683271,0.21372669,-0.29318752,-0.04970471,0.
 06565813,-0.00686522,-0.00154645,0.00210915,0.00067968,-0.00007613,-0.
 00084537,-0.00015249,0.00074749,0.00019432,0.00034938,0.00015979,-0.00
 017710,-0.00001935,0.00002480,0.00004620,-0.00121560,-0.00009060,-0.00
 039681,-0.01711721,-0.00445427,0.00556982,0.31546104,-0.05119002,-0.05
 727044,0.01494256,0.01653293,0.00195514,-0.00494636,0.00060012,0.00178
 190,0.00066929,-0.00015015,-0.00046172,0.00032263,0.00008166,-0.000143
 20,-0.00045544,-0.00009152,0.00003810,0.00008812,-0.03064848,-0.004340
 59,0.00783464,0.01032233,0.00158782,-0.00353985,0.05474761,0.05743637,
 0.06345549,0.01336614,-0.06441114,0.03018020,0.00622666,-0.00942126,-0
 .00084645,0.00122023,0.00196529,0.00001762,0.00007045,0.00005560,-0.00
 008611,-0.00004582,-0.00009629,-0.00013689,0.00001690,0.00004409,0.002
 86383,0.00058282,-0.00228014,-0.02281786,-0.00613583,0.00726894,-0.073
 33220,-0.01287309,0.07077728,-0.00678476,-0.00079091,0.00133398,-0.251
 55595,-0.03340397,0.05738012,-0.01023298,-0.01169421,0.00072595,0.0076
 7846,0.00170104,-0.00053654,0.00091979,0.00141406,0.00106887,0.0005956
 6,-0.00006735,-0.00038459,-0.00009087,0.00055913,0.00036841,0.00063472
 ,-0.00003348,0.00024784,0.00121376,0.00074040,0.00118813,0.27580526,0.
 01586933,0.00366567,-0.00445344,-0.03473786,-0.05575225,0.01294287,-0.
 03656793,-0.02777319,0.01071832,-0.00402641,0.00393145,-0.00406123,-0.
 00302909,0.00250237,0.00538839,0.00047331,-0.00035450,-0.00050391,-0.0
 0012426,0.00024104,0.00068419,-0.00081075,0.00036590,0.00032642,0.0004
 1336,-0.00107552,-0.00354612,0.04861531,0.07067295,0.02767663,0.004415
 66,-0.00805975,0.05713424,0.01025370,-0.06856719,0.00415145,0.00583329
 ,-0.00089686,0.00177697,-0.00102356,0.00031181,-0.00175321,-0.00047203
 ,0.00068843,-0.00003799,-0.00013390,-0.00002643,-0.00036748,-0.0001456
 0,0.00094395,-0.00035617,0.00097407,0.00100453,0.00126213,-0.00296080,
 -0.00458580,-0.06801671,-0.01276902,0.07155327,0.00559429,-0.00311973,
 0.00693001,-0.15343911,0.04991029,-0.12133433,0.00047062,-0.00104706,0
 .00327512,0.00244823,0.00035501,0.00032959,-0.00022367,-0.00063611,-0.
 00086443,0.00025457,0.00010096,0.00051785,0.00012825,-0.00037146,-0.00
 074697,0.00074510,0.00077756,0.00202827,0.00072565,-0.00050206,-0.0001
 7895,-0.01813746,0.00883760,-0.02090740,0.16006690,-0.01093412,0.00541
 655,-0.01338477,0.04164594,-0.07174885,0.05265078,0.02194173,-0.010366
 52,0.02571899,0.00230368,-0.00941523,0.00358998,0.00120293,-0.00001942
 ,0.00071076,-0.00028108,0.00025390,-0.00010259,-0.00035871,0.00035758,
 0.00058843,0.00146192,-0.00146259,-0.00329957,0.00023831,0.00036958,0.
 00088781,-0.00346082,0.00259489,-0.00506454,-0.05294578,0.08535863,-0.
 01687072,0.00737521,-0.02097820,-0.11933055,0.05992151,-0.18668146,-0.
 00318794,0.00188027,-0.00488305,0.00034961,0.00088716,0.00118348,-0.00
 034284,-0.00170607,-0.00082711,0.00040312,0.00017633,0.00035146,-0.000
 12245,-0.00017695,0.00097631,0.00184845,-0.00316707,-0.00376203,0.0002
 0806,0.00070580,0.00089590,0.00583770,-0.00342861,0.00712803,0.1304321
 6,-0.06113963,0.20624688,-0.00045678,0.00017780,-0.00010003,0.00394717
 ,-0.00021887,0.00062501,-0.04194649,0.00158520,-0.00461789,-0.37967095
 ,-0.08236713,0.14022458,0.00418008,-0.00026886,0.00049812,-0.00045401,
 -0.00001969,-0.00018383,0.00011881,-0.00007107,0.00010252,-0.00020460,
 0.00036951,0.00033349,0.00008911,-0.00016752,-0.00005526,-0.00054325,0
 .00292237,-0.00042654,0.00070288,-0.00069339,0.00025495,0.41408452,-0.
 00036186,-0.00094720,0.00001613,0.00859197,0.00456613,-0.00216446,0.01
 779181,-0.00014218,-0.00345732,-0.10025078,-0.04065460,0.06095909,-0.0
 0189154,-0.00003895,-0.00002684,-0.00031788,-0.00010181,-0.00048760,-0
 .00010607,0.00002148,-0.00015365,0.00025773,-0.00034783,-0.00053507,-0
 .00032871,0.00021229,0.00014302,-0.00271932,0.00042138,0.00068838,-0.0
 0114699,-0.00041067,0.00009792,0.08023062,0.03830465,0.00062513,0.0001
 0645,0.00022109,-0.00338125,-0.00308380,0.00151380,-0.03522331,-0.0041
 1932,0.00397592,0.17399683,0.06169052,-0.11555332,-0.00906890,0.000596
 36,0.00588884,0.00067263,-0.00054352,-0.00062699,-0.00006092,0.0000459
 9,0.00003273,0.00032161,-0.00028066,-0.00042784,-0.00015195,0.00007290
 ,-0.00034736,0.00210993,-0.00046097,0.00001205,0.00026827,0.00006023,-
 0.00022950,-0.13482968,-0.05495959,0.10571176,0.00060011,0.00039914,-0
 .00014721,0.00085749,-0.00185480,-0.00050759,-0.01179564,0.00575374,0.
 01075749,0.00761196,-0.00020840,-0.00174042,-0.25150371,-0.03564146,0.
 05625910,-0.00573444,-0.00072321,0.00096246,-0.00001103,0.00015891,0.0
 0013563,-0.00000573,-0.00005520,0.00001914,0.00004564,-0.00027242,-0.0
 0027120,0.00059467,0.00178498,-0.00000874,-0.00010806,-0.00001988,0.00
 007022,-0.00050470,-0.00023599,0.00339345,0.27633516,-0.00019796,-0.00
 042093,-0.00009413,0.00308159,0.00359197,-0.00114282,0.01698671,-0.000
 90514,-0.01121978,0.00104322,-0.00089012,0.00222130,-0.03464022,-0.055
 90411,0.01030852,-0.03202994,-0.00548965,0.00934228,-0.00003743,-0.000
 08823,-0.00003205,0.00000396,0.00007047,0.00005792,-0.00017190,-0.0000
 5544,0.00011947,-0.00099614,0.00046293,0.00029676,0.00009385,-0.000059
 51,0.00010799,-0.00132975,0.00019469,0.00090004,0.03642693,0.06163751,
 -0.00038727,-0.00046190,0.00003547,0.00138332,0.00469728,-0.00033835,0
 .03308149,-0.00577020,-0.02620278,0.00439885,-0.00063254,0.00519959,0.
 05713357,0.01301100,-0.06846784,0.00227242,0.00107578,0.00004578,-0.00
 010263,-0.00016152,-0.00008132,0.00002139,0.00005326,0.00002525,-0.000
 16242,0.00013693,0.00019250,-0.00146537,-0.00045933,0.00053426,-0.0001
 3880,-0.00027382,0.00003498,-0.00265734,-0.00043639,0.00020051,-0.0747
 1042,-0.00714280,0.08005886,0.00026518,-0.00048494,0.00020378,-0.00022
 689,0.00107454,0.00006790,0.00118693,-0.00255218,0.00343263,0.00253950
 ,-0.00033291,0.00027091,-0.15452381,0.06909103,-0.11192551,0.00492330,
 -0.00329619,0.00582524,0.00000484,-0.00003997,-0.00006176,-0.00002067,
 0.00008705,0.00018798,-0.00002905,0.00002106,0.00002418,-0.00010670,0.
 00006567,-0.00016225,0.00081445,-0.00014149,0.00037018,0.00064841,0.00
 045328,0.00111971,-0.01820021,0.01172258,-0.01941688,0.16103498,-0.000
 18033,0.00033229,0.00011147,-0.00034676,-0.00101060,-0.00102101,-0.009
 69708,0.00580269,-0.00944978,-0.00139574,-0.00014543,-0.00547593,0.071
 94725,-0.09315707,0.07535775,0.02040320,-0.01487203,0.02211435,-0.0000
 2163,0.00002487,0.00003999,-0.00006718,0.00007329,-0.00004371,-0.00000
 597,0.00000940,0.00003150,-0.00005013,-0.00007142,0.00011002,-0.000133
 38,-0.00117302,-0.00142467,0.00020895,-0.00019183,0.00000523,-0.003512
 59,0.00205139,-0.00356908,-0.07498834,0.10602982,0.00046475,-0.0001642
 1,0.00026248,-0.00124216,0.00137821,0.00016719,-0.02001842,0.01373480,
 -0.02176801,-0.00142240,-0.00280979,-0.00817756,-0.10371889,0.06831073
 ,-0.16419415,-0.00036185,0.00070016,-0.00001774,0.00002198,-0.00000447
 ,0.00002435,-0.00002379,0.00021984,0.00026119,0.00000028,0.00001870,-0
 .00006186,0.00006212,-0.00026218,0.00004561,0.00036605,-0.00104127,0.0
 0051991,0.00073861,-0.00004124,-0.00039376,0.00581966,-0.00406945,0.00
 773405,0.11932922,-0.07607664,0.18461197,-0.00005477,-0.00017519,0.000
 04245,0.00049573,-0.00007675,-0.00041885,-0.00023316,-0.00046644,0.000
 03862,0.00033618,-0.00095666,-0.00022647,-0.00080670,-0.00218278,-0.00
 642302,-0.05270851,0.01724563,0.03479110,0.00002583,-0.00002954,-0.000
 03631,0.00000158,0.00000912,0.00001752,0.00000766,-0.00000727,0.000006
 58,-0.00000653,0.00011350,-0.00002772,0.00000208,-0.00000708,0.0000291
 2,0.00011340,0.00011341,0.00005850,-0.00007506,0.00034956,-0.00011503,
 0.00008852,0.00028339,0.00021714,0.05192994,-0.00013952,-0.00064648,0.
 00024992,-0.00014499,0.00008834,-0.00195862,-0.00082048,-0.00837717,0.
 00209127,0.00002201,0.00064719,0.00045453,0.00646044,-0.01064262,-0.03
 025280,0.01646205,-0.10176946,-0.10562681,0.00005535,-0.00011933,-0.00
 020685,-0.00002316,0.00003208,-0.00000183,0.00002501,0.00003030,0.0000
 1055,-0.00019623,-0.00017651,0.00002131,0.00007168,0.00004328,0.000031
 35,-0.00003800,-0.00001851,-0.00012369,-0.00065803,0.00096283,0.000172
 33,0.00079322,0.00100999,0.00019318,-0.01835336,0.11087277,-0.00000954
 ,0.00005292,-0.00000946,-0.00021090,0.00041939,0.00023078,-0.00048665,
 0.00139005,0.00023441,0.00041234,-0.00102777,-0.00001976,-0.00058124,0
 .00362265,0.00382198,0.03434398,-0.10817018,-0.25859911,0.00000429,-0.
 00000775,0.00002549,0.00000835,0.00001552,0.00000985,0.00000279,0.0000
 1528,-0.00000644,-0.00005193,-0.00010347,0.00000245,-0.00000119,-0.000
 01561,0.00000871,0.00011454,0.00008085,0.00007815,-0.00023882,-0.00064
 428,0.00020608,-0.00009670,-0.00059270,0.00036380,-0.03786159,0.117635
 86,0.27845581,-0.00002311,-0.00005697,0.00000581,0.00035188,0.00008616
 ,-0.00023014,0.00066982,0.00066991,-0.00043501,-0.00012847,-0.00058686
 ,-0.00049273,-0.00576063,-0.00089241,0.00201994,-0.29391397,-0.0348931
 6,0.07370854,0.00000847,-0.00001710,-0.00001975,-0.00000615,0.00000216
 ,-0.00000077,0.00002076,-0.00002371,-0.00000636,0.00002275,0.00022480,
 0.00005577,-0.00002803,0.00000208,0.00000357,0.00006867,0.00031042,0.0
 0017752,0.00128881,-0.00102306,0.00036999,0.00071773,-0.00033093,-0.00
 006849,-0.00221521,0.00019409,0.00005243,0.31613277,0.00016107,0.00009
 472,-0.00001590,0.00004745,-0.00034039,0.00008337,0.00028076,0.0028207
 0,0.00052989,0.00006812,0.00005743,-0.00030997,-0.03446685,-0.00643886
 ,0.01056814,-0.03220852,-0.05100042,0.00983574,-0.00000201,0.00001654,
 0.00001879,0.,-0.00000492,-0.00000312,0.00002276,-0.00006048,-0.000077
 39,0.00037158,0.00025396,-0.00006810,-0.00003314,-0.00001704,0.0000483
 4,0.00013854,-0.00005510,0.00034375,-0.00113504,-0.00658453,0.00012895
 ,0.00040194,0.00147369,0.00014516,0.01480121,0.00149789,-0.00276664,0.
 03900206,0.05695218,-0.00000317,0.00005114,-0.00000876,-0.00010058,-0.
 00032144,0.00009845,-0.00097609,-0.00003314,0.00093651,0.00014189,-0.0
 0004747,-0.00048759,0.00320517,0.00003139,-0.00213211,0.07364703,0.011
 36294,-0.06995343,0.00000891,0.00002422,0.00000651,-0.00000797,-0.0000
 1645,-0.00000449,0.00001701,-0.00002091,0.00000651,0.00007724,-0.00005
 258,-0.00009404,-0.00000492,0.00003588,-0.00003643,0.00010094,0.000274
 13,-0.00005952,0.00003797,0.00070533,0.00084816,0.00033277,-0.00003653
 ,-0.00020050,0.02690466,0.00514480,-0.00711881,-0.08169394,-0.01319745
 ,0.07058839,-0.00003986,0.00004502,-0.00006427,-0.00005152,0.00007254,
 0.00005792,-0.00029034,0.00087780,-0.00073934,0.00000941,-0.00142889,-
 0.00037579,0.00487563,-0.00283592,0.00661597,-0.15083615,0.06990322,-0
 .11348100,0.00000162,0.00000499,0.00002339,0.00002802,-0.00001291,0.00
 000183,-0.00000624,0.00000703,-0.00000475,-0.00000658,-0.00002393,0.00
 000704,-0.00001670,0.00004578,0.00004736,-0.00017229,-0.00039009,-0.00
 002757,0.00060473,0.00071801,0.00049513,0.00088349,-0.00211274,-0.0001
 6381,0.00309901,-0.00371006,0.00459984,-0.01720611,0.01255007,-0.02168
 690,0.15912387,-0.00009466,0.00010070,-0.00012701,0.00013497,-0.000291
 15,-0.00012060,0.00116841,0.00099482,0.00165797,-0.00123913,0.00115933
 ,-0.00068047,0.02189583,-0.01497358,0.02360303,0.06792266,-0.09276884,
 0.07612470,-0.00002043,0.00002273,0.00000462,0.00001082,-0.00006750,-0
 .00010054,-0.00000038,-0.00001350,0.00000270,0.00001103,0.00009086,0.0
 0004434,-0.00021124,0.00027843,-0.00018888,-0.00045870,-0.00081195,-0.
 00024992,-0.00020669,0.00142588,-0.00036795,-0.00187435,-0.00618602,-0
 .00023152,-0.01066075,0.00656540,-0.00990413,-0.00266749,0.00133464,-0
 .00390386,-0.07370992,0.10313976,0.00001814,0.00001391,-0.00005795,-0.
 00017280,0.00001784,-0.00009259,0.00037467,0.00031581,-0.00024958,-0.0
 0029406,-0.00214213,-0.00101144,-0.00111310,0.00108744,-0.00154763,-0.
 11370683,0.07905280,-0.17424667,0.00000124,0.00002169,0.00001916,0.000
 01272,-0.00002410,0.00001748,-0.00000205,-0.00001042,0.00000419,0.0000
 5485,0.00004068,0.00000567,0.00002968,0.00007893,0.00005213,-0.0001222
 0,0.00000262,0.00000345,0.00016927,0.00028570,-0.00002519,0.00049860,-
 0.00008027,0.00082302,-0.01699671,0.01216551,-0.01768393,0.00655362,-0
 .00526355,0.00761113,0.12469495,-0.08556246,0.18637874\\-0.00000038,-0
 .00000193,-0.00000261,-0.00000186,0.00000354,-0.00000320,0.00001247,-0
 .00000439,0.00000031,-0.00000259,-0.00000385,0.00000605,-0.00000296,0.
 00000174,0.00000226,-0.00000051,0.00000226,-0.00000049,0.00000006,-0.0
 0000041,-0.00000075,0.00000124,-0.00000104,-0.00000009,-0.00000027,0.0
 0000049,0.00000127,-0.00000043,0.00000079,0.00000018,-0.00000116,0.000
 00222,0.00000210,-0.00000224,0.00000367,-0.00000295,0.00000056,-0.0000
 0074,-0.00000093,-0.00000215,-0.00000258,-0.00000148,-0.00000018,0.000
 00152,-0.00000099,0.00000036,-0.00000172,0.00000032,0.00000004,0.00000
 044,0.00000100\\\@


 READER, WHETHER YOU BE DILETTANTE OR PROFESSOR ... SHOW YOURSELF TO BE
 MORE HUMAN THAN CRITICAL, AND THEN YOUR PLEASURE WILL INCREASE.
                                           -- DOMENICO SCARLATTI (1738)
 Job cpu time:       0 days  0 hours 24 minutes 27.7 seconds.
 Elapsed time:       0 days  0 hours  1 minutes  2.2 seconds.
 File lengths (MBytes):  RWF=     72 Int=      0 D2E=      0 Chk=      5 Scr=      1
 Normal termination of Gaussian 16 at Sun Oct 13 21:31:25 2019.
real 147.93
user 3388.96
sys 18.79
Machine:
brown-a041
brown-a041
brown-a041
brown-a041
brown-a041
brown-a041
brown-a041
brown-a041
brown-a041
brown-a041
brown-a041
brown-a041
brown-a041
brown-a041
brown-a041
brown-a041
brown-a041
brown-a041
brown-a041
brown-a041
brown-a041
brown-a041
brown-a041
brown-a041
