Title Card Required                                                     
Freq      RM062X                                                      6-311++G(d,p)       
Number of atoms                            I               15
Info1-9                                    I   N=           9
          40          40        1002           0           0         100
           6          18        -502
Full Title                                 C   N=           2
Title Card Required     
Route                                      C   N=           6
#P opt freq m062x/6-311++g(d,p) geom=connectivity temperatur
e=0.001     
Charge                                     I                0
Multiplicity                               I                1
Number of electrons                        I               58
Number of alpha electrons                  I               29
Number of beta electrons                   I               29
Number of basis functions                  I              225
Number of independent functions            I              224
Number of point charges in /Mol/           I                0
Number of translation vectors              I                0
Atomic numbers                             I   N=          15
           8           7           6           6           6           6
           6           6           1           1           1           1
           1           1           1
Nuclear charges                            R   N=          15
  8.00000000E+00  7.00000000E+00  6.00000000E+00  6.00000000E+00  6.00000000E+00
  6.00000000E+00  6.00000000E+00  6.00000000E+00  1.00000000E+00  1.00000000E+00
  1.00000000E+00  1.00000000E+00  1.00000000E+00  1.00000000E+00  1.00000000E+00
Current cartesian coordinates              R   N=          45
 -5.07961662E+00  8.11957216E-01 -3.68143011E-01 -3.44376652E+00 -1.17381841E+00
  3.01763757E-01 -8.63433330E-01 -4.99324692E-01  9.46746472E-02 -6.43227870E-02
  2.00724171E+00  8.58209993E-02  2.50997374E+00  2.54502503E+00  1.22880070E-02
  4.29138614E+00  6.18345388E-01 -5.68341460E-02  3.47507213E+00 -1.88498618E+00
 -5.31628054E-02  9.17620551E-01 -2.44882478E+00  2.47740894E-02 -6.07706078E+00
  1.08022555E+00  1.12655609E+00 -3.86084425E+00 -2.63563341E+00 -8.67971617E-01
 -1.45047663E+00  3.50742586E+00  1.07444683E-01  3.11858604E+00  4.50055825E+00
 -1.11140510E-03  6.28955338E+00  1.05432297E+00 -1.17687946E-01  4.83942985E+00
 -3.41103145E+00 -1.09837561E-01  2.86332305E-01 -4.39965550E+00  5.00408048E-02
Number of symbols in /Mol/                 I                0
Force Field                                I                0
Atom Types                                 C   N=          15
                                                            
                                                            
                                                            
Int Atom Types                             I   N=          15
           0           0           0           0           0           0
           0           0           0           0           0           0
           0           0           0
MM charges                                 R   N=          15
  0.00000000E+00  0.00000000E+00  0.00000000E+00  0.00000000E+00  0.00000000E+00
  0.00000000E+00  0.00000000E+00  0.00000000E+00  0.00000000E+00  0.00000000E+00
  0.00000000E+00  0.00000000E+00  0.00000000E+00  0.00000000E+00  0.00000000E+00
Integer atomic weights                     I   N=          15
          16          14          12          12          12          12
          12          12           1           1           1           1
           1           1           1
Real atomic weights                        R   N=          15
  1.59949146E+01  1.40030740E+01  1.20000000E+01  1.20000000E+01  1.20000000E+01
  1.20000000E+01  1.20000000E+01  1.20000000E+01  1.00782504E+00  1.00782504E+00
  1.00782504E+00  1.00782504E+00  1.00782504E+00  1.00782504E+00  1.00782504E+00
Atom fragment info                         I   N=          15
           0           0           0           0           0           0
           0           0           0           0           0           0
           0           0           0
Atom residue num                           I   N=          15
           0           0           0           0           0           0
           0           0           0           0           0           0
           0           0           0
Nuclear spins                              I   N=          15
           0           2           0           0           0           0
           0           0           1           1           1           1
           1           1           1
Nuclear ZEff                               R   N=          15
 -5.60000000E+00 -4.55000000E+00 -3.60000000E+00 -3.60000000E+00 -3.60000000E+00
 -3.60000000E+00 -3.60000000E+00 -3.60000000E+00 -1.00000000E+00 -1.00000000E+00
 -1.00000000E+00 -1.00000000E+00 -1.00000000E+00 -1.00000000E+00 -1.00000000E+00
Nuclear ZNuc                               R   N=          15
  8.00000000E+00  7.00000000E+00  6.00000000E+00  6.00000000E+00  6.00000000E+00
  6.00000000E+00  6.00000000E+00  6.00000000E+00  1.00000000E+00  1.00000000E+00
  1.00000000E+00  1.00000000E+00  1.00000000E+00  1.00000000E+00  1.00000000E+00
Nuclear QMom                               R   N=          15
  0.00000000E+00  2.04400000E+00  0.00000000E+00  0.00000000E+00  0.00000000E+00
  0.00000000E+00  0.00000000E+00  0.00000000E+00  0.00000000E+00  0.00000000E+00
  0.00000000E+00  0.00000000E+00  0.00000000E+00  0.00000000E+00  0.00000000E+00
Nuclear GFac                               R   N=          15
  0.00000000E+00  4.03761000E-01  0.00000000E+00  0.00000000E+00  0.00000000E+00
  0.00000000E+00  0.00000000E+00  0.00000000E+00  2.79284600E+00  2.79284600E+00
  2.79284600E+00  2.79284600E+00  2.79284600E+00  2.79284600E+00  2.79284600E+00
MicOpt                                     I   N=          15
          -1          -1          -1          -1          -1          -1
          -1          -1          -1          -1          -1          -1
          -1          -1          -1
Number of residues                         I                0
Number of secondary structures             I                0
Redundant internal dimensions              I   N=           4
          67          15          22          30
Redundant internal coordinate indices      I   N=         268
           1           2           0           0           1           9
           0           0           2           3           0           0
           2          10           0           0           3           4
           0           0           3           8           0           0
           4           5           0           0           4          11
           0           0           5           6           0           0
           5          12           0           0           6           7
           0           0           6          13           0           0
           7           8           0           0           7          14
           0           0           8          15           0           0
           2           1           9           0           1           2
           3           0           1           2          10           0
           3           2          10           0           2           3
           4           0           2           3           8           0
           4           3           8           0           3           4
           5           0           3           4          11           0
           5           4          11           0           4           5
           6           0           4           5          12           0
           6           5          12           0           5           6
           7           0           5           6          13           0
           7           6          13           0           6           7
           8           0           6           7          14           0
           8           7          14           0           3           8
           7           0           3           8          15           0
           7           8          15           0           9           1
           2           3           9           1           2          10
           1           2           3           4           1           2
           3           8          10           2           3           4
          10           2           3           8           2           3
           4           5           2           3           4          11
           8           3           4           5           8           3
           4          11           2           3           8           7
           2           3           8          15           4           3
           8           7           4           3           8          15
           3           4           5           6           3           4
           5          12          11           4           5           6
          11           4           5          12           4           5
           6           7           4           5           6          13
          12           5           6           7          12           5
           6          13           5           6           7           8
           5           6           7          14          13           6
           7           8          13           6           7          14
           6           7           8           3           6           7
           8          15          14           7           8           3
          14           7           8          15
Redundant internal coordinates             R   N=          67
  2.65858712E+00  1.81686217E+00  2.67506019E+00  1.91810786E+00  2.63088031E+00
  2.64151275E+00  2.63089730E+00  2.04265576E+00  2.62493856E+00  2.04809635E+00
  2.63306874E+00  2.04608210E+00  2.62002800E+00  2.04780326E+00  2.05058620E+00
  1.81397523E+00  1.96674176E+00  1.85644947E+00  1.93338123E+00  2.13349964E+00
  2.05594644E+00  2.09238938E+00  2.08524374E+00  2.08698464E+00  2.11084216E+00
  2.11151164E+00  2.07844309E+00  2.09321566E+00  2.07989556E+00  2.10266151E+00
  2.10062501E+00  2.10279923E+00  2.09658972E+00  2.08379601E+00  2.09452605E+00
  2.08773445E+00  2.10087981E+00 -2.11436845E+00  2.04713971E+00  3.56395654E-01
 -2.84112543E+00  2.43381893E+00 -7.63702151E-01  3.08227648E+00 -7.54418093E-02
 -2.25260717E-03  3.12321441E+00 -3.08701340E+00  4.44234431E-02  2.04053707E-05
  3.13145724E+00  2.00249661E-03  3.13772024E+00 -3.12323848E+00  1.24792682E-02
  4.95258261E-04  3.13936814E+00 -3.13517316E+00  3.69972474E-03 -2.76226162E-03
  3.13972020E+00  3.14154691E+00  8.44070500E-04  2.51364068E-03 -3.12884584E+00
 -3.13996234E+00  1.18634880E-02
ZRed-IntVec                                I   N=          67
           0           0           0           0           0           0
           0           0           0           0           0           0
           0           0           0           0           0           0
           0           0           0           0           0           0
           0           0           0           0           0           0
           0           0           0           0           0           0
           0           0           0           0           0           0
           0           0           0           0           0           0
           0           0           0           0           0           0
           0           0           0           0           0           0
           0           0           0           0           0           0
           0
ZRed-FPVec                                 R   N=          67
  0.00000000E+00  0.00000000E+00  0.00000000E+00  0.00000000E+00  0.00000000E+00
  0.00000000E+00  0.00000000E+00  0.00000000E+00  0.00000000E+00  0.00000000E+00
  0.00000000E+00  0.00000000E+00  0.00000000E+00  0.00000000E+00  0.00000000E+00
  0.00000000E+00  0.00000000E+00  0.00000000E+00  0.00000000E+00  0.00000000E+00
  0.00000000E+00  0.00000000E+00  0.00000000E+00  0.00000000E+00  0.00000000E+00
  0.00000000E+00  0.00000000E+00  0.00000000E+00  0.00000000E+00  0.00000000E+00
  0.00000000E+00  0.00000000E+00  0.00000000E+00  0.00000000E+00  0.00000000E+00
  0.00000000E+00  0.00000000E+00  0.00000000E+00  0.00000000E+00  0.00000000E+00
  0.00000000E+00  0.00000000E+00  0.00000000E+00  0.00000000E+00  0.00000000E+00
  0.00000000E+00  0.00000000E+00  0.00000000E+00  0.00000000E+00  0.00000000E+00
  0.00000000E+00  0.00000000E+00  0.00000000E+00  0.00000000E+00  0.00000000E+00
  0.00000000E+00  0.00000000E+00  0.00000000E+00  0.00000000E+00  0.00000000E+00
  0.00000000E+00  0.00000000E+00  0.00000000E+00  0.00000000E+00  0.00000000E+00
  0.00000000E+00  0.00000000E+00
ZRed-Constraint1                           R   N=          67
  2.65858712E+00  1.81686217E+00  2.67506019E+00  1.91810786E+00  2.63088031E+00
  2.64151275E+00  2.63089730E+00  2.04265576E+00  2.62493856E+00  2.04809635E+00
  2.63306874E+00  2.04608210E+00  2.62002800E+00  2.04780326E+00  2.05058620E+00
  1.81397523E+00  1.96674176E+00  1.85644947E+00  1.93338123E+00  2.13349964E+00
  2.05594644E+00  2.09238938E+00  2.08524374E+00  2.08698464E+00  2.11084216E+00
  2.11151164E+00  2.07844309E+00  2.09321566E+00  2.07989556E+00  2.10266151E+00
  2.10062501E+00  2.10279923E+00  2.09658972E+00  2.08379601E+00  2.09452605E+00
  2.08773445E+00  2.10087981E+00 -2.11436845E+00  2.04713971E+00  3.56395654E-01
 -2.84112543E+00  2.43381893E+00 -7.63702151E-01  3.08227648E+00 -7.54418093E-02
 -2.25260717E-03  3.12321441E+00 -3.08701340E+00  4.44234431E-02  2.04053870E-05
  3.13145724E+00  2.00249661E-03  3.13772024E+00 -3.12323848E+00  1.24792682E-02
  4.95258261E-04  3.13936814E+00 -3.13517316E+00  3.69972474E-03 -2.76226162E-03
  3.13972020E+00  3.14154691E+00  8.44070501E-04  2.51364068E-03 -3.12884584E+00
 -3.13996234E+00  1.18634880E-02
ZRed-Constraint2                           R   N=          67
  2.46407569E+00  1.81409591E+00  2.56389234E+00  1.90854948E+00  2.67491262E+00
  2.66556441E+00  2.65952045E+00  2.05987562E+00  2.65798651E+00  2.05988148E+00
  2.65750020E+00  2.05970850E+00  2.65751877E+00  2.05979985E+00  2.05969899E+00
  1.91059318E+00  2.15804398E+00  2.02556356E+00  2.09957776E+00  2.15456818E+00
  2.05286697E+00  2.07575000E+00  2.10321049E+00  2.09492515E+00  2.08504966E+00
  2.09252027E+00  2.09585072E+00  2.09481431E+00  2.09549046E+00  2.09396011E+00
  2.09373473E+00  2.09300132E+00  2.09508503E+00  2.09509896E+00  2.10577014E+00
  2.09138006E+00  2.08603510E+00 -1.87876254E+00  1.26284318E+00 -1.14770321E-01
  3.02622964E+00  3.02680874E+00 -1.15376609E-01  3.11632598E+00 -2.51821586E-02
 -2.46666342E-02  3.11701053E+00 -3.11358120E+00  2.80508060E-02  2.74463957E-02
 -3.11410691E+00 -3.23539313E-03  3.13837201E+00  3.13827322E+00 -3.30468334E-03
  2.87988853E-02 -3.11271579E+00 -3.11280851E+00  2.88621217E-02 -2.60876950E-02
  3.11541743E+00  3.11542699E+00 -2.62531909E-02 -2.29822224E-03  3.13925520E+00
  3.13938196E+00 -2.24991970E-03
SymInf integers                            I   N=          26
           1           1           1           1           1           0
           0           0           0           0           0           0
           0           0           0           0           0           0
           0           0           0           0           0           0
           0           0
RotTr to input orientation                 R   N=          12
 -6.07092421E-01 -7.93082166E-01  4.95930546E-02  6.59868098E-01 -5.37923791E-01
 -5.24606603E-01  4.42733425E-01 -2.85759818E-01  8.49899077E-01 -9.15246235E-01
 -3.26915860E+00  4.05168324E-01
Number of contracted shells                I               83
Number of primitive shells                 I              153
Pure/Cartesian d shells                    I                0
Pure/Cartesian f shells                    I                0
Highest angular momentum                   I                2
Largest degree of contraction              I                6
Shell types                                I   N=          83
           0          -1          -1          -1          -1          -2
           0          -1          -1          -1          -1          -2
           0          -1          -1          -1          -1          -2
           0          -1          -1          -1          -1          -2
           0          -1          -1          -1          -1          -2
           0          -1          -1          -1          -1          -2
           0          -1          -1          -1          -1          -2
           0          -1          -1          -1          -1          -2
           0           0           0           0           1           0
           0           0           0           1           0           0
           0           0           1           0           0           0
           0           1           0           0           0           0
           1           0           0           0           0           1
           0           0           0           0           1
Number of primitives per shell             I   N=          83
           6           3           1           1           1           1
           6           3           1           1           1           1
           6           3           1           1           1           1
           6           3           1           1           1           1
           6           3           1           1           1           1
           6           3           1           1           1           1
           6           3           1           1           1           1
           6           3           1           1           1           1
           3           1           1           1           1           3
           1           1           1           1           3           1
           1           1           1           3           1           1
           1           1           3           1           1           1
           1           3           1           1           1           1
           3           1           1           1           1
Shell to atom map                          I   N=          83
           1           1           1           1           1           1
           2           2           2           2           2           2
           3           3           3           3           3           3
           4           4           4           4           4           4
           5           5           5           5           5           5
           6           6           6           6           6           6
           7           7           7           7           7           7
           8           8           8           8           8           8
           9           9           9           9           9          10
          10          10          10          10          11          11
          11          11          11          12          12          12
          12          12          13          13          13          13
          13          14          14          14          14          14
          15          15          15          15          15
Primitive exponents                        R   N=         153
  8.58850000E+03  1.29723000E+03  2.99296000E+02  8.73771000E+01  2.56789000E+01
  3.74004000E+00  4.21175000E+01  9.62837000E+00  2.85332000E+00  9.05661000E-01
  2.55611000E-01  8.45000000E-02  1.29200000E+00  6.29348000E+03  9.49044000E+02
  2.18776000E+02  6.36916000E+01  1.88282000E+01  2.72023000E+00  3.06331000E+01
  7.02614000E+00  2.11205000E+00  6.84009000E-01  2.00878000E-01  6.39000000E-02
  9.13000000E-01  4.56324000E+03  6.82024000E+02  1.54973000E+02  4.44553000E+01
  1.30290000E+01  1.82773000E+00  2.09642000E+01  4.80331000E+00  1.45933000E+00
  4.83456000E-01  1.45585000E-01  4.38000000E-02  6.26000000E-01  4.56324000E+03
  6.82024000E+02  1.54973000E+02  4.44553000E+01  1.30290000E+01  1.82773000E+00
  2.09642000E+01  4.80331000E+00  1.45933000E+00  4.83456000E-01  1.45585000E-01
  4.38000000E-02  6.26000000E-01  4.56324000E+03  6.82024000E+02  1.54973000E+02
  4.44553000E+01  1.30290000E+01  1.82773000E+00  2.09642000E+01  4.80331000E+00
  1.45933000E+00  4.83456000E-01  1.45585000E-01  4.38000000E-02  6.26000000E-01
  4.56324000E+03  6.82024000E+02  1.54973000E+02  4.44553000E+01  1.30290000E+01
  1.82773000E+00  2.09642000E+01  4.80331000E+00  1.45933000E+00  4.83456000E-01
  1.45585000E-01  4.38000000E-02  6.26000000E-01  4.56324000E+03  6.82024000E+02
  1.54973000E+02  4.44553000E+01  1.30290000E+01  1.82773000E+00  2.09642000E+01
  4.80331000E+00  1.45933000E+00  4.83456000E-01  1.45585000E-01  4.38000000E-02
  6.26000000E-01  4.56324000E+03  6.82024000E+02  1.54973000E+02  4.44553000E+01
  1.30290000E+01  1.82773000E+00  2.09642000E+01  4.80331000E+00  1.45933000E+00
  4.83456000E-01  1.45585000E-01  4.38000000E-02  6.26000000E-01  3.38650000E+01
  5.09479000E+00  1.15879000E+00  3.25840000E-01  1.02741000E-01  3.60000000E-02
  7.50000000E-01  3.38650000E+01  5.09479000E+00  1.15879000E+00  3.25840000E-01
  1.02741000E-01  3.60000000E-02  7.50000000E-01  3.38650000E+01  5.09479000E+00
  1.15879000E+00  3.25840000E-01  1.02741000E-01  3.60000000E-02  7.50000000E-01
  3.38650000E+01  5.09479000E+00  1.15879000E+00  3.25840000E-01  1.02741000E-01
  3.60000000E-02  7.50000000E-01  3.38650000E+01  5.09479000E+00  1.15879000E+00
  3.25840000E-01  1.02741000E-01  3.60000000E-02  7.50000000E-01  3.38650000E+01
  5.09479000E+00  1.15879000E+00  3.25840000E-01  1.02741000E-01  3.60000000E-02
  7.50000000E-01  3.38650000E+01  5.09479000E+00  1.15879000E+00  3.25840000E-01
  1.02741000E-01  3.60000000E-02  7.50000000E-01
Contraction coefficients                   R   N=         153
  1.89515008E-03  1.43859006E-02  7.07320031E-02  2.40001011E-01  5.94797026E-01
  2.80802012E-01  1.13889012E-01  9.20811101E-01 -3.27447036E-03  1.00000000E+00
  1.00000000E+00  1.00000000E+00  1.00000000E+00  1.96978815E-03  1.49612859E-02
  7.35005308E-02  2.48936766E-01  6.02459433E-01  2.56201759E-01  1.11906080E-01
  9.21666655E-01 -2.56919183E-03  1.00000000E+00  1.00000000E+00  1.00000000E+00
  1.00000000E+00  1.96665025E-03  1.52306019E-02  7.61269097E-02  2.60801033E-01
  6.16462078E-01  2.21006028E-01  1.14660081E-01  9.19999648E-01 -3.03068213E-03
  1.00000000E+00  1.00000000E+00  1.00000000E+00  1.00000000E+00  1.96665025E-03
  1.52306019E-02  7.61269097E-02  2.60801033E-01  6.16462078E-01  2.21006028E-01
  1.14660081E-01  9.19999648E-01 -3.03068213E-03  1.00000000E+00  1.00000000E+00
  1.00000000E+00  1.00000000E+00  1.96665025E-03  1.52306019E-02  7.61269097E-02
  2.60801033E-01  6.16462078E-01  2.21006028E-01  1.14660081E-01  9.19999648E-01
 -3.03068213E-03  1.00000000E+00  1.00000000E+00  1.00000000E+00  1.00000000E+00
  1.96665025E-03  1.52306019E-02  7.61269097E-02  2.60801033E-01  6.16462078E-01
  2.21006028E-01  1.14660081E-01  9.19999648E-01 -3.03068213E-03  1.00000000E+00
  1.00000000E+00  1.00000000E+00  1.00000000E+00  1.96665025E-03  1.52306019E-02
  7.61269097E-02  2.60801033E-01  6.16462078E-01  2.21006028E-01  1.14660081E-01
  9.19999648E-01 -3.03068213E-03  1.00000000E+00  1.00000000E+00  1.00000000E+00
  1.00000000E+00  1.96665025E-03  1.52306019E-02  7.61269097E-02  2.60801033E-01
  6.16462078E-01  2.21006028E-01  1.14660081E-01  9.19999648E-01 -3.03068213E-03
  1.00000000E+00  1.00000000E+00  1.00000000E+00  1.00000000E+00  2.54938145E-02
  1.90373109E-01  8.52161486E-01  1.00000000E+00  1.00000000E+00  1.00000000E+00
  1.00000000E+00  2.54938145E-02  1.90373109E-01  8.52161486E-01  1.00000000E+00
  1.00000000E+00  1.00000000E+00  1.00000000E+00  2.54938145E-02  1.90373109E-01
  8.52161486E-01  1.00000000E+00  1.00000000E+00  1.00000000E+00  1.00000000E+00
  2.54938145E-02  1.90373109E-01  8.52161486E-01  1.00000000E+00  1.00000000E+00
  1.00000000E+00  1.00000000E+00  2.54938145E-02  1.90373109E-01  8.52161486E-01
  1.00000000E+00  1.00000000E+00  1.00000000E+00  1.00000000E+00  2.54938145E-02
  1.90373109E-01  8.52161486E-01  1.00000000E+00  1.00000000E+00  1.00000000E+00
  1.00000000E+00  2.54938145E-02  1.90373109E-01  8.52161486E-01  1.00000000E+00
  1.00000000E+00  1.00000000E+00  1.00000000E+00
P(S=P) Contraction coefficients            R   N=         153
  0.00000000E+00  0.00000000E+00  0.00000000E+00  0.00000000E+00  0.00000000E+00
  0.00000000E+00  3.65113974E-02  2.37152983E-01  8.19701941E-01  1.00000000E+00
  1.00000000E+00  1.00000000E+00  0.00000000E+00  0.00000000E+00  0.00000000E+00
  0.00000000E+00  0.00000000E+00  0.00000000E+00  0.00000000E+00  3.83119186E-02
  2.37403116E-01  8.17592398E-01  1.00000000E+00  1.00000000E+00  1.00000000E+00
  0.00000000E+00  0.00000000E+00  0.00000000E+00  0.00000000E+00  0.00000000E+00
  0.00000000E+00  0.00000000E+00  4.02486927E-02  2.37593957E-01  8.15853851E-01
  1.00000000E+00  1.00000000E+00  1.00000000E+00  0.00000000E+00  0.00000000E+00
  0.00000000E+00  0.00000000E+00  0.00000000E+00  0.00000000E+00  0.00000000E+00
  4.02486927E-02  2.37593957E-01  8.15853851E-01  1.00000000E+00  1.00000000E+00
  1.00000000E+00  0.00000000E+00  0.00000000E+00  0.00000000E+00  0.00000000E+00
  0.00000000E+00  0.00000000E+00  0.00000000E+00  4.02486927E-02  2.37593957E-01
  8.15853851E-01  1.00000000E+00  1.00000000E+00  1.00000000E+00  0.00000000E+00
  0.00000000E+00  0.00000000E+00  0.00000000E+00  0.00000000E+00  0.00000000E+00
  0.00000000E+00  4.02486927E-02  2.37593957E-01  8.15853851E-01  1.00000000E+00
  1.00000000E+00  1.00000000E+00  0.00000000E+00  0.00000000E+00  0.00000000E+00
  0.00000000E+00  0.00000000E+00  0.00000000E+00  0.00000000E+00  4.02486927E-02
  2.37593957E-01  8.15853851E-01  1.00000000E+00  1.00000000E+00  1.00000000E+00
  0.00000000E+00  0.00000000E+00  0.00000000E+00  0.00000000E+00  0.00000000E+00
  0.00000000E+00  0.00000000E+00  4.02486927E-02  2.37593957E-01  8.15853851E-01
  1.00000000E+00  1.00000000E+00  1.00000000E+00  0.00000000E+00  0.00000000E+00
  0.00000000E+00  0.00000000E+00  0.00000000E+00  0.00000000E+00  0.00000000E+00
  0.00000000E+00  0.00000000E+00  0.00000000E+00  0.00000000E+00  0.00000000E+00
  0.00000000E+00  0.00000000E+00  0.00000000E+00  0.00000000E+00  0.00000000E+00
  0.00000000E+00  0.00000000E+00  0.00000000E+00  0.00000000E+00  0.00000000E+00
  0.00000000E+00  0.00000000E+00  0.00000000E+00  0.00000000E+00  0.00000000E+00
  0.00000000E+00  0.00000000E+00  0.00000000E+00  0.00000000E+00  0.00000000E+00
  0.00000000E+00  0.00000000E+00  0.00000000E+00  0.00000000E+00  0.00000000E+00
  0.00000000E+00  0.00000000E+00  0.00000000E+00  0.00000000E+00  0.00000000E+00
  0.00000000E+00  0.00000000E+00  0.00000000E+00  0.00000000E+00  0.00000000E+00
  0.00000000E+00  0.00000000E+00  0.00000000E+00
Coordinates of each shell                  R   N=         249
 -5.07961662E+00  8.11957216E-01 -3.68143011E-01 -5.07961662E+00  8.11957216E-01
 -3.68143011E-01 -5.07961662E+00  8.11957216E-01 -3.68143011E-01 -5.07961662E+00
  8.11957216E-01 -3.68143011E-01 -5.07961662E+00  8.11957216E-01 -3.68143011E-01
 -5.07961662E+00  8.11957216E-01 -3.68143011E-01 -3.44376652E+00 -1.17381841E+00
  3.01763757E-01 -3.44376652E+00 -1.17381841E+00  3.01763757E-01 -3.44376652E+00
 -1.17381841E+00  3.01763757E-01 -3.44376652E+00 -1.17381841E+00  3.01763757E-01
 -3.44376652E+00 -1.17381841E+00  3.01763757E-01 -3.44376652E+00 -1.17381841E+00
  3.01763757E-01 -8.63433330E-01 -4.99324692E-01  9.46746472E-02 -8.63433330E-01
 -4.99324692E-01  9.46746472E-02 -8.63433330E-01 -4.99324692E-01  9.46746472E-02
 -8.63433330E-01 -4.99324692E-01  9.46746472E-02 -8.63433330E-01 -4.99324692E-01
  9.46746472E-02 -8.63433330E-01 -4.99324692E-01  9.46746472E-02 -6.43227870E-02
  2.00724171E+00  8.58209993E-02 -6.43227870E-02  2.00724171E+00  8.58209993E-02
 -6.43227870E-02  2.00724171E+00  8.58209993E-02 -6.43227870E-02  2.00724171E+00
  8.58209993E-02 -6.43227870E-02  2.00724171E+00  8.58209993E-02 -6.43227870E-02
  2.00724171E+00  8.58209993E-02  2.50997374E+00  2.54502503E+00  1.22880070E-02
  2.50997374E+00  2.54502503E+00  1.22880070E-02  2.50997374E+00  2.54502503E+00
  1.22880070E-02  2.50997374E+00  2.54502503E+00  1.22880070E-02  2.50997374E+00
  2.54502503E+00  1.22880070E-02  2.50997374E+00  2.54502503E+00  1.22880070E-02
  4.29138614E+00  6.18345388E-01 -5.68341460E-02  4.29138614E+00  6.18345388E-01
 -5.68341460E-02  4.29138614E+00  6.18345388E-01 -5.68341460E-02  4.29138614E+00
  6.18345388E-01 -5.68341460E-02  4.29138614E+00  6.18345388E-01 -5.68341460E-02
  4.29138614E+00  6.18345388E-01 -5.68341460E-02  3.47507213E+00 -1.88498618E+00
 -5.31628054E-02  3.47507213E+00 -1.88498618E+00 -5.31628054E-02  3.47507213E+00
 -1.88498618E+00 -5.31628054E-02  3.47507213E+00 -1.88498618E+00 -5.31628054E-02
  3.47507213E+00 -1.88498618E+00 -5.31628054E-02  3.47507213E+00 -1.88498618E+00
 -5.31628054E-02  9.17620551E-01 -2.44882478E+00  2.47740894E-02  9.17620551E-01
 -2.44882478E+00  2.47740894E-02  9.17620551E-01 -2.44882478E+00  2.47740894E-02
  9.17620551E-01 -2.44882478E+00  2.47740894E-02  9.17620551E-01 -2.44882478E+00
  2.47740894E-02  9.17620551E-01 -2.44882478E+00  2.47740894E-02 -6.07706078E+00
  1.08022555E+00  1.12655609E+00 -6.07706078E+00  1.08022555E+00  1.12655609E+00
 -6.07706078E+00  1.08022555E+00  1.12655609E+00 -6.07706078E+00  1.08022555E+00
  1.12655609E+00 -6.07706078E+00  1.08022555E+00  1.12655609E+00 -3.86084425E+00
 -2.63563341E+00 -8.67971617E-01 -3.86084425E+00 -2.63563341E+00 -8.67971617E-01
 -3.86084425E+00 -2.63563341E+00 -8.67971617E-01 -3.86084425E+00 -2.63563341E+00
 -8.67971617E-01 -3.86084425E+00 -2.63563341E+00 -8.67971617E-01 -1.45047663E+00