 Entering Gaussian System, Link 0=/apps/cent7/gaussian/g16-A.03/g16-haswell/g16/g16
 Initial command:
 /apps/cent7/gaussian/g16-A.03/g16-haswell/g16/l1.exe "/scratch/brown/finej/gaussian/Gau-45843.inp" -scrdir="/scratch/brown/finej/gaussian/"
 Entering Link 1 = /apps/cent7/gaussian/g16-A.03/g16-haswell/g16/l1.exe PID=     45845.
  
 Copyright (c) 1988,1990,1992,1993,1995,1998,2003,2009,2016,
            Gaussian, Inc.  All Rights Reserved.
  
 This is part of the Gaussian(R) 16 program.  It is based on
 the Gaussian(R) 09 system (copyright 2009, Gaussian, Inc.),
 the Gaussian(R) 03 system (copyright 2003, Gaussian, Inc.),
 the Gaussian(R) 98 system (copyright 1998, Gaussian, Inc.),
 the Gaussian(R) 94 system (copyright 1995, Gaussian, Inc.),
 the Gaussian 92(TM) system (copyright 1992, Gaussian, Inc.),
 the Gaussian 90(TM) system (copyright 1990, Gaussian, Inc.),
 the Gaussian 88(TM) system (copyright 1988, Gaussian, Inc.),
 the Gaussian 86(TM) system (copyright 1986, Carnegie Mellon
 University), and the Gaussian 82(TM) system (copyright 1983,
 Carnegie Mellon University). Gaussian is a federally registered
 trademark of Gaussian, Inc.
  
 This software contains proprietary and confidential information,
 including trade secrets, belonging to Gaussian, Inc.
  
 This software is provided under written license and may be
 used, copied, transmitted, or stored only in accord with that
 written license.
  
 The following legend is applicable only to US Government
 contracts under FAR:
  
                    RESTRICTED RIGHTS LEGEND
  
 Use, reproduction and disclosure by the US Government is
 subject to restrictions as set forth in subparagraphs (a)
 and (c) of the Commercial Computer Software - Restricted
 Rights clause in FAR 52.227-19.
  
 Gaussian, Inc.
 340 Quinnipiac St., Bldg. 40, Wallingford CT 06492
  
  
 ---------------------------------------------------------------
 Warning -- This program may not be used in any manner that
 competes with the business of Gaussian, Inc. or will provide
 assistance to any competitor of Gaussian, Inc.  The licensee
 of this program is prohibited from giving any competitor of
 Gaussian, Inc. access to this program.  By using this program,
 the user acknowledges that Gaussian, Inc. is engaged in the
 business of creating and licensing software in the field of
 computational chemistry and represents and warrants to the
 licensee that it is not a competitor of Gaussian, Inc. and that
 it will not use this program in any manner prohibited above.
 ---------------------------------------------------------------
  

 Cite this work as:
 Gaussian 16, Revision A.03,
 M. J. Frisch, G. W. Trucks, H. B. Schlegel, G. E. Scuseria, 
 M. A. Robb, J. R. Cheeseman, G. Scalmani, V. Barone, 
 G. A. Petersson, H. Nakatsuji, X. Li, M. Caricato, A. V. Marenich, 
 J. Bloino, B. G. Janesko, R. Gomperts, B. Mennucci, H. P. Hratchian, 
 J. V. Ortiz, A. F. Izmaylov, J. L. Sonnenberg, D. Williams-Young, 
 F. Ding, F. Lipparini, F. Egidi, J. Goings, B. Peng, A. Petrone, 
 T. Henderson, D. Ranasinghe, V. G. Zakrzewski, J. Gao, N. Rega, 
 G. Zheng, W. Liang, M. Hada, M. Ehara, K. Toyota, R. Fukuda, 
 J. Hasegawa, M. Ishida, T. Nakajima, Y. Honda, O. Kitao, H. Nakai, 
 T. Vreven, K. Throssell, J. A. Montgomery, Jr., J. E. Peralta, 
 F. Ogliaro, M. J. Bearpark, J. J. Heyd, E. N. Brothers, K. N. Kudin, 
 V. N. Staroverov, T. A. Keith, R. Kobayashi, J. Normand, 
 K. Raghavachari, A. P. Rendell, J. C. Burant, S. S. Iyengar, 
 J. Tomasi, M. Cossi, J. M. Millam, M. Klene, C. Adamo, R. Cammi, 
 J. W. Ochterski, R. L. Martin, K. Morokuma, O. Farkas, 
 J. B. Foresman, and D. J. Fox, Gaussian, Inc., Wallingford CT, 2016.
 
 ******************************************
 Gaussian 16:  ES64L-G16RevA.03 25-Dec-2016
                13-Oct-2019 
 ******************************************
 %chk=10.chk
 %nprocshared=24
 Will use up to   24 processors via shared memory.
 %mem=20GB
 -------------------------------------------------------------------
 #P opt freq m062x/6-311++g(d,p) geom=connectivity temperature=0.001
 -------------------------------------------------------------------
 1/18=20,19=15,26=3,38=1,57=2,112=-1000/1,3;
 2/9=110,12=2,17=6,18=5,40=1/2;
 3/5=4,6=6,7=1111,11=2,25=1,30=1,71=1,74=-55/1,2,3;
 4//1;
 5/5=2,38=5/2;
 6/7=2,8=2,9=2,10=2,28=1/1;
 7//1,2,3,16;
 1/18=20,19=15,26=3/3(2);
 2/9=110/2;
 99//99;
 2/9=110/2;
 3/5=4,6=6,7=1111,11=2,25=1,30=1,71=1,74=-55/1,2,3;
 4/5=5,16=3,69=1/1;
 5/5=2,38=5/2;
 7//1,2,3,16;
 1/18=20,19=15,26=3/3(-5);
 2/9=110/2;
 6/7=2,8=2,9=2,10=2,19=2,28=1/1;
 99/9=1/99;
 Leave Link    1 at Sun Oct 13 19:30:20 2019, MaxMem=  2684354560 cpu:               1.7 elap:               0.1
 (Enter /apps/cent7/gaussian/g16-A.03/g16-haswell/g16/l101.exe)
 -------------------
 Title Card Required
 -------------------
 Symbolic Z-matrix:
 Charge =  0 Multiplicity = 1
 O                     1.4199    0.2754   -0.1395 
 N                     0.2167    0.0158    0.2908 
 C                    -0.3604   -1.2098    0.2157 
 C                     0.2259   -2.3083   -0.4575 
 C                    -0.4136   -3.5619   -0.471 
 C                    -1.6429   -3.7289    0.1918 
 C                    -2.2492   -2.6366    0.8375 
 C                    -1.6098   -1.3841    0.8468 
 H                     2.0071    0.4021    0.6093 
 H                    -0.2863    0.7918    0.6968 
 H                     1.1799   -2.1875   -0.9708 
 H                     0.0426   -4.4024   -0.9941 
 H                    -2.1261   -4.7058    0.2051 
 H                    -3.2136   -2.7606    1.3301 
 H                    -2.0866   -0.5414    1.3473 
 
 ITRead=  0  0  0  0  0  0  0  0  0  0  0  0  0  0  0
 MicOpt= -1 -1 -1 -1 -1 -1 -1 -1 -1 -1 -1 -1 -1 -1 -1
 NAtoms=     15 NQM=       15 NQMF=       0 NMMI=      0 NMMIF=      0
                NMic=       0 NMicF=      0.
                    Isotopes and Nuclear Properties:
 (Nuclear quadrupole moments (NQMom) in fm**2, nuclear magnetic moments (NMagM)
  in nuclear magnetons)

  Atom         1           2           3           4           5           6           7           8           9          10
 IAtWgt=          16          14          12          12          12          12          12          12           1           1
 AtmWgt=  15.9949146  14.0030740  12.0000000  12.0000000  12.0000000  12.0000000  12.0000000  12.0000000   1.0078250   1.0078250
 NucSpn=           0           2           0           0           0           0           0           0           1           1
 AtZEff=  -0.0000000  -0.0000000  -0.0000000  -0.0000000  -0.0000000  -0.0000000  -0.0000000  -0.0000000  -0.0000000  -0.0000000
 NQMom=    0.0000000   2.0440000   0.0000000   0.0000000   0.0000000   0.0000000   0.0000000   0.0000000   0.0000000   0.0000000
 NMagM=    0.0000000   0.4037610   0.0000000   0.0000000   0.0000000   0.0000000   0.0000000   0.0000000   2.7928460   2.7928460
 AtZNuc=   8.0000000   7.0000000   6.0000000   6.0000000   6.0000000   6.0000000   6.0000000   6.0000000   1.0000000   1.0000000

  Atom        11          12          13          14          15
 IAtWgt=           1           1           1           1           1
 AtmWgt=   1.0078250   1.0078250   1.0078250   1.0078250   1.0078250
 NucSpn=           1           1           1           1           1
 AtZEff=  -0.0000000  -0.0000000  -0.0000000  -0.0000000  -0.0000000
 NQMom=    0.0000000   0.0000000   0.0000000   0.0000000   0.0000000
 NMagM=    2.7928460   2.7928460   2.7928460   2.7928460   2.7928460
 AtZNuc=   1.0000000   1.0000000   1.0000000   1.0000000   1.0000000
 Leave Link  101 at Sun Oct 13 19:30:20 2019, MaxMem=  2684354560 cpu:              12.0 elap:               0.5
 (Enter /apps/cent7/gaussian/g16-A.03/g16-haswell/g16/l103.exe)

 GradGradGradGradGradGradGradGradGradGradGradGradGradGradGradGradGradGrad
 Berny optimization.
 Initialization pass.
                           ----------------------------
                           !    Initial Parameters    !
                           ! (Angstroms and Degrees)  !
 --------------------------                            --------------------------
 ! Name  Definition              Value          Derivative Info.                !
 --------------------------------------------------------------------------------
 ! R1    R(1,2)                  1.3039         estimate D2E/DX2                !
 ! R2    R(1,9)                  0.96           estimate D2E/DX2                !
 ! R3    R(2,3)                  1.3568         estimate D2E/DX2                !
 ! R4    R(2,10)                 1.01           estimate D2E/DX2                !
 ! R5    R(3,4)                  1.4155         estimate D2E/DX2                !
 ! R6    R(3,8)                  1.4106         estimate D2E/DX2                !
 ! R7    R(4,5)                  1.4074         estimate D2E/DX2                !
 ! R8    R(4,11)                 1.09           estimate D2E/DX2                !
 ! R9    R(5,6)                  1.4065         estimate D2E/DX2                !
 ! R10   R(5,12)                 1.09           estimate D2E/DX2                !
 ! R11   R(6,7)                  1.4063         estimate D2E/DX2                !
 ! R12   R(6,13)                 1.09           estimate D2E/DX2                !
 ! R13   R(7,8)                  1.4063         estimate D2E/DX2                !
 ! R14   R(7,14)                 1.09           estimate D2E/DX2                !
 ! R15   R(8,15)                 1.0899         estimate D2E/DX2                !
 ! A1    A(2,1,9)              109.4689         estimate D2E/DX2                !
 ! A2    A(1,2,3)              123.6468         estimate D2E/DX2                !
 ! A3    A(1,2,10)             116.0562         estimate D2E/DX2                !
 ! A4    A(3,2,10)             120.2969         estimate D2E/DX2                !
 ! A5    A(2,3,4)              123.4477         estimate D2E/DX2                !
 ! A6    A(2,3,8)              117.6206         estimate D2E/DX2                !
 ! A7    A(4,3,8)              118.9317         estimate D2E/DX2                !
 ! A8    A(3,4,5)              120.5051         estimate D2E/DX2                !
 ! A9    A(3,4,11)             120.0304         estimate D2E/DX2                !
 ! A10   A(5,4,11)             119.4645         estimate D2E/DX2                !
 ! A11   A(4,5,6)              119.8926         estimate D2E/DX2                !
 ! A12   A(4,5,12)             120.0834         estimate D2E/DX2                !
 ! A13   A(6,5,12)             120.024          estimate D2E/DX2                !
 ! A14   A(5,6,7)              120.0628         estimate D2E/DX2                !
 ! A15   A(5,6,13)             119.9751         estimate D2E/DX2                !
 ! A16   A(7,6,13)             119.9622         estimate D2E/DX2                !
 ! A17   A(6,7,8)              119.9201         estimate D2E/DX2                !
 ! A18   A(6,7,14)             120.0395         estimate D2E/DX2                !
 ! A19   A(8,7,14)             120.0403         estimate D2E/DX2                !
 ! A20   A(3,8,7)              120.6517         estimate D2E/DX2                !
 ! A21   A(3,8,15)             119.8273         estimate D2E/DX2                !
 ! A22   A(7,8,15)             119.521          estimate D2E/DX2                !
 ! D1    D(9,1,2,3)           -107.6452         estimate D2E/DX2                !
 ! D2    D(9,1,2,10)            72.3556         estimate D2E/DX2                !
 ! D3    D(1,2,3,4)             -6.5759         estimate D2E/DX2                !
 ! D4    D(1,2,3,8)            173.3902         estimate D2E/DX2                !
 ! D5    D(10,2,3,4)           173.4234         estimate D2E/DX2                !
 ! D6    D(10,2,3,8)            -6.6106         estimate D2E/DX2                !
 ! D7    D(2,3,4,5)            178.5523         estimate D2E/DX2                !
 ! D8    D(2,3,4,11)            -1.4428         estimate D2E/DX2                !
 ! D9    D(8,3,4,5)             -1.4133         estimate D2E/DX2                !
 ! D10   D(8,3,4,11)           178.5915         estimate D2E/DX2                !
 ! D11   D(2,3,8,7)           -178.3951         estimate D2E/DX2                !
 ! D12   D(2,3,8,15)             1.6072         estimate D2E/DX2                !
 ! D13   D(4,3,8,7)              1.5726         estimate D2E/DX2                !
 ! D14   D(4,3,8,15)          -178.4252         estimate D2E/DX2                !
 ! D15   D(3,4,5,6)             -0.1854         estimate D2E/DX2                !
 ! D16   D(3,4,5,12)           179.8155         estimate D2E/DX2                !
 ! D17   D(11,4,5,6)           179.8098         estimate D2E/DX2                !
 ! D18   D(11,4,5,12)           -0.1893         estimate D2E/DX2                !
 ! D19   D(4,5,6,7)              1.6501         estimate D2E/DX2                !
 ! D20   D(4,5,6,13)          -178.3455         estimate D2E/DX2                !
 ! D21   D(12,5,6,7)          -178.3508         estimate D2E/DX2                !
 ! D22   D(12,5,6,13)            1.6537         estimate D2E/DX2                !
 ! D23   D(5,6,7,8)             -1.4947         estimate D2E/DX2                !
 ! D24   D(5,6,7,14)           178.5003         estimate D2E/DX2                !
 ! D25   D(13,6,7,8)           178.5008         estimate D2E/DX2                !
 ! D26   D(13,6,7,14)           -1.5042         estimate D2E/DX2                !
 ! D27   D(6,7,8,3)             -0.1317         estimate D2E/DX2                !
 ! D28   D(6,7,8,15)           179.8661         estimate D2E/DX2                !
 ! D29   D(14,7,8,3)           179.8733         estimate D2E/DX2                !
 ! D30   D(14,7,8,15)           -0.1289         estimate D2E/DX2                !
 --------------------------------------------------------------------------------
 Trust Radius=3.00D-01 FncErr=1.00D-07 GrdErr=1.00D-06 EigMax=2.50D+02 EigMin=1.00D-04
 Number of steps in this run=     77 maximum allowed number of steps=    100.
 GradGradGradGradGradGradGradGradGradGradGradGradGradGradGradGradGradGrad

 Leave Link  103 at Sun Oct 13 19:30:20 2019, MaxMem=  2684354560 cpu:               0.4 elap:               0.0
 (Enter /apps/cent7/gaussian/g16-A.03/g16-haswell/g16/l202.exe)
                          Input orientation:                          
 ---------------------------------------------------------------------
 Center     Atomic      Atomic             Coordinates (Angstroms)
 Number     Number       Type             X           Y           Z
 ---------------------------------------------------------------------
      1          8           0        1.419900    0.275400   -0.139500
      2          7           0        0.216700    0.015800    0.290800
      3          6           0       -0.360400   -1.209800    0.215700
      4          6           0        0.225900   -2.308300   -0.457500
      5          6           0       -0.413600   -3.561900   -0.471000
      6          6           0       -1.642900   -3.728900    0.191800
      7          6           0       -2.249200   -2.636600    0.837500
      8          6           0       -1.609800   -1.384100    0.846800
      9          1           0        2.007100    0.402100    0.609300
     10          1           0       -0.286300    0.791800    0.696800
     11          1           0        1.179900   -2.187500   -0.970800
     12          1           0        0.042600   -4.402400   -0.994100
     13          1           0       -2.126100   -4.705800    0.205100
     14          1           0       -3.213600   -2.760600    1.330100
     15          1           0       -2.086600   -0.541400    1.347300
 ---------------------------------------------------------------------
                    Distance matrix (angstroms):
                    1          2          3          4          5
     1  O    0.000000
     2  N    1.303933   0.000000
     3  C    2.345518   1.356753   0.000000
     4  C    2.863960   2.441614   1.415503   0.000000
     5  C    4.265734   3.711813   2.450870   1.407358   0.000000
     6  C    5.052220   4.182187   2.826879   2.435592   1.406546
     7  C    4.785036   3.662618   2.447439   2.812637   2.436756
     8  C    3.592466   2.367479   1.410556   2.434161   2.812526
     9  H    0.959978   1.859086   2.891055   3.414235   4.768662
    10  H    1.969057   1.009961   2.059939   3.347443   4.509398
    11  H    2.610467   2.715496   2.176282   1.090039   2.162873
    12  H    4.950668   4.604538   3.437836   2.169515   1.090042
    13  H    6.124150   5.271581   3.916609   3.423295   2.167550
    14  H    5.731173   4.533817   3.433310   3.902595   3.424331
    15  H    3.895289   2.594582   2.169572   3.424455   3.902379
                    6          7          8          9         10
     6  C    0.000000
     7  C    1.406289   0.000000
     8  C    2.434791   1.406298   0.000000
     9  H    5.528288   5.234679   4.040901   0.000000
    10  H    4.746801   3.953062   2.551214   2.327919   0.000000
    11  H    3.419905   3.902610   3.425135   3.144361   3.715758
    12  H    2.168149   3.424201   3.902496   5.432621   5.472388
    13  H    1.089951   2.167181   3.422285   6.583112   5.818096
    14  H    2.168048   1.089999   2.168065   6.146376   4.646472
    15  H    3.419387   2.162452   1.089946   4.265351   2.332735
                   11         12         13         14         15
    11  H    0.000000
    12  H    2.489935   0.000000
    13  H    4.319052   2.496676   0.000000
    14  H    4.992537   4.324379   2.496414   0.000000
    15  H    4.330503   4.992291   4.318380   2.489031   0.000000
 Stoichiometry    C6H7NO
 Framework group  C1[X(C6H7NO)]
 Deg. of freedom    39
 Full point group                 C1      NOp   1
 Largest Abelian subgroup         C1      NOp   1
 Largest concise Abelian subgroup C1      NOp   1
                         Standard orientation:                         
 ---------------------------------------------------------------------
 Center     Atomic      Atomic             Coordinates (Angstroms)
 Number     Number       Type             X           Y           Z
 ---------------------------------------------------------------------
      1          8           0       -2.748695    0.399835    0.015574
      2          7           0       -1.809914   -0.500614   -0.074541
      3          6           0       -0.484856   -0.209780   -0.054097
      4          6           0        0.024336    1.110895   -0.067821
      5          6           0        1.411512    1.342308   -0.014470
      6          6           0        2.301287    0.255310    0.057000
      7          6           0        1.807701   -1.061404    0.040138
      8          6           0        0.421286   -1.290134   -0.016541
      9          1           0       -3.164882    0.342870    0.878767
     10          1           0       -2.120186   -1.457621   -0.163371
     11          1           0       -0.659038    1.958520   -0.119942
     12          1           0        1.796271    2.362091   -0.028470
     13          1           0        3.374374    0.433556    0.125593
     14          1           0        2.498890   -1.903669    0.070881
     15          1           0        0.045935   -2.313300   -0.031524
 ---------------------------------------------------------------------
 Rotational constants (GHZ):           5.0876430           1.5063932           1.1679754
 Leave Link  202 at Sun Oct 13 19:30:20 2019, MaxMem=  2684354560 cpu:               0.5 elap:               0.0
 (Enter /apps/cent7/gaussian/g16-A.03/g16-haswell/g16/l301.exe)
 Standard basis: 6-311++G(d,p) (5D, 7F)
 Ernie: Thresh=  0.10000D-02 Tol=  0.10000D-05 Strict=F.
 There are   233 symmetry adapted cartesian basis functions of A   symmetry.
 There are   225 symmetry adapted basis functions of A   symmetry.
   225 basis functions,   351 primitive gaussians,   233 cartesian basis functions
    29 alpha electrons       29 beta electrons
       nuclear repulsion energy       344.7478090774 Hartrees.
 IExCor= 4336 DFT=T Ex+Corr=M062X ExCW=0 ScaHFX=  0.540000
 ScaDFX=  1.000000  1.000000  1.000000  1.000000 ScalE2=  1.000000  1.000000
 IRadAn=      5 IRanWt=     -1 IRanGd=            0 ICorTp=0 IEmpDi=  4
 NAtoms=   15 NActive=   15 NUniq=   15 SFac= 1.00D+00 NAtFMM=   60 NAOKFM=F Big=F
 Integral buffers will be    131072 words long.
 Raffenetti 2 integral format.
 Two-electron integral symmetry is turned on.
 Leave Link  301 at Sun Oct 13 19:30:20 2019, MaxMem=  2684354560 cpu:               1.5 elap:               0.1
 (Enter /apps/cent7/gaussian/g16-A.03/g16-haswell/g16/l302.exe)
 NPDir=0 NMtPBC=     1 NCelOv=     1 NCel=       1 NClECP=     1 NCelD=      1
         NCelK=      1 NCelE2=     1 NClLst=     1 CellRange=     0.0.
 One-electron integrals computed using PRISM.
 One-electron integral symmetry used in STVInt
 NBasis=   225 RedAO= T EigKep=  1.04D-06  NBF=   225
 NBsUse=   225 1.00D-06 EigRej= -1.00D+00 NBFU=   225
 Precomputing XC quadrature grid using
 IXCGrd= 4 IRadAn=           5 IRanWt=          -1 IRanGd=           0 AccXCQ= 0.00D+00.
 Generated NRdTot=       0 NPtTot=           0 NUsed=           0 NTot=          32
 NSgBfM=   233   233   233   233   233 MxSgAt=    15 MxSgA2=    15.
 Leave Link  302 at Sun Oct 13 19:30:21 2019, MaxMem=  2684354560 cpu:               4.0 elap:               0.2
 (Enter /apps/cent7/gaussian/g16-A.03/g16-haswell/g16/l303.exe)
 DipDrv:  MaxL=1.
 Leave Link  303 at Sun Oct 13 19:30:21 2019, MaxMem=  2684354560 cpu:               1.2 elap:               0.1
 (Enter /apps/cent7/gaussian/g16-A.03/g16-haswell/g16/l401.exe)
 ExpMin= 3.60D-02 ExpMax= 8.59D+03 ExpMxC= 1.30D+03 IAcc=3 IRadAn=         5 AccDes= 0.00D+00
 Harris functional with IExCor= 1009 and IRadAn=       5 diagonalized for initial guess.
 HarFok:  IExCor= 1009 AccDes= 0.00D+00 IRadAn=         5 IDoV= 1 UseB2=F ITyADJ=14
 ICtDFT=  3500011 ScaDFX=  1.000000  1.000000  1.000000  1.000000
 FoFCou: FMM=F IPFlag=           0 FMFlag=      100000 FMFlg1=           0
         NFxFlg=           0 DoJE=T BraDBF=F KetDBF=T FulRan=T
         wScrn=  0.000000 ICntrl=       500 IOpCl=  0 I1Cent=   200000004 NGrid=           0
         NMat0=    1 NMatS0=      1 NMatT0=    0 NMatD0=    1 NMtDS0=    0 NMtDT0=    0
 Petite list used in FoFCou.
 Harris En= -362.544496018942    
 JPrj=0 DoOrth=F DoCkMO=F.
 Leave Link  401 at Sun Oct 13 19:30:21 2019, MaxMem=  2684354560 cpu:               8.1 elap:               0.4
 (Enter /apps/cent7/gaussian/g16-A.03/g16-haswell/g16/l502.exe)
 Integral symmetry usage will be decided dynamically.
 Closed shell SCF:
 Using DIIS extrapolation, IDIIS=  1040.
 NGot=  2684354560 LenX=  2684238077 LenY=  2684183347
 Requested convergence on RMS density matrix=1.00D-08 within 128 cycles.
 Requested convergence on MAX density matrix=1.00D-06.
 Requested convergence on             energy=1.00D-06.
 No special actions if energy rises.
 Fock matrices will be formed incrementally for  20 cycles.

 Cycle   1  Pass 1  IDiag  1:
 FoFJK:  IHMeth= 1 ICntrl=       0 DoSepK=F KAlg= 0 I1Cent=           0 FoldK=F
 IRaf= 960000000 NMat=       1 IRICut=       1 DoRegI=T DoRafI=F ISym2E= 0 IDoP0=0 IntGTp=1.
 FoFCou: FMM=F IPFlag=           0 FMFlag=      100000 FMFlg1=           0
         NFxFlg=           0 DoJE=F BraDBF=F KetDBF=F FulRan=T
         wScrn=  0.000000 ICntrl=         0 IOpCl=  0 I1Cent=           0 NGrid=           0
         NMat0=    1 NMatS0=      1 NMatT0=    0 NMatD0=    1 NMtDS0=    0 NMtDT0=    0
 Symmetry not used in FoFCou.
 E= -362.473336394865    
 DIIS: error= 4.05D-02 at cycle   1 NSaved=   1.
 NSaved= 1 IEnMin= 1 EnMin= -362.473336394865     IErMin= 1 ErrMin= 4.05D-02
 ErrMax= 4.05D-02  0.00D+00 EMaxC= 1.00D-01 BMatC= 2.66D-01 BMatP= 2.66D-01
 IDIUse=3 WtCom= 5.95D-01 WtEn= 4.05D-01
 Coeff-Com:  0.100D+01
 Coeff-En:   0.100D+01
 Coeff:      0.100D+01
 Gap=     0.356 Goal=   None    Shift=    0.000
 GapD=    0.356 DampG=1.000 DampE=0.500 DampFc=0.5000 IDamp=-1.
 Damping current iteration by 5.00D-01
 RMSDP=3.38D-02 MaxDP=2.57D+00              OVMax= 2.39D-01

 Cycle   2  Pass 1  IDiag  1:
 RMSU=  1.39D-02    CP:  1.22D+00
 E= -362.583952430001     Delta-E=       -0.110616035136 Rises=F Damp=T
 DIIS: error= 6.22D-03 at cycle   2 NSaved=   2.
 NSaved= 2 IEnMin= 2 EnMin= -362.583952430001     IErMin= 2 ErrMin= 6.22D-03
 ErrMax= 6.22D-03  0.00D+00 EMaxC= 1.00D-01 BMatC= 2.30D-02 BMatP= 2.66D-01
 IDIUse=3 WtCom= 9.38D-01 WtEn= 6.22D-02
 Coeff-Com: -0.113D+00 0.111D+01
 Coeff-En:   0.000D+00 0.100D+01
 Coeff:     -0.106D+00 0.111D+01
 Gap=     0.247 Goal=   None    Shift=    0.000
 RMSDP=7.86D-03 MaxDP=5.74D-01 DE=-1.11D-01 OVMax= 1.34D-01

 Cycle   3  Pass 1  IDiag  1:
 RMSU=  6.81D-03    CP:  1.13D+00  9.24D-01
 E= -362.690091106296     Delta-E=       -0.106138676295 Rises=F Damp=F
 DIIS: error= 7.04D-03 at cycle   3 NSaved=   3.
 NSaved= 3 IEnMin= 3 EnMin= -362.690091106296     IErMin= 2 ErrMin= 6.22D-03
 ErrMax= 7.04D-03  0.00D+00 EMaxC= 1.00D-01 BMatC= 7.98D-03 BMatP= 2.30D-02
 IDIUse=3 WtCom= 9.30D-01 WtEn= 7.04D-02
 Coeff-Com: -0.111D+00 0.426D+00 0.685D+00
 Coeff-En:   0.000D+00 0.000D+00 0.100D+01
 Coeff:     -0.103D+00 0.396D+00 0.707D+00
 Gap=     0.239 Goal=   None    Shift=    0.000
 RMSDP=2.03D-03 MaxDP=1.19D-01 DE=-1.06D-01 OVMax= 5.06D-02

 Cycle   4  Pass 1  IDiag  1:
 RMSU=  1.70D-03    CP:  1.13D+00  9.41D-01  8.42D-01
 E= -362.695903196350     Delta-E=       -0.005812090054 Rises=F Damp=F
 DIIS: error= 4.27D-03 at cycle   4 NSaved=   4.
 NSaved= 4 IEnMin= 4 EnMin= -362.695903196350     IErMin= 4 ErrMin= 4.27D-03
 ErrMax= 4.27D-03  0.00D+00 EMaxC= 1.00D-01 BMatC= 1.72D-03 BMatP= 7.98D-03
 IDIUse=3 WtCom= 9.57D-01 WtEn= 4.27D-02
 Coeff-Com: -0.453D-01 0.121D+00 0.377D+00 0.548D+00
 Coeff-En:   0.000D+00 0.000D+00 0.138D+00 0.862D+00
 Coeff:     -0.434D-01 0.115D+00 0.366D+00 0.562D+00
 Gap=     0.232 Goal=   None    Shift=    0.000
 RMSDP=6.03D-04 MaxDP=4.16D-02 DE=-5.81D-03 OVMax= 1.44D-02

 Cycle   5  Pass 1  IDiag  1:
 RMSU=  4.33D-04    CP:  1.13D+00  9.49D-01  8.58D-01  8.02D-01
 E= -362.697476676499     Delta-E=       -0.001573480149 Rises=F Damp=F
 DIIS: error= 8.36D-04 at cycle   5 NSaved=   5.
 NSaved= 5 IEnMin= 5 EnMin= -362.697476676499     IErMin= 5 ErrMin= 8.36D-04
 ErrMax= 8.36D-04  0.00D+00 EMaxC= 1.00D-01 BMatC= 4.38D-05 BMatP= 1.72D-03
 IDIUse=3 WtCom= 9.92D-01 WtEn= 8.36D-03
 Coeff-Com: -0.785D-02 0.133D-01 0.814D-01 0.194D+00 0.719D+00
 Coeff-En:   0.000D+00 0.000D+00 0.000D+00 0.000D+00 0.100D+01
 Coeff:     -0.779D-02 0.132D-01 0.807D-01 0.193D+00 0.721D+00
 Gap=     0.232 Goal=   None    Shift=    0.000
 RMSDP=1.95D-04 MaxDP=8.75D-03 DE=-1.57D-03 OVMax= 4.38D-03

 Cycle   6  Pass 1  IDiag  1:
 RMSU=  1.38D-04    CP:  1.13D+00  9.40D-01  8.56D-01  8.31D-01  9.89D-01
 E= -362.697524516102     Delta-E=       -0.000047839603 Rises=F Damp=F
 DIIS: error= 3.90D-04 at cycle   6 NSaved=   6.
 NSaved= 6 IEnMin= 6 EnMin= -362.697524516102     IErMin= 6 ErrMin= 3.90D-04
 ErrMax= 3.90D-04  0.00D+00 EMaxC= 1.00D-01 BMatC= 6.87D-06 BMatP= 4.38D-05
 IDIUse=3 WtCom= 9.96D-01 WtEn= 3.90D-03
 Coeff-Com: -0.245D-03-0.177D-02 0.123D-01 0.394D-01 0.313D+00 0.637D+00
 Coeff-En:   0.000D+00 0.000D+00 0.000D+00 0.000D+00 0.000D+00 0.100D+01
 Coeff:     -0.244D-03-0.176D-02 0.122D-01 0.392D-01 0.312D+00 0.638D+00
 Gap=     0.233 Goal=   None    Shift=    0.000
 RMSDP=4.25D-05 MaxDP=2.22D-03 DE=-4.78D-05 OVMax= 1.24D-03

 Cycle   7  Pass 1  IDiag  1:
 RMSU=  3.12D-05    CP:  1.13D+00  9.39D-01  8.56D-01  8.38D-01  1.01D+00
                    CP:  1.06D+00
 E= -362.697532594143     Delta-E=       -0.000008078041 Rises=F Damp=F
 DIIS: error= 4.08D-05 at cycle   7 NSaved=   7.
 NSaved= 7 IEnMin= 7 EnMin= -362.697532594143     IErMin= 7 ErrMin= 4.08D-05
 ErrMax= 4.08D-05  0.00D+00 EMaxC= 1.00D-01 BMatC= 8.99D-07 BMatP= 6.87D-06
 IDIUse=1 WtCom= 1.00D+00 WtEn= 0.00D+00
 Coeff-Com:  0.215D-02-0.463D-02-0.154D-01-0.399D-01-0.724D-01 0.205D+00
 Coeff-Com:  0.925D+00
 Coeff:      0.215D-02-0.463D-02-0.154D-01-0.399D-01-0.724D-01 0.205D+00
 Coeff:      0.925D+00
 Gap=     0.233 Goal=   None    Shift=    0.000
 RMSDP=3.18D-05 MaxDP=1.06D-03 DE=-8.08D-06 OVMax= 7.14D-04

 Cycle   8  Pass 1  IDiag  1:
 RMSU=  1.51D-05    CP:  1.13D+00  9.38D-01  8.56D-01  8.42D-01  1.05D+00
                    CP:  1.18D+00  1.12D+00
 E= -362.697533804432     Delta-E=       -0.000001210289 Rises=F Damp=F
 DIIS: error= 1.63D-05 at cycle   8 NSaved=   8.
 NSaved= 8 IEnMin= 8 EnMin= -362.697533804432     IErMin= 8 ErrMin= 1.63D-05
 ErrMax= 1.63D-05  0.00D+00 EMaxC= 1.00D-01 BMatC= 1.85D-08 BMatP= 8.99D-07
 IDIUse=1 WtCom= 1.00D+00 WtEn= 0.00D+00
 Coeff-Com:  0.273D-03-0.482D-03-0.178D-02-0.658D-02-0.194D-01 0.278D-02
 Coeff-Com:  0.100D+00 0.925D+00
 Coeff:      0.273D-03-0.482D-03-0.178D-02-0.658D-02-0.194D-01 0.278D-02
 Coeff:      0.100D+00 0.925D+00
 Gap=     0.233 Goal=   None    Shift=    0.000
 RMSDP=4.37D-06 MaxDP=2.78D-04 DE=-1.21D-06 OVMax= 1.43D-04

 Cycle   9  Pass 1  IDiag  1:
 RMSU=  2.93D-06    CP:  1.13D+00  9.38D-01  8.56D-01  8.41D-01  1.05D+00
                    CP:  1.18D+00  1.14D+00  1.15D+00
 E= -362.697533835183     Delta-E=       -0.000000030751 Rises=F Damp=F
 DIIS: error= 4.50D-06 at cycle   9 NSaved=   9.
 NSaved= 9 IEnMin= 9 EnMin= -362.697533835183     IErMin= 9 ErrMin= 4.50D-06
 ErrMax= 4.50D-06  0.00D+00 EMaxC= 1.00D-01 BMatC= 7.52D-09 BMatP= 1.85D-08
 IDIUse=1 WtCom= 1.00D+00 WtEn= 0.00D+00
 Coeff-Com: -0.126D-03 0.315D-03 0.117D-02 0.177D-02 0.688D-03-0.206D-01
 Coeff-Com: -0.660D-01 0.421D+00 0.661D+00
 Coeff:     -0.126D-03 0.315D-03 0.117D-02 0.177D-02 0.688D-03-0.206D-01
 Coeff:     -0.660D-01 0.421D+00 0.661D+00
 Gap=     0.233 Goal=   None    Shift=    0.000
 RMSDP=2.72D-06 MaxDP=1.68D-04 DE=-3.08D-08 OVMax= 2.98D-05

 Cycle  10  Pass 1  IDiag  1:
 RMSU=  1.12D-06    CP:  1.13D+00  9.38D-01  8.56D-01  8.41D-01  1.05D+00
                    CP:  1.18D+00  1.13D+00  1.23D+00  1.28D+00
 E= -362.697533843148     Delta-E=       -0.000000007965 Rises=F Damp=F
 DIIS: error= 1.51D-06 at cycle  10 NSaved=  10.
 NSaved=10 IEnMin=10 EnMin= -362.697533843148     IErMin=10 ErrMin= 1.51D-06
 ErrMax= 1.51D-06  0.00D+00 EMaxC= 1.00D-01 BMatC= 2.94D-10 BMatP= 7.52D-09
 IDIUse=1 WtCom= 1.00D+00 WtEn= 0.00D+00
 Coeff-Com: -0.485D-04 0.103D-03 0.446D-03 0.105D-02 0.212D-02-0.499D-02
 Coeff-Com: -0.284D-01-0.146D-01 0.118D+00 0.927D+00
 Coeff:     -0.485D-04 0.103D-03 0.446D-03 0.105D-02 0.212D-02-0.499D-02
 Coeff:     -0.284D-01-0.146D-01 0.118D+00 0.927D+00
 Gap=     0.233 Goal=   None    Shift=    0.000
 RMSDP=1.18D-06 MaxDP=5.92D-05 DE=-7.96D-09 OVMax= 1.65D-05

 Cycle  11  Pass 1  IDiag  1:
 RMSU=  3.76D-07    CP:  1.13D+00  9.38D-01  8.56D-01  8.40D-01  1.05D+00
                    CP:  1.18D+00  1.13D+00  1.26D+00  1.31D+00  9.91D-01
 E= -362.697533843677     Delta-E=       -0.000000000529 Rises=F Damp=F
 DIIS: error= 7.97D-07 at cycle  11 NSaved=  11.
 NSaved=11 IEnMin=11 EnMin= -362.697533843677     IErMin=11 ErrMin= 7.97D-07
 ErrMax= 7.97D-07  0.00D+00 EMaxC= 1.00D-01 BMatC= 3.28D-11 BMatP= 2.94D-10
 IDIUse=1 WtCom= 1.00D+00 WtEn= 0.00D+00
 Coeff-Com: -0.499D-05 0.949D-05 0.642D-04 0.182D-03 0.495D-03-0.229D-03
 Coeff-Com: -0.450D-02-0.192D-01-0.449D-02 0.273D+00 0.755D+00
 Coeff:     -0.499D-05 0.949D-05 0.642D-04 0.182D-03 0.495D-03-0.229D-03
 Coeff:     -0.450D-02-0.192D-01-0.449D-02 0.273D+00 0.755D+00
 Gap=     0.233 Goal=   None    Shift=    0.000
 RMSDP=2.28D-07 MaxDP=1.22D-05 DE=-5.29D-10 OVMax= 4.69D-06

 Cycle  12  Pass 1  IDiag  1:
 RMSU=  1.09D-07    CP:  1.13D+00  9.38D-01  8.56D-01  8.40D-01  1.05D+00
                    CP:  1.18D+00  1.13D+00  1.27D+00  1.30D+00  9.95D-01
                    CP:  1.16D+00
 E= -362.697533843715     Delta-E=       -0.000000000039 Rises=F Damp=F
 DIIS: error= 3.36D-07 at cycle  12 NSaved=  12.
 NSaved=12 IEnMin=12 EnMin= -362.697533843715     IErMin=12 ErrMin= 3.36D-07
 ErrMax= 3.36D-07  0.00D+00 EMaxC= 1.00D-01 BMatC= 1.35D-11 BMatP= 3.28D-11
 IDIUse=1 WtCom= 1.00D+00 WtEn= 0.00D+00
 Coeff-Com:  0.600D-05-0.135D-04-0.441D-04-0.829D-04-0.945D-04 0.814D-03
 Coeff-Com:  0.251D-02-0.877D-02-0.284D-01-0.211D-01 0.411D+00 0.644D+00
 Coeff:      0.600D-05-0.135D-04-0.441D-04-0.829D-04-0.945D-04 0.814D-03
 Coeff:      0.251D-02-0.877D-02-0.284D-01-0.211D-01 0.411D+00 0.644D+00
 Gap=     0.233 Goal=   None    Shift=    0.000
 RMSDP=1.03D-07 MaxDP=5.64D-06 DE=-3.85D-11 OVMax= 2.17D-06

 Cycle  13  Pass 1  IDiag  1:
 RMSU=  4.55D-08    CP:  1.13D+00  9.38D-01  8.56D-01  8.40D-01  1.05D+00
                    CP:  1.18D+00  1.13D+00  1.27D+00  1.30D+00  1.01D+00
                    CP:  1.20D+00  1.07D+00
 E= -362.697533843734     Delta-E=       -0.000000000019 Rises=F Damp=F
 DIIS: error= 8.94D-08 at cycle  13 NSaved=  13.
 NSaved=13 IEnMin=13 EnMin= -362.697533843734     IErMin=13 ErrMin= 8.94D-08
 ErrMax= 8.94D-08  0.00D+00 EMaxC= 1.00D-01 BMatC= 4.71D-13 BMatP= 1.35D-11
 IDIUse=1 WtCom= 1.00D+00 WtEn= 0.00D+00
 Coeff-Com:  0.197D-05-0.445D-05-0.186D-04-0.380D-04-0.701D-04 0.257D-03
 Coeff-Com:  0.109D-02-0.625D-03-0.864D-02-0.367D-01 0.265D-01 0.139D+00
 Coeff-Com:  0.879D+00
 Coeff:      0.197D-05-0.445D-05-0.186D-04-0.380D-04-0.701D-04 0.257D-03
 Coeff:      0.109D-02-0.625D-03-0.864D-02-0.367D-01 0.265D-01 0.139D+00
 Coeff:      0.879D+00
 Gap=     0.233 Goal=   None    Shift=    0.000
 RMSDP=2.68D-08 MaxDP=1.62D-06 DE=-1.85D-11 OVMax= 6.59D-07

 Cycle  14  Pass 1  IDiag  1:
 RMSU=  1.26D-08    CP:  1.13D+00  9.38D-01  8.56D-01  8.40D-01  1.05D+00
                    CP:  1.18D+00  1.13D+00  1.27D+00  1.30D+00  1.01D+00
                    CP:  1.24D+00  1.13D+00  9.26D-01
 E= -362.697533843734     Delta-E=       -0.000000000000 Rises=F Damp=F
 DIIS: error= 2.81D-08 at cycle  14 NSaved=  14.
 NSaved=14 IEnMin=14 EnMin= -362.697533843734     IErMin=14 ErrMin= 2.81D-08
 ErrMax= 2.81D-08  0.00D+00 EMaxC= 1.00D-01 BMatC= 1.26D-13 BMatP= 4.71D-13
 IDIUse=1 WtCom= 1.00D+00 WtEn= 0.00D+00
 Coeff-Com: -0.511D-07 0.717D-07-0.143D-05-0.344D-05-0.140D-04 0.459D-05
 Coeff-Com:  0.846D-04 0.964D-03 0.430D-03-0.894D-02-0.347D-01-0.167D-01
 Coeff-Com:  0.394D+00 0.665D+00
 Coeff:     -0.511D-07 0.717D-07-0.143D-05-0.344D-05-0.140D-04 0.459D-05
 Coeff:      0.846D-04 0.964D-03 0.430D-03-0.894D-02-0.347D-01-0.167D-01
 Coeff:      0.394D+00 0.665D+00
 Gap=     0.233 Goal=   None    Shift=    0.000
 RMSDP=9.49D-09 MaxDP=5.04D-07 DE=-2.27D-13 OVMax= 2.37D-07

 SCF Done:  E(RM062X) =  -362.697533844     A.U. after   14 cycles
            NFock= 14  Conv=0.95D-08     -V/T= 2.0039
 KE= 3.612915969392D+02 PE=-1.535096917968D+03 EE= 4.663599781078D+02
 Leave Link  502 at Sun Oct 13 19:30:30 2019, MaxMem=  2684354560 cpu:             212.7 elap:               8.9
 (Enter /apps/cent7/gaussian/g16-A.03/g16-haswell/g16/l601.exe)
 Copying SCF densities to generalized density rwf, IOpCl= 0 IROHF=0.

 **********************************************************************

            Population analysis using the SCF density.

 **********************************************************************

 Orbital symmetries:
       Occupied  (A) (A) (A) (A) (A) (A) (A) (A) (A) (A) (A) (A)
                 (A) (A) (A) (A) (A) (A) (A) (A) (A) (A) (A) (A)
                 (A) (A) (A) (A) (A)
       Virtual   (A) (A) (A) (A) (A) (A) (A) (A) (A) (A) (A) (A)
                 (A) (A) (A) (A) (A) (A) (A) (A) (A) (A) (A) (A)
                 (A) (A) (A) (A) (A) (A) (A) (A) (A) (A) (A) (A)
                 (A) (A) (A) (A) (A) (A) (A) (A) (A) (A) (A) (A)
                 (A) (A) (A) (A) (A) (A) (A) (A) (A) (A) (A) (A)
                 (A) (A) (A) (A) (A) (A) (A) (A) (A) (A) (A) (A)
                 (A) (A) (A) (A) (A) (A) (A) (A) (A) (A) (A) (A)
                 (A) (A) (A) (A) (A) (A) (A) (A) (A) (A) (A) (A)
                 (A) (A) (A) (A) (A) (A) (A) (A) (A) (A) (A) (A)
                 (A) (A) (A) (A) (A) (A) (A) (A) (A) (A) (A) (A)
                 (A) (A) (A) (A) (A) (A) (A) (A) (A) (A) (A) (A)
                 (A) (A) (A) (A) (A) (A) (A) (A) (A) (A) (A) (A)
                 (A) (A) (A) (A) (A) (A) (A) (A) (A) (A) (A) (A)
                 (A) (A) (A) (A) (A) (A) (A) (A) (A) (A) (A) (A)
                 (A) (A) (A) (A) (A) (A) (A) (A) (A) (A) (A) (A)
                 (A) (A) (A) (A) (A) (A) (A) (A) (A) (A) (A) (A)
                 (A) (A) (A) (A)
 The electronic state is 1-A.
 Alpha  occ. eigenvalues --  -19.68003 -14.81103 -10.59100 -10.54483 -10.54348
 Alpha  occ. eigenvalues --  -10.54028 -10.53668 -10.53001  -1.26733  -0.99794
 Alpha  occ. eigenvalues --   -0.92352  -0.83508  -0.81329  -0.70925  -0.69679
 Alpha  occ. eigenvalues --   -0.65198  -0.62073  -0.56670  -0.55136  -0.50703
 Alpha  occ. eigenvalues --   -0.50214  -0.48141  -0.44516  -0.42022  -0.41073
 Alpha  occ. eigenvalues --   -0.39972  -0.36100  -0.30123  -0.24493
 Alpha virt. eigenvalues --   -0.01221   0.00658   0.00953   0.01894   0.02421
 Alpha virt. eigenvalues --    0.02950   0.03883   0.04737   0.05587   0.06681
 Alpha virt. eigenvalues --    0.08000   0.09804   0.10077   0.11768   0.12100
 Alpha virt. eigenvalues --    0.12373   0.12473   0.13392   0.13696   0.14099
 Alpha virt. eigenvalues --    0.14309   0.14603   0.14941   0.15432   0.16162
 Alpha virt. eigenvalues --    0.16596   0.17143   0.18150   0.18608   0.19651
 Alpha virt. eigenvalues --    0.20075   0.20556   0.22357   0.23366   0.24138
 Alpha virt. eigenvalues --    0.24541   0.24867   0.25866   0.27150   0.27211
 Alpha virt. eigenvalues --    0.28751   0.28989   0.30637   0.31488   0.31947
 Alpha virt. eigenvalues --    0.32517   0.32821   0.35095   0.35407   0.36906
 Alpha virt. eigenvalues --    0.38820   0.39361   0.42491   0.45897   0.48230
 Alpha virt. eigenvalues --    0.52948   0.54652   0.57036   0.58231   0.58909
 Alpha virt. eigenvalues --    0.59746   0.60030   0.60931   0.61948   0.63003
 Alpha virt. eigenvalues --    0.65873   0.66262   0.66966   0.67287   0.70639
 Alpha virt. eigenvalues --    0.72598   0.75168   0.77608   0.78628   0.81284
 Alpha virt. eigenvalues --    0.81938   0.84953   0.87497   0.88165   0.89248
 Alpha virt. eigenvalues --    0.91138   0.91580   0.93152   0.94325   0.94995
 Alpha virt. eigenvalues --    0.95833   0.96709   1.02727   1.05372   1.05882
 Alpha virt. eigenvalues --    1.06660   1.08731   1.12307   1.13821   1.14483
 Alpha virt. eigenvalues --    1.17963   1.20093   1.21316   1.24857   1.30112
 Alpha virt. eigenvalues --    1.36840   1.39291   1.45680   1.51436   1.52590
 Alpha virt. eigenvalues --    1.56245   1.56531   1.59756   1.60625   1.61742
 Alpha virt. eigenvalues --    1.62145   1.63858   1.68754   1.69106   1.69874
 Alpha virt. eigenvalues --    1.76271   1.77948   1.80797   1.81599   1.85693
 Alpha virt. eigenvalues --    1.90278   1.91027   1.93037   1.95356   1.96047
 Alpha virt. eigenvalues --    1.97554   1.97907   2.00206   2.02617   2.04052
 Alpha virt. eigenvalues --    2.08051   2.10320   2.10585   2.12122   2.22682
 Alpha virt. eigenvalues --    2.27697   2.29896   2.39600   2.42382   2.47542
 Alpha virt. eigenvalues --    2.48409   2.49526   2.50403   2.56750   2.62563
 Alpha virt. eigenvalues --    2.63130   2.66493   2.71147   2.72850   2.73875
 Alpha virt. eigenvalues --    2.74878   2.78158   2.78613   2.80418   2.81771
 Alpha virt. eigenvalues --    2.86043   2.87557   2.89203   2.95329   2.96147
 Alpha virt. eigenvalues --    2.96449   2.97073   3.12146   3.13479   3.18067
 Alpha virt. eigenvalues --    3.21179   3.32983   3.37484   3.38540   3.47801
 Alpha virt. eigenvalues --    3.49061   3.52482   3.55295   3.62650   3.66310
 Alpha virt. eigenvalues --    3.87534   3.94451   4.02533   4.03779   4.09566
 Alpha virt. eigenvalues --    4.18867   4.20326   4.62648   4.84430   5.02014
 Alpha virt. eigenvalues --    5.17310   5.53039   6.04250  23.71515  24.01984
 Alpha virt. eigenvalues --   24.02926  24.11819  24.13769  24.22913  35.68904
 Alpha virt. eigenvalues --   50.03158
          Condensed to atoms (all electrons):
               1          2          3          4          5          6
     1  O    7.737193   0.121741  -0.126345  -0.125835  -0.055105  -0.014180
     2  N    0.121741   7.469672  -0.500948  -0.125484   0.073537   0.041223
     3  C   -0.126345  -0.500948  12.983069  -2.089245   1.304301  -1.644944
     4  C   -0.125835  -0.125484  -2.089245   9.258164  -1.304234   1.031340
     5  C   -0.055105   0.073537   1.304301  -1.304234   6.814426  -0.738755
     6  C   -0.014180   0.041223  -1.644944   1.031340  -0.738755   6.725443
     7  C   -0.036935  -0.025708   2.349399  -0.570820   1.157104  -0.906886
     8  C    0.286906   0.066454  -5.092155  -0.701251  -1.185381   1.320191
     9  H    0.274228  -0.084771   0.083894  -0.002800  -0.007674  -0.000614
    10  H   -0.008319   0.367985  -0.167159  -0.051043  -0.012513  -0.003983
    11  H    0.016736  -0.031286  -0.013882   0.396788  -0.021347  -0.001529
    12  H    0.001334  -0.003825   0.027596  -0.028610   0.288520   0.006311
    13  H    0.000438   0.001348   0.006493  -0.029625   0.013724   0.332960
    14  H    0.000029  -0.004757   0.056518   0.040866  -0.019889   0.015151
    15  H    0.009900  -0.006079  -0.233706  -0.104966   0.004790   0.002108
               7          8          9         10         11         12
     1  O   -0.036935   0.286906   0.274228  -0.008319   0.016736   0.001334
     2  N   -0.025708   0.066454  -0.084771   0.367985  -0.031286  -0.003825
     3  C    2.349399  -5.092155   0.083894  -0.167159  -0.013882   0.027596
     4  C   -0.570820  -0.701251  -0.002800  -0.051043   0.396788  -0.028610
     5  C    1.157104  -1.185381  -0.007674  -0.012513  -0.021347   0.288520
     6  C   -0.906886   1.320191  -0.000614  -0.003983  -0.001529   0.006311
     7  C    7.252185  -3.081022   0.003639   0.005437   0.015510  -0.039203
     8  C   -3.081022  13.405383  -0.050462   0.150914  -0.059021   0.067191
     9  H    0.003639  -0.050462   0.529003  -0.008534  -0.006760  -0.000115
    10  H    0.005437   0.150914  -0.008534   0.438583   0.003156  -0.000001
    11  H    0.015510  -0.059021  -0.006760   0.003156   0.480956  -0.001910
    12  H   -0.039203   0.067191  -0.000115  -0.000001  -0.001910   0.480040
    13  H   -0.017735   0.015555   0.000024   0.000091  -0.000499   0.001411
    14  H    0.359837  -0.128521   0.000011   0.000794   0.001175  -0.002176
    15  H   -0.058188   0.661499  -0.002035   0.007983  -0.001353   0.001940
              13         14         15
     1  O    0.000438   0.000029   0.009900
     2  N    0.001348  -0.004757  -0.006079
     3  C    0.006493   0.056518  -0.233706
     4  C   -0.029625   0.040866  -0.104966
     5  C    0.013724  -0.019889   0.004790
     6  C    0.332960   0.015151   0.002108
     7  C   -0.017735   0.359837  -0.058188
     8  C    0.015555  -0.128521   0.661499
     9  H    0.000024   0.000011  -0.002035
    10  H    0.000091   0.000794   0.007983
    11  H   -0.000499   0.001175  -0.001353
    12  H    0.001411  -0.002176   0.001940
    13  H    0.492516   0.000010   0.000102
    14  H    0.000010   0.485781  -0.006626
    15  H    0.000102  -0.006626   0.548694
 Mulliken charges:
               1
     1  O   -0.081787
     2  N   -0.359102
     3  C   -0.942887
     4  C    0.406755
     5  C   -0.311504
     6  C   -0.163836
     7  C   -0.406615
     8  C    0.323720
     9  H    0.272965
    10  H    0.276609
    11  H    0.223264
    12  H    0.201498
    13  H    0.183187
    14  H    0.201797
    15  H    0.175935
 Sum of Mulliken charges =  -0.00000
 Mulliken charges with hydrogens summed into heavy atoms:
               1
     1  O    0.191178
     2  N   -0.082493
     3  C   -0.942887
     4  C    0.630019
     5  C   -0.110006
     6  C    0.019352
     7  C   -0.204818
     8  C    0.499655
 Electronic spatial extent (au):  <R**2>=            975.8153
 Charge=             -0.0000 electrons
 Dipole moment (field-independent basis, Debye):
    X=             -1.5696    Y=             -1.3361    Z=              1.3804  Tot=              2.4807
 Quadrupole moment (field-independent basis, Debye-Ang):
   XX=            -40.5335   YY=            -41.8962   ZZ=            -51.2797
   XY=              3.3735   XZ=             -4.7802   YZ=              0.7016
 Traceless Quadrupole moment (field-independent basis, Debye-Ang):
   XX=              4.0363   YY=              2.6736   ZZ=             -6.7099
   XY=              3.3735   XZ=             -4.7802   YZ=              0.7016
 Octapole moment (field-independent basis, Debye-Ang**2):
  XXX=            -27.3830  YYY=             -3.0340  ZZZ=              2.2242  XYY=             -6.3919
  XXY=             -8.1772  XXZ=             18.4938  XZZ=            -15.5826  YZZ=              0.6524
  YYZ=             -0.6311  XYZ=             -2.6574
 Hexadecapole moment (field-independent basis, Debye-Ang**3):
 XXXX=           -792.1912 YYYY=           -303.2358 ZZZZ=            -62.6649 XXXY=             13.6330
 XXXZ=            -56.7716 YYYX=              9.5104 YYYZ=              0.4403 ZZZX=             -8.2638
 ZZZY=              0.9270 XXYY=           -181.4156 XXZZ=           -158.0795 YYZZ=            -74.9897
 XXYZ=              7.7771 YYXZ=             -0.0030 ZZXY=             -2.5821
 N-N= 3.447478090774D+02 E-N=-1.535096917927D+03  KE= 3.612915969392D+02
 No NMR shielding tensors so no spin-rotation constants.
 Leave Link  601 at Sun Oct 13 19:30:30 2019, MaxMem=  2684354560 cpu:               2.6 elap:               0.1
 (Enter /apps/cent7/gaussian/g16-A.03/g16-haswell/g16/l701.exe)
 ... and contract with generalized density number  0.
 Compute integral first derivatives.
 Leave Link  701 at Sun Oct 13 19:30:30 2019, MaxMem=  2684354560 cpu:               3.0 elap:               0.2
 (Enter /apps/cent7/gaussian/g16-A.03/g16-haswell/g16/l702.exe)
 L702 exits ... SP integral derivatives will be done elsewhere.
 Leave Link  702 at Sun Oct 13 19:30:31 2019, MaxMem=  2684354560 cpu:               0.5 elap:               0.0
 (Enter /apps/cent7/gaussian/g16-A.03/g16-haswell/g16/l703.exe)
 Integral derivatives from FoFJK, PRISM(SPDF).
 Compute integral first derivatives, UseDBF=F ICtDFT=           0.
 Calling FoFJK, ICntrl=      2127 FMM=F ISym2X=0 I1Cent= 0 IOpClX= 0 NMat=1 NMatS=1 NMatT=0.
 FoFJK:  IHMeth= 1 ICntrl=    2127 DoSepK=F KAlg= 0 I1Cent=           0 FoldK=F
 IRaf=         0 NMat=       1 IRICut=       1 DoRegI=T DoRafI=F ISym2E= 0 IDoP0=0 IntGTp=1.
 FoFCou: FMM=F IPFlag=           0 FMFlag=      100000 FMFlg1=         800
         NFxFlg=           0 DoJE=F BraDBF=F KetDBF=F FulRan=T
         wScrn=  0.000000 ICntrl=      2127 IOpCl=  0 I1Cent=           0 NGrid=           0
         NMat0=    1 NMatS0=      1 NMatT0=    0 NMatD0=    1 NMtDS0=    0 NMtDT0=    0
 Symmetry not used in FoFCou.
 Leave Link  703 at Sun Oct 13 19:30:32 2019, MaxMem=  2684354560 cpu:              34.8 elap:               1.5
 (Enter /apps/cent7/gaussian/g16-A.03/g16-haswell/g16/l716.exe)
 Dipole        =-6.17524927D-01-5.25643907D-01 5.43075872D-01
 ***** Axes restored to original set *****
 -------------------------------------------------------------------
 Center     Atomic                   Forces (Hartrees/Bohr)
 Number     Number              X              Y              Z
 -------------------------------------------------------------------
      1        8           0.057981986    0.013186233   -0.033705539
      2        7          -0.054821493    0.006958895    0.029519266
      3        6          -0.007911054   -0.026707986   -0.001034600
      4        6          -0.001035609   -0.004483570    0.000207182
      5        6          -0.008218083    0.014731887    0.010341898
      6        6           0.002168316    0.000959226   -0.001690023
      7        6           0.014789819    0.006208369   -0.007123033
      8        6          -0.008322384   -0.014388159   -0.001172033
      9        1           0.003486048   -0.004972736    0.005672863
     10        1          -0.001134543   -0.001553030   -0.003324719
     11        1          -0.004387904    0.001922290    0.003186954
     12        1          -0.000958078    0.004391021    0.002469126
     13        1           0.001565076    0.004554960   -0.000785405
     14        1           0.004506443    0.001329022   -0.001503434
     15        1           0.002291459   -0.002136422   -0.001058505
 -------------------------------------------------------------------
 Cartesian Forces:  Max     0.057981986 RMS     0.015335669
 Leave Link  716 at Sun Oct 13 19:30:32 2019, MaxMem=  2684354560 cpu:               0.6 elap:               0.1
 (Enter /apps/cent7/gaussian/g16-A.03/g16-haswell/g16/l103.exe)

 GradGradGradGradGradGradGradGradGradGradGradGradGradGradGradGradGradGrad
 Berny optimization.
 FormGI is forming the generalized inverse of G from B-inverse, IUseBI=4.
 GSVD:  received Info=                   1 from GESDD.
 Internal  Forces:  Max     0.067593317 RMS     0.010026621
 Search for a local minimum.
 Step number   1 out of a maximum of   77
 All quantities printed in internal units (Hartrees-Bohrs-Radians)
 RMS Force = .10027D-01 SwitMx=.10000D-02 MixMth= 1
 Mixed Optimization -- RFO/linear search
 Second derivative matrix not updated -- first step.
 ITU=  0
     Eigenvalues ---    0.01919   0.01942   0.01976   0.01987   0.01997
     Eigenvalues ---    0.02004   0.02004   0.02006   0.02031   0.02264
     Eigenvalues ---    0.02359   0.02566   0.16000   0.16000   0.16000
     Eigenvalues ---    0.16000   0.16000   0.16000   0.16000   0.21997
     Eigenvalues ---    0.21998   0.22000   0.23473   0.25000   0.34808
     Eigenvalues ---    0.34808   0.34813   0.34818   0.34819   0.40229
     Eigenvalues ---    0.40487   0.43657   0.44204   0.44490   0.44580
     Eigenvalues ---    0.45979   0.53609   0.55478   0.66113
 RFO step:  Lambda=-1.40433134D-02 EMin= 1.91898365D-02
 Linear search not attempted -- first point.
 Iteration  1 RMS(Cart)=  0.06737654 RMS(Int)=  0.00243291
 Iteration  2 RMS(Cart)=  0.00349860 RMS(Int)=  0.00012886
 Iteration  3 RMS(Cart)=  0.00000863 RMS(Int)=  0.00012871
 Iteration  4 RMS(Cart)=  0.00000000 RMS(Int)=  0.00012871
 ITry= 1 IFail=0 DXMaxC= 2.69D-01 DCOld= 1.00D+10 DXMaxT= 3.00D-01 DXLimC= 3.00D+00 Rises=F
 Variable       Old X    -DE/DX   Delta X   Delta X   Delta X     New X
                                 (Linear)    (Quad)   (Total)
    R1        2.46408   0.06759   0.00000   0.10011   0.10011   2.56419
    R2        1.81410   0.00590   0.00000   0.01037   0.01037   1.82447
    R3        2.56389   0.01455   0.00000   0.02645   0.02645   2.59034
    R4        1.90855  -0.00196   0.00000  -0.00413  -0.00413   1.90442
    R5        2.67491  -0.01531   0.00000  -0.03408  -0.03409   2.64083
    R6        2.66556  -0.00614   0.00000  -0.01309  -0.01311   2.65245
    R7        2.65952  -0.01614   0.00000  -0.03540  -0.03539   2.62413
    R8        2.05988  -0.00513   0.00000  -0.01416  -0.01416   2.04572
    R9        2.65799  -0.01455   0.00000  -0.03211  -0.03209   2.62590
   R10        2.05988  -0.00497   0.00000  -0.01372  -0.01372   2.04616
   R11        2.65750  -0.01288   0.00000  -0.02828  -0.02827   2.62923
   R12        2.05971  -0.00479   0.00000  -0.01321  -0.01321   2.04650
   R13        2.65752  -0.01883   0.00000  -0.04077  -0.04079   2.61673
   R14        2.05980  -0.00482   0.00000  -0.01331  -0.01331   2.04649
   R15        2.05970  -0.00314   0.00000  -0.00868  -0.00868   2.05102
    A1        1.91059  -0.00311   0.00000  -0.01789  -0.01789   1.89270
    A2        2.15804  -0.01143   0.00000  -0.04886  -0.04935   2.10869
    A3        2.02556   0.00692   0.00000   0.03132   0.03082   2.05638
    A4        2.09958   0.00452   0.00000   0.01754   0.01705   2.11663
    A5        2.15457  -0.00906   0.00000  -0.03506  -0.03505   2.11952
    A6        2.05287   0.00840   0.00000   0.03105   0.03106   2.08393
    A7        2.07575   0.00066   0.00000   0.00401   0.00393   2.07968
    A8        2.10321  -0.00297   0.00000  -0.01228  -0.01231   2.09090
    A9        2.09493  -0.00121   0.00000  -0.00935  -0.00933   2.08560
   A10        2.08505   0.00418   0.00000   0.02162   0.02164   2.10669
   A11        2.09252   0.00520   0.00000   0.02116   0.02114   2.11366
   A12        2.09585  -0.00381   0.00000  -0.01753  -0.01755   2.07830
   A13        2.09481  -0.00139   0.00000  -0.00363  -0.00365   2.09117
   A14        2.09549  -0.00389   0.00000  -0.01792  -0.01793   2.07756
   A15        2.09396   0.00207   0.00000   0.00966   0.00966   2.10362
   A16        2.09373   0.00182   0.00000   0.00826   0.00826   2.10200
   A17        2.09300   0.00295   0.00000   0.01256   0.01252   2.10552
   A18        2.09509  -0.00052   0.00000  -0.00080  -0.00078   2.09430
   A19        2.09510  -0.00243   0.00000  -0.01176  -0.01174   2.08336
   A20        2.10577  -0.00193   0.00000  -0.00679  -0.00687   2.09890
   A21        2.09138   0.00017   0.00000  -0.00118  -0.00115   2.09023
   A22        2.08604   0.00176   0.00000   0.00797   0.00800   2.09403
    D1       -1.87876   0.00369   0.00000   0.09156   0.09146  -1.78730
    D2        1.26284   0.00586   0.00000   0.14920   0.14930   1.41214
    D3       -0.11477   0.00234   0.00000   0.06285   0.06284  -0.05193
    D4        3.02623   0.00278   0.00000   0.07521   0.07510   3.10133
    D5        3.02681   0.00009   0.00000   0.00288   0.00299   3.02980
    D6       -0.11538   0.00052   0.00000   0.01524   0.01525  -0.10013
    D7        3.11633   0.00068   0.00000   0.02025   0.02009   3.13641
    D8       -0.02518   0.00058   0.00000   0.01744   0.01734  -0.00784
    D9       -0.02467   0.00024   0.00000   0.00773   0.00785  -0.01682
   D10        3.11701   0.00014   0.00000   0.00492   0.00510   3.12211
   D11       -3.11358  -0.00099   0.00000  -0.02951  -0.02966   3.13995
   D12        0.02805  -0.00078   0.00000  -0.02379  -0.02401   0.00404
   D13        0.02745  -0.00058   0.00000  -0.01774  -0.01769   0.00975
   D14       -3.11411  -0.00037   0.00000  -0.01203  -0.01204  -3.12615
   D15       -0.00324   0.00040   0.00000   0.01230   0.01236   0.00912
   D16        3.13837   0.00003   0.00000   0.00101   0.00107   3.13944
   D17        3.13827   0.00050   0.00000   0.01509   0.01514  -3.12977
   D18       -0.00330   0.00013   0.00000   0.00381   0.00385   0.00054
   D19        0.02880  -0.00078   0.00000  -0.02293  -0.02293   0.00586
   D20       -3.11272  -0.00063   0.00000  -0.01925  -0.01934  -3.13205
   D21       -3.11281  -0.00041   0.00000  -0.01166  -0.01156  -3.12437
   D22        0.02886  -0.00026   0.00000  -0.00797  -0.00796   0.02090
   D23       -0.02609   0.00048   0.00000   0.01315   0.01302  -0.01307
   D24        3.11542   0.00060   0.00000   0.01649   0.01633   3.13175
   D25        3.11543   0.00033   0.00000   0.00946   0.00943   3.12486
   D26       -0.02625   0.00045   0.00000   0.01280   0.01274  -0.01351
   D27       -0.00230   0.00030   0.00000   0.00775   0.00757   0.00527
   D28        3.13926   0.00010   0.00000   0.00205   0.00191   3.14116
   D29        3.13938   0.00018   0.00000   0.00441   0.00428  -3.13952
   D30       -0.00225  -0.00002   0.00000  -0.00129  -0.00138  -0.00363
         Item               Value     Threshold  Converged?
 Maximum Force            0.067593     0.000450     NO 
 RMS     Force            0.010027     0.000300     NO 
 Maximum Displacement     0.269283     0.001800     NO 
 RMS     Displacement     0.068494     0.001200     NO 
 Predicted change in Energy=-7.523364D-03
 Lowest energy point so far.  Saving SCF results.
 GradGradGradGradGradGradGradGradGradGradGradGradGradGradGradGradGradGrad

 Leave Link  103 at Sun Oct 13 19:30:32 2019, MaxMem=  2684354560 cpu:               1.8 elap:               0.1
 (Enter /apps/cent7/gaussian/g16-A.03/g16-haswell/g16/l202.exe)
                          Input orientation:                          
 ---------------------------------------------------------------------
 Center     Atomic      Atomic             Coordinates (Angstroms)
 Number     Number       Type             X           Y           Z
 ---------------------------------------------------------------------
      1          8           0        1.424491    0.239030   -0.226292
      2          7           0        0.197141    0.028159    0.312550
      3          6           0       -0.390975   -1.208784    0.257366
      4          6           0        0.219341   -2.277173   -0.405179
      5          6           0       -0.404055   -3.517660   -0.434675
      6          6           0       -1.636062   -3.716617    0.176447
      7          6           0       -2.250985   -2.647461    0.820315
      8          6           0       -1.639883   -1.405761    0.866927
      9          1           0        2.072666    0.259601    0.488953
     10          1           0       -0.285784    0.819935    0.706863
     11          1           0        1.174063   -2.126595   -0.892769
     12          1           0        0.078298   -4.336813   -0.953074
     13          1           0       -2.109781   -4.690241    0.155297
     14          1           0       -3.215488   -2.782818    1.293820
     15          1           0       -2.129388   -0.579001    1.371752
 ---------------------------------------------------------------------
                    Distance matrix (angstroms):
                    1          2          3          4          5
     1  O    0.000000
     2  N    1.356910   0.000000
     3  C    2.371921   1.370749   0.000000
     4  C    2.795652   2.414577   1.397465   0.000000
     5  C    4.183267   3.673229   2.410394   1.388632   0.000000
     6  C    5.017602   4.171631   2.801075   2.419258   1.389567
     7  C    4.789191   3.661979   2.417922   2.782348   2.396539
     8  C    3.645663   2.395438   1.403616   2.415436   2.771562
     9  H    0.965468   1.897966   2.877379   3.266422   4.610308
    10  H    2.033044   1.007774   2.080579   3.329244   4.486850
    11  H    2.470443   2.655209   2.148146   1.082549   2.152991
    12  H    4.824810   4.546307   3.386732   2.135930   1.082780
    13  H    6.077369   5.254514   3.883975   3.400271   2.152328
    14  H    5.742101   4.528855   3.395541   3.865272   3.381101
    15  H    3.981580   2.627412   2.158834   3.399677   3.856899
                    6          7          8          9         10
     6  C    0.000000
     7  C    1.391327   0.000000
     8  C    2.411811   1.384716   0.000000
     9  H    5.446341   5.220611   4.086480   0.000000
    10  H    4.762866   3.987195   2.610159   2.433874   0.000000
    11  H    3.401205   3.864830   3.396237   2.900099   3.656776
    12  H    2.144642   3.379997   3.854298   5.213825   5.429548
    13  H    1.082959   2.152937   3.393380   6.488847   5.830371
    14  H    2.148277   1.082957   2.135663   6.153755   4.680547
    15  H    3.393635   2.144154   1.085355   4.374911   2.407899
                   11         12         13         14         15
    11  H    0.000000
    12  H    2.467672   0.000000
    13  H    4.295854   2.478121   0.000000
    14  H    4.947723   4.279306   2.481348   0.000000
    15  H    4.293703   4.939620   4.287475   2.458149   0.000000
 Stoichiometry    C6H7NO
 Framework group  C1[X(C6H7NO)]
 Deg. of freedom    39
 Full point group                 C1      NOp   1
 RotChk:  IX=0 Diff= 3.27D-02
 Largest Abelian subgroup         C1      NOp   1
 Largest concise Abelian subgroup C1      NOp   1
                         Standard orientation:                         
 ---------------------------------------------------------------------
 Center     Atomic      Atomic             Coordinates (Angstroms)
 Number     Number       Type             X           Y           Z
 ---------------------------------------------------------------------
      1          8           0       -2.737558    0.416161   -0.032078
      2          7           0       -1.798723   -0.563350   -0.050835
      3          6           0       -0.463009   -0.256441   -0.025781
      4          6           0       -0.019110    1.068547   -0.042166
      5          6           0        1.342194    1.340738   -0.009566
      6          6           0        2.278655    0.314830    0.028508
      7          6           0        1.835805   -1.004136    0.026637
      8          6           0        0.481956   -1.293914    0.003023
      9          1           0       -3.101449    0.473433    0.860352
     10          1           0       -2.115025   -1.516481   -0.135114
     11          1           0       -0.742773    1.872647   -0.082740
     12          1           0        1.673243    2.371558   -0.024757
     13          1           0        3.337854    0.537840    0.062629
     14          1           0        2.552395   -1.815856    0.046773
     15          1           0        0.148345   -2.326724    0.001398
 ---------------------------------------------------------------------
 Rotational constants (GHZ):           5.1397348           1.5261120           1.1814553
 Leave Link  202 at Sun Oct 13 19:30:32 2019, MaxMem=  2684354560 cpu:               0.2 elap:               0.0
 (Enter /apps/cent7/gaussian/g16-A.03/g16-haswell/g16/l301.exe)
 Standard basis: 6-311++G(d,p) (5D, 7F)
 Ernie: Thresh=  0.10000D-02 Tol=  0.10000D-05 Strict=F.
 There are   233 symmetry adapted cartesian basis functions of A   symmetry.
 There are   225 symmetry adapted basis functions of A   symmetry.
   225 basis functions,   351 primitive gaussians,   233 cartesian basis functions
    29 alpha electrons       29 beta electrons
       nuclear repulsion energy       346.0294849143 Hartrees.
 IExCor= 4336 DFT=T Ex+Corr=M062X ExCW=0 ScaHFX=  0.540000
 ScaDFX=  1.000000  1.000000  1.000000  1.000000 ScalE2=  1.000000  1.000000
 IRadAn=      5 IRanWt=     -1 IRanGd=            0 ICorTp=0 IEmpDi=  4
 NAtoms=   15 NActive=   15 NUniq=   15 SFac= 1.00D+00 NAtFMM=   60 NAOKFM=F Big=F
 Integral buffers will be    131072 words long.
 Raffenetti 2 integral format.
 Two-electron integral symmetry is turned on.
 Leave Link  301 at Sun Oct 13 19:30:32 2019, MaxMem=  2684354560 cpu:               1.2 elap:               0.1
 (Enter /apps/cent7/gaussian/g16-A.03/g16-haswell/g16/l302.exe)
 NPDir=0 NMtPBC=     1 NCelOv=     1 NCel=       1 NClECP=     1 NCelD=      1
         NCelK=      1 NCelE2=     1 NClLst=     1 CellRange=     0.0.
 One-electron integrals computed using PRISM.
 One-electron integral symmetry used in STVInt
 NBasis=   225 RedAO= T EigKep=  3.45D-06  NBF=   225
 NBsUse=   224 1.00D-06 EigRej=  9.29D-07 NBFU=   224
 Precomputing XC quadrature grid using
 IXCGrd= 4 IRadAn=           5 IRanWt=          -1 IRanGd=           0 AccXCQ= 0.00D+00.
 Generated NRdTot=       0 NPtTot=           0 NUsed=           0 NTot=          32
 NSgBfM=   233   233   233   233   233 MxSgAt=    15 MxSgA2=    15.
 Leave Link  302 at Sun Oct 13 19:30:32 2019, MaxMem=  2684354560 cpu:               3.5 elap:               0.2
 (Enter /apps/cent7/gaussian/g16-A.03/g16-haswell/g16/l303.exe)
 DipDrv:  MaxL=1.
 Leave Link  303 at Sun Oct 13 19:30:33 2019, MaxMem=  2684354560 cpu:               0.7 elap:               0.1
 (Enter /apps/cent7/gaussian/g16-A.03/g16-haswell/g16/l401.exe)
 Initial guess from the checkpoint file:  "10.chk"
 B after Tr=    -0.000000    0.000000    0.000000
         Rot=    0.999946    0.003740   -0.000382   -0.009671 Ang=   1.19 deg.
 Guess basis will be translated and rotated to current coordinates.
 JPrj=2 DoOrth=T DoCkMO=T.
 Generating alternative initial guess.
 ExpMin= 3.60D-02 ExpMax= 8.59D+03 ExpMxC= 1.30D+03 IAcc=3 IRadAn=         5 AccDes= 0.00D+00
 Harris functional with IExCor= 1009 and IRadAn=       5 diagonalized for initial guess.
 HarFok:  IExCor= 1009 AccDes= 0.00D+00 IRadAn=         5 IDoV= 1 UseB2=F ITyADJ=14
 ICtDFT=  3500011 ScaDFX=  1.000000  1.000000  1.000000  1.000000
 FoFCou: FMM=F IPFlag=           0 FMFlag=      100000 FMFlg1=           0
         NFxFlg=           0 DoJE=T BraDBF=F KetDBF=T FulRan=T
         wScrn=  0.000000 ICntrl=       500 IOpCl=  0 I1Cent=   200000004 NGrid=           0
         NMat0=    1 NMatS0=      1 NMatT0=    0 NMatD0=    1 NMtDS0=    0 NMtDT0=    0
 Petite list used in FoFCou.
 Harris En= -362.561157223382    
 Leave Link  401 at Sun Oct 13 19:30:33 2019, MaxMem=  2684354560 cpu:               9.4 elap:               0.4
 (Enter /apps/cent7/gaussian/g16-A.03/g16-haswell/g16/l502.exe)
 Integral symmetry usage will be decided dynamically.
 Closed shell SCF:
 Using DIIS extrapolation, IDIIS=  1040.
 NGot=  2684354560 LenX=  2684238077 LenY=  2684183347
 Requested convergence on RMS density matrix=1.00D-08 within 128 cycles.
 Requested convergence on MAX density matrix=1.00D-06.
 Requested convergence on             energy=1.00D-06.
 No special actions if energy rises.
 Fock matrices will be formed incrementally for  20 cycles.

 Cycle   1  Pass 1  IDiag  1:
 FoFJK:  IHMeth= 1 ICntrl=       0 DoSepK=F KAlg= 0 I1Cent=           0 FoldK=F
 IRaf= 970000000 NMat=       1 IRICut=       1 DoRegI=T DoRafI=F ISym2E= 0 IDoP0=0 IntGTp=1.
 FoFCou: FMM=F IPFlag=           0 FMFlag=      100000 FMFlg1=           0
         NFxFlg=           0 DoJE=F BraDBF=F KetDBF=F FulRan=T
         wScrn=  0.000000 ICntrl=         0 IOpCl=  0 I1Cent=           0 NGrid=           0
         NMat0=    1 NMatS0=      1 NMatT0=    0 NMatD0=    1 NMtDS0=    0 NMtDT0=    0
 Symmetry not used in FoFCou.
 E= -362.694667881794    
 DIIS: error= 4.46D-03 at cycle   1 NSaved=   1.
 NSaved= 1 IEnMin= 1 EnMin= -362.694667881794     IErMin= 1 ErrMin= 4.46D-03
 ErrMax= 4.46D-03  0.00D+00 EMaxC= 1.00D-01 BMatC= 8.18D-03 BMatP= 8.18D-03
 IDIUse=3 WtCom= 9.55D-01 WtEn= 4.46D-02
 Coeff-Com:  0.100D+01
 Coeff-En:   0.100D+01
 Coeff:      0.100D+01
 Gap=     0.418 Goal=   None    Shift=    0.000
 GapD=    0.418 DampG=2.000 DampE=1.000 DampFc=2.0000 IDamp=-1.
 RMSDP=5.16D-03 MaxDP=1.49D-01              OVMax= 2.24D-02

 Cycle   2  Pass 1  IDiag  1:
 RMSU=  5.13D-03    CP:  9.82D-01
 E= -362.704942741981     Delta-E=       -0.010274860188 Rises=F Damp=F
 DIIS: error= 1.18D-03 at cycle   2 NSaved=   2.
 NSaved= 2 IEnMin= 2 EnMin= -362.704942741981     IErMin= 2 ErrMin= 1.18D-03
 ErrMax= 1.18D-03  0.00D+00 EMaxC= 1.00D-01 BMatC= 4.03D-04 BMatP= 8.18D-03
 IDIUse=3 WtCom= 9.88D-01 WtEn= 1.18D-02
 Coeff-Com: -0.367D-01 0.104D+01
 Coeff-En:   0.000D+00 0.100D+01
 Coeff:     -0.362D-01 0.104D+01
 Gap=     0.238 Goal=   None    Shift=    0.000
 RMSDP=8.31D-04 MaxDP=3.80D-02 DE=-1.03D-02 OVMax= 8.10D-03

 Cycle   3  Pass 1  IDiag  1:
 RMSU=  5.38D-04    CP:  9.88D-01  1.12D+00
 E= -362.705283013427     Delta-E=       -0.000340271446 Rises=F Damp=F
 DIIS: error= 1.16D-03 at cycle   3 NSaved=   3.
 NSaved= 3 IEnMin= 3 EnMin= -362.705283013427     IErMin= 3 ErrMin= 1.16D-03
 ErrMax= 1.16D-03  0.00D+00 EMaxC= 1.00D-01 BMatC= 3.41D-04 BMatP= 4.03D-04
 IDIUse=3 WtCom= 9.88D-01 WtEn= 1.16D-02
 Coeff-Com: -0.697D-01 0.519D+00 0.551D+00
 Coeff-En:   0.000D+00 0.479D-01 0.952D+00
 Coeff:     -0.689D-01 0.514D+00 0.555D+00
 Gap=     0.240 Goal=   None    Shift=    0.000
 RMSDP=2.73D-04 MaxDP=9.14D-03 DE=-3.40D-04 OVMax= 3.30D-03

 Cycle   4  Pass 1  IDiag  1:
 RMSU=  1.89D-04    CP:  9.89D-01  1.10D+00  7.09D-01
 E= -362.705562521013     Delta-E=       -0.000279507586 Rises=F Damp=F
 DIIS: error= 1.34D-04 at cycle   4 NSaved=   4.
 NSaved= 4 IEnMin= 4 EnMin= -362.705562521013     IErMin= 4 ErrMin= 1.34D-04
 ErrMax= 1.34D-04  0.00D+00 EMaxC= 1.00D-01 BMatC= 6.12D-06 BMatP= 3.41D-04
 IDIUse=3 WtCom= 9.99D-01 WtEn= 1.34D-03
 Coeff-Com: -0.108D-02-0.559D-01 0.579D-01 0.999D+00
 Coeff-En:   0.000D+00 0.000D+00 0.000D+00 0.100D+01
 Coeff:     -0.108D-02-0.559D-01 0.578D-01 0.999D+00
 Gap=     0.240 Goal=   None    Shift=    0.000
 RMSDP=5.02D-05 MaxDP=1.93D-03 DE=-2.80D-04 OVMax= 1.09D-03

 Cycle   5  Pass 1  IDiag  1:
 RMSU=  3.64D-05    CP:  9.89D-01  1.10D+00  7.61D-01  1.01D+00
 E= -362.705570801949     Delta-E=       -0.000008280936 Rises=F Damp=F
 DIIS: error= 4.42D-05 at cycle   5 NSaved=   5.
 NSaved= 5 IEnMin= 5 EnMin= -362.705570801949     IErMin= 5 ErrMin= 4.42D-05
 ErrMax= 4.42D-05  0.00D+00 EMaxC= 1.00D-01 BMatC= 8.94D-07 BMatP= 6.12D-06
 IDIUse=1 WtCom= 1.00D+00 WtEn= 0.00D+00
 Coeff-Com:  0.342D-02-0.510D-01-0.122D-01 0.376D+00 0.684D+00
 Coeff:      0.342D-02-0.510D-01-0.122D-01 0.376D+00 0.684D+00
 Gap=     0.240 Goal=   None    Shift=    0.000
 RMSDP=1.83D-05 MaxDP=8.75D-04 DE=-8.28D-06 OVMax= 2.57D-04

 Cycle   6  Pass 1  IDiag  1:
 RMSU=  9.90D-06    CP:  9.90D-01  1.10D+00  7.69D-01  1.04D+00  1.05D+00
 E= -362.705571754004     Delta-E=       -0.000000952055 Rises=F Damp=F
 DIIS: error= 1.76D-05 at cycle   6 NSaved=   6.
 NSaved= 6 IEnMin= 6 EnMin= -362.705571754004     IErMin= 6 ErrMin= 1.76D-05
 ErrMax= 1.76D-05  0.00D+00 EMaxC= 1.00D-01 BMatC= 6.33D-08 BMatP= 8.94D-07
 IDIUse=1 WtCom= 1.00D+00 WtEn= 0.00D+00
 Coeff-Com:  0.113D-02-0.840D-02-0.114D-01 0.261D-02 0.188D+00 0.828D+00
 Coeff:      0.113D-02-0.840D-02-0.114D-01 0.261D-02 0.188D+00 0.828D+00
 Gap=     0.240 Goal=   None    Shift=    0.000
 RMSDP=4.58D-06 MaxDP=1.98D-04 DE=-9.52D-07 OVMax= 1.02D-04

 Cycle   7  Pass 1  IDiag  1:
 RMSU=  3.97D-06    CP:  9.89D-01  1.10D+00  7.69D-01  1.05D+00  1.08D+00
                    CP:  9.53D-01
 E= -362.705571839505     Delta-E=       -0.000000085501 Rises=F Damp=F
 DIIS: error= 8.49D-06 at cycle   7 NSaved=   7.
 NSaved= 7 IEnMin= 7 EnMin= -362.705571839505     IErMin= 7 ErrMin= 8.49D-06
 ErrMax= 8.49D-06  0.00D+00 EMaxC= 1.00D-01 BMatC= 8.32D-09 BMatP= 6.33D-08
 IDIUse=1 WtCom= 1.00D+00 WtEn= 0.00D+00
 Coeff-Com:  0.204D-03 0.406D-03-0.348D-02-0.253D-01 0.141D-01 0.284D+00
 Coeff-Com:  0.730D+00
 Coeff:      0.204D-03 0.406D-03-0.348D-02-0.253D-01 0.141D-01 0.284D+00
 Coeff:      0.730D+00
 Gap=     0.240 Goal=   None    Shift=    0.000
 RMSDP=1.46D-06 MaxDP=3.08D-05 DE=-8.55D-08 OVMax= 5.17D-05

 Cycle   8  Pass 1  IDiag  1:
 RMSU=  1.19D-06    CP:  9.89D-01  1.10D+00  7.69D-01  1.05D+00  1.10D+00
                    CP:  9.79D-01  1.07D+00
 E= -362.705571848489     Delta-E=       -0.000000008985 Rises=F Damp=F
 DIIS: error= 5.16D-06 at cycle   8 NSaved=   8.
 NSaved= 8 IEnMin= 8 EnMin= -362.705571848489     IErMin= 8 ErrMin= 5.16D-06
 ErrMax= 5.16D-06  0.00D+00 EMaxC= 1.00D-01 BMatC= 2.34D-09 BMatP= 8.32D-09
 IDIUse=1 WtCom= 1.00D+00 WtEn= 0.00D+00
 Coeff-Com: -0.944D-04 0.168D-02 0.177D-03-0.147D-01-0.252D-01 0.631D-02
 Coeff-Com:  0.370D+00 0.662D+00
 Coeff:     -0.944D-04 0.168D-02 0.177D-03-0.147D-01-0.252D-01 0.631D-02
 Coeff:      0.370D+00 0.662D+00
 Gap=     0.240 Goal=   None    Shift=    0.000
 RMSDP=8.26D-07 MaxDP=3.35D-05 DE=-8.98D-09 OVMax= 2.02D-05

 Cycle   9  Pass 1  IDiag  1:
 RMSU=  5.23D-07    CP:  9.89D-01  1.10D+00  7.69D-01  1.05D+00  1.10D+00
                    CP:  1.00D+00  1.16D+00  9.96D-01
 E= -362.705571851187     Delta-E=       -0.000000002697 Rises=F Damp=F
 DIIS: error= 7.63D-07 at cycle   9 NSaved=   9.
 NSaved= 9 IEnMin= 9 EnMin= -362.705571851187     IErMin= 9 ErrMin= 7.63D-07
 ErrMax= 7.63D-07  0.00D+00 EMaxC= 1.00D-01 BMatC= 1.14D-10 BMatP= 2.34D-09
 IDIUse=1 WtCom= 1.00D+00 WtEn= 0.00D+00
 Coeff-Com: -0.335D-04 0.379D-03 0.369D-03-0.191D-02-0.844D-02-0.226D-01
 Coeff-Com:  0.525D-01 0.217D+00 0.762D+00
 Coeff:     -0.335D-04 0.379D-03 0.369D-03-0.191D-02-0.844D-02-0.226D-01
 Coeff:      0.525D-01 0.217D+00 0.762D+00
 Gap=     0.240 Goal=   None    Shift=    0.000
 RMSDP=2.32D-07 MaxDP=7.58D-06 DE=-2.70D-09 OVMax= 7.31D-06

 Cycle  10  Pass 1  IDiag  1:
 RMSU=  1.17D-07    CP:  9.89D-01  1.10D+00  7.69D-01  1.05D+00  1.10D+00
                    CP:  1.01D+00  1.18D+00  1.10D+00  1.08D+00
 E= -362.705571851318     Delta-E=       -0.000000000132 Rises=F Damp=F
 DIIS: error= 3.39D-07 at cycle  10 NSaved=  10.
 NSaved=10 IEnMin=10 EnMin= -362.705571851318     IErMin=10 ErrMin= 3.39D-07
 ErrMax= 3.39D-07  0.00D+00 EMaxC= 1.00D-01 BMatC= 2.53D-11 BMatP= 1.14D-10
 IDIUse=1 WtCom= 1.00D+00 WtEn= 0.00D+00
 Coeff-Com: -0.182D-05-0.800D-04 0.166D-03 0.147D-02-0.252D-03-0.126D-01
 Coeff-Com: -0.337D-01-0.118D-02 0.365D+00 0.682D+00
 Coeff:     -0.182D-05-0.800D-04 0.166D-03 0.147D-02-0.252D-03-0.126D-01
 Coeff:     -0.337D-01-0.118D-02 0.365D+00 0.682D+00
 Gap=     0.240 Goal=   None    Shift=    0.000
 RMSDP=8.75D-08 MaxDP=3.70D-06 DE=-1.32D-10 OVMax= 1.86D-06

 Cycle  11  Pass 1  IDiag  1:
 RMSU=  5.11D-08    CP:  9.89D-01  1.10D+00  7.69D-01  1.05D+00  1.10D+00
                    CP:  1.01D+00  1.19D+00  1.12D+00  1.14D+00  1.00D+00
 E= -362.705571851352     Delta-E=       -0.000000000034 Rises=F Damp=F
 DIIS: error= 1.23D-07 at cycle  11 NSaved=  11.
 NSaved=11 IEnMin=11 EnMin= -362.705571851352     IErMin=11 ErrMin= 1.23D-07
 ErrMax= 1.23D-07  0.00D+00 EMaxC= 1.00D-01 BMatC= 7.07D-13 BMatP= 2.53D-11
 IDIUse=1 WtCom= 1.00D+00 WtEn= 0.00D+00
 Coeff-Com:  0.261D-05-0.544D-04 0.222D-05 0.569D-03 0.630D-03-0.107D-02
 Coeff-Com: -0.113D-01-0.187D-01 0.258D-01 0.128D+00 0.877D+00
 Coeff:      0.261D-05-0.544D-04 0.222D-05 0.569D-03 0.630D-03-0.107D-02
 Coeff:     -0.113D-01-0.187D-01 0.258D-01 0.128D+00 0.877D+00
 Gap=     0.240 Goal=   None    Shift=    0.000
 RMSDP=3.95D-08 MaxDP=2.89D-06 DE=-3.39D-11 OVMax= 7.25D-07

 Cycle  12  Pass 1  IDiag  1:
 RMSU=  1.74D-08    CP:  9.89D-01  1.10D+00  7.70D-01  1.05D+00  1.10D+00
                    CP:  1.01D+00  1.19D+00  1.13D+00  1.16D+00  1.09D+00
                    CP:  1.08D+00
 E= -362.705571851347     Delta-E=        0.000000000005 Rises=F Damp=F
 DIIS: error= 3.93D-08 at cycle  12 NSaved=  12.
 NSaved=12 IEnMin=11 EnMin= -362.705571851352     IErMin=12 ErrMin= 3.93D-08
 ErrMax= 3.93D-08  0.00D+00 EMaxC= 1.00D-01 BMatC= 1.96D-13 BMatP= 7.07D-13
 IDIUse=1 WtCom= 1.00D+00 WtEn= 0.00D+00
 Coeff-Com:  0.115D-05-0.155D-04-0.135D-04 0.110D-03 0.240D-03 0.556D-03
 Coeff-Com: -0.149D-02-0.692D-02-0.185D-01-0.725D-02 0.376D+00 0.657D+00
 Coeff:      0.115D-05-0.155D-04-0.135D-04 0.110D-03 0.240D-03 0.556D-03
 Coeff:     -0.149D-02-0.692D-02-0.185D-01-0.725D-02 0.376D+00 0.657D+00
 Gap=     0.240 Goal=   None    Shift=    0.000
 RMSDP=5.41D-09 MaxDP=1.30D-07 DE= 5.12D-12 OVMax= 3.94D-07

 SCF Done:  E(RM062X) =  -362.705571851     A.U. after   12 cycles
            NFock= 12  Conv=0.54D-08     -V/T= 2.0036
 KE= 3.614146828279D+02 PE=-1.537854145647D+03 EE= 4.677044060537D+02
 Leave Link  502 at Sun Oct 13 19:30:40 2019, MaxMem=  2684354560 cpu:             177.5 elap:               7.4
 (Enter /apps/cent7/gaussian/g16-A.03/g16-haswell/g16/l701.exe)
 ... and contract with generalized density number  0.
 Compute integral first derivatives.
 Leave Link  701 at Sun Oct 13 19:30:41 2019, MaxMem=  2684354560 cpu:               3.1 elap:               0.2
 (Enter /apps/cent7/gaussian/g16-A.03/g16-haswell/g16/l702.exe)
 L702 exits ... SP integral derivatives will be done elsewhere.
 Leave Link  702 at Sun Oct 13 19:30:41 2019, MaxMem=  2684354560 cpu:               0.5 elap:               0.0
 (Enter /apps/cent7/gaussian/g16-A.03/g16-haswell/g16/l703.exe)
 Integral derivatives from FoFJK, PRISM(SPDF).
 Compute integral first derivatives, UseDBF=F ICtDFT=           0.
 Calling FoFJK, ICntrl=      2127 FMM=F ISym2X=0 I1Cent= 0 IOpClX= 0 NMat=1 NMatS=1 NMatT=0.
 FoFJK:  IHMeth= 1 ICntrl=    2127 DoSepK=F KAlg= 0 I1Cent=           0 FoldK=F
 IRaf=         0 NMat=       1 IRICut=       1 DoRegI=T DoRafI=F ISym2E= 0 IDoP0=0 IntGTp=1.
 FoFCou: FMM=F IPFlag=           0 FMFlag=      100000 FMFlg1=         800
         NFxFlg=           0 DoJE=F BraDBF=F KetDBF=F FulRan=T
         wScrn=  0.000000 ICntrl=      2127 IOpCl=  0 I1Cent=           0 NGrid=           0
         NMat0=    1 NMatS0=      1 NMatT0=    0 NMatD0=    1 NMtDS0=    0 NMtDT0=    0
 Symmetry not used in FoFCou.
 Leave Link  703 at Sun Oct 13 19:30:42 2019, MaxMem=  2684354560 cpu:              33.8 elap:               1.4
 (Enter /apps/cent7/gaussian/g16-A.03/g16-haswell/g16/l716.exe)
 Dipole        =-5.18510247D-01-4.66068877D-01 5.54221460D-01
 ***** Axes restored to original set *****
 -------------------------------------------------------------------
 Center     Atomic                   Forces (Hartrees/Bohr)
 Number     Number              X              Y              Z
 -------------------------------------------------------------------
      1        8           0.011351460    0.007370175   -0.010796574
      2        7          -0.012623753    0.000091173    0.015194705
      3        6          -0.001405181   -0.005441447   -0.002054839
      4        6           0.003371393   -0.001087541   -0.000507489
      5        6          -0.001401851    0.000178201    0.000517889
      6        6          -0.000303360   -0.003102148   -0.000484274
      7        6           0.000895718    0.000371901   -0.000178242
      8        6          -0.000811240    0.002425118    0.000104336
      9        1          -0.002365019   -0.003505032    0.002002131
     10        1           0.003306176    0.002044540   -0.004103132
     11        1          -0.000698438    0.000401035    0.000213379
     12        1           0.000709833   -0.000548004   -0.000138974
     13        1          -0.000103334    0.000380383   -0.000465662
     14        1          -0.000409953    0.000275232    0.000518705
     15        1           0.000487548    0.000146414    0.000178042
 -------------------------------------------------------------------
 Cartesian Forces:  Max     0.015194705 RMS     0.004255364
 Leave Link  716 at Sun Oct 13 19:30:42 2019, MaxMem=  2684354560 cpu:               0.5 elap:               0.0
 (Enter /apps/cent7/gaussian/g16-A.03/g16-haswell/g16/l103.exe)

 GradGradGradGradGradGradGradGradGradGradGradGradGradGradGradGradGradGrad
 Berny optimization.
 Using GEDIIS/GDIIS optimizer.
 FormGI is forming the generalized inverse of G from B-inverse, IUseBI=4.
 Internal  Forces:  Max     0.012227021 RMS     0.002162379
 Search for a local minimum.
 Step number   2 out of a maximum of   77
 All quantities printed in internal units (Hartrees-Bohrs-Radians)
 RMS Force = .21624D-02 SwitMx=.10000D-02 MixMth= 1
 Mixed Optimization -- RFO/linear search
 Update second derivatives using D2CorX and points    1    2
 DE= -8.04D-03 DEPred=-7.52D-03 R= 1.07D+00
 TightC=F SS=  1.41D+00  RLast= 2.68D-01 DXNew= 5.0454D-01 8.0367D-01
 Trust test= 1.07D+00 RLast= 2.68D-01 DXMaxT set to 5.05D-01
 ITU=  1  0
 Use linear search instead of GDIIS.
     Eigenvalues ---    0.01923   0.01941   0.01976   0.01992   0.01996
     Eigenvalues ---    0.02002   0.02004   0.02006   0.02035   0.02234
     Eigenvalues ---    0.02310   0.02515   0.15295   0.15997   0.15999
     Eigenvalues ---    0.16000   0.16000   0.16000   0.16196   0.21843
     Eigenvalues ---    0.22001   0.22069   0.23455   0.25557   0.34763
     Eigenvalues ---    0.34811   0.34815   0.34819   0.35003   0.40194
     Eigenvalues ---    0.40408   0.43761   0.44325   0.44513   0.45850
     Eigenvalues ---    0.48128   0.51881   0.55587   0.60381
 RFO step:  Lambda=-2.02289003D-03 EMin= 1.92304425D-02
 Quartic linear search produced a step of  0.21387.
 Iteration  1 RMS(Cart)=  0.03774733 RMS(Int)=  0.00188977
 Iteration  2 RMS(Cart)=  0.00226822 RMS(Int)=  0.00050245
 Iteration  3 RMS(Cart)=  0.00000722 RMS(Int)=  0.00050242
 Iteration  4 RMS(Cart)=  0.00000000 RMS(Int)=  0.00050242
 ITry= 1 IFail=0 DXMaxC= 1.56D-01 DCOld= 1.00D+10 DXMaxT= 5.05D-01 DXLimC= 3.00D+00 Rises=F
 Variable       Old X    -DE/DX   Delta X   Delta X   Delta X     New X
                                 (Linear)    (Quad)   (Total)
    R1        2.56419   0.01223   0.02141   0.01132   0.03273   2.59692
    R2        1.82447  -0.00018   0.00222  -0.00152   0.00070   1.82517
    R3        2.59034   0.00536   0.00566   0.00914   0.01480   2.60514
    R4        1.90442  -0.00159  -0.00088  -0.00369  -0.00458   1.89984
[...]
 ! D30   D(14,7,8,15)            0.6797         -DE/DX =    0.0                 !
 --------------------------------------------------------------------------------
 GradGradGradGradGradGradGradGradGradGradGradGradGradGradGradGradGradGrad

 Leave Link  103 at Sun Oct 13 19:34:14 2019, MaxMem=  2684354560 cpu:               0.6 elap:               0.1
 (Enter /apps/cent7/gaussian/g16-A.03/g16-haswell/g16/l9999.exe)

 ----------------------------------------------------------------------

 Electric dipole moment (input orientation):
 (Debye = 10**-18 statcoulomb cm , SI units = C m)
                  (au)            (Debye)         (10**-30 SI)
   Tot        0.365078D+00      0.927936D+00      0.309526D+01
   x          0.500967D-01      0.127333D+00      0.424737D+00
   y          0.258411D+00      0.656816D+00      0.219090D+01
   z          0.252974D+00      0.642997D+00      0.214481D+01

 Dipole polarizability, Alpha (input orientation).
 (esu units = cm**3 , SI units = C**2 m**2 J**-1)
 Alpha(0;0):
               (au)            (10**-24 esu)      (10**-40 SI)
   iso        0.800374D+02      0.118603D+02      0.131964D+02
   aniso      0.495331D+02      0.734005D+01      0.816691D+01
   xx         0.868067D+02      0.128634D+02      0.143125D+02
   yx         0.134486D+02      0.199287D+01      0.221737D+01
   yy         0.946868D+02      0.140311D+02      0.156117D+02
   zx        -0.134710D+02     -0.199620D+01     -0.222107D+01
   zy         0.979374D+01      0.145128D+01      0.161477D+01
   zz         0.586187D+02      0.868640D+01      0.966492D+01

 ----------------------------------------------------------------------

 Dipole orientation:
     8          2.56888935          0.56989990          0.24577951
     7          0.37625923         -0.80888716          0.84528334
     6         -0.63337936         -2.10939948         -1.26309155
     6          0.80822279         -2.66192689         -3.39335629
     6         -0.25620764         -4.06348701         -5.34892212
     6         -2.73543302         -4.91422416         -5.20753499
     6         -4.16667886         -4.34794067         -3.07120418
     6         -3.12990422         -2.95825890         -1.10691560
     1          3.83632124         -0.12288953          1.34788992
     1         -0.88859388          0.45900980          1.53210331
     1          2.72725371         -1.97336037         -3.51841228
     1          0.87461347         -4.48089053         -7.00473508
     1         -3.54890576         -5.99982528         -6.73926090
     1         -6.10483558         -4.99413220         -2.93162198
     1         -4.24043120         -2.53822854          0.56497198

 Electric dipole moment (dipole orientation):
 (Debye = 10**-18 statcoulomb cm , SI units = C m)
                  (au)            (Debye)         (10**-30 SI)
   Tot        0.365078D+00      0.927936D+00      0.309526D+01
   x          0.000000D+00      0.000000D+00      0.000000D+00
   y          0.000000D+00      0.000000D+00      0.000000D+00
   z          0.365078D+00      0.927936D+00      0.309526D+01

 Dipole polarizability, Alpha (dipole orientation).
 (esu units = cm**3 , SI units = C**2 m**2 J**-1)
 Alpha(0;0):
               (au)            (10**-24 esu)      (10**-40 SI)
   iso        0.800374D+02      0.118603D+02      0.131964D+02
   aniso      0.495331D+02      0.734005D+01      0.816691D+01
   xx         0.885860D+02      0.131271D+02      0.146059D+02
   yx         0.151258D+02      0.224142D+01      0.249391D+01
   yy         0.646482D+02      0.957988D+01      0.106591D+02
   zx         0.135011D+01      0.200065D+00      0.222603D+00
   zy         0.202208D+02      0.299641D+01      0.333396D+01
   zz         0.868780D+02      0.128740D+02      0.143242D+02

 ----------------------------------------------------------------------
 1\1\GINC-BROWN-A199\Freq\RM062X\6-311++G(d,p)\C6H7N1O1\FINEJ\13-Oct-20
 19\0\\#P Geom=AllCheck Guess=TCheck SCRF=Check GenChk RM062X/6-311++G(
 d,p) Freq\\Title Card Required\\0,1\O,1.3448223674,0.2263947768,-0.309
 879773\N,0.2828314054,0.0038228299,0.585610283\C,-0.3591182871,-1.2397
 778567,0.3729434357\C,0.2573464116,-2.2873222489,-0.305914545\C,-0.399
 1113417,-3.5096699217,-0.4207211679\C,-1.6603729902,-3.6983995222,0.12
 98071217\C,-2.2713954824,-2.6437723238,0.8049848722\C,-1.6284157328,-1
 .4217432831,0.9294474125\H,2.109121352,0.342613899,0.26170662\H,-0.367
 6762453,0.7718628783,0.4543937177\H,1.2315726008,-2.1358876241,-0.7490
 328121\H,0.0850740097,-4.3197229614,-0.9536506934\H,-2.1643224734,-4.6
 518942761,0.0338455503\H,-3.2558617517,-2.7733976403,1.238946312\H,-2.
 1008938423,-0.6053067256,1.4658136662\\Version=ES64L-G16RevA.03\State=
 1-A\HF=-362.7149228\RMSD=2.493e-09\RMSF=1.901e-05\ZeroPoint=0.1226808\
 Thermal=0.1226808\Dipole=0.0500967,0.2584112,0.2529744\DipoleDeriv=-0.
 5237092,-0.1889821,0.0801903,-0.1310723,-0.5606693,0.0352034,0.2992854
 ,0.2386511,-0.223008,-0.018559,-0.2644292,-0.2069382,-0.3339475,-0.689
 7556,-0.1678328,-0.4721883,-0.6130976,-0.2257985,0.2446343,0.4701866,0
 .0964187,0.5643353,0.9560956,0.1124768,0.1279057,0.1649927,0.0304632,-
 0.0477913,0.0700157,-0.0194829,-0.1795369,-0.3244852,0.0125583,-0.1280
 316,-0.0954049,-0.1314509,0.1199026,0.0368741,-0.1175676,0.0923642,0.1
 085906,0.0459902,-0.0870583,0.0891659,-0.0620908,-0.1944679,0.0468835,
 0.0324534,0.0525,-0.0903493,-0.0001313,0.0299128,-0.0024609,-0.1821302
 ,0.0603779,0.0593168,-0.0719687,-0.0137842,0.1305757,0.1046204,-0.1001
 985,0.067067,-0.0643923,-0.174776,-0.2753426,-0.1098405,-0.054,-0.1955
 552,0.0272778,-0.0191704,0.1470579,-0.0909735,0.323709,0.059063,0.0023
 114,0.0318154,0.3577763,0.0008207,-0.0118899,0.0220103,0.1985597,0.068
 3379,0.0308271,0.0504904,0.006245,0.2098165,0.03574,0.0884426,0.197178
 2,0.2347516,0.0155868,-0.0168035,0.0547305,-0.0100776,0.1041577,-0.015
 5883,0.0625228,-0.0189928,0.1171108,0.051785,0.0423976,0.0582299,0.036
 9866,-0.0140821,-0.0715693,0.0547674,-0.076869,0.0829895,0.0494652,-0.
 0707079,0.0242724,-0.0720459,-0.0404477,-0.033025,0.0239442,-0.0339522
 ,0.1270056,-0.0447881,-0.0285776,0.0800738,-0.0254243,0.0729964,-0.010
 185,0.0795315,-0.0083596,0.0975845,0.0702929,0.0292785,0.0466271,0.035
 6422,-0.0246644,-0.076356,0.0522247,-0.0769861,0.0913793\Polar=86.8067
 186,13.4485809,94.686793,-13.4710006,9.7937406,58.6187323\Quadrupole=2
 .9785418,2.0736196,-5.0521615,0.7269675,-0.9525353,2.7828167\PG=C01 [X
 (C6H7N1O1)]\NImag=0\\0.58369218,0.09199893,0.07679010,0.12039552,0.017
 20745,0.38371899,-0.19432139,-0.01641305,0.10688670,0.55607457,-0.0210
 1340,-0.06715261,0.01447797,-0.07964901,0.62579687,0.09866587,0.015387
 15,-0.13602427,-0.10117505,-0.03558751,0.20297722,-0.02861528,-0.02868
 862,-0.00999117,-0.12183842,-0.05879043,0.02698664,0.60311884,-0.00446
 919,-0.00045062,-0.00230932,-0.05186941,-0.23407436,-0.00493900,0.0405
 0523,0.64263924,0.02311202,0.02989828,-0.00227569,-0.00116064,-0.06395
 707,-0.06242998,-0.20467513,0.14121752,0.30997095,0.00108019,0.0021234
 2,0.00003788,0.01825526,-0.01383783,-0.00693378,-0.16889560,0.09082520
 ,0.08150520,0.64415378,0.00470201,-0.00208802,-0.00292092,0.00824027,-
 0.04210849,-0.02336051,0.02689122,-0.22130735,-0.06941302,0.09253623,0
 .63111340,0.00016831,-0.00285873,0.00066676,-0.00098718,-0.01025700,0.
 00009655,0.06127506,-0.10212001,-0.12945356,-0.22573084,0.13680275,0.2
 8891378,-0.00107936,-0.00295141,0.00076572,-0.00488164,0.00336407,0.00
 574173,0.06747717,-0.01637211,-0.03724405,-0.16630844,-0.06744070,0.02
 802609,0.60151466,-0.00106454,0.00040026,0.00076436,0.00129210,0.00411
 013,0.00043702,0.03388907,-0.05550004,-0.03713365,-0.13093394,-0.28770
 238,-0.01854842,0.04471396,0.66301560,-0.00011393,0.00153341,0.0001622
 8,0.00764263,-0.00207389,0.00372820,-0.02060840,-0.01142202,0.00631097
 ,0.00578240,-0.04935621,-0.07978358,-0.21206403,0.16691488,0.30430592,
 0.00136181,0.00062517,-0.00097049,0.00127384,-0.00270652,-0.00290299,-
 0.05445662,0.02689376,0.03388950,-0.02087514,-0.07747578,-0.01309895,-
 0.29769059,-0.00392292,0.11367353,0.59701252,-0.00077853,-0.00071311,0
 .00171369,-0.00378606,-0.00582394,-0.00325770,0.02843044,-0.00727396,-
 0.01357442,-0.02777101,0.02011097,0.01842162,-0.06784340,-0.12836103,0
 .00988306,0.10838163,0.68627883,-0.00085831,-0.00056286,0.00099761,-0.
 00264665,-0.00006244,-0.00083506,0.03428653,-0.01419336,-0.02664866,0.
 00349571,0.04291102,0.02034451,0.09044744,-0.02173726,-0.11587759,-0.1
 8930544,0.14592336,0.27577753,-0.00139674,-0.00208606,-0.00026692,-0.0
 0109969,0.00563807,0.00675163,-0.02286064,-0.03118239,0.00026018,-0.00
 271553,0.00182411,-0.00038975,-0.02068794,0.02096079,0.02107380,-0.158
 23960,0.09262374,0.07922009,0.64593234,0.00272584,0.00154937,-0.003306
 37,0.00580495,0.00371915,-0.00033060,-0.08327248,0.02264448,0.04741948
 ,-0.00210099,-0.07075874,-0.02214921,0.07218138,0.04922783,-0.02002909
 ,0.02852381,-0.24283330,-0.07792592,0.08117655,0.63015981,0.00151981,0
 .00062297,0.00122719,0.00377068,-0.00161582,0.00156446,-0.01695341,0.0
 2282261,0.01907471,-0.00142014,-0.02458254,-0.01201444,0.03918019,0.00
 512250,-0.01072648,0.05635671,-0.10930946,-0.13003415,-0.21879314,0.13
 661747,0.29369294,-0.00040727,-0.00119866,0.00207852,-0.02622259,-0.02
 037342,0.00119349,-0.26851183,-0.04911442,0.08386704,-0.01428639,0.063
 01897,0.03284651,-0.05081944,-0.03218596,0.01134314,0.05925179,-0.0194
 7142,-0.03227571,-0.16587953,-0.07227904,0.02667072,0.58291328,-0.0082
 6484,-0.00591562,0.00056983,-0.03909635,-0.00794674,0.01193570,0.01413
 048,-0.12463468,-0.02718524,0.02059301,0.04708679,0.00371429,-0.036198
 85,-0.02769851,0.00927544,0.02988325,-0.05168678,-0.03599530,-0.134465
 73,-0.30106239,-0.02105272,0.06365470,0.68682683,-0.00041589,-0.002057
 69,0.00065751,-0.00186285,0.00268291,0.00958336,0.10486350,0.00589570,
 -0.11574336,0.01737198,-0.01724056,-0.00842902,0.01072990,0.00790626,-
 0.00633333,-0.01550574,-0.01131206,0.01114843,0.00413892,-0.05328434,-
 0.07948294,-0.20125791,0.17359501,0.28816782,-0.32877846,-0.05122905,-
 0.21651203,-0.02680214,-0.00244555,-0.00915794,-0.00475691,-0.00151775
 ,0.00070332,-0.00016376,0.00083345,0.00011571,0.00000819,-0.00000720,-
 0.00024176,-0.00000894,0.00043076,0.00014593,-0.00015048,-0.00041088,0
 .00028286,0.00066070,-0.00030082,-0.00007577,0.36372538,-0.04950260,-0
 .00965299,-0.02848153,-0.00519524,-0.00398372,-0.00449533,-0.00492496,
 -0.00093570,-0.00002737,-0.00055579,0.00013919,0.00126022,0.00014258,-
 0.00036850,-0.00022266,0.00016866,0.00011955,-0.00005483,-0.00017930,0
 .00009089,0.00013718,0.00016762,-0.00090461,0.00016128,0.05691739,0.01
 515116,-0.27314666,-0.04019883,-0.24236785,0.04064896,0.00697282,0.012
 66077,0.00409584,-0.00095282,-0.00192457,-0.00048283,-0.00010368,0.000
 23004,0.00023997,0.00024831,-0.00010535,-0.00021463,0.00017606,0.00010
 801,0.00021563,-0.00032936,-0.00036582,0.00048948,0.00167289,-0.000225
 12,0.22410348,0.03215045,0.23320380,-0.03206690,0.01151499,0.00019283,
 -0.19900158,0.19000933,-0.01686630,0.01235847,-0.01731542,-0.00336428,
 -0.00178770,-0.00206150,0.00034082,-0.00022257,-0.00069625,-0.00054930
 ,0.00061585,-0.00062640,-0.00035571,0.00038850,0.00090321,0.00118891,0
 .00061550,-0.00240738,-0.00085763,-0.00387404,0.00329095,0.00413553,0.
 22398460,-0.01279294,0.01002954,0.00200464,0.18076353,-0.27327065,0.04
 220842,0.01989670,-0.02986259,0.00433396,-0.00369475,-0.00226151,0.001
 55881,0.00079740,0.00007467,-0.00195826,-0.00039567,0.00083108,0.00074
 950,-0.00098029,-0.00101451,-0.00151039,0.00184358,0.00248326,-0.00145
 179,-0.00211915,0.00104290,0.00046369,-0.18316146,0.29242245,0.0321111
 2,-0.02139079,-0.00539745,-0.04968462,0.08878272,-0.02673805,-0.001323
 95,-0.02168650,-0.00449245,-0.00147924,0.00110779,0.00168817,-0.000016
 37,-0.00173726,-0.00011425,0.00085346,0.00087519,-0.00015392,-0.000517
 38,-0.00014300,-0.00090392,0.00168661,0.00220842,0.00043947,0.00081378
 ,0.00047490,-0.00160517,0.01628367,-0.04860908,0.03708703,0.00025277,-
 0.00323257,-0.00157124,-0.00251478,-0.00080175,-0.00077217,-0.00814239
 ,-0.00251220,0.00581207,-0.29192807,-0.03613421,0.11678822,-0.00761407
 ,0.00046354,0.00534163,0.00223520,-0.00336036,0.00154238,0.00046776,0.
 00050290,-0.00056295,0.00113868,0.00157834,0.00313692,0.00019450,-0.00
 033453,-0.00019663,0.00004795,0.00033568,0.00025125,0.30715417,-0.0010
 9711,-0.00238563,-0.00010798,0.00034521,-0.00003401,0.00050474,0.02122
 030,0.00996441,-0.00862398,-0.03816872,-0.05948040,0.01013987,-0.02439
 502,0.00132400,0.01189852,-0.00291130,-0.00372226,-0.00244586,0.000138
 38,-0.00132307,-0.00026411,0.00093086,-0.00325986,-0.00362878,-0.00025
 337,-0.00067809,-0.00014316,-0.00009520,-0.00003915,0.00030645,0.04307
 967,0.05909095,-0.00080326,0.00188070,-0.00031352,-0.00062581,0.001291
 58,-0.00236879,0.01377880,0.00249710,-0.00182309,0.11761614,0.00928760
 ,-0.09198155,-0.00428546,-0.00067454,0.00427341,0.00151203,-0.00255796
 ,0.00566756,-0.00064146,-0.00030203,-0.00082227,0.00278465,-0.00389157
 ,0.00326301,-0.00001134,-0.00079318,0.00015059,0.00008192,0.00047883,-
 0.00003331,-0.12798393,-0.00893626,0.08743627,-0.00000137,0.00016425,0
 .00005932,0.00068198,-0.00047473,-0.00028236,0.00057022,-0.00436787,0.
 00172300,0.01003129,-0.01213295,-0.00751833,-0.11234634,0.09260911,0.0
 6997602,-0.00682731,0.02281938,0.01364723,-0.00365031,-0.00243268,0.00
 458403,-0.00085270,-0.00078571,-0.00041140,0.00001428,-0.00003407,0.00
 000072,-0.00015318,-0.00020531,-0.00010126,-0.00022986,0.00106269,-0.0
 0160681,0.11338821,-0.00015814,0.00009616,0.00018231,0.00120406,-0.000
 74318,-0.00070964,-0.00430363,-0.00290014,-0.00177402,0.01364956,-0.01
 530237,-0.01377822,0.09237839,-0.21607468,-0.10973768,-0.00347004,0.00
 699558,0.00270203,-0.00204771,0.00213172,-0.00094497,-0.00076539,-0.00
 024326,0.00072785,0.00008919,-0.00002478,0.00000902,-0.00021385,-0.000
 26840,-0.00012478,0.00052402,0.00047781,0.00142828,-0.09786501,0.22566
 514,0.00002903,0.00000074,0.00003270,0.00005215,-0.00026393,-0.0000982
 8,0.00197360,-0.00134919,0.00609596,0.00202196,-0.00103407,0.00244752,
 0.07010156,-0.10989326,-0.11330571,0.00385795,-0.01015873,-0.00148033,
 0.00470207,-0.00084204,0.00480928,-0.00044113,0.00077199,-0.00068730,0
 .00000988,-0.00000103,0.00002203,-0.00009291,-0.00001054,-0.00000691,-
 0.00195089,0.00111677,-0.00291517,-0.07842862,0.12056372,0.10885598,0.
 00007619,-0.00019059,-0.00023862,0.00004669,-0.00000246,-0.00023133,-0
 .00104090,0.00075399,0.00048635,-0.00324086,-0.00039474,0.00494417,-0.
 00801812,-0.02602645,-0.00422399,-0.11672417,-0.12085618,-0.00337170,0
 .01009506,0.01387410,0.00115805,0.00057169,0.00180697,0.00361681,0.000
 01803,0.00005473,0.00002107,-0.00010096,0.00004353,0.00005400,-0.00036
 154,-0.00120749,-0.00012129,0.00000492,0.00101695,-0.00169655,0.118441
 40,-0.00012517,-0.00012320,0.00011502,0.00009885,0.00024355,0.00034435
 ,0.00071848,0.00013247,-0.00018480,-0.00110092,0.00238559,-0.00117134,
 0.00073568,0.00041734,-0.00109433,-0.12084194,-0.27934546,-0.02863964,
 -0.01286206,-0.01539671,-0.00006535,0.00239699,-0.00108698,-0.00393300
 ,0.00001456,0.00000697,0.00000960,0.00009311,-0.00002874,-0.00010734,0
 .00005716,-0.00004117,-0.00018068,0.00027911,0.00008900,0.00140294,0.1
 3038674,0.29328906,-0.00012840,0.00009007,-0.00020985,-0.00022096,0.00
 005772,-0.00044302,0.00053998,-0.00020143,-0.00084604,0.00475986,-0.00
 142752,0.00425140,0.00536194,0.01198854,0.00413019,-0.00334222,-0.0287
 4216,-0.04354456,-0.00845336,-0.01304470,0.00169643,0.00378934,-0.0036
 6968,0.00352089,0.00000009,-0.00001627,0.00004338,-0.00012429,0.000257
 63,0.00004531,0.00036677,0.00042984,0.00035239,-0.00197754,0.00107395,
 -0.00283590,0.00123026,0.03244826,0.03629374,-0.00038313,-0.00018487,-
 0.00005041,-0.00035589,0.00011321,0.00031121,0.00213818,-0.00327916,0.
 00159512,0.00043185,0.00017641,-0.00067955,0.00169901,0.00186685,0.003
 31576,-0.00769101,-0.00422109,0.00406347,-0.29059194,-0.03364028,0.111
 10783,-0.00878995,0.00062723,0.00620727,0.00000352,-0.00004482,0.00008
 912,-0.00002283,0.00007011,0.00006374,-0.00022551,0.00009872,-0.000290
 84,-0.00052444,-0.00023377,0.00018447,-0.00017077,0.00081302,-0.001540
 38,0.30466675,-0.00051677,-0.00043210,0.00004383,-0.00083000,0.0006836
 7,0.00070211,-0.00329512,-0.00403690,-0.00281038,0.00007173,-0.0013392
 6,-0.00011278,0.00149002,-0.00276087,-0.00426150,0.02206045,0.00802939
 ,-0.00925006,-0.03312480,-0.06147968,0.00805101,-0.02554289,0.00098055
 ,0.01154833,-0.00002156,-0.00005231,0.00008693,0.00001070,0.00001410,0
 .00001048,0.00010963,-0.00000223,0.00026528,0.00115243,0.00020335,-0.0
 0050544,0.00004807,0.00029834,0.00149412,0.03731724,0.05950489,-0.0002
 5099,0.00004304,-0.00017792,0.00012154,0.00005847,0.00034073,0.0016237
 1,-0.00271517,0.00608014,-0.00065061,-0.00018818,-0.00083688,0.0031939
 0,-0.00443608,0.00395896,0.01349272,0.00355526,-0.00149574,0.11124605,
 0.00827951,-0.08956726,-0.00306217,-0.00126014,0.00453648,-0.00005218,
 -0.00006612,0.00004369,0.00000367,0.00004383,0.00003213,-0.00031689,0.
 00026834,-0.00063104,0.00067169,0.00017231,-0.00024167,-0.00182385,0.0
 0112994,-0.00264577,-0.12249574,-0.00647677,0.08365199,0.00058674,-0.0
 0025189,-0.00081562,0.00070579,0.00097043,-0.00132864,-0.00654429,0.02
 302175,0.01349029,-0.00375088,-0.00258279,0.00389971,-0.00103051,-0.00
 095819,-0.00034749,0.00076238,-0.00397149,0.00196474,0.01038874,-0.011
 55639,-0.00809015,-0.10938194,0.08924570,0.07032191,-0.00008988,0.0000
 2938,0.00000095,-0.00078112,-0.00040097,0.00100520,-0.00047481,0.00125
 239,0.00059666,-0.00010539,0.00019535,-0.00032259,0.00040335,-0.000663
 61,-0.00026110,-0.00018385,0.00107086,-0.00170086,0.10949567,0.0003564
 6,0.00004847,0.00004701,-0.00090985,0.00058433,0.00116079,-0.00240670,
 0.00559572,0.00181473,-0.00163518,0.00151256,-0.00090186,-0.00060199,-
 0.00010383,0.00065034,-0.00481256,-0.00260556,-0.00141837,0.01456669,-
 0.01565484,-0.01402840,0.08891848,-0.21293800,-0.10960912,0.00001998,0
 .00005003,-0.00006192,0.00075516,-0.00015245,0.00003279,-0.00027532,0.
 00010871,0.00020689,0.00021136,-0.00010195,0.00020208,0.00069281,-0.00
 084007,-0.00073838,0.00052121,0.00038907,0.00159176,-0.09540054,0.2241
 0780,-0.00028423,0.00040509,-0.00069650,-0.00075890,-0.00050654,-0.002
 01385,0.00412839,-0.01054410,-0.00189535,0.00410630,-0.00048194,0.0038
 6031,-0.00017854,0.00077860,-0.00062364,0.00170454,-0.00163575,0.00602
 634,0.00145365,-0.00062981,0.00185228,0.07028741,-0.11068892,-0.110415
 91,-0.00012403,-0.00002571,0.00013159,-0.00001692,0.00144078,0.0001533
 1,0.00011546,-0.00051440,-0.00025448,-0.00033567,0.00020983,-0.0006922
 0,0.00019661,-0.00007363,0.00019141,-0.00188107,0.00121483,-0.00304784
 ,-0.07841301,0.12105167,0.10742453\\0.00006180,-0.00001296,-0.00005267
 ,-0.00000392,0.00004812,0.00002717,-0.00002708,-0.00005823,-0.00000305
 ,-0.00002204,0.00000869,0.00000348,0.00000905,-0.00000607,0.00000151,-
 0.00000662,0.00001817,-0.00000100,-0.00000349,0.00000016,0.00000914,0.
 00001553,-0.00000139,-0.00000805,0.00000394,-0.00000282,0.00000085,-0.
 00001734,0.00000067,0.00001250,0.00000134,-0.00000801,-0.00000216,-0.0
 0001070,0.00000098,0.00000276,-0.00000645,0.00000274,0.00000533,0.0000
 0357,0.00000543,0.00000193,0.00000240,0.00000450,0.00000228\\\@


 IT IS A SIMPLE TASK TO MAKE THINGS COMPLEX,
 BUT A COMPLEX TASK TO MAKE THEM SIMPLE.
 Job cpu time:       0 days  0 hours 26 minutes  0.0 seconds.
 Elapsed time:       0 days  0 hours  1 minutes  5.7 seconds.
 File lengths (MBytes):  RWF=     79 Int=      0 D2E=      0 Chk=      6 Scr=      1
 Normal termination of Gaussian 16 at Sun Oct 13 19:34:14 2019.
real 234.30
user 5401.61
sys 26.09
Machine:
brown-a199
brown-a199
brown-a199
brown-a199
brown-a199
brown-a199
brown-a199
brown-a199
brown-a199
brown-a199
brown-a199
brown-a199
brown-a199
brown-a199
brown-a199
brown-a199
brown-a199
brown-a199
brown-a199
brown-a199
brown-a199
brown-a199
brown-a199
brown-a199
