Title Card Required                                                     
Freq      RM062X                                                      6-311++G(d,p)       
Number of atoms                            I               16
Info1-9                                    I   N=           9
          42          42        1002           0           0         100
           6          18        -502
Full Title                                 C   N=           2
Title Card Required     
Route                                      C   N=           6
#p opt freq m062x/6-311++g(d,p) geom=connectivity temperatur
e=0.001     
Charge                                     I                1
Multiplicity                               I                1
Number of electrons                        I               58
Number of alpha electrons                  I               29
Number of beta electrons                   I               29
Number of basis functions                  I              232
Number of independent functions            I              231
Number of point charges in /Mol/           I                0
Number of translation vectors              I                0
Atomic numbers                             I   N=          16
           8           7           6           6           6           6
           6           6           1           1           1           1
           1           1           1           1
Nuclear charges                            R   N=          16
  8.00000000E+00  7.00000000E+00  6.00000000E+00  6.00000000E+00  6.00000000E+00
  6.00000000E+00  6.00000000E+00  6.00000000E+00  1.00000000E+00  1.00000000E+00
  1.00000000E+00  1.00000000E+00  1.00000000E+00  1.00000000E+00  1.00000000E+00
  1.00000000E+00
Current cartesian coordinates              R   N=          48
 -6.43214191E+00 -8.09843344E-01 -1.59159072E-03 -2.12647254E+00  2.75802281E+00
  1.77648114E-03 -2.11707713E-01  1.26340214E+00  1.02503961E-03  2.28725853E+00
  2.43313624E+00 -6.68727901E-04  4.40134521E+00  9.55984291E-01 -1.45224140E-03
  4.10747859E+00 -1.69174405E+00 -6.79743632E-04  1.73155409E+00 -2.91709551E+00
  1.06695748E-03 -4.14096646E-01 -1.49342232E+00  1.62746328E-03 -7.52252635E+00
 -1.00568894E+00  1.44209464E+00 -3.80909142E+00  1.76122896E+00  2.77466984E-03
  2.35047419E+00  4.48186915E+00 -1.49522735E-03  6.27636708E+00  1.77233658E+00
 -2.63117838E-03  5.79715867E+00 -2.85760005E+00 -1.46462725E-03  1.65244156E+00
 -4.96096601E+00  1.85209692E-03 -2.29698304E+00 -2.31220179E+00  3.06777341E-03
 -7.51638989E+00 -1.00795562E+00 -1.44941328E+00
Number of symbols in /Mol/                 I                0
Force Field                                I                0
Atom Types                                 C   N=          16
                                                            
                                                            
                                                            
            
Int Atom Types                             I   N=          16
           0           0           0           0           0           0
           0           0           0           0           0           0
           0           0           0           0
MM charges                                 R   N=          16
  0.00000000E+00  0.00000000E+00  0.00000000E+00  0.00000000E+00  0.00000000E+00
  0.00000000E+00  0.00000000E+00  0.00000000E+00  0.00000000E+00  0.00000000E+00
  0.00000000E+00  0.00000000E+00  0.00000000E+00  0.00000000E+00  0.00000000E+00
  0.00000000E+00
Integer atomic weights                     I   N=          16
          16          14          12          12          12          12
          12          12           1           1           1           1
           1           1           1           1
Real atomic weights                        R   N=          16
  1.59949146E+01  1.40030740E+01  1.20000000E+01  1.20000000E+01  1.20000000E+01
  1.20000000E+01  1.20000000E+01  1.20000000E+01  1.00782504E+00  1.00782504E+00
  1.00782504E+00  1.00782504E+00  1.00782504E+00  1.00782504E+00  1.00782504E+00
  1.00782504E+00
Atom fragment info                         I   N=          16
           0           0           0           0           0           0
           0           0           0           0           0           0
           0           0           0           0
Atom residue num                           I   N=          16
           0           0           0           0           0           0
           0           0           0           0           0           0
           0           0           0           0
Nuclear spins                              I   N=          16
           0           2           0           0           0           0
           0           0           1           1           1           1
           1           1           1           1
Nuclear ZEff                               R   N=          16
 -5.60000000E+00 -4.55000000E+00 -3.60000000E+00 -3.60000000E+00 -3.60000000E+00
 -3.60000000E+00 -3.60000000E+00 -3.60000000E+00 -1.00000000E+00 -1.00000000E+00
 -1.00000000E+00 -1.00000000E+00 -1.00000000E+00 -1.00000000E+00 -1.00000000E+00
 -1.00000000E+00
Nuclear ZNuc                               R   N=          16
  8.00000000E+00  7.00000000E+00  6.00000000E+00  6.00000000E+00  6.00000000E+00
  6.00000000E+00  6.00000000E+00  6.00000000E+00  1.00000000E+00  1.00000000E+00
  1.00000000E+00  1.00000000E+00  1.00000000E+00  1.00000000E+00  1.00000000E+00
  1.00000000E+00
Nuclear QMom                               R   N=          16
  0.00000000E+00  2.04400000E+00  0.00000000E+00  0.00000000E+00  0.00000000E+00
  0.00000000E+00  0.00000000E+00  0.00000000E+00  0.00000000E+00  0.00000000E+00
  0.00000000E+00  0.00000000E+00  0.00000000E+00  0.00000000E+00  0.00000000E+00
  0.00000000E+00
Nuclear GFac                               R   N=          16
  0.00000000E+00  4.03761000E-01  0.00000000E+00  0.00000000E+00  0.00000000E+00
  0.00000000E+00  0.00000000E+00  0.00000000E+00  2.79284600E+00  2.79284600E+00
  2.79284600E+00  2.79284600E+00  2.79284600E+00  2.79284600E+00  2.79284600E+00
  2.79284600E+00
MicOpt                                     I   N=          16
          -1          -1          -1          -1          -1          -1
          -1          -1          -1          -1          -1          -1
          -1          -1          -1          -1
Number of residues                         I                0
Number of secondary structures             I                0
Redundant internal dimensions              I   N=           4
          72          16          24          32
Redundant internal coordinate indices      I   N=         288
           1           2           0           0           1           9
           0           0           1          16           0           0
           2           3           0           0           2          10
           0           0           3           4           0           0
           3           8           0           0           4           5
           0           0           4          11           0           0
           5           6           0           0           5          12
           0           0           6           7           0           0
           6          13           0           0           7           8
           0           0           7          14           0           0
           8          15           0           0           2           1
           9           0           2           1          16           0
           9           1          16           0           1           2
           3           0           1           2          10           0
           3           2          10           0           2           3
           4           0           2           3           8           0
           4           3           8           0           3           4
           5           0           3           4          11           0
           5           4          11           0           4           5
           6           0           4           5          12           0
           6           5          12           0           5           6
           7           0           5           6          13           0
           7           6          13           0           6           7
           8           0           6           7          14           0
           8           7          14           0           3           8
           7           0           3           8          15           0
           7           8          15           0           9           1
           2           3           9           1           2          10
          16           1           2           3          16           1
           2          10           1           2           3           4
           1           2           3           8          10           2
           3           4          10           2           3           8
           2           3           4           5           2           3
           4          11           8           3           4           5
           8           3           4          11           2           3
           8           7           2           3           8          15
           4           3           8           7           4           3
           8          15           3           4           5           6
           3           4           5          12          11           4
           5           6          11           4           5          12
           4           5           6           7           4           5
           6          13          12           5           6           7
          12           5           6          13           5           6
           7           8           5           6           7          14
          13           6           7           8          13           6
           7          14           6           7           8           3
           6           7           8          15          14           7
           8           3          14           7           8          15
Redundant internal coordinates             R   N=          72
  5.59182162E+00  1.81975923E+00  1.81962353E+00  2.42903600E+00  1.95571093E+00
  2.75918702E+00  2.76424361E+00  2.57901939E+00  2.04970814E+00  2.66398640E+00
  2.04502798E+00  2.67329506E+00  2.05286132E+00  2.57500733E+00  2.04540118E+00
  2.05320799E+00  2.12888310E+00  2.12793406E+00  1.83639081E+00  1.78684343E+00
  1.57151103E-01  1.94399094E+00  2.04101502E+00  2.16029858E+00  2.08187170E+00
  2.09393418E+00  2.03943568E+00  2.14981543E+00  2.07012589E+00  2.12109519E+00
  2.09196422E+00  2.15748977E+00  2.06423398E+00  2.06146156E+00  2.07961704E+00
  2.08564192E+00  2.11792634E+00  2.08333199E+00  2.05426553E+00  2.14558775E+00
  1.93203014E+00 -1.20294900E+00 -1.92702297E+00  1.22118319E+00  3.14037673E+00
 -1.15364881E-03  3.14148828E+00 -4.20974445E-05  3.14155429E+00 -1.76212926E-04
 -9.77055675E-05  3.14135709E+00 -3.14144711E+00 -1.59941721E-04  2.09189714E-04
  3.14149636E+00  3.74160888E-05 -3.14154918E+00 -3.14140829E+00  1.90419959E-04
 -8.76023831E-05  3.14150680E+00  3.14149909E+00 -9.18154815E-05  2.01373031E-04
 -3.14143512E+00 -3.14139302E+00  1.55790120E-04 -2.54198120E-04 -3.14152460E+00
  3.14138314E+00  1.12737981E-04
ZRed-IntVec                                I   N=          72
           0           0           0           0           0           0
           0           0           0           0           0           0
           0           0           0           0           0           0
           0           0           0           0           0           0
           0           0           0           0           0           0
           0           0           0           0           0           0
           0           0           0           0           0           0
           0           0           0           0           0           0
           0           0           0           0           0           0
           0           0           0           0           0           0
           0           0           0           0           0           0
           0           0           0           0           0           0
ZRed-FPVec                                 R   N=          72
  0.00000000E+00  0.00000000E+00  0.00000000E+00  0.00000000E+00  0.00000000E+00
  0.00000000E+00  0.00000000E+00  0.00000000E+00  0.00000000E+00  0.00000000E+00
  0.00000000E+00  0.00000000E+00  0.00000000E+00  0.00000000E+00  0.00000000E+00
  0.00000000E+00  0.00000000E+00  0.00000000E+00  0.00000000E+00  0.00000000E+00
  0.00000000E+00  0.00000000E+00  0.00000000E+00  0.00000000E+00  0.00000000E+00
  0.00000000E+00  0.00000000E+00  0.00000000E+00  0.00000000E+00  0.00000000E+00
  0.00000000E+00  0.00000000E+00  0.00000000E+00  0.00000000E+00  0.00000000E+00
  0.00000000E+00  0.00000000E+00  0.00000000E+00  0.00000000E+00  0.00000000E+00
  0.00000000E+00  0.00000000E+00  0.00000000E+00  0.00000000E+00  0.00000000E+00
  0.00000000E+00  0.00000000E+00  0.00000000E+00  0.00000000E+00  0.00000000E+00
  0.00000000E+00  0.00000000E+00  0.00000000E+00  0.00000000E+00  0.00000000E+00
  0.00000000E+00  0.00000000E+00  0.00000000E+00  0.00000000E+00  0.00000000E+00
  0.00000000E+00  0.00000000E+00  0.00000000E+00  0.00000000E+00  0.00000000E+00
  0.00000000E+00  0.00000000E+00  0.00000000E+00  0.00000000E+00  0.00000000E+00
  0.00000000E+00  0.00000000E+00
ZRed-Constraint1                           R   N=          72
  5.59182162E+00  1.81975923E+00  1.81962353E+00  2.42903600E+00  1.95571093E+00
  2.75918702E+00  2.76424361E+00  2.57901939E+00  2.04970814E+00  2.66398640E+00
  2.04502798E+00  2.67329506E+00  2.05286132E+00  2.57500733E+00  2.04540118E+00
  2.05320799E+00  2.12888310E+00  2.12793406E+00  1.83639081E+00  1.78684343E+00
  1.57151103E-01  1.94399094E+00  2.04101502E+00  2.16029858E+00  2.08187170E+00
  2.09393418E+00  2.03943568E+00  2.14981543E+00  2.07012589E+00  2.12109519E+00
  2.09196422E+00  2.15748977E+00  2.06423398E+00  2.06146156E+00  2.07961704E+00
  2.08564192E+00  2.11792634E+00  2.08333199E+00  2.05426553E+00  2.14558775E+00
  1.93203014E+00 -1.20294900E+00 -1.92702297E+00  1.22118319E+00  3.14037673E+00
 -1.15364881E-03  3.14148828E+00 -4.20974445E-05  3.14155429E+00 -1.76212926E-04
 -9.77055686E-05  3.14135709E+00 -3.14144711E+00 -1.59941721E-04  2.09189714E-04
  3.14149636E+00  3.74160829E-05 -3.14154918E+00 -3.14140829E+00  1.90419958E-04
 -8.76023869E-05  3.14150680E+00  3.14149909E+00 -9.18154851E-05  2.01373031E-04
 -3.14143512E+00 -3.14139302E+00  1.55790119E-04 -2.54198120E-04 -3.14152460E+00
  3.14138314E+00  1.12737981E-04
ZRed-Constraint2                           R   N=          72
  2.46407569E+00  1.81413708E+00  1.81413708E+00  2.56389234E+00  1.90854948E+00
  2.67491262E+00  2.66556441E+00  2.65952045E+00  2.05987562E+00  2.65798651E+00
  2.05988148E+00  2.65750020E+00  2.05970850E+00  2.65751877E+00  2.05979985E+00
  2.05969899E+00  1.91063323E+00  1.91063323E+00  1.91063324E+00  2.15804398E+00
  2.02556356E+00  2.09957776E+00  2.15456818E+00  2.05286697E+00  2.07575000E+00
  2.10321049E+00  2.09492515E+00  2.08504966E+00  2.09252027E+00  2.09585072E+00
  2.09481431E+00  2.09549046E+00  2.09396011E+00  2.09373473E+00  2.09300132E+00
  2.09508503E+00  2.09509896E+00  2.10577014E+00  2.09138006E+00  2.08603510E+00
 -1.35793739E+00  1.78366833E+00  7.36457708E-01 -2.40512188E+00 -1.14770321E-01
  3.02622964E+00  3.02680874E+00 -1.15376609E-01  3.11632598E+00 -2.51821586E-02
 -2.46666342E-02  3.11701053E+00 -3.11358120E+00  2.80508060E-02  2.74463957E-02
 -3.11410691E+00 -3.23539313E-03  3.13837201E+00  3.13827322E+00 -3.30468334E-03
  2.87988853E-02 -3.11271579E+00 -3.11280851E+00  2.88621217E-02 -2.60876950E-02
  3.11541743E+00  3.11542699E+00 -2.62531909E-02 -2.29822224E-03  3.13925520E+00
  3.13938196E+00 -2.24991970E-03
SymInf integers                            I   N=          26
           1           1           1           1           1           0
           0           0           0           0           0           0
           0           0           0           0           0           0
           0           0           0           0           0           0
           0           0
RotTr to input orientation                 R   N=          12
 -2.98345800E-01 -9.45283492E-01  1.32018571E-01  9.53780667E-01 -2.90058998E-01
  7.85379986E-02 -3.59474991E-02  1.49348243E-01  9.88131003E-01 -6.75755428E-01
 -3.53976732E+00  3.20632871E-01
Number of contracted shells                I               88
Number of primitive shells                 I              160
Pure/Cartesian d shells                    I                0
Pure/Cartesian f shells                    I                0
Highest angular momentum                   I                2
Largest degree of contraction              I                6
Shell types                                I   N=          88
           0          -1          -1          -1          -1          -2
           0          -1          -1          -1          -1          -2
           0          -1          -1          -1          -1          -2
           0          -1          -1          -1          -1          -2
           0          -1          -1          -1          -1          -2
           0          -1          -1          -1          -1          -2
           0          -1          -1          -1          -1          -2
           0          -1          -1          -1          -1          -2
           0           0           0           0           1           0
           0           0           0           1           0           0
           0           0           1           0           0           0
           0           1           0           0           0           0
           1           0           0           0           0           1
           0           0           0           0           1           0
           0           0           0           1
Number of primitives per shell             I   N=          88
           6           3           1           1           1           1
           6           3           1           1           1           1
           6           3           1           1           1           1
           6           3           1           1           1           1
           6           3           1           1           1           1
           6           3           1           1           1           1
           6           3           1           1           1           1
           6           3           1           1           1           1
           3           1           1           1           1           3
           1           1           1           1           3           1
           1           1           1           3           1           1
           1           1           3           1           1           1
           1           3           1           1           1           1
           3           1           1           1           1           3
           1           1           1           1
Shell to atom map                          I   N=          88
           1           1           1           1           1           1
           2           2           2           2           2           2
           3           3           3           3           3           3
           4           4           4           4           4           4
           5           5           5           5           5           5
           6           6           6           6           6           6
           7           7           7           7           7           7
           8           8           8           8           8           8
           9           9           9           9           9          10
          10          10          10          10          11          11
          11          11          11          12          12          12
          12          12          13          13          13          13
          13          14          14          14          14          14
          15          15          15          15          15          16
          16          16          16          16
Primitive exponents                        R   N=         160
  8.58850000E+03  1.29723000E+03  2.99296000E+02  8.73771000E+01  2.56789000E+01
  3.74004000E+00  4.21175000E+01  9.62837000E+00  2.85332000E+00  9.05661000E-01
  2.55611000E-01  8.45000000E-02  1.29200000E+00  6.29348000E+03  9.49044000E+02
  2.18776000E+02  6.36916000E+01  1.88282000E+01  2.72023000E+00  3.06331000E+01
  7.02614000E+00  2.11205000E+00  6.84009000E-01  2.00878000E-01  6.39000000E-02
  9.13000000E-01  4.56324000E+03  6.82024000E+02  1.54973000E+02  4.44553000E+01
  1.30290000E+01  1.82773000E+00  2.09642000E+01  4.80331000E+00  1.45933000E+00
  4.83456000E-01  1.45585000E-01  4.38000000E-02  6.26000000E-01  4.56324000E+03
  6.82024000E+02  1.54973000E+02  4.44553000E+01  1.30290000E+01  1.82773000E+00
  2.09642000E+01  4.80331000E+00  1.45933000E+00  4.83456000E-01  1.45585000E-01
  4.38000000E-02  6.26000000E-01  4.56324000E+03  6.82024000E+02  1.54973000E+02
  4.44553000E+01  1.30290000E+01  1.82773000E+00  2.09642000E+01  4.80331000E+00
  1.45933000E+00  4.83456000E-01  1.45585000E-01  4.38000000E-02  6.26000000E-01
  4.56324000E+03  6.82024000E+02  1.54973000E+02  4.44553000E+01  1.30290000E+01
  1.82773000E+00  2.09642000E+01  4.80331000E+00  1.45933000E+00  4.83456000E-01
  1.45585000E-01  4.38000000E-02  6.26000000E-01  4.56324000E+03  6.82024000E+02
  1.54973000E+02  4.44553000E+01  1.30290000E+01  1.82773000E+00  2.09642000E+01
  4.80331000E+00  1.45933000E+00  4.83456000E-01  1.45585000E-01  4.38000000E-02
  6.26000000E-01  4.56324000E+03  6.82024000E+02  1.54973000E+02  4.44553000E+01
  1.30290000E+01  1.82773000E+00  2.09642000E+01  4.80331000E+00  1.45933000E+00
  4.83456000E-01  1.45585000E-01  4.38000000E-02  6.26000000E-01  3.38650000E+01
  5.09479000E+00  1.15879000E+00  3.25840000E-01  1.02741000E-01  3.60000000E-02
  7.50000000E-01  3.38650000E+01  5.09479000E+00  1.15879000E+00  3.25840000E-01
  1.02741000E-01  3.60000000E-02  7.50000000E-01  3.38650000E+01  5.09479000E+00
  1.15879000E+00  3.25840000E-01  1.02741000E-01  3.60000000E-02  7.50000000E-01
  3.38650000E+01  5.09479000E+00  1.15879000E+00  3.25840000E-01  1.02741000E-01
  3.60000000E-02  7.50000000E-01  3.38650000E+01  5.09479000E+00  1.15879000E+00
  3.25840000E-01  1.02741000E-01  3.60000000E-02  7.50000000E-01  3.38650000E+01
  5.09479000E+00  1.15879000E+00  3.25840000E-01  1.02741000E-01  3.60000000E-02
  7.50000000E-01  3.38650000E+01  5.09479000E+00  1.15879000E+00  3.25840000E-01
  1.02741000E-01  3.60000000E-02  7.50000000E-01  3.38650000E+01  5.09479000E+00
  1.15879000E+00  3.25840000E-01  1.02741000E-01  3.60000000E-02  7.50000000E-01
Contraction coefficients                   R   N=         160
  1.89515008E-03  1.43859006E-02  7.07320031E-02  2.40001011E-01  5.94797026E-01
  2.80802012E-01  1.13889012E-01  9.20811101E-01 -3.27447036E-03  1.00000000E+00
  1.00000000E+00  1.00000000E+00  1.00000000E+00  1.96978815E-03  1.49612859E-02
  7.35005308E-02  2.48936766E-01  6.02459433E-01  2.56201759E-01  1.11906080E-01
  9.21666655E-01 -2.56919183E-03  1.00000000E+00  1.00000000E+00  1.00000000E+00
  1.00000000E+00  1.96665025E-03  1.52306019E-02  7.61269097E-02  2.60801033E-01
  6.16462078E-01  2.21006028E-01  1.14660081E-01  9.19999648E-01 -3.03068213E-03
  1.00000000E+00  1.00000000E+00  1.00000000E+00  1.00000000E+00  1.96665025E-03
  1.52306019E-02  7.61269097E-02  2.60801033E-01  6.16462078E-01  2.21006028E-01
  1.14660081E-01  9.19999648E-01 -3.03068213E-03  1.00000000E+00  1.00000000E+00
  1.00000000E+00  1.00000000E+00  1.96665025E-03  1.52306019E-02  7.61269097E-02
  2.60801033E-01  6.16462078E-01  2.21006028E-01  1.14660081E-01  9.19999648E-01
 -3.03068213E-03  1.00000000E+00  1.00000000E+00  1.00000000E+00  1.00000000E+00
  1.96665025E-03  1.52306019E-02  7.61269097E-02  2.60801033E-01  6.16462078E-01
  2.21006028E-01  1.14660081E-01  9.19999648E-01 -3.03068213E-03  1.00000000E+00
  1.00000000E+00  1.00000000E+00  1.00000000E+00  1.96665025E-03  1.52306019E-02
  7.61269097E-02  2.60801033E-01  6.16462078E-01  2.21006028E-01  1.14660081E-01
  9.19999648E-01 -3.03068213E-03  1.00000000E+00  1.00000000E+00  1.00000000E+00
  1.00000000E+00  1.96665025E-03  1.52306019E-02  7.61269097E-02  2.60801033E-01
  6.16462078E-01  2.21006028E-01  1.14660081E-01  9.19999648E-01 -3.03068213E-03
  1.00000000E+00  1.00000000E+00  1.00000000E+00  1.00000000E+00  2.54938145E-02
  1.90373109E-01  8.52161486E-01  1.00000000E+00  1.00000000E+00  1.00000000E+00
  1.00000000E+00  2.54938145E-02  1.90373109E-01  8.52161486E-01  1.00000000E+00
  1.00000000E+00  1.00000000E+00  1.00000000E+00  2.54938145E-02  1.90373109E-01
  8.52161486E-01  1.00000000E+00  1.00000000E+00  1.00000000E+00  1.00000000E+00
  2.54938145E-02  1.90373109E-01  8.52161486E-01  1.00000000E+00  1.00000000E+00
  1.00000000E+00  1.00000000E+00  2.54938145E-02  1.90373109E-01  8.52161486E-01
  1.00000000E+00  1.00000000E+00  1.00000000E+00  1.00000000E+00  2.54938145E-02
  1.90373109E-01  8.52161486E-01  1.00000000E+00  1.00000000E+00  1.00000000E+00
  1.00000000E+00  2.54938145E-02  1.90373109E-01  8.52161486E-01  1.00000000E+00
  1.00000000E+00  1.00000000E+00  1.00000000E+00  2.54938145E-02  1.90373109E-01
  8.52161486E-01  1.00000000E+00  1.00000000E+00  1.00000000E+00  1.00000000E+00
P(S=P) Contraction coefficients            R   N=         160
  0.00000000E+00  0.00000000E+00  0.00000000E+00  0.00000000E+00  0.00000000E+00
  0.00000000E+00  3.65113974E-02  2.37152983E-01  8.19701941E-01  1.00000000E+00
  1.00000000E+00  1.00000000E+00  0.00000000E+00  0.00000000E+00  0.00000000E+00
  0.00000000E+00  0.00000000E+00  0.00000000E+00  0.00000000E+00  3.83119186E-02
  2.37403116E-01  8.17592398E-01  1.00000000E+00  1.00000000E+00  1.00000000E+00
  0.00000000E+00  0.00000000E+00  0.00000000E+00  0.00000000E+00  0.00000000E+00
  0.00000000E+00  0.00000000E+00  4.02486927E-02  2.37593957E-01  8.15853851E-01
  1.00000000E+00  1.00000000E+00  1.00000000E+00  0.00000000E+00  0.00000000E+00
  0.00000000E+00  0.00000000E+00  0.00000000E+00  0.00000000E+00  0.00000000E+00
  4.02486927E-02  2.37593957E-01  8.15853851E-01  1.00000000E+00  1.00000000E+00
  1.00000000E+00  0.00000000E+00  0.00000000E+00  0.00000000E+00  0.00000000E+00
  0.00000000E+00  0.00000000E+00  0.00000000E+00  4.02486927E-02  2.37593957E-01
  8.15853851E-01  1.00000000E+00  1.00000000E+00  1.00000000E+00  0.00000000E+00
  0.00000000E+00  0.00000000E+00  0.00000000E+00  0.00000000E+00  0.00000000E+00
  0.00000000E+00  4.02486927E-02  2.37593957E-01  8.15853851E-01  1.00000000E+00
  1.00000000E+00  1.00000000E+00  0.00000000E+00  0.00000000E+00  0.00000000E+00
  0.00000000E+00  0.00000000E+00  0.00000000E+00  0.00000000E+00  4.02486927E-02
  2.37593957E-01  8.15853851E-01  1.00000000E+00  1.00000000E+00  1.00000000E+00
  0.00000000E+00  0.00000000E+00  0.00000000E+00  0.00000000E+00  0.00000000E+00
  0.00000000E+00  0.00000000E+00  4.02486927E-02  2.37593957E-01  8.15853851E-01
  1.00000000E+00  1.00000000E+00  1.00000000E+00  0.00000000E+00  0.00000000E+00
  0.00000000E+00  0.00000000E+00  0.00000000E+00  0.00000000E+00  0.00000000E+00
  0.00000000E+00  0.00000000E+00  0.00000000E+00  0.00000000E+00  0.00000000E+00
  0.00000000E+00  0.00000000E+00  0.00000000E+00  0.00000000E+00  0.00000000E+00
  0.00000000E+00  0.00000000E+00  0.00000000E+00  0.00000000E+00  0.00000000E+00
  0.00000000E+00  0.00000000E+00  0.00000000E+00  0.00000000E+00  0.00000000E+00
  0.00000000E+00  0.00000000E+00  0.00000000E+00  0.00000000E+00  0.00000000E+00
  0.00000000E+00  0.00000000E+00  0.00000000E+00  0.00000000E+00  0.00000000E+00
  0.00000000E+00  0.00000000E+00  0.00000000E+00  0.00000000E+00  0.00000000E+00
  0.00000000E+00  0.00000000E+00  0.00000000E+00  0.00000000E+00  0.00000000E+00
  0.00000000E+00  0.00000000E+00  0.00000000E+00  0.00000000E+00  0.00000000E+00
  0.00000000E+00  0.00000000E+00  0.00000000E+00  0.00000000E+00  0.00000000E+00
Coordinates of each shell                  R   N=         264
 -6.43214191E+00 -8.09843344E-01 -1.59159072E-03 -6.43214191E+00 -8.09843344E-01
 -1.59159072E-03 -6.43214191E+00 -8.09843344E-01 -1.59159072E-03 -6.43214191E+00
 -8.09843344E-01 -1.59159072E-03 -6.43214191E+00 -8.09843344E-01 -1.59159072E-03
 -6.43214191E+00 -8.09843344E-01 -1.59159072E-03 -2.12647254E+00  2.75802281E+00
  1.77648114E-03 -2.12647254E+00  2.75802281E+00  1.77648114E-03 -2.12647254E+00
  2.75802281E+00  1.77648114E-03 -2.12647254E+00  2.75802281E+00  1.77648114E-03
 -2.12647254E+00  2.75802281E+00  1.77648114E-03 -2.12647254E+00  2.75802281E+00
  1.77648114E-03 -2.11707713E-01  1.26340214E+00  1.02503961E-03 -2.11707713E-01
  1.26340214E+00  1.02503961E-03 -2.11707713E-01  1.26340214E+00  1.02503961E-03
 -2.11707713E-01  1.26340214E+00  1.02503961E-03 -2.11707713E-01  1.26340214E+00
  1.02503961E-03 -2.11707713E-01  1.26340214E+00  1.02503961E-03  2.28725853E+00
  2.43313624E+00 -6.68727901E-04  2.28725853E+00  2.43313624E+00 -6.68727901E-04
  2.28725853E+00  2.43313624E+00 -6.68727901E-04  2.28725853E+00  2.43313624E+00
 -6.68727901E-04  2.28725853E+00  2.43313624E+00 -6.68727901E-04  2.28725853E+00
  2.43313624E+00 -6.68727901E-04  4.40134521E+00  9.55984291E-01 -1.45224140E-03
  4.40134521E+00  9.55984291E-01 -1.45224140E-03  4.40134521E+00  9.55984291E-01
 -1.45224140E-03  4.40134521E+00  9.55984291E-01 -1.45224140E-03  4.40134521E+00
  9.55984291E-01 -1.45224140E-03  4.40134521E+00  9.55984291E-01 -1.45224140E-03