 Entering Gaussian System, Link 0=/apps/cent7/gaussian/g16-A.03/g16-haswell/g16/g16
 Initial command:
 /apps/cent7/gaussian/g16-A.03/g16-haswell/g16/l1.exe "/scratch/brown/finej/gaussian/Gau-71965.inp" -scrdir="/scratch/brown/finej/gaussian/"
 Entering Link 1 = /apps/cent7/gaussian/g16-A.03/g16-haswell/g16/l1.exe PID=     71966.
  
 Copyright (c) 1988,1990,1992,1993,1995,1998,2003,2009,2016,
            Gaussian, Inc.  All Rights Reserved.
  
 This is part of the Gaussian(R) 16 program.  It is based on
 the Gaussian(R) 09 system (copyright 2009, Gaussian, Inc.),
 the Gaussian(R) 03 system (copyright 2003, Gaussian, Inc.),
 the Gaussian(R) 98 system (copyright 1998, Gaussian, Inc.),
 the Gaussian(R) 94 system (copyright 1995, Gaussian, Inc.),
 the Gaussian 92(TM) system (copyright 1992, Gaussian, Inc.),
 the Gaussian 90(TM) system (copyright 1990, Gaussian, Inc.),
 the Gaussian 88(TM) system (copyright 1988, Gaussian, Inc.),
 the Gaussian 86(TM) system (copyright 1986, Carnegie Mellon
 University), and the Gaussian 82(TM) system (copyright 1983,
 Carnegie Mellon University). Gaussian is a federally registered
 trademark of Gaussian, Inc.
  
 This software contains proprietary and confidential information,
 including trade secrets, belonging to Gaussian, Inc.
  
 This software is provided under written license and may be
 used, copied, transmitted, or stored only in accord with that
 written license.
  
 The following legend is applicable only to US Government
 contracts under FAR:
  
                    RESTRICTED RIGHTS LEGEND
  
 Use, reproduction and disclosure by the US Government is
 subject to restrictions as set forth in subparagraphs (a)
 and (c) of the Commercial Computer Software - Restricted
 Rights clause in FAR 52.227-19.
  
 Gaussian, Inc.
 340 Quinnipiac St., Bldg. 40, Wallingford CT 06492
  
  
 ---------------------------------------------------------------
 Warning -- This program may not be used in any manner that
 competes with the business of Gaussian, Inc. or will provide
 assistance to any competitor of Gaussian, Inc.  The licensee
 of this program is prohibited from giving any competitor of
 Gaussian, Inc. access to this program.  By using this program,
 the user acknowledges that Gaussian, Inc. is engaged in the
 business of creating and licensing software in the field of
 computational chemistry and represents and warrants to the
 licensee that it is not a competitor of Gaussian, Inc. and that
 it will not use this program in any manner prohibited above.
 ---------------------------------------------------------------
  

 Cite this work as:
 Gaussian 16, Revision A.03,
 M. J. Frisch, G. W. Trucks, H. B. Schlegel, G. E. Scuseria, 
 M. A. Robb, J. R. Cheeseman, G. Scalmani, V. Barone, 
 G. A. Petersson, H. Nakatsuji, X. Li, M. Caricato, A. V. Marenich, 
 J. Bloino, B. G. Janesko, R. Gomperts, B. Mennucci, H. P. Hratchian, 
 J. V. Ortiz, A. F. Izmaylov, J. L. Sonnenberg, D. Williams-Young, 
 F. Ding, F. Lipparini, F. Egidi, J. Goings, B. Peng, A. Petrone, 
 T. Henderson, D. Ranasinghe, V. G. Zakrzewski, J. Gao, N. Rega, 
 G. Zheng, W. Liang, M. Hada, M. Ehara, K. Toyota, R. Fukuda, 
 J. Hasegawa, M. Ishida, T. Nakajima, Y. Honda, O. Kitao, H. Nakai, 
 T. Vreven, K. Throssell, J. A. Montgomery, Jr., J. E. Peralta, 
 F. Ogliaro, M. J. Bearpark, J. J. Heyd, E. N. Brothers, K. N. Kudin, 
 V. N. Staroverov, T. A. Keith, R. Kobayashi, J. Normand, 
 K. Raghavachari, A. P. Rendell, J. C. Burant, S. S. Iyengar, 
 J. Tomasi, M. Cossi, J. M. Millam, M. Klene, C. Adamo, R. Cammi, 
 J. W. Ochterski, R. L. Martin, K. Morokuma, O. Farkas, 
 J. B. Foresman, and D. J. Fox, Gaussian, Inc., Wallingford CT, 2016.
 
 ******************************************
 Gaussian 16:  ES64L-G16RevA.03 25-Dec-2016
                30-Dec-2019 
 ******************************************
 %chk=10_p_b.chk
 %nprocshared=24
 Will use up to   24 processors via shared memory.
 %mem=20GB
 -------------------------------------------------------------------
 #p opt freq m062x/6-311++g(d,p) geom=connectivity temperature=0.001
 -------------------------------------------------------------------
 1/18=20,19=15,26=3,38=1,57=2,112=-1000/1,3;
 2/9=110,12=2,17=6,18=5,40=1/2;
 3/5=4,6=6,7=1111,11=2,25=1,30=1,71=1,74=-55/1,2,3;
 4//1;
 5/5=2,38=5/2;
 6/7=2,8=2,9=2,10=2,28=1/1;
 7//1,2,3,16;
 1/18=20,19=15,26=3/3(2);
 2/9=110/2;
 99//99;
 2/9=110/2;
 3/5=4,6=6,7=1111,11=2,25=1,30=1,71=1,74=-55/1,2,3;
 4/5=5,16=3,69=1/1;
 5/5=2,38=5/2;
 7//1,2,3,16;
 1/18=20,19=15,26=3/3(-5);
 2/9=110/2;
 6/7=2,8=2,9=2,10=2,19=2,28=1/1;
 99/9=1/99;
 Leave Link    1 at Mon Dec 30 16:43:47 2019, MaxMem=  2684354560 cpu:               1.2 elap:               0.1
 (Enter /apps/cent7/gaussian/g16-A.03/g16-haswell/g16/l101.exe)
 -------------------
 Title Card Required
 -------------------
 Symbolic Z-matrix:
 Charge =  1 Multiplicity = 1
 O                     1.4199    0.2754   -0.1395 
 N                     0.2167    0.0158    0.2908 
 C                    -0.3604   -1.2098    0.2157 
 C                     0.2259   -2.3083   -0.4575 
 C                    -0.4136   -3.5619   -0.471 
 C                    -1.6429   -3.7289    0.1918 
 C                    -2.2492   -2.6366    0.8375 
 C                    -1.6098   -1.3841    0.8468 
 H                     2.06342  -0.04649   0.49601 
 H                    -0.2863    0.7918    0.6968 
 H                     1.1799   -2.1875   -0.9708 
 H                     0.0426   -4.4024   -0.9941 
 H                    -2.1261   -4.7058    0.2051 
 H                    -3.2136   -2.7606    1.3301 
 H                    -2.0866   -0.5414    1.3473 
 H                     1.55864  -0.15986  -0.98384 
 
 ITRead=  0  0  0  0  0  0  0  0  0  0  0  0  0  0  0  0
 MicOpt= -1 -1 -1 -1 -1 -1 -1 -1 -1 -1 -1 -1 -1 -1 -1 -1
 NAtoms=     16 NQM=       16 NQMF=       0 NMMI=      0 NMMIF=      0
                NMic=       0 NMicF=      0.
                    Isotopes and Nuclear Properties:
 (Nuclear quadrupole moments (NQMom) in fm**2, nuclear magnetic moments (NMagM)
  in nuclear magnetons)

  Atom         1           2           3           4           5           6           7           8           9          10
 IAtWgt=          16          14          12          12          12          12          12          12           1           1
 AtmWgt=  15.9949146  14.0030740  12.0000000  12.0000000  12.0000000  12.0000000  12.0000000  12.0000000   1.0078250   1.0078250
 NucSpn=           0           2           0           0           0           0           0           0           1           1
 AtZEff=  -0.0000000  -0.0000000  -0.0000000  -0.0000000  -0.0000000  -0.0000000  -0.0000000  -0.0000000  -0.0000000  -0.0000000
 NQMom=    0.0000000   2.0440000   0.0000000   0.0000000   0.0000000   0.0000000   0.0000000   0.0000000   0.0000000   0.0000000
 NMagM=    0.0000000   0.4037610   0.0000000   0.0000000   0.0000000   0.0000000   0.0000000   0.0000000   2.7928460   2.7928460
 AtZNuc=   8.0000000   7.0000000   6.0000000   6.0000000   6.0000000   6.0000000   6.0000000   6.0000000   1.0000000   1.0000000

  Atom        11          12          13          14          15          16
 IAtWgt=           1           1           1           1           1           1
 AtmWgt=   1.0078250   1.0078250   1.0078250   1.0078250   1.0078250   1.0078250
 NucSpn=           1           1           1           1           1           1
 AtZEff=  -0.0000000  -0.0000000  -0.0000000  -0.0000000  -0.0000000  -0.0000000
 NQMom=    0.0000000   0.0000000   0.0000000   0.0000000   0.0000000   0.0000000
 NMagM=    2.7928460   2.7928460   2.7928460   2.7928460   2.7928460   2.7928460
 AtZNuc=   1.0000000   1.0000000   1.0000000   1.0000000   1.0000000   1.0000000
 Leave Link  101 at Mon Dec 30 16:43:47 2019, MaxMem=  2684354560 cpu:              10.3 elap:               0.5
 (Enter /apps/cent7/gaussian/g16-A.03/g16-haswell/g16/l103.exe)

 GradGradGradGradGradGradGradGradGradGradGradGradGradGradGradGradGradGrad
 Berny optimization.
 Initialization pass.
                           ----------------------------
                           !    Initial Parameters    !
                           ! (Angstroms and Degrees)  !
 --------------------------                            --------------------------
 ! Name  Definition              Value          Derivative Info.                !
 --------------------------------------------------------------------------------
 ! R1    R(1,2)                  1.3039         estimate D2E/DX2                !
 ! R2    R(1,9)                  0.96           estimate D2E/DX2                !
 ! R3    R(1,16)                 0.96           estimate D2E/DX2                !
 ! R4    R(2,3)                  1.3568         estimate D2E/DX2                !
 ! R5    R(2,10)                 1.01           estimate D2E/DX2                !
 ! R6    R(3,4)                  1.4155         estimate D2E/DX2                !
 ! R7    R(3,8)                  1.4106         estimate D2E/DX2                !
 ! R8    R(4,5)                  1.4074         estimate D2E/DX2                !
 ! R9    R(4,11)                 1.09           estimate D2E/DX2                !
 ! R10   R(5,6)                  1.4065         estimate D2E/DX2                !
 ! R11   R(5,12)                 1.09           estimate D2E/DX2                !
 ! R12   R(6,7)                  1.4063         estimate D2E/DX2                !
 ! R13   R(6,13)                 1.09           estimate D2E/DX2                !
 ! R14   R(7,8)                  1.4063         estimate D2E/DX2                !
 ! R15   R(7,14)                 1.09           estimate D2E/DX2                !
 ! R16   R(8,15)                 1.0899         estimate D2E/DX2                !
 ! A1    A(2,1,9)              109.4712         estimate D2E/DX2                !
 ! A2    A(2,1,16)             109.4712         estimate D2E/DX2                !
 ! A3    A(9,1,16)             109.4712         estimate D2E/DX2                !
 ! A4    A(1,2,3)              123.6468         estimate D2E/DX2                !
 ! A5    A(1,2,10)             116.0562         estimate D2E/DX2                !
 ! A6    A(3,2,10)             120.2969         estimate D2E/DX2                !
 ! A7    A(2,3,4)              123.4477         estimate D2E/DX2                !
 ! A8    A(2,3,8)              117.6206         estimate D2E/DX2                !
 ! A9    A(4,3,8)              118.9317         estimate D2E/DX2                !
 ! A10   A(3,4,5)              120.5051         estimate D2E/DX2                !
 ! A11   A(3,4,11)             120.0304         estimate D2E/DX2                !
 ! A12   A(5,4,11)             119.4645         estimate D2E/DX2                !
 ! A13   A(4,5,6)              119.8926         estimate D2E/DX2                !
 ! A14   A(4,5,12)             120.0834         estimate D2E/DX2                !
 ! A15   A(6,5,12)             120.024          estimate D2E/DX2                !
 ! A16   A(5,6,7)              120.0628         estimate D2E/DX2                !
 ! A17   A(5,6,13)             119.9751         estimate D2E/DX2                !
 ! A18   A(7,6,13)             119.9622         estimate D2E/DX2                !
 ! A19   A(6,7,8)              119.9201         estimate D2E/DX2                !
 ! A20   A(6,7,14)             120.0395         estimate D2E/DX2                !
 ! A21   A(8,7,14)             120.0403         estimate D2E/DX2                !
 ! A22   A(3,8,7)              120.6517         estimate D2E/DX2                !
 ! A23   A(3,8,15)             119.8273         estimate D2E/DX2                !
 ! A24   A(7,8,15)             119.521          estimate D2E/DX2                !
 ! D1    D(9,1,2,3)            -77.8041         estimate D2E/DX2                !
 ! D2    D(9,1,2,10)           102.1967         estimate D2E/DX2                !
 ! D3    D(16,1,2,3)            42.1959         estimate D2E/DX2                !
 ! D4    D(16,1,2,10)         -137.8033         estimate D2E/DX2                !
 ! D5    D(1,2,3,4)             -6.5759         estimate D2E/DX2                !
 ! D6    D(1,2,3,8)            173.3902         estimate D2E/DX2                !
 ! D7    D(10,2,3,4)           173.4234         estimate D2E/DX2                !
 ! D8    D(10,2,3,8)            -6.6106         estimate D2E/DX2                !
 ! D9    D(2,3,4,5)            178.5523         estimate D2E/DX2                !
 ! D10   D(2,3,4,11)            -1.4428         estimate D2E/DX2                !
 ! D11   D(8,3,4,5)             -1.4133         estimate D2E/DX2                !
 ! D12   D(8,3,4,11)           178.5915         estimate D2E/DX2                !
 ! D13   D(2,3,8,7)           -178.3951         estimate D2E/DX2                !
 ! D14   D(2,3,8,15)             1.6072         estimate D2E/DX2                !
 ! D15   D(4,3,8,7)              1.5726         estimate D2E/DX2                !
 ! D16   D(4,3,8,15)          -178.4252         estimate D2E/DX2                !
 ! D17   D(3,4,5,6)             -0.1854         estimate D2E/DX2                !
 ! D18   D(3,4,5,12)           179.8155         estimate D2E/DX2                !
 ! D19   D(11,4,5,6)           179.8098         estimate D2E/DX2                !
 ! D20   D(11,4,5,12)           -0.1893         estimate D2E/DX2                !
 ! D21   D(4,5,6,7)              1.6501         estimate D2E/DX2                !
 ! D22   D(4,5,6,13)          -178.3455         estimate D2E/DX2                !
 ! D23   D(12,5,6,7)          -178.3508         estimate D2E/DX2                !
 ! D24   D(12,5,6,13)            1.6537         estimate D2E/DX2                !
 ! D25   D(5,6,7,8)             -1.4947         estimate D2E/DX2                !
 ! D26   D(5,6,7,14)           178.5003         estimate D2E/DX2                !
 ! D27   D(13,6,7,8)           178.5008         estimate D2E/DX2                !
 ! D28   D(13,6,7,14)           -1.5042         estimate D2E/DX2                !
 ! D29   D(6,7,8,3)             -0.1317         estimate D2E/DX2                !
 ! D30   D(6,7,8,15)           179.8661         estimate D2E/DX2                !
 ! D31   D(14,7,8,3)           179.8733         estimate D2E/DX2                !
 ! D32   D(14,7,8,15)           -0.1289         estimate D2E/DX2                !
 --------------------------------------------------------------------------------
 Trust Radius=3.00D-01 FncErr=1.00D-07 GrdErr=1.00D-06 EigMax=2.50D+02 EigMin=1.00D-04
 Number of steps in this run=     82 maximum allowed number of steps=    100.
 GradGradGradGradGradGradGradGradGradGradGradGradGradGradGradGradGradGrad

 Leave Link  103 at Mon Dec 30 16:43:47 2019, MaxMem=  2684354560 cpu:               0.7 elap:               0.1
 (Enter /apps/cent7/gaussian/g16-A.03/g16-haswell/g16/l202.exe)
                          Input orientation:                          
 ---------------------------------------------------------------------
 Center     Atomic      Atomic             Coordinates (Angstroms)
 Number     Number       Type             X           Y           Z
 ---------------------------------------------------------------------
      1          8           0        1.419900    0.275400   -0.139500
      2          7           0        0.216700    0.015800    0.290800
      3          6           0       -0.360400   -1.209800    0.215700
      4          6           0        0.225900   -2.308300   -0.457500
      5          6           0       -0.413600   -3.561900   -0.471000
      6          6           0       -1.642900   -3.728900    0.191800
      7          6           0       -2.249200   -2.636600    0.837500
      8          6           0       -1.609800   -1.384100    0.846800
      9          1           0        2.063418   -0.046486    0.496011
     10          1           0       -0.286300    0.791800    0.696800
     11          1           0        1.179900   -2.187500   -0.970800
     12          1           0        0.042600   -4.402400   -0.994100
     13          1           0       -2.126100   -4.705800    0.205100
     14          1           0       -3.213600   -2.760600    1.330100
     15          1           0       -2.086600   -0.541400    1.347300
     16          1           0        1.558641   -0.159856   -0.983836
 ---------------------------------------------------------------------
                    Distance matrix (angstroms):
                    1          2          3          4          5
     1  O    0.000000
     2  N    1.303933   0.000000
     3  C    2.345518   1.356753   0.000000
     4  C    2.863960   2.441614   1.415503   0.000000
     5  C    4.265734   3.711813   2.450870   1.407358   0.000000
     6  C    5.052220   4.182187   2.826879   2.435592   1.406546
     7  C    4.785036   3.662618   2.447439   2.812637   2.436756
     8  C    3.592466   2.367479   1.410556   2.434161   2.812526
     9  H    0.960000   1.859128   2.703103   3.066180   4.407818
    10  H    1.969057   1.009961   2.059939   3.347443   4.509398
    11  H    2.610467   2.715496   2.176282   1.090039   2.162873
    12  H    4.950668   4.604538   3.437836   2.169515   1.090042
    13  H    6.124150   5.271581   3.916609   3.423295   2.167550
    14  H    5.731173   4.533817   3.433310   3.902595   3.424331
    15  H    3.895289   2.594582   2.169572   3.424455   3.902379
    16  H    0.960000   1.859128   2.494792   2.582449   3.965683
                    6          7          8          9         10
     6  C    0.000000
     7  C    1.406289   0.000000
     8  C    2.434791   1.406298   0.000000
     9  H    5.233499   5.042219   3.924894   0.000000
    10  H    4.746801   3.953062   2.551214   2.502841   0.000000
    11  H    3.419905   3.902610   3.425135   2.741547   3.715758
    12  H    2.168149   3.424201   3.902496   5.027735   5.472388
    13  H    1.089951   2.167181   3.422285   6.272631   5.818096
    14  H    2.168048   1.089999   2.168065   5.992415   4.646472
    15  H    3.419387   2.162452   1.089946   4.265241   2.332735
    16  H    4.936604   4.893994   3.858629   1.567673   2.670954
                   11         12         13         14         15
    11  H    0.000000
    12  H    2.489935   0.000000
    13  H    4.319052   2.496676   0.000000
    14  H    4.992537   4.324379   2.496414   0.000000
    15  H    4.330503   4.992291   4.318380   2.489031   0.000000
    16  H    2.062754   4.505293   5.971306   5.906983   4.343680
                   16
    16  H    0.000000
 Stoichiometry    C6H8NO(1+)
 Framework group  C1[X(C6H8NO)]
 Deg. of freedom    42
 Full point group                 C1      NOp   1
 Largest Abelian subgroup         C1      NOp   1
 Largest concise Abelian subgroup C1      NOp   1
                         Standard orientation:                         
 ---------------------------------------------------------------------
 Center     Atomic      Atomic             Coordinates (Angstroms)
 Number     Number       Type             X           Y           Z
 ---------------------------------------------------------------------
      1          8           0       -2.720911    0.296177    0.045637
      2          7           0       -1.757316   -0.576493   -0.055221
      3          6           0       -0.441062   -0.247673   -0.043642
      4          6           0        0.029777    1.087171   -0.055892
      5          6           0        1.410085    1.358261   -0.012118
      6          6           0        2.331308    0.297092    0.048222
      7          6           0        1.875719   -1.033226    0.029786
      8          6           0        0.496069   -1.301599   -0.017312
      9          1           0       -2.814753    0.564730    0.962520
     10          1           0       -2.040582   -1.541698   -0.145558
     11          1           0       -0.678096    1.914943   -0.099414
     12          1           0        1.765206    2.388754   -0.024917
     13          1           0        3.399314    0.505926    0.109402
     14          1           0        2.591086   -1.855333    0.051892
     15          1           0        0.150226   -2.335093   -0.033580
     16          1           0       -2.515275    1.063650   -0.493156
 ---------------------------------------------------------------------
 Rotational constants (GHZ):           4.9924025           1.4852266           1.1520163
 Leave Link  202 at Mon Dec 30 16:43:48 2019, MaxMem=  2684354560 cpu:               0.4 elap:               0.0
 (Enter /apps/cent7/gaussian/g16-A.03/g16-haswell/g16/l301.exe)
 Standard basis: 6-311++G(d,p) (5D, 7F)
 Ernie: Thresh=  0.10000D-02 Tol=  0.10000D-05 Strict=F.
 There are   240 symmetry adapted cartesian basis functions of A   symmetry.
 There are   232 symmetry adapted basis functions of A   symmetry.
   232 basis functions,   360 primitive gaussians,   240 cartesian basis functions
    29 alpha electrons       29 beta electrons
       nuclear repulsion energy       358.1152494708 Hartrees.
 IExCor= 4336 DFT=T Ex+Corr=M062X ExCW=0 ScaHFX=  0.540000
 ScaDFX=  1.000000  1.000000  1.000000  1.000000 ScalE2=  1.000000  1.000000
 IRadAn=      5 IRanWt=     -1 IRanGd=            0 ICorTp=0 IEmpDi=  4
 NAtoms=   16 NActive=   16 NUniq=   16 SFac= 1.00D+00 NAtFMM=   60 NAOKFM=F Big=F
 Integral buffers will be    131072 words long.
 Raffenetti 2 integral format.
 Two-electron integral symmetry is turned on.
 Leave Link  301 at Mon Dec 30 16:43:48 2019, MaxMem=  2684354560 cpu:               1.3 elap:               0.1
 (Enter /apps/cent7/gaussian/g16-A.03/g16-haswell/g16/l302.exe)
 NPDir=0 NMtPBC=     1 NCelOv=     1 NCel=       1 NClECP=     1 NCelD=      1
         NCelK=      1 NCelE2=     1 NClLst=     1 CellRange=     0.0.
 One-electron integrals computed using PRISM.
 One-electron integral symmetry used in STVInt
 NBasis=   232 RedAO= T EigKep=  3.38D-06  NBF=   232
 NBsUse=   231 1.00D-06 EigRej=  9.63D-07 NBFU=   231
 Precomputing XC quadrature grid using
 IXCGrd= 4 IRadAn=           5 IRanWt=          -1 IRanGd=           0 AccXCQ= 0.00D+00.
 Generated NRdTot=       0 NPtTot=           0 NUsed=           0 NTot=          32
 NSgBfM=   240   240   240   240   240 MxSgAt=    16 MxSgA2=    16.
 Leave Link  302 at Mon Dec 30 16:43:48 2019, MaxMem=  2684354560 cpu:               4.5 elap:               0.2
 (Enter /apps/cent7/gaussian/g16-A.03/g16-haswell/g16/l303.exe)
 DipDrv:  MaxL=1.
 Leave Link  303 at Mon Dec 30 16:43:48 2019, MaxMem=  2684354560 cpu:               0.8 elap:               0.1
 (Enter /apps/cent7/gaussian/g16-A.03/g16-haswell/g16/l401.exe)
 ExpMin= 3.60D-02 ExpMax= 8.59D+03 ExpMxC= 1.30D+03 IAcc=3 IRadAn=         5 AccDes= 0.00D+00
 Harris functional with IExCor= 1009 and IRadAn=       5 diagonalized for initial guess.
 HarFok:  IExCor= 1009 AccDes= 0.00D+00 IRadAn=         5 IDoV= 1 UseB2=F ITyADJ=14
 ICtDFT=  3500011 ScaDFX=  1.000000  1.000000  1.000000  1.000000
 FoFCou: FMM=F IPFlag=           0 FMFlag=      100000 FMFlg1=           0
         NFxFlg=           0 DoJE=T BraDBF=F KetDBF=T FulRan=T
         wScrn=  0.000000 ICntrl=       500 IOpCl=  0 I1Cent=   200000004 NGrid=           0
         NMat0=    1 NMatS0=      1 NMatT0=    0 NMatD0=    1 NMtDS0=    0 NMtDT0=    0
 Petite list used in FoFCou.
 Harris En= -362.891035472681    
 JPrj=0 DoOrth=F DoCkMO=F.
 Leave Link  401 at Mon Dec 30 16:43:48 2019, MaxMem=  2684354560 cpu:               8.8 elap:               0.4
 (Enter /apps/cent7/gaussian/g16-A.03/g16-haswell/g16/l502.exe)
 Integral symmetry usage will be decided dynamically.
 Closed shell SCF:
 Using DIIS extrapolation, IDIIS=  1040.
 NGot=  2684354560 LenX=  2684231204 LenY=  2684173163
 Requested convergence on RMS density matrix=1.00D-08 within 128 cycles.
 Requested convergence on MAX density matrix=1.00D-06.
 Requested convergence on             energy=1.00D-06.
 No special actions if energy rises.
 Fock matrices will be formed incrementally for  20 cycles.

 Cycle   1  Pass 1  IDiag  1:
 FoFJK:  IHMeth= 1 ICntrl=       0 DoSepK=F KAlg= 0 I1Cent=           0 FoldK=F
 IRaf= 960000000 NMat=       1 IRICut=       1 DoRegI=T DoRafI=F ISym2E= 0 IDoP0=0 IntGTp=1.
 FoFCou: FMM=F IPFlag=           0 FMFlag=      100000 FMFlg1=           0
         NFxFlg=           0 DoJE=F BraDBF=F KetDBF=F FulRan=T
         wScrn=  0.000000 ICntrl=         0 IOpCl=  0 I1Cent=           0 NGrid=           0
         NMat0=    1 NMatS0=      1 NMatT0=    0 NMatD0=    1 NMtDS0=    0 NMtDT0=    0
 Symmetry not used in FoFCou.
 E= -362.725897883189    
 DIIS: error= 4.08D-02 at cycle   1 NSaved=   1.
 NSaved= 1 IEnMin= 1 EnMin= -362.725897883189     IErMin= 1 ErrMin= 4.08D-02
 ErrMax= 4.08D-02  0.00D+00 EMaxC= 1.00D-01 BMatC= 2.60D-01 BMatP= 2.60D-01
 IDIUse=3 WtCom= 5.92D-01 WtEn= 4.08D-01
 Coeff-Com:  0.100D+01
 Coeff-En:   0.100D+01
 Coeff:      0.100D+01
 Gap=     0.434 Goal=   None    Shift=    0.000
 GapD=    0.434 DampG=2.000 DampE=0.500 DampFc=1.0000 IDamp=-1.
 RMSDP=2.50D-02 MaxDP=1.28D+00              OVMax= 2.93D-01

 Cycle   2  Pass 1  IDiag  1:
 RMSU=  2.11D-02    CP:  1.44D+00
 E= -362.740580746563     Delta-E=       -0.014682863374 Rises=F Damp=F
 DIIS: error= 3.07D-02 at cycle   2 NSaved=   2.
 NSaved= 2 IEnMin= 2 EnMin= -362.740580746563     IErMin= 2 ErrMin= 3.07D-02
 ErrMax= 3.07D-02  0.00D+00 EMaxC= 1.00D-01 BMatC= 2.09D-01 BMatP= 2.60D-01
 IDIUse=3 WtCom= 6.93D-01 WtEn= 3.07D-01
 Coeff-Com:  0.469D+00 0.531D+00
 Coeff-En:   0.483D+00 0.517D+00
 Coeff:      0.473D+00 0.527D+00
 Gap=     0.248 Goal=   None    Shift=    0.000
 RMSDP=1.75D-02 MaxDP=9.59D-01 DE=-1.47D-02 OVMax= 1.91D-01

 Cycle   3  Pass 1  IDiag  1:
 RMSU=  3.41D-03    CP:  1.10D+00  3.50D-01
 E= -362.960406440766     Delta-E=       -0.219825694203 Rises=F Damp=F
 DIIS: error= 8.25D-03 at cycle   3 NSaved=   3.
 NSaved= 3 IEnMin= 3 EnMin= -362.960406440766     IErMin= 3 ErrMin= 8.25D-03
 ErrMax= 8.25D-03  0.00D+00 EMaxC= 1.00D-01 BMatC= 9.73D-03 BMatP= 2.09D-01
 IDIUse=3 WtCom= 9.18D-01 WtEn= 8.25D-02
 Coeff-Com:  0.877D-01 0.193D+00 0.719D+00
 Coeff-En:   0.000D+00 0.000D+00 0.100D+01
 Coeff:      0.805D-01 0.177D+00 0.742D+00
 Gap=     0.233 Goal=   None    Shift=    0.000
 RMSDP=1.14D-03 MaxDP=2.86D-02 DE=-2.20D-01 OVMax= 5.91D-02

 Cycle   4  Pass 1  IDiag  1:
 RMSU=  1.06D-03    CP:  1.09D+00  3.47D-01  9.24D-01
 E= -362.968034249944     Delta-E=       -0.007627809178 Rises=F Damp=F
 DIIS: error= 4.00D-03 at cycle   4 NSaved=   4.
 NSaved= 4 IEnMin= 4 EnMin= -362.968034249944     IErMin= 4 ErrMin= 4.00D-03
 ErrMax= 4.00D-03  0.00D+00 EMaxC= 1.00D-01 BMatC= 2.14D-03 BMatP= 9.73D-03
 IDIUse=3 WtCom= 9.60D-01 WtEn= 4.00D-02
 Coeff-Com:  0.261D-02 0.419D-01 0.368D+00 0.588D+00
 Coeff-En:   0.000D+00 0.000D+00 0.138D+00 0.862D+00
 Coeff:      0.250D-02 0.403D-01 0.359D+00 0.599D+00
 Gap=     0.229 Goal=   None    Shift=    0.000
 RMSDP=5.13D-04 MaxDP=1.36D-02 DE=-7.63D-03 OVMax= 1.75D-02

 Cycle   5  Pass 1  IDiag  1:
 RMSU=  3.71D-04    CP:  1.09D+00  3.43D-01  9.70D-01  7.48D-01
 E= -362.970095925624     Delta-E=       -0.002061675679 Rises=F Damp=F
 DIIS: error= 9.81D-04 at cycle   5 NSaved=   5.
 NSaved= 5 IEnMin= 5 EnMin= -362.970095925624     IErMin= 5 ErrMin= 9.81D-04
 ErrMax= 9.81D-04  0.00D+00 EMaxC= 1.00D-01 BMatC= 1.13D-04 BMatP= 2.14D-03
 IDIUse=3 WtCom= 9.90D-01 WtEn= 9.81D-03
 Coeff-Com: -0.649D-02-0.583D-03 0.827D-01 0.247D+00 0.677D+00
 Coeff-En:   0.000D+00 0.000D+00 0.000D+00 0.000D+00 0.100D+01
 Coeff:     -0.642D-02-0.578D-03 0.819D-01 0.245D+00 0.680D+00
 Gap=     0.229 Goal=   None    Shift=    0.000
 RMSDP=1.38D-04 MaxDP=3.56D-03 DE=-2.06D-03 OVMax= 5.42D-03

 Cycle   6  Pass 1  IDiag  1:
 RMSU=  1.26D-04    CP:  1.09D+00  3.41D-01  9.66D-01  7.66D-01  9.84D-01
 E= -362.970214794116     Delta-E=       -0.000118868492 Rises=F Damp=F
 DIIS: error= 2.68D-04 at cycle   6 NSaved=   6.
 NSaved= 6 IEnMin= 6 EnMin= -362.970214794116     IErMin= 6 ErrMin= 2.68D-04
 ErrMax= 2.68D-04  0.00D+00 EMaxC= 1.00D-01 BMatC= 9.82D-06 BMatP= 1.13D-04
 IDIUse=3 WtCom= 9.97D-01 WtEn= 2.68D-03
 Coeff-Com: -0.190D-02-0.352D-02 0.234D-02 0.386D-01 0.263D+00 0.701D+00
 Coeff-En:   0.000D+00 0.000D+00 0.000D+00 0.000D+00 0.000D+00 0.100D+01
 Coeff:     -0.189D-02-0.351D-02 0.233D-02 0.385D-01 0.262D+00 0.702D+00
 Gap=     0.229 Goal=   None    Shift=    0.000
 RMSDP=3.51D-05 MaxDP=1.22D-03 DE=-1.19D-04 OVMax= 1.16D-03

 Cycle   7  Pass 1  IDiag  1:
 RMSU=  3.10D-05    CP:  1.09D+00  3.40D-01  9.68D-01  7.67D-01  9.79D-01
                    CP:  9.34D-01
 E= -362.970225329744     Delta-E=       -0.000010535628 Rises=F Damp=F
 DIIS: error= 5.24D-05 at cycle   7 NSaved=   7.
 NSaved= 7 IEnMin= 7 EnMin= -362.970225329744     IErMin= 7 ErrMin= 5.24D-05
 ErrMax= 5.24D-05  0.00D+00 EMaxC= 1.00D-01 BMatC= 9.48D-07 BMatP= 9.82D-06
 IDIUse=1 WtCom= 1.00D+00 WtEn= 0.00D+00
 Coeff-Com:  0.191D-03-0.162D-02-0.117D-01-0.296D-01-0.184D-01 0.209D+00
 Coeff-Com:  0.852D+00
 Coeff:      0.191D-03-0.162D-02-0.117D-01-0.296D-01-0.184D-01 0.209D+00
 Coeff:      0.852D+00
 Gap=     0.229 Goal=   None    Shift=    0.000
 RMSDP=2.02D-05 MaxDP=7.43D-04 DE=-1.05D-05 OVMax= 5.21D-04

 Cycle   8  Pass 1  IDiag  1:
 RMSU=  9.13D-06    CP:  1.09D+00  3.40D-01  9.69D-01  7.66D-01  1.01D+00
                    CP:  1.01D+00  1.11D+00
 E= -362.970226537400     Delta-E=       -0.000001207655 Rises=F Damp=F
 DIIS: error= 2.85D-05 at cycle   8 NSaved=   8.
 NSaved= 8 IEnMin= 8 EnMin= -362.970226537400     IErMin= 8 ErrMin= 2.85D-05
 ErrMax= 2.85D-05  0.00D+00 EMaxC= 1.00D-01 BMatC= 4.08D-08 BMatP= 9.48D-07
 IDIUse=1 WtCom= 1.00D+00 WtEn= 0.00D+00
 Coeff-Com:  0.105D-03-0.224D-03-0.184D-02-0.791D-02-0.130D-01 0.154D-01
 Coeff-Com:  0.142D+00 0.865D+00
 Coeff:      0.105D-03-0.224D-03-0.184D-02-0.791D-02-0.130D-01 0.154D-01
 Coeff:      0.142D+00 0.865D+00
 Gap=     0.229 Goal=   None    Shift=    0.000
 RMSDP=4.60D-06 MaxDP=1.69D-04 DE=-1.21D-06 OVMax= 1.60D-04

 Cycle   9  Pass 1  IDiag  1:
 RMSU=  2.47D-06    CP:  1.09D+00  3.40D-01  9.69D-01  7.65D-01  1.01D+00
                    CP:  1.02D+00  1.15D+00  1.15D+00
 E= -362.970226588701     Delta-E=       -0.000000051302 Rises=F Damp=F
 DIIS: error= 8.46D-06 at cycle   9 NSaved=   9.
 NSaved= 9 IEnMin= 9 EnMin= -362.970226588701     IErMin= 9 ErrMin= 8.46D-06
 ErrMax= 8.46D-06  0.00D+00 EMaxC= 1.00D-01 BMatC= 1.81D-08 BMatP= 4.08D-08
 IDIUse=1 WtCom= 1.00D+00 WtEn= 0.00D+00
 Coeff-Com:  0.328D-04 0.129D-03 0.906D-03 0.388D-03-0.403D-02-0.251D-01
 Coeff-Com: -0.697D-01 0.464D+00 0.633D+00
 Coeff:      0.328D-04 0.129D-03 0.906D-03 0.388D-03-0.403D-02-0.251D-01
 Coeff:     -0.697D-01 0.464D+00 0.633D+00
 Gap=     0.229 Goal=   None    Shift=    0.000
 RMSDP=1.34D-06 MaxDP=3.65D-05 DE=-5.13D-08 OVMax= 5.66D-05

 Cycle  10  Pass 1  IDiag  1:
 RMSU=  8.88D-07    CP:  1.09D+00  3.40D-01  9.69D-01  7.64D-01  1.01D+00
                    CP:  1.02D+00  1.15D+00  1.23D+00  9.22D-01
 E= -362.970226607665     Delta-E=       -0.000000018964 Rises=F Damp=F
 DIIS: error= 2.00D-06 at cycle  10 NSaved=  10.
 NSaved=10 IEnMin=10 EnMin= -362.970226607665     IErMin=10 ErrMin= 2.00D-06
 ErrMax= 2.00D-06  0.00D+00 EMaxC= 1.00D-01 BMatC= 4.51D-10 BMatP= 1.81D-08
 IDIUse=1 WtCom= 1.00D+00 WtEn= 0.00D+00
 Coeff-Com:  0.255D-05 0.543D-04 0.427D-03 0.773D-03-0.164D-03-0.843D-02
 Coeff-Com: -0.304D-01 0.748D-01 0.142D+00 0.821D+00
 Coeff:      0.255D-05 0.543D-04 0.427D-03 0.773D-03-0.164D-03-0.843D-02
 Coeff:     -0.304D-01 0.748D-01 0.142D+00 0.821D+00
 Gap=     0.229 Goal=   None    Shift=    0.000
 RMSDP=3.71D-07 MaxDP=1.01D-05 DE=-1.90D-08 OVMax= 2.13D-05

 Cycle  11  Pass 1  IDiag  1:
 RMSU=  2.50D-07    CP:  1.09D+00  3.40D-01  9.69D-01  7.64D-01  1.01D+00
                    CP:  1.02D+00  1.15D+00  1.24D+00  9.79D-01  1.11D+00
 E= -362.970226608238     Delta-E=       -0.000000000572 Rises=F Damp=F
 DIIS: error= 1.54D-06 at cycle  11 NSaved=  11.
 NSaved=11 IEnMin=11 EnMin= -362.970226608238     IErMin=11 ErrMin= 1.54D-06
 ErrMax= 1.54D-06  0.00D+00 EMaxC= 1.00D-01 BMatC= 2.01D-10 BMatP= 4.51D-10
 IDIUse=1 WtCom= 1.00D+00 WtEn= 0.00D+00
 Coeff-Com: -0.352D-05 0.455D-05 0.630D-04 0.315D-03 0.600D-03 0.276D-03
 Coeff-Com: -0.262D-02-0.355D-01-0.418D-01 0.420D+00 0.658D+00
 Coeff:     -0.352D-05 0.455D-05 0.630D-04 0.315D-03 0.600D-03 0.276D-03
 Coeff:     -0.262D-02-0.355D-01-0.418D-01 0.420D+00 0.658D+00
 Gap=     0.229 Goal=   None    Shift=    0.000
 RMSDP=1.80D-07 MaxDP=5.06D-06 DE=-5.72D-10 OVMax= 9.97D-06

 Cycle  12  Pass 1  IDiag  1:
 RMSU=  1.41D-07    CP:  1.09D+00  3.40D-01  9.69D-01  7.64D-01  1.01D+00
                    CP:  1.02D+00  1.15D+00  1.25D+00  9.84D-01  1.20D+00
                    CP:  9.98D-01
 E= -362.970226608509     Delta-E=       -0.000000000271 Rises=F Damp=F
 DIIS: error= 3.21D-07 at cycle  12 NSaved=  12.
 NSaved=12 IEnMin=12 EnMin= -362.970226608509     IErMin=12 ErrMin= 3.21D-07
 ErrMax= 3.21D-07  0.00D+00 EMaxC= 1.00D-01 BMatC= 9.87D-12 BMatP= 2.01D-10
 IDIUse=1 WtCom= 1.00D+00 WtEn= 0.00D+00
 Coeff-Com: -0.891D-06-0.512D-05-0.302D-04-0.164D-04 0.119D-03 0.912D-03
 Coeff-Com:  0.227D-02-0.129D-01-0.256D-01-0.157D-01 0.163D+00 0.888D+00
 Coeff:     -0.891D-06-0.512D-05-0.302D-04-0.164D-04 0.119D-03 0.912D-03
 Coeff:      0.227D-02-0.129D-01-0.256D-01-0.157D-01 0.163D+00 0.888D+00
 Gap=     0.229 Goal=   None    Shift=    0.000
 RMSDP=8.51D-08 MaxDP=5.11D-06 DE=-2.71D-10 OVMax= 3.38D-06

 Cycle  13  Pass 1  IDiag  1:
 RMSU=  3.88D-08    CP:  1.09D+00  3.40D-01  9.69D-01  7.64D-01  1.01D+00
                    CP:  1.02D+00  1.15D+00  1.25D+00  9.95D-01  1.23D+00
                    CP:  1.10D+00  1.05D+00
 E= -362.970226608526     Delta-E=       -0.000000000018 Rises=F Damp=F
 DIIS: error= 7.85D-08 at cycle  13 NSaved=  13.
 NSaved=13 IEnMin=13 EnMin= -362.970226608526     IErMin=13 ErrMin= 7.85D-08
 ErrMax= 7.85D-08  0.00D+00 EMaxC= 1.00D-01 BMatC= 1.28D-12 BMatP= 9.87D-12
 IDIUse=1 WtCom= 1.00D+00 WtEn= 0.00D+00
 Coeff-Com: -0.182D-06-0.232D-05-0.160D-04-0.267D-04 0.381D-05 0.341D-03
 Coeff-Com:  0.951D-03-0.251D-02-0.750D-02-0.439D-01 0.448D-02 0.334D+00
 Coeff-Com:  0.714D+00
 Coeff:     -0.182D-06-0.232D-05-0.160D-04-0.267D-04 0.381D-05 0.341D-03
 Coeff:      0.951D-03-0.251D-02-0.750D-02-0.439D-01 0.448D-02 0.334D+00
 Coeff:      0.714D+00
 Gap=     0.229 Goal=   None    Shift=    0.000
 RMSDP=2.40D-08 MaxDP=1.52D-06 DE=-1.77D-11 OVMax= 7.14D-07

 Cycle  14  Pass 1  IDiag  1:
 RMSU=  1.16D-08    CP:  1.09D+00  3.40D-01  9.69D-01  7.64D-01  1.01D+00
                    CP:  1.02D+00  1.15D+00  1.25D+00  9.95D-01  1.24D+00
                    CP:  1.13D+00  1.12D+00  1.04D+00
 E= -362.970226608528     Delta-E=       -0.000000000001 Rises=F Damp=F
 DIIS: error= 3.66D-08 at cycle  14 NSaved=  14.
 NSaved=14 IEnMin=14 EnMin= -362.970226608528     IErMin=14 ErrMin= 3.66D-08
 ErrMax= 3.66D-08  0.00D+00 EMaxC= 1.00D-01 BMatC= 1.25D-13 BMatP= 1.28D-12
 IDIUse=1 WtCom= 1.00D+00 WtEn= 0.00D+00
 Coeff-Com:  0.800D-07-0.319D-07-0.130D-05-0.719D-05-0.224D-04-0.319D-04
 Coeff-Com: -0.712D-04 0.165D-02 0.187D-02-0.112D-01-0.249D-01-0.130D-01
 Coeff-Com:  0.220D+00 0.825D+00
 Coeff:      0.800D-07-0.319D-07-0.130D-05-0.719D-05-0.224D-04-0.319D-04
 Coeff:     -0.712D-04 0.165D-02 0.187D-02-0.112D-01-0.249D-01-0.130D-01
 Coeff:      0.220D+00 0.825D+00
 Gap=     0.229 Goal=   None    Shift=    0.000
 RMSDP=9.15D-09 MaxDP=6.06D-07 DE=-1.36D-12 OVMax= 3.13D-07

 SCF Done:  E(RM062X) =  -362.970226609     A.U. after   14 cycles
            NFock= 14  Conv=0.91D-08     -V/T= 2.0034
 KE= 3.617320042703D+02 PE=-1.550702560275D+03 EE= 4.678850799255D+02
 Leave Link  502 at Mon Dec 30 16:43:58 2019, MaxMem=  2684354560 cpu:             231.7 elap:               9.7
 (Enter /apps/cent7/gaussian/g16-A.03/g16-haswell/g16/l601.exe)
 Copying SCF densities to generalized density rwf, IOpCl= 0 IROHF=0.

 **********************************************************************

            Population analysis using the SCF density.

 **********************************************************************

 Orbital symmetries:
       Occupied  (A) (A) (A) (A) (A) (A) (A) (A) (A) (A) (A) (A)
                 (A) (A) (A) (A) (A) (A) (A) (A) (A) (A) (A) (A)
                 (A) (A) (A) (A) (A)
       Virtual   (A) (A) (A) (A) (A) (A) (A) (A) (A) (A) (A) (A)
                 (A) (A) (A) (A) (A) (A) (A) (A) (A) (A) (A) (A)
                 (A) (A) (A) (A) (A) (A) (A) (A) (A) (A) (A) (A)
                 (A) (A) (A) (A) (A) (A) (A) (A) (A) (A) (A) (A)
                 (A) (A) (A) (A) (A) (A) (A) (A) (A) (A) (A) (A)
                 (A) (A) (A) (A) (A) (A) (A) (A) (A) (A) (A) (A)
                 (A) (A) (A) (A) (A) (A) (A) (A) (A) (A) (A) (A)
                 (A) (A) (A) (A) (A) (A) (A) (A) (A) (A) (A) (A)
                 (A) (A) (A) (A) (A) (A) (A) (A) (A) (A) (A) (A)
                 (A) (A) (A) (A) (A) (A) (A) (A) (A) (A) (A) (A)
                 (A) (A) (A) (A) (A) (A) (A) (A) (A) (A) (A) (A)
                 (A) (A) (A) (A) (A) (A) (A) (A) (A) (A) (A) (A)
                 (A) (A) (A) (A) (A) (A) (A) (A) (A) (A) (A) (A)
                 (A) (A) (A) (A) (A) (A) (A) (A) (A) (A) (A) (A)
                 (A) (A) (A) (A) (A) (A) (A) (A) (A) (A) (A) (A)
                 (A) (A) (A) (A) (A) (A) (A) (A) (A) (A) (A) (A)
                 (A) (A) (A) (A) (A) (A) (A) (A) (A) (A)
 The electronic state is 1-A.
 Alpha  occ. eigenvalues --  -20.05776 -15.03474 -10.76715 -10.71342 -10.70157
 Alpha  occ. eigenvalues --  -10.69744 -10.69388 -10.68178  -1.62648  -1.24858
 Alpha  occ. eigenvalues --   -1.10889  -1.03618  -1.02278  -0.99627  -0.92898
 Alpha  occ. eigenvalues --   -0.91199  -0.83177  -0.81618  -0.75350  -0.71735
 Alpha  occ. eigenvalues --   -0.66842  -0.65377  -0.65043  -0.63918  -0.56743
 Alpha  occ. eigenvalues --   -0.55700  -0.55291  -0.45687  -0.43038
 Alpha virt. eigenvalues --   -0.20089  -0.14703  -0.13436  -0.12600  -0.12085
 Alpha virt. eigenvalues --   -0.10148  -0.09011  -0.07930  -0.07420  -0.06144
 Alpha virt. eigenvalues --   -0.04799  -0.04518  -0.04012  -0.03620  -0.02568
 Alpha virt. eigenvalues --   -0.02045  -0.00860  -0.00231   0.00337   0.01047
 Alpha virt. eigenvalues --    0.01430   0.01545   0.01961   0.02293   0.02883
 Alpha virt. eigenvalues --    0.03580   0.04128   0.04753   0.05268   0.06078
 Alpha virt. eigenvalues --    0.06558   0.06782   0.07676   0.07930   0.08682
 Alpha virt. eigenvalues --    0.08878   0.09399   0.10778   0.11383   0.12441
 Alpha virt. eigenvalues --    0.13008   0.13245   0.13868   0.14933   0.15888
 Alpha virt. eigenvalues --    0.16831   0.18049   0.18243   0.19271   0.22083
 Alpha virt. eigenvalues --    0.22563   0.24163   0.25746   0.27718   0.28502
 Alpha virt. eigenvalues --    0.30017   0.32447   0.37769   0.40528   0.42347
 Alpha virt. eigenvalues --    0.42971   0.43530   0.44099   0.46159   0.46683
 Alpha virt. eigenvalues --    0.47409   0.48522   0.49637   0.51384   0.51707
 Alpha virt. eigenvalues --    0.52237   0.53588   0.57969   0.58174   0.58987
 Alpha virt. eigenvalues --    0.62753   0.63956   0.64630   0.67289   0.70448
 Alpha virt. eigenvalues --    0.71440   0.72454   0.73907   0.74958   0.76102
 Alpha virt. eigenvalues --    0.77466   0.78684   0.79016   0.80125   0.81072
 Alpha virt. eigenvalues --    0.82958   0.85909   0.88436   0.89845   0.90106
 Alpha virt. eigenvalues --    0.91377   0.96952   0.98756   1.00696   1.04377
 Alpha virt. eigenvalues --    1.05884   1.08568   1.09315   1.20231   1.27617
 Alpha virt. eigenvalues --    1.31770   1.33764   1.38526   1.38959   1.40548
 Alpha virt. eigenvalues --    1.42952   1.43023   1.45476   1.47686   1.48431
 Alpha virt. eigenvalues --    1.50578   1.52925   1.54942   1.57082   1.59910
 Alpha virt. eigenvalues --    1.62600   1.63904   1.65996   1.70878   1.72180
 Alpha virt. eigenvalues --    1.74006   1.75491   1.78317   1.79181   1.80291
 Alpha virt. eigenvalues --    1.81665   1.83429   1.86559   1.87319   1.89684
 Alpha virt. eigenvalues --    1.91110   1.94400   1.95205   2.01106   2.06615
 Alpha virt. eigenvalues --    2.10395   2.17779   2.22007   2.25565   2.26146
 Alpha virt. eigenvalues --    2.31891   2.34405   2.35563   2.37802   2.41519
 Alpha virt. eigenvalues --    2.42973   2.47962   2.52913   2.55592   2.57725
 Alpha virt. eigenvalues --    2.60267   2.60571   2.61025   2.63775   2.63997
 Alpha virt. eigenvalues --    2.68076   2.70556   2.72572   2.74618   2.78662
 Alpha virt. eigenvalues --    2.80407   2.80805   2.81770   2.95390   2.97881
 Alpha virt. eigenvalues --    3.04826   3.06936   3.10515   3.20949   3.22798
 Alpha virt. eigenvalues --    3.31289   3.35412   3.40351   3.43275   3.44578
 Alpha virt. eigenvalues --    3.51559   3.57374   3.76963   3.79778   3.88626
 Alpha virt. eigenvalues --    3.94854   4.03297   4.04976   4.37105   4.68572
 Alpha virt. eigenvalues --    4.81481   5.02129   5.40988   5.79073  23.55538
 Alpha virt. eigenvalues --   23.85640  23.86852  23.95472  23.97874  24.06808
 Alpha virt. eigenvalues --   35.47672  49.68810
          Condensed to atoms (all electrons):
               1          2          3          4          5          6
     1  O    7.636051  -0.566882   0.255019  -0.127518   0.174488   0.052200
     2  N   -0.566882   8.292402  -0.735211   0.182957  -0.092974  -0.027073
     3  C    0.255019  -0.735211   8.432783  -0.388348  -0.595321   0.080047
     4  C   -0.127518   0.182957  -0.388348   9.292467  -0.659539  -0.419869
     5  C    0.174488  -0.092974  -0.595321  -0.659539   6.053180   0.543947
     6  C    0.052200  -0.027073   0.080047  -0.419869   0.543947   5.726247
     7  C   -0.175782   0.140579  -0.533944   0.981057  -0.371265   0.531737
     8  C    0.041274  -0.155437   0.141153  -3.417914   0.798973  -0.556109
     9  H    0.351499  -0.033913   0.007739  -0.009148   0.002765   0.004340
    10  H   -0.002214   0.344774  -0.033797  -0.019563  -0.003159   0.004534
    11  H    0.018670  -0.017273  -0.100898   0.562544  -0.112480  -0.002166
    12  H    0.000226  -0.006932   0.066946  -0.090287   0.365429  -0.058222
    13  H    0.001065  -0.000403   0.023042  -0.015569  -0.056382   0.425599
    14  H   -0.001954  -0.003073   0.032714   0.056499  -0.017663   0.005484
    15  H    0.008342  -0.012399  -0.105499  -0.116890   0.019019  -0.015627
    16  H    0.190476   0.035417  -0.058034   0.068395  -0.007112  -0.009696
               7          8          9         10         11         12
     1  O   -0.175782   0.041274   0.351499  -0.002214   0.018670   0.000226
     2  N    0.140579  -0.155437  -0.033913   0.344774  -0.017273  -0.006932
     3  C   -0.533944   0.141153   0.007739  -0.033797  -0.100898   0.066946
     4  C    0.981057  -3.417914  -0.009148  -0.019563   0.562544  -0.090287
     5  C   -0.371265   0.798973   0.002765  -0.003159  -0.112480   0.365429
     6  C    0.531737  -0.556109   0.004340   0.004534  -0.002166  -0.058222
     7  C    6.181004  -0.956524  -0.004026   0.007483   0.030708  -0.024460
     8  C   -0.956524   9.837167   0.002847   0.039398  -0.102918   0.066650
     9  H   -0.004026   0.002847   0.345094  -0.002519  -0.006817  -0.000134
    10  H    0.007483   0.039398  -0.002519   0.289218   0.002164  -0.000498
    11  H    0.030708  -0.102918  -0.006817   0.002164   0.620336  -0.013955
    12  H   -0.024460   0.066650  -0.000134  -0.000498  -0.013955   0.450685
    13  H   -0.044385   0.002808   0.000073   0.000157  -0.000181  -0.005552
    14  H    0.423623  -0.173303  -0.000167   0.000443   0.001426  -0.001010
    15  H   -0.086305   0.615232   0.000513  -0.001104  -0.004766   0.002137
    16  H    0.010437  -0.010718  -0.046358  -0.003491   0.009657   0.001067
              13         14         15         16
     1  O    0.001065  -0.001954   0.008342   0.190476
     2  N   -0.000403  -0.003073  -0.012399   0.035417
     3  C    0.023042   0.032714  -0.105499  -0.058034
     4  C   -0.015569   0.056499  -0.116890   0.068395
     5  C   -0.056382  -0.017663   0.019019  -0.007112
     6  C    0.425599   0.005484  -0.015627  -0.009696
     7  C   -0.044385   0.423623  -0.086305   0.010437
     8  C    0.002808  -0.173303   0.615232  -0.010718
     9  H    0.000073  -0.000167   0.000513  -0.046358
    10  H    0.000157   0.000443  -0.001104  -0.003491
    11  H   -0.000181   0.001426  -0.004766   0.009657
    12  H   -0.005552  -0.001010   0.002137   0.001067
    13  H    0.449352  -0.004522   0.000399  -0.000115
    14  H   -0.004522   0.434632  -0.009924   0.000138
    15  H    0.000399  -0.009924   0.515943   0.002091
    16  H   -0.000115   0.000138   0.002091   0.441209
 Mulliken charges:
               1
     1  O    0.145040
     2  N   -0.344561
     3  C   -0.488392
     4  C    0.120726
     5  C   -0.041908
     6  C   -0.285372
     7  C   -0.109936
     8  C   -0.172582
     9  H    0.388211
    10  H    0.378173
    11  H    0.115948
    12  H    0.247911
    13  H    0.224613
    14  H    0.256656
    15  H    0.188838
    16  H    0.376637
 Sum of Mulliken charges =   1.00000
 Mulliken charges with hydrogens summed into heavy atoms:
               1
     1  O    0.909888
     2  N    0.033612
     3  C   -0.488392
     4  C    0.236674
     5  C    0.206002
     6  C   -0.060759
     7  C    0.146720
     8  C    0.016256
 Electronic spatial extent (au):  <R**2>=            966.7057
 Charge=              1.0000 electrons
 Dipole moment (field-independent basis, Debye):
    X=             -8.0190    Y=              1.1634    Z=              0.7819  Tot=              8.1406
 Quadrupole moment (field-independent basis, Debye-Ang):
   XX=            -10.2268   YY=            -32.8678   ZZ=            -48.0031
   XY=             -4.5116   XZ=             -2.5285   YZ=              0.1632
 Traceless Quadrupole moment (field-independent basis, Debye-Ang):
   XX=             20.1391   YY=             -2.5019   ZZ=            -17.6371
   XY=             -4.5116   XZ=             -2.5285   YZ=              0.1632
 Octapole moment (field-independent basis, Debye-Ang**2):
  XXX=            -66.7818  YYY=             -2.2130  ZZZ=              2.8802  XYY=            -13.9967
  XXY=             13.8372  XXZ=             10.9644  XZZ=            -20.0604  YZZ=              2.3108
  YYZ=             -1.6944  XYZ=             -0.9281
 Hexadecapole moment (field-independent basis, Debye-Ang**3):
 XXXX=           -574.6001 YYYY=           -268.8638 ZZZZ=            -55.3874 XXXY=            -46.3282
 XXXZ=            -28.6762 YYYX=              1.8803 YYYZ=             -0.4294 ZZZX=             -8.6719
 ZZZY=              1.2400 XXYY=           -134.0384 XXZZ=           -138.2325 YYZZ=            -69.9505
 XXYZ=              2.9722 YYXZ=              2.7919 ZZXY=             -7.8536
 N-N= 3.581152494708D+02 E-N=-1.550702560930D+03  KE= 3.617320042703D+02
 No NMR shielding tensors so no spin-rotation constants.
 Leave Link  601 at Mon Dec 30 16:43:58 2019, MaxMem=  2684354560 cpu:               2.7 elap:               0.1
 (Enter /apps/cent7/gaussian/g16-A.03/g16-haswell/g16/l701.exe)
 ... and contract with generalized density number  0.
 Compute integral first derivatives.
 Leave Link  701 at Mon Dec 30 16:43:59 2019, MaxMem=  2684354560 cpu:               3.4 elap:               0.2
 (Enter /apps/cent7/gaussian/g16-A.03/g16-haswell/g16/l702.exe)
 L702 exits ... SP integral derivatives will be done elsewhere.
 Leave Link  702 at Mon Dec 30 16:43:59 2019, MaxMem=  2684354560 cpu:               0.5 elap:               0.0
 (Enter /apps/cent7/gaussian/g16-A.03/g16-haswell/g16/l703.exe)
 Integral derivatives from FoFJK, PRISM(SPDF).
 Compute integral first derivatives, UseDBF=F ICtDFT=           0.
 Calling FoFJK, ICntrl=      2127 FMM=F ISym2X=0 I1Cent= 0 IOpClX= 0 NMat=1 NMatS=1 NMatT=0.
 FoFJK:  IHMeth= 1 ICntrl=    2127 DoSepK=F KAlg= 0 I1Cent=           0 FoldK=F
 IRaf=         0 NMat=       1 IRICut=       1 DoRegI=T DoRafI=F ISym2E= 0 IDoP0=0 IntGTp=1.
 FoFCou: FMM=F IPFlag=           0 FMFlag=      100000 FMFlg1=         800
         NFxFlg=           0 DoJE=F BraDBF=F KetDBF=F FulRan=T
         wScrn=  0.000000 ICntrl=      2127 IOpCl=  0 I1Cent=           0 NGrid=           0
         NMat0=    1 NMatS0=      1 NMatT0=    0 NMatD0=    1 NMtDS0=    0 NMtDT0=    0
 Symmetry not used in FoFCou.
 Leave Link  703 at Mon Dec 30 16:44:00 2019, MaxMem=  2684354560 cpu:              38.2 elap:               1.6
 (Enter /apps/cent7/gaussian/g16-A.03/g16-haswell/g16/l716.exe)
 Dipole        =-3.15491555D+00 4.57729765D-01 3.07628940D-01
 ***** Axes restored to original set *****
 -------------------------------------------------------------------
 Center     Atomic                   Forces (Hartrees/Bohr)
 Number     Number              X              Y              Z
 -------------------------------------------------------------------
      1        8           0.048855136    0.014222168   -0.013606444
      2        7          -0.083121891    0.030700138    0.036635817
      3        6          -0.021431559   -0.069293404   -0.004748240
      4        6          -0.005067183    0.009452057    0.005906932
      5        6          -0.009395026    0.008023199    0.008104630
      6        6           0.006577057    0.005473180   -0.002669689
      7        6           0.015072358    0.004935425   -0.007570153
      8        6          -0.001491547   -0.006423662   -0.000869185
      9        1           0.026153042   -0.005852720    0.013172368
     10        1           0.007963151    0.007456951   -0.005011994
     11        1          -0.000097889   -0.004381809   -0.000124923
     12        1          -0.000988919    0.005026349    0.002724807
     13        1           0.002305615    0.004927641   -0.001012604
     14        1           0.005072975    0.002108441   -0.001729792
     15        1           0.001690960   -0.002489288   -0.000869674
     16        1           0.007903721   -0.003884667   -0.028331855
 -------------------------------------------------------------------
 Cartesian Forces:  Max     0.083121891 RMS     0.020461290
 Leave Link  716 at Mon Dec 30 16:44:00 2019, MaxMem=  2684354560 cpu:               0.5 elap:               0.0
 (Enter /apps/cent7/gaussian/g16-A.03/g16-haswell/g16/l103.exe)

 GradGradGradGradGradGradGradGradGradGradGradGradGradGradGradGradGradGrad
 Berny optimization.
 FormGI is forming the generalized inverse of G from B-inverse, IUseBI=4.
 Internal  Forces:  Max     0.086889700 RMS     0.014029844
 Search for a local minimum.
 Step number   1 out of a maximum of   82
 All quantities printed in internal units (Hartrees-Bohrs-Radians)
 RMS Force = .14030D-01 SwitMx=.10000D-02 MixMth= 1
 Mixed Optimization -- RFO/linear search
 Second derivative matrix not updated -- first step.
 ITU=  0
     Eigenvalues ---    0.01919   0.01942   0.01976   0.01987   0.01997
     Eigenvalues ---    0.02004   0.02004   0.02006   0.02031   0.02264
     Eigenvalues ---    0.02409   0.02566   0.06699   0.16000   0.16000
     Eigenvalues ---    0.16000   0.16000   0.16000   0.16000   0.16000
     Eigenvalues ---    0.16000   0.21997   0.21998   0.22000   0.23473
     Eigenvalues ---    0.25000   0.34808   0.34808   0.34813   0.34818
     Eigenvalues ---    0.34819   0.40229   0.40487   0.43657   0.44204
     Eigenvalues ---    0.44490   0.44580   0.45979   0.53609   0.55473
     Eigenvalues ---    0.55473   0.66113
 RFO step:  Lambda=-2.90327173D-02 EMin= 1.91898365D-02
 Linear search not attempted -- first point.
 Iteration  1 RMS(Cart)=  0.06020504 RMS(Int)=  0.00242568
 Iteration  2 RMS(Cart)=  0.00296444 RMS(Int)=  0.00129743
 Iteration  3 RMS(Cart)=  0.00000848 RMS(Int)=  0.00129741
 Iteration  4 RMS(Cart)=  0.00000002 RMS(Int)=  0.00129741
 ITry= 1 IFail=0 DXMaxC= 1.97D-01 DCOld= 1.00D+10 DXMaxT= 3.00D-01 DXLimC= 3.00D+00 Rises=F
 Variable       Old X    -DE/DX   Delta X   Delta X   Delta X     New X
                                 (Linear)    (Quad)   (Total)
    R1        2.46408   0.08689   0.00000   0.12590   0.12590   2.58997
    R2        1.81414   0.02821   0.00000   0.04833   0.04833   1.86247
    R3        1.81414   0.02782   0.00000   0.04766   0.04766   1.86179
    R4        2.56389   0.04198   0.00000   0.07428   0.07428   2.63817
    R5        1.90855  -0.00025   0.00000  -0.00051  -0.00051   1.90804
    R6        2.67491  -0.01857   0.00000  -0.04016  -0.04015   2.63476
    R7        2.66556  -0.01496   0.00000  -0.03178  -0.03176   2.63381
    R8        2.65952  -0.01564   0.00000  -0.03306  -0.03307   2.62646
    R9        2.05988  -0.00051   0.00000  -0.00136  -0.00136   2.05852
   R10        2.65799  -0.01860   0.00000  -0.03937  -0.03939   2.61859
   R11        2.05988  -0.00560   0.00000  -0.01484  -0.01484   2.04504
   R12        2.65750  -0.01250   0.00000  -0.02648  -0.02649   2.63101
   R13        2.05971  -0.00545   0.00000  -0.01445  -0.01445   2.04526
   R14        2.65752  -0.01999   0.00000  -0.04207  -0.04206   2.61546
   R15        2.05980  -0.00551   0.00000  -0.01461  -0.01461   2.04519
   R16        2.05970  -0.00306   0.00000  -0.00812  -0.00812   2.05158
    A1        1.91063   0.01551   0.00000   0.09666   0.09215   2.00278
    A2        1.91063   0.01047   0.00000   0.06999   0.06539   1.97603
    A3        1.91063  -0.00444   0.00000   0.00572  -0.00153   1.90910
    A4        2.15804  -0.01691   0.00000  -0.06791  -0.06793   2.09011
    A5        2.02556  -0.00256   0.00000  -0.02434  -0.02436   2.00120
    A6        2.09958   0.01948   0.00000   0.09226   0.09223   2.19181
    A7        2.15457  -0.00873   0.00000  -0.03186  -0.03187   2.12270
    A8        2.05287   0.00186   0.00000   0.00609   0.00609   2.05895
    A9        2.07575   0.00687   0.00000   0.02577   0.02577   2.10152
   A10        2.10321  -0.00420   0.00000  -0.01596  -0.01598   2.08723
   A11        2.09493   0.00647   0.00000   0.03110   0.03111   2.12604
   A12        2.08505  -0.00227   0.00000  -0.01515  -0.01514   2.06991
   A13        2.09252   0.00145   0.00000   0.00605   0.00599   2.09851
   A14        2.09585  -0.00221   0.00000  -0.01089  -0.01087   2.08499
   A15        2.09481   0.00076   0.00000   0.00485   0.00488   2.09969
   A16        2.09549  -0.00111   0.00000  -0.00454  -0.00461   2.09088
   A17        2.09396   0.00013   0.00000   0.00003   0.00006   2.09402
   A18        2.09373   0.00098   0.00000   0.00451   0.00454   2.09828
   A19        2.09300   0.00300   0.00000   0.01234   0.01231   2.10531
   A20        2.09509   0.00018   0.00000   0.00272   0.00274   2.09782
   A21        2.09510  -0.00318   0.00000  -0.01506  -0.01505   2.08005
   A22        2.10577  -0.00597   0.00000  -0.02301  -0.02301   2.08276
   A23        2.09138   0.00292   0.00000   0.01116   0.01116   2.10254
   A24        2.08604   0.00305   0.00000   0.01184   0.01183   2.09787
    D1       -1.35794  -0.00251   0.00000  -0.00480  -0.00714  -1.36508
    D2        1.78367  -0.00187   0.00000   0.00728   0.00447   1.78814
    D3        0.73646   0.00797   0.00000   0.10426   0.10706   0.84352
    D4       -2.40512   0.00861   0.00000   0.11633   0.11867  -2.28645
    D5       -0.11477   0.00106   0.00000   0.02051   0.02080  -0.09397
    D6        3.02623   0.00137   0.00000   0.02622   0.02635   3.05258
    D7        3.02681   0.00040   0.00000   0.00795   0.00782   3.03463
    D8       -0.11538   0.00070   0.00000   0.01365   0.01337  -0.10201
    D9        3.11633   0.00086   0.00000   0.01795   0.01794   3.13426
   D10       -0.02518   0.00096   0.00000   0.02033   0.02038  -0.00480
   D11       -0.02467   0.00056   0.00000   0.01219   0.01226  -0.01241
   D12        3.11701   0.00066   0.00000   0.01457   0.01471   3.13172
   D13       -3.11358  -0.00111   0.00000  -0.02271  -0.02274  -3.13632
   D14        0.02805  -0.00075   0.00000  -0.01560  -0.01569   0.01236
   D15        0.02745  -0.00083   0.00000  -0.01729  -0.01728   0.01017
   D16       -3.11411  -0.00046   0.00000  -0.01018  -0.01023  -3.12434
   D17       -0.00324   0.00011   0.00000   0.00318   0.00330   0.00007
   D18        3.13837  -0.00001   0.00000   0.00048   0.00055   3.13892
   D19        3.13827   0.00001   0.00000   0.00082   0.00094   3.13921
   D20       -0.00330  -0.00011   0.00000  -0.00189  -0.00182  -0.00512
   D21        0.02880  -0.00074   0.00000  -0.01452  -0.01447   0.01433
   D22       -3.11272  -0.00052   0.00000  -0.01068  -0.01074  -3.12345
   D23       -3.11281  -0.00062   0.00000  -0.01181  -0.01169  -3.12450
   D24        0.02886  -0.00040   0.00000  -0.00797  -0.00796   0.02091
   D25       -0.02609   0.00049   0.00000   0.00955   0.00945  -0.01663
   D26        3.11542   0.00057   0.00000   0.01081   0.01069   3.12610
   D27        3.11543   0.00027   0.00000   0.00572   0.00571   3.12114
   D28       -0.02625   0.00035   0.00000   0.00698   0.00694  -0.01931
   D29       -0.00230   0.00038   0.00000   0.00683   0.00668   0.00438
   D30        3.13926   0.00002   0.00000  -0.00026  -0.00035   3.13891
   D31        3.13938   0.00030   0.00000   0.00557   0.00546  -3.13835
   D32       -0.00225  -0.00006   0.00000  -0.00152  -0.00157  -0.00382
         Item               Value     Threshold  Converged?
 Maximum Force            0.086890     0.000450     NO 
 RMS     Force            0.014030     0.000300     NO 
 Maximum Displacement     0.197376     0.001800     NO 
 RMS     Displacement     0.060443     0.001200     NO 
 Predicted change in Energy=-1.598315D-02
 Lowest energy point so far.  Saving SCF results.
 GradGradGradGradGradGradGradGradGradGradGradGradGradGradGradGradGradGrad

 Leave Link  103 at Mon Dec 30 16:44:00 2019, MaxMem=  2684354560 cpu:               1.3 elap:               0.1
 (Enter /apps/cent7/gaussian/g16-A.03/g16-haswell/g16/l202.exe)
                          Input orientation:                          
 ---------------------------------------------------------------------
 Center     Atomic      Atomic             Coordinates (Angstroms)
 Number     Number       Type             X           Y           Z
 ---------------------------------------------------------------------
      1          8           0        1.442324    0.222995   -0.170505
      2          7           0        0.178878    0.033050    0.325524
      3          6           0       -0.410044   -1.230795    0.255865
      4          6           0        0.208716   -2.290102   -0.406674
      5          6           0       -0.411605   -3.533336   -0.442482
      6          6           0       -1.637472   -3.719571    0.176168
      7          6           0       -2.256447   -2.651982    0.820791
      8          6           0       -1.649863   -1.408811    0.867176
      9          1           0        2.167865   -0.096483    0.415057
     10          1           0       -0.251273    0.861201    0.711024
     11          1           0        1.173026   -2.174146   -0.899910
     12          1           0        0.069342   -4.353443   -0.959442
     13          1           0       -2.108886   -4.693683    0.160143
     14          1           0       -3.220570   -2.786625    1.293699
     15          1           0       -2.139888   -0.580491    1.369562
     16          1           0        1.564457   -0.148420   -1.074823
 ---------------------------------------------------------------------
                    Distance matrix (angstroms):
                    1          2          3          4          5
     1  O    0.000000
     2  N    1.370555   0.000000
     3  C    2.393025   1.396061   0.000000
     4  C    2.809488   2.435988   1.394257   0.000000
     5  C    4.197743   3.695620   2.406114   1.389860   0.000000
     6  C    5.014894   4.171762   2.776137   2.406553   1.385699
     7  C    4.788431   3.658619   2.397523   2.777527   2.403349
     8  C    3.647081   2.390950   1.393751   2.419439   2.786054
     9  H    0.985575   1.995210   2.820926   3.053763   4.381894
    10  H    2.013125   1.009690   2.146817   3.375136   4.546233
    11  H    2.520087   2.713251   2.175279   1.089321   2.137215
    12  H    4.842653   4.572139   3.384925   2.140644   1.082189
    13  H    6.074055   5.253877   3.858344   3.386704   2.142505
    14  H    5.739712   4.521524   3.375909   3.859767   3.385585
    15  H    3.981161   2.615937   2.157678   3.404956   3.871661
    16  H    0.985219   1.978315   2.615515   2.621308   3.970180
                    6          7          8          9         10
     6  C    0.000000
     7  C    1.392270   0.000000
     8  C    2.411899   1.384041   0.000000
     9  H    5.259698   5.125401   4.062224   0.000000
    10  H    4.815713   4.046631   2.670841   2.618584   0.000000
    11  H    3.383072   3.866577   3.417167   2.652457   3.719821
    12  H    2.145837   3.387254   3.868211   4.941129   5.485049
    13  H    1.082304   2.150993   3.391310   6.284094   5.883105
    14  H    2.150689   1.082268   2.132466   6.086387   4.739500
    15  H    3.395649   2.146115   1.085647   4.438703   2.465566
    16  H    4.956859   4.945754   3.961287   1.608273   2.739609
                   11         12         13         14         15
    11  H    0.000000
    12  H    2.443562   0.000000
    13  H    4.271150   2.472632   0.000000
    14  H    4.948811   4.284283   2.481463   0.000000
    15  H    4.320375   4.953799   4.287424   2.457774   0.000000
    16  H    2.070599   4.464404   5.973107   5.955376   4.459134
                   16
    16  H    0.000000
 Stoichiometry    C6H8NO(1+)
 Framework group  C1[X(C6H8NO)]
 Deg. of freedom    42
 Full point group                 C1      NOp   1
 RotChk:  IX=0 Diff= 2.49D-02
 Largest Abelian subgroup         C1      NOp   1
 Largest concise Abelian subgroup C1      NOp   1
                         Standard orientation:                         
 ---------------------------------------------------------------------
 Center     Atomic      Atomic             Coordinates (Angstroms)
 Number     Number       Type             X           Y           Z
 ---------------------------------------------------------------------
      1          8           0       -2.710898    0.323945    0.032377
      2          7           0       -1.746845   -0.646894   -0.048200
      3          6           0       -0.398044   -0.287279   -0.028247
      4          6           0        0.002717    1.048095   -0.039171
      5          6           0        1.357172    1.358399   -0.009576
      6          6           0        2.303940    0.347366    0.030462
      7          6           0        1.895534   -0.983639    0.023721
      8          6           0        0.550365   -1.308268   -0.002847
      9          1           0       -2.866135    0.677048    0.939337
     10          1           0       -2.102734   -1.588276   -0.129544
     11          1           0       -0.718581    1.863884   -0.068114
     12          1           0        1.665972    2.395536   -0.020645
     13          1           0        3.357037    0.593892    0.070401
     14          1           0        2.629901   -1.778455    0.040342
     15          1           0        0.239684   -2.348484   -0.010467
     16          1           0       -2.560158    1.073517   -0.588972
 ---------------------------------------------------------------------
 Rotational constants (GHZ):           4.9868276           1.4989631           1.1597379
 Leave Link  202 at Mon Dec 30 16:44:01 2019, MaxMem=  2684354560 cpu:               1.6 elap:               0.1
 (Enter /apps/cent7/gaussian/g16-A.03/g16-haswell/g16/l301.exe)
 Standard basis: 6-311++G(d,p) (5D, 7F)
 Ernie: Thresh=  0.10000D-02 Tol=  0.10000D-05 Strict=F.
 There are   240 symmetry adapted cartesian basis functions of A   symmetry.
 There are   232 symmetry adapted basis functions of A   symmetry.
   232 basis functions,   360 primitive gaussians,   240 cartesian basis functions
    29 alpha electrons       29 beta electrons
       nuclear repulsion energy       358.0097275608 Hartrees.
 IExCor= 4336 DFT=T Ex+Corr=M062X ExCW=0 ScaHFX=  0.540000
 ScaDFX=  1.000000  1.000000  1.000000  1.000000 ScalE2=  1.000000  1.000000
 IRadAn=      5 IRanWt=     -1 IRanGd=            0 ICorTp=0 IEmpDi=  4
 NAtoms=   16 NActive=   16 NUniq=   16 SFac= 1.00D+00 NAtFMM=   60 NAOKFM=F Big=F
 Integral buffers will be    131072 words long.
 Raffenetti 2 integral format.
 Two-electron integral symmetry is turned on.
 Leave Link  301 at Mon Dec 30 16:44:01 2019, MaxMem=  2684354560 cpu:               1.3 elap:               0.1
 (Enter /apps/cent7/gaussian/g16-A.03/g16-haswell/g16/l302.exe)
 NPDir=0 NMtPBC=     1 NCelOv=     1 NCel=       1 NClECP=     1 NCelD=      1
         NCelK=      1 NCelE2=     1 NClLst=     1 CellRange=     0.0.
 One-electron integrals computed using PRISM.
 One-electron integral symmetry used in STVInt
 NBasis=   232 RedAO= T EigKep=  3.01D-06  NBF=   232
 NBsUse=   231 1.00D-06 EigRej=  8.76D-07 NBFU=   231
 Precomputing XC quadrature grid using
 IXCGrd= 4 IRadAn=           5 IRanWt=          -1 IRanGd=           0 AccXCQ= 0.00D+00.
 Generated NRdTot=       0 NPtTot=           0 NUsed=           0 NTot=          32
 NSgBfM=   240   240   240   240   240 MxSgAt=    16 MxSgA2=    16.
 Leave Link  302 at Mon Dec 30 16:44:01 2019, MaxMem=  2684354560 cpu:               3.7 elap:               0.2
 (Enter /apps/cent7/gaussian/g16-A.03/g16-haswell/g16/l303.exe)
 DipDrv:  MaxL=1.
 Leave Link  303 at Mon Dec 30 16:44:01 2019, MaxMem=  2684354560 cpu:               0.6 elap:               0.0
 (Enter /apps/cent7/gaussian/g16-A.03/g16-haswell/g16/l401.exe)
 Initial guess from the checkpoint file:  "10_p_b.chk"
 B after Tr=     0.000000    0.000000    0.000000
         Rot=    0.999966    0.003175    0.000103   -0.007573 Ang=   0.94 deg.
 Guess basis will be translated and rotated to current coordinates.
 JPrj=2 DoOrth=T DoCkMO=T.
 Generating alternative initial guess.
 ExpMin= 3.60D-02 ExpMax= 8.59D+03 ExpMxC= 1.30D+03 IAcc=3 IRadAn=         5 AccDes= 0.00D+00
 Harris functional with IExCor= 1009 and IRadAn=       5 diagonalized for initial guess.
 HarFok:  IExCor= 1009 AccDes= 0.00D+00 IRadAn=         5 IDoV= 1 UseB2=F ITyADJ=14
 ICtDFT=  3500011 ScaDFX=  1.000000  1.000000  1.000000  1.000000
 FoFCou: FMM=F IPFlag=           0 FMFlag=      100000 FMFlg1=           0
         NFxFlg=           0 DoJE=T BraDBF=F KetDBF=T FulRan=T
         wScrn=  0.000000 ICntrl=       500 IOpCl=  0 I1Cent=   200000004 NGrid=           0
         NMat0=    1 NMatS0=      1 NMatT0=    0 NMatD0=    1 NMtDS0=    0 NMtDT0=    0
 Petite list used in FoFCou.
 Harris En= -362.912483516892    
 Leave Link  401 at Mon Dec 30 16:44:01 2019, MaxMem=  2684354560 cpu:              10.0 elap:               0.4
 (Enter /apps/cent7/gaussian/g16-A.03/g16-haswell/g16/l502.exe)
 Integral symmetry usage will be decided dynamically.
 Closed shell SCF:
 Using DIIS extrapolation, IDIIS=  1040.
 NGot=  2684354560 LenX=  2684231204 LenY=  2684173163
 Requested convergence on RMS density matrix=1.00D-08 within 128 cycles.
 Requested convergence on MAX density matrix=1.00D-06.
 Requested convergence on             energy=1.00D-06.
 No special actions if energy rises.
 Fock matrices will be formed incrementally for  20 cycles.

 Cycle   1  Pass 1  IDiag  1:
 FoFJK:  IHMeth= 1 ICntrl=       0 DoSepK=F KAlg= 0 I1Cent=           0 FoldK=F
 IRaf= 960000000 NMat=       1 IRICut=       1 DoRegI=T DoRafI=F ISym2E= 0 IDoP0=0 IntGTp=1.
 FoFCou: FMM=F IPFlag=           0 FMFlag=      100000 FMFlg1=           0
         NFxFlg=           0 DoJE=F BraDBF=F KetDBF=F FulRan=T
         wScrn=  0.000000 ICntrl=         0 IOpCl=  0 I1Cent=           0 NGrid=           0
         NMat0=    1 NMatS0=      1 NMatT0=    0 NMatD0=    1 NMtDS0=    0 NMtDT0=    0
 Symmetry not used in FoFCou.
 E= -362.974849272781    
 DIIS: error= 3.79D-03 at cycle   1 NSaved=   1.
 NSaved= 1 IEnMin= 1 EnMin= -362.974849272781     IErMin= 1 ErrMin= 3.79D-03
 ErrMax= 3.79D-03  0.00D+00 EMaxC= 1.00D-01 BMatC= 9.30D-03 BMatP= 9.30D-03
 IDIUse=3 WtCom= 9.62D-01 WtEn= 3.79D-02
 Coeff-Com:  0.100D+01
 Coeff-En:   0.100D+01
 Coeff:      0.100D+01
 Gap=     0.416 Goal=   None    Shift=    0.000
 GapD=    0.416 DampG=2.000 DampE=1.000 DampFc=2.0000 IDamp=-1.
 RMSDP=4.78D-03 MaxDP=1.29D-01              OVMax= 2.60D-02

 Cycle   2  Pass 1  IDiag  1:
 RMSU=  4.76D-03    CP:  1.01D+00
 E= -362.985554977193     Delta-E=       -0.010705704412 Rises=F Damp=F
 DIIS: error= 2.04D-03 at cycle   2 NSaved=   2.
 NSaved= 2 IEnMin= 2 EnMin= -362.985554977193     IErMin= 2 ErrMin= 2.04D-03
 ErrMax= 2.04D-03  0.00D+00 EMaxC= 1.00D-01 BMatC= 5.59D-04 BMatP= 9.30D-03
 IDIUse=3 WtCom= 9.80D-01 WtEn= 2.04D-02
 Coeff-Com:  0.171D-01 0.983D+00
 Coeff-En:   0.000D+00 0.100D+01
 Coeff:      0.168D-01 0.983D+00
 Gap=     0.227 Goal=   None    Shift=    0.000
 RMSDP=1.61D-03 MaxDP=1.23D-01 DE=-1.07D-02 OVMax= 1.31D-02

 Cycle   3  Pass 1  IDiag  1:
 RMSU=  8.91D-04    CP:  1.05D+00  1.06D+00
 E= -362.985745228090     Delta-E=       -0.000190250897 Rises=F Damp=F
 DIIS: error= 1.62D-03 at cycle   3 NSaved=   3.
 NSaved= 3 IEnMin= 3 EnMin= -362.985745228090     IErMin= 3 ErrMin= 1.62D-03
 ErrMax= 1.62D-03  0.00D+00 EMaxC= 1.00D-01 BMatC= 5.35D-04 BMatP= 5.59D-04
 IDIUse=3 WtCom= 9.84D-01 WtEn= 1.62D-02
 Coeff-Com: -0.550D-01 0.515D+00 0.540D+00
 Coeff-En:   0.000D+00 0.385D+00 0.615D+00
 Coeff:     -0.541D-01 0.512D+00 0.542D+00
 Gap=     0.229 Goal=   None    Shift=    0.000
 RMSDP=5.36D-04 MaxDP=3.09D-02 DE=-1.90D-04 OVMax= 7.49D-03

 Cycle   4  Pass 1  IDiag  1:
 RMSU=  2.56D-04    CP:  1.04D+00  1.05D+00  6.95D-01
 E= -362.986219146988     Delta-E=       -0.000473918899 Rises=F Damp=F
 DIIS: error= 3.00D-04 at cycle   4 NSaved=   4.
 NSaved= 4 IEnMin= 4 EnMin= -362.986219146988     IErMin= 4 ErrMin= 3.00D-04
 ErrMax= 3.00D-04  0.00D+00 EMaxC= 1.00D-01 BMatC= 1.08D-05 BMatP= 5.35D-04
 IDIUse=3 WtCom= 9.97D-01 WtEn= 3.00D-03
 Coeff-Com: -0.159D-01 0.770D-01 0.153D+00 0.786D+00
 Coeff-En:   0.000D+00 0.000D+00 0.000D+00 0.100D+01
 Coeff:     -0.159D-01 0.768D-01 0.152D+00 0.787D+00
 Gap=     0.229 Goal=   None    Shift=    0.000
 RMSDP=4.90D-05 MaxDP=2.59D-03 DE=-4.74D-04 OVMax= 1.99D-03

 Cycle   5  Pass 1  IDiag  1:
 RMSU=  4.24D-05    CP:  1.04D+00  1.05D+00  7.14D-01  1.02D+00
 E= -362.986228447031     Delta-E=       -0.000009300043 Rises=F Damp=F
 DIIS: error= 1.98D-04 at cycle   5 NSaved=   5.
 NSaved= 5 IEnMin= 5 EnMin= -362.986228447031     IErMin= 5 ErrMin= 1.98D-04
 ErrMax= 1.98D-04  0.00D+00 EMaxC= 1.00D-01 BMatC= 3.16D-06 BMatP= 1.08D-05
 IDIUse=3 WtCom= 9.98D-01 WtEn= 1.98D-03
 Coeff-Com: -0.105D-02-0.252D-01 0.836D-02 0.390D+00 0.627D+00
 Coeff-En:   0.000D+00 0.000D+00 0.000D+00 0.825D-01 0.917D+00
 Coeff:     -0.105D-02-0.251D-01 0.835D-02 0.390D+00 0.628D+00
 Gap=     0.229 Goal=   None    Shift=    0.000
 RMSDP=2.16D-05 MaxDP=1.08D-03 DE=-9.30D-06 OVMax= 6.69D-04

 Cycle   6  Pass 1  IDiag  1:
 RMSU=  1.44D-05    CP:  1.04D+00  1.05D+00  7.23D-01  1.05D+00  8.22D-01
 E= -362.986231744349     Delta-E=       -0.000003297318 Rises=F Damp=F
 DIIS: error= 4.29D-05 at cycle   6 NSaved=   6.
 NSaved= 6 IEnMin= 6 EnMin= -362.986231744349     IErMin= 6 ErrMin= 4.29D-05
 ErrMax= 4.29D-05  0.00D+00 EMaxC= 1.00D-01 BMatC= 1.66D-07 BMatP= 3.16D-06
 IDIUse=1 WtCom= 1.00D+00 WtEn= 0.00D+00
 Coeff-Com:  0.111D-02-0.149D-01-0.141D-01 0.360D-01 0.212D+00 0.780D+00
 Coeff:      0.111D-02-0.149D-01-0.141D-01 0.360D-01 0.212D+00 0.780D+00
 Gap=     0.229 Goal=   None    Shift=    0.000
 RMSDP=9.98D-06 MaxDP=4.31D-04 DE=-3.30D-06 OVMax= 1.91D-04

 Cycle   7  Pass 1  IDiag  1:
 RMSU=  7.52D-06    CP:  1.04D+00  1.05D+00  7.23D-01  1.05D+00  8.60D-01
                    CP:  1.00D+00
 E= -362.986231932058     Delta-E=       -0.000000187709 Rises=F Damp=F
 DIIS: error= 1.01D-05 at cycle   7 NSaved=   7.
 NSaved= 7 IEnMin= 7 EnMin= -362.986231932058     IErMin= 7 ErrMin= 1.01D-05
 ErrMax= 1.01D-05  0.00D+00 EMaxC= 1.00D-01 BMatC= 1.34D-08 BMatP= 1.66D-07
 IDIUse=1 WtCom= 1.00D+00 WtEn= 0.00D+00
 Coeff-Com:  0.431D-03-0.348D-02-0.579D-02-0.110D-01 0.392D-01 0.280D+00
 Coeff-Com:  0.701D+00
 Coeff:      0.431D-03-0.348D-02-0.579D-02-0.110D-01 0.392D-01 0.280D+00
 Coeff:      0.701D+00
 Gap=     0.229 Goal=   None    Shift=    0.000
 RMSDP=2.25D-06 MaxDP=7.65D-05 DE=-1.88D-07 OVMax= 6.01D-05

 Cycle   8  Pass 1  IDiag  1:
 RMSU=  1.60D-06    CP:  1.04D+00  1.05D+00  7.22D-01  1.06D+00  8.84D-01
                    CP:  1.04D+00  1.06D+00
 E= -362.986231949086     Delta-E=       -0.000000017028 Rises=F Damp=F
 DIIS: error= 1.90D-06 at cycle   8 NSaved=   8.
 NSaved= 8 IEnMin= 8 EnMin= -362.986231949086     IErMin= 8 ErrMin= 1.90D-06
 ErrMax= 1.90D-06  0.00D+00 EMaxC= 1.00D-01 BMatC= 1.39D-09 BMatP= 1.34D-08
 IDIUse=1 WtCom= 1.00D+00 WtEn= 0.00D+00
 Coeff-Com: -0.466D-06 0.907D-03-0.167D-03-0.954D-02-0.169D-01-0.160D-01
 Coeff-Com:  0.213D+00 0.829D+00
 Coeff:     -0.466D-06 0.907D-03-0.167D-03-0.954D-02-0.169D-01-0.160D-01
 Coeff:      0.213D+00 0.829D+00
 Gap=     0.229 Goal=   None    Shift=    0.000
 RMSDP=8.01D-07 MaxDP=3.05D-05 DE=-1.70D-08 OVMax= 3.29D-05

 Cycle   9  Pass 1  IDiag  1:
 RMSU=  5.79D-07    CP:  1.04D+00  1.05D+00  7.22D-01  1.06D+00  8.88D-01
                    CP:  1.06D+00  1.10D+00  1.06D+00
 E= -362.986231951467     Delta-E=       -0.000000002382 Rises=F Damp=F
 DIIS: error= 7.42D-07 at cycle   9 NSaved=   9.
 NSaved= 9 IEnMin= 9 EnMin= -362.986231951467     IErMin= 9 ErrMin= 7.42D-07
 ErrMax= 7.42D-07  0.00D+00 EMaxC= 1.00D-01 BMatC= 1.44D-10 BMatP= 1.39D-09
 IDIUse=1 WtCom= 1.00D+00 WtEn= 0.00D+00
 Coeff-Com: -0.482D-04 0.684D-03 0.522D-03-0.251D-02-0.994D-02-0.305D-01
 Coeff-Com:  0.416D-02 0.244D+00 0.793D+00
 Coeff:     -0.482D-04 0.684D-03 0.522D-03-0.251D-02-0.994D-02-0.305D-01
 Coeff:      0.416D-02 0.244D+00 0.793D+00
 Gap=     0.229 Goal=   None    Shift=    0.000
 RMSDP=3.71D-07 MaxDP=1.13D-05 DE=-2.38D-09 OVMax= 1.25D-05

 Cycle  10  Pass 1  IDiag  1:
 RMSU=  2.14D-07    CP:  1.04D+00  1.05D+00  7.22D-01  1.06D+00  8.86D-01
                    CP:  1.06D+00  1.13D+00  1.09D+00  1.25D+00
 E= -362.986231951744     Delta-E=       -0.000000000277 Rises=F Damp=F
 DIIS: error= 3.72D-07 at cycle  10 NSaved=  10.
 NSaved=10 IEnMin=10 EnMin= -362.986231951744     IErMin=10 ErrMin= 3.72D-07
 ErrMax= 3.72D-07  0.00D+00 EMaxC= 1.00D-01 BMatC= 2.57D-11 BMatP= 1.44D-10
 IDIUse=1 WtCom= 1.00D+00 WtEn= 0.00D+00
 Coeff-Com: -0.393D-05-0.450D-04 0.105D-03 0.106D-02 0.119D-02-0.159D-02
 Coeff-Com: -0.348D-01-0.926D-01 0.241D+00 0.886D+00
 Coeff:     -0.393D-05-0.450D-04 0.105D-03 0.106D-02 0.119D-02-0.159D-02
 Coeff:     -0.348D-01-0.926D-01 0.241D+00 0.886D+00
 Gap=     0.229 Goal=   None    Shift=    0.000
 RMSDP=1.34D-07 MaxDP=4.29D-06 DE=-2.77D-10 OVMax= 6.07D-06

 Cycle  11  Pass 1  IDiag  1:
 RMSU=  6.73D-08    CP:  1.04D+00  1.05D+00  7.22D-01  1.06D+00  8.86D-01
                    CP:  1.06D+00  1.13D+00  1.11D+00  1.40D+00  1.15D+00
 E= -362.986231951790     Delta-E=       -0.000000000046 Rises=F Damp=F
 DIIS: error= 8.93D-08 at cycle  11 NSaved=  11.
 NSaved=11 IEnMin=11 EnMin= -362.986231951790     IErMin=11 ErrMin= 8.93D-08
 ErrMax= 8.93D-08  0.00D+00 EMaxC= 1.00D-01 BMatC= 2.20D-12 BMatP= 2.57D-11
 IDIUse=1 WtCom= 1.00D+00 WtEn= 0.00D+00
 Coeff-Com:  0.121D-05-0.581D-04-0.126D-05 0.505D-03 0.112D-02 0.177D-02
 Coeff-Com: -0.125D-01-0.520D-01 0.778D-02 0.288D+00 0.766D+00
 Coeff:      0.121D-05-0.581D-04-0.126D-05 0.505D-03 0.112D-02 0.177D-02
 Coeff:     -0.125D-01-0.520D-01 0.778D-02 0.288D+00 0.766D+00
 Gap=     0.229 Goal=   None    Shift=    0.000
 RMSDP=5.31D-08 MaxDP=3.13D-06 DE=-4.63D-11 OVMax= 1.54D-06

 Cycle  12  Pass 1  IDiag  1:
 RMSU=  2.28D-08    CP:  1.04D+00  1.05D+00  7.22D-01  1.06D+00  8.86D-01
                    CP:  1.06D+00  1.13D+00  1.11D+00  1.45D+00  1.24D+00
                    CP:  1.03D+00
 E= -362.986231951791     Delta-E=       -0.000000000001 Rises=F Damp=F
 DIIS: error= 4.81D-08 at cycle  12 NSaved=  12.
 NSaved=12 IEnMin=12 EnMin= -362.986231951791     IErMin=12 ErrMin= 4.81D-08
 ErrMax= 4.81D-08  0.00D+00 EMaxC= 1.00D-01 BMatC= 3.20D-13 BMatP= 2.20D-12
 IDIUse=1 WtCom= 1.00D+00 WtEn= 0.00D+00
 Coeff-Com:  0.147D-05-0.236D-04-0.185D-04 0.862D-04 0.396D-03 0.112D-02
 Coeff-Com: -0.735D-03-0.902D-02-0.280D-01 0.337D-02 0.283D+00 0.749D+00
 Coeff:      0.147D-05-0.236D-04-0.185D-04 0.862D-04 0.396D-03 0.112D-02
 Coeff:     -0.735D-03-0.902D-02-0.280D-01 0.337D-02 0.283D+00 0.749D+00
 Gap=     0.229 Goal=   None    Shift=    0.000
 RMSDP=1.07D-08 MaxDP=2.29D-07 DE=-9.09D-13 OVMax= 4.93D-07

 Cycle  13  Pass 1  IDiag  1:
 RMSU=  5.91D-09    CP:  1.04D+00  1.05D+00  7.22D-01  1.06D+00  8.86D-01
                    CP:  1.06D+00  1.13D+00  1.11D+00  1.46D+00  1.25D+00
                    CP:  1.12D+00  1.07D+00
 E= -362.986231951797     Delta-E=       -0.000000000006 Rises=F Damp=F
 DIIS: error= 2.53D-08 at cycle  13 NSaved=  13.
 NSaved=13 IEnMin=13 EnMin= -362.986231951797     IErMin=13 ErrMin= 2.53D-08
 ErrMax= 2.53D-08  0.00D+00 EMaxC= 1.00D-01 BMatC= 5.06D-14 BMatP= 3.20D-13
 IDIUse=1 WtCom= 1.00D+00 WtEn= 0.00D+00
 Coeff-Com:  0.408D-06-0.190D-05-0.674D-05-0.324D-04 0.260D-04 0.233D-03
 Coeff-Com:  0.121D-02 0.306D-02-0.120D-01-0.346D-01 0.226D-01 0.311D+00
 Coeff-Com:  0.709D+00
 Coeff:      0.408D-06-0.190D-05-0.674D-05-0.324D-04 0.260D-04 0.233D-03
 Coeff:      0.121D-02 0.306D-02-0.120D-01-0.346D-01 0.226D-01 0.311D+00
 Coeff:      0.709D+00
 Gap=     0.229 Goal=   None    Shift=    0.000
 RMSDP=3.96D-09 MaxDP=9.82D-08 DE=-6.03D-12 OVMax= 1.30D-07

 SCF Done:  E(RM062X) =  -362.986231952     A.U. after   13 cycles
            NFock= 13  Conv=0.40D-08     -V/T= 2.0036
 KE= 3.617009211598D+02 PE=-1.550813163652D+03 EE= 4.681162829794D+02
 Leave Link  502 at Mon Dec 30 16:44:10 2019, MaxMem=  2684354560 cpu:             213.8 elap:               9.0
 (Enter /apps/cent7/gaussian/g16-A.03/g16-haswell/g16/l701.exe)
 ... and contract with generalized density number  0.
 Compute integral first derivatives.
 Leave Link  701 at Mon Dec 30 16:44:10 2019, MaxMem=  2684354560 cpu:               2.9 elap:               0.1
 (Enter /apps/cent7/gaussian/g16-A.03/g16-haswell/g16/l702.exe)
 L702 exits ... SP integral derivatives will be done elsewhere.
 Leave Link  702 at Mon Dec 30 16:44:10 2019, MaxMem=  2684354560 cpu:               0.4 elap:               0.0
 (Enter /apps/cent7/gaussian/g16-A.03/g16-haswell/g16/l703.exe)
 Integral derivatives from FoFJK, PRISM(SPDF).
 Compute integral first derivatives, UseDBF=F ICtDFT=           0.
 Calling FoFJK, ICntrl=      2127 FMM=F ISym2X=0 I1Cent= 0 IOpClX= 0 NMat=1 NMatS=1 NMatT=0.
 FoFJK:  IHMeth= 1 ICntrl=    2127 DoSepK=F KAlg= 0 I1Cent=           0 FoldK=F
 IRaf=         0 NMat=       1 IRICut=       1 DoRegI=T DoRafI=F ISym2E= 0 IDoP0=0 IntGTp=1.
 FoFCou: FMM=F IPFlag=           0 FMFlag=      100000 FMFlg1=         800
         NFxFlg=           0 DoJE=F BraDBF=F KetDBF=F FulRan=T
         wScrn=  0.000000 ICntrl=      2127 IOpCl=  0 I1Cent=           0 NGrid=           0
         NMat0=    1 NMatS0=      1 NMatT0=    0 NMatD0=    1 NMtDS0=    0 NMtDT0=    0
 Symmetry not used in FoFCou.
 Leave Link  703 at Mon Dec 30 16:44:12 2019, MaxMem=  2684354560 cpu:              37.1 elap:               1.6
 (Enter /apps/cent7/gaussian/g16-A.03/g16-haswell/g16/l716.exe)
 Dipole        =-3.15710363D+00 5.02849292D-01 2.28829732D-01
 ***** Axes restored to original set *****
 -------------------------------------------------------------------
 Center     Atomic                   Forces (Hartrees/Bohr)
 Number     Number              X              Y              Z
 -------------------------------------------------------------------
      1        8           0.018810749    0.001294217   -0.005279624
      2        7          -0.019675392    0.003969250    0.010289278
      3        6          -0.000574708   -0.019899283   -0.002438145
      4        6           0.004287978    0.007146064   -0.000474643
[...]
     6         -0.04421465         -6.28520642         -1.77220855
     6          0.00008804         -8.10887769          0.05086615
     6         -0.01304559         -7.35804312          2.60681969
     6         -0.06969495         -4.80551453          3.39921804
     6         -0.11509597         -2.94145438          1.62330102
     1          1.16138852          4.00474559         -0.09817966
     1         -0.18398949         -0.16666886         -2.17335077
     1         -0.03808922         -6.70457417         -3.77854766
     1          0.04459041        -10.09700384         -0.42611749
     1          0.02224414         -8.81818488          4.04938002
     1         -0.07621748         -4.37134621          5.39799800
     1         -0.15952597         -0.94515709          2.10130332
     1         -1.72919467          3.93170249         -0.09080707

 Electric dipole moment (dipole orientation):
 (Debye = 10**-18 statcoulomb cm , SI units = C m)
                  (au)            (Debye)         (10**-30 SI)
   Tot        0.868910D+00      0.220855D+01      0.736692D+01
   x          0.000000D+00      0.000000D+00      0.000000D+00
   y          0.000000D+00      0.000000D+00      0.000000D+00
   z          0.868910D+00      0.220855D+01      0.736692D+01

 Dipole polarizability, Alpha (dipole orientation).
 (esu units = cm**3 , SI units = C**2 m**2 J**-1)
 Alpha(0;0):
               (au)            (10**-24 esu)      (10**-40 SI)
   iso        0.795765D+02      0.117920D+02      0.131204D+02
   aniso      0.611147D+02      0.905627D+01      0.100765D+02
   xx         0.428112D+02      0.634396D+01      0.705861D+01
   yx        -0.141820D+01     -0.210156D+00     -0.233830D+00
   yy         0.103850D+03      0.153889D+02      0.171225D+02
   zx         0.392757D+00      0.582006D-01      0.647569D-01
   zy        -0.139417D+02     -0.206595D+01     -0.229868D+01
   zz         0.920687D+02      0.136432D+02      0.151801D+02

 ----------------------------------------------------------------------
 1\1\GINC-BROWN-A062\Freq\RM062X\6-311++G(d,p)\C6H8N1O1(1+)\FINEJ\30-De
 c-2019\0\\#P Geom=AllCheck Guess=TCheck SCRF=Check GenChk RM062X/6-311
 ++G(d,p) Freq\\Title Card Required\\1,1\O,0.2491849914,1.468516978,-0.
 3141754152\N,1.3701211363,-1.2326505483,0.1366674188\C,0.3134731315,-1
 .9611051215,0.2079250875\C,0.5093610816,-3.3908236203,0.4302350076\C,-
 0.5699380105,-4.2216673186,0.5161267827\C,-1.8599164718,-3.6682008393,
 0.3859598745\C,-2.1033021271,-2.2914895477,0.1699619927\C,-1.046007271
 6,-1.4366658326,0.0795258999\H,0.2950228307,2.1581095975,0.3564078992\
 H,1.1326495238,-0.2378873787,-0.021787708\H,1.5334308664,-3.7369762007
 ,0.5193655606\H,-0.4539114044,-5.2849926284,0.6804296594\H,-2.71509418
 08,-4.3345285508,0.4551389917\H,-3.1224072085,-1.9381346121,0.07990132
 3\H,-1.1620222635,-0.3690132997,-0.085290606\H,0.3479139765,1.92686717
 31,-1.1552167086\\Version=ES64L-G16RevA.03\State=1-A\HF=-363.0456538\R
 MSD=3.181e-09\RMSF=2.336e-05\ZeroPoint=0.130433\Thermal=0.130433\Dipol
 e=-0.8612062,0.104807,-0.0484088\DipoleDeriv=-0.5997822,0.0719393,-0.0
 120837,-0.0465983,-0.802219,0.0338784,0.0059245,0.0384254,-0.5714443,0
 .171509,0.1991114,-0.013302,0.0765427,-0.2005524,-0.0103014,0.0051613,
 -0.005944,-0.2876264,-0.4812005,-0.4254122,0.0411078,-0.3795144,-0.263
 5266,0.0484792,0.0341717,0.0466802,0.144132,0.5610402,-0.0218356,0.021
 5736,0.6805257,0.1804911,0.0063526,-0.084197,-0.01915,0.0581938,-1.175
 9677,0.1681268,-0.0640247,-0.1711241,0.1449761,-0.0447401,-0.0129584,-
 0.0325503,-0.1065353,0.7025182,-0.2372515,0.0562495,-0.2034886,0.83973
 59,-0.1129758,0.0511811,-0.1140729,0.1578361,0.083557,-0.4661667,0.077
 9032,-0.1629207,-1.1095773,0.1417173,0.0320809,0.1305475,-0.1482141,0.
 2911326,0.6934785,-0.0984221,0.0398686,0.2981702,-0.0244238,0.0001233,
 -0.0005128,0.1265041,0.3488109,-0.010589,-0.0004117,0.0002166,0.281838
 3,0.0003978,0.0109559,0.0492498,0.3242464,0.2186068,0.0137217,-0.00348
 05,0.1719034,0.7160709,-0.0625675,-0.0274641,-0.0684409,0.2713592,0.13
 55372,-0.0179348,0.0026213,-0.0262626,0.1042719,0.0040444,0.0038945,0.
 0043708,0.136935,0.0935267,0.0054391,-0.0032601,0.003724,0.0982372,0.0
 095539,-0.0030045,0.0096313,0.1592891,0.1165793,0.0021559,-0.0004098,-
 0.0004046,0.1145336,0.0006479,0.0000124,0.0008079,0.1188245,0.0877205,
 0.0051187,-0.003136,0.0093072,0.0849652,0.0105476,-0.0037489,0.0103585
 ,0.1510656,0.0971717,0.0269067,-0.0052801,0.0115829,0.2411228,-0.01653
 06,-0.0029514,-0.0160449,0.1315623,0.3492405,-0.0068085,0.0043553,-0.0
 033578,0.2714622,0.0159202,-0.0091814,-0.0333554,0.3338719\Polar=95.72
 21652,15.0945523,99.0469804,-0.3503775,-7.9305216,43.9604689\Quadrupol
 e=-5.3414397,16.6592386,-11.3177989,5.1251468,-0.5349206,-4.135731\PG=
 C01 [X(C6H8N1O1)]\NImag=0\\0.02316025,0.04680426,0.47999596,-0.0309442
 2,0.03567659,0.69666135,0.00016922,0.00358523,-0.00065724,0.52209866,0
 .00221929,-0.00655186,0.00157906,0.16650103,0.65988938,-0.00045310,0.0
 0162980,0.00300876,-0.00829856,-0.08409303,0.07364104,0.00023959,0.000
 40382,-0.00004080,-0.39868416,-0.23545702,0.02232624,0.73795129,0.0016
 8272,-0.00135167,0.00021243,-0.17739278,-0.25832093,0.02671749,0.10850
 310,0.67107033,-0.00023116,0.00015915,-0.00041816,0.01358792,0.0246093
 7,-0.04120772,0.00537203,-0.07589367,0.15232451,0.00013708,-0.00068347
 ,0.00014216,-0.00562699,-0.04429085,0.00695724,-0.10179623,0.05249985,
 -0.00919569,0.79753408,-0.00194567,0.00071976,-0.00031523,-0.03311984,
 -0.04106330,0.00294324,0.06245770,-0.23562651,0.02777405,0.04007984,0.
 62872246,0.00033115,-0.00027295,-0.00084408,0.00527428,0.00253196,-0.0
 1373191,-0.01069454,0.02740957,-0.07069722,0.01759068,-0.07128126,0.15
 680712,0.00237528,-0.00043795,0.00014655,0.01612093,-0.00714988,0.0014
 2975,-0.00937562,-0.01263096,0.00130896,-0.29852303,-0.12892416,0.0106
 6161,0.66409581,0.00045430,-0.00027398,0.00009110,0.00033795,-0.012652
 62,0.00287195,-0.02695141,-0.01324170,0.00206474,-0.16718682,-0.253381
 27,0.02344426,0.03697495,0.77467913,0.00001015,0.00005857,0.00020624,0
 .00030378,0.00260090,0.00596614,0.00346272,0.00258187,0.00670885,0.016
 41671,0.02483148,-0.06046614,0.01428814,-0.09761946,0.13250188,-0.0014
 6602,-0.00040479,0.00001794,-0.00418682,0.01161730,-0.00192272,0.00093
 435,-0.00774720,0.00154001,-0.06021193,-0.01904572,0.00079496,-0.27888
 332,0.10570927,-0.02390521,0.69417762,0.00125146,0.00076708,-0.0001146
 5,0.00936469,-0.01095013,0.00208595,-0.00650146,0.00495283,-0.00240238
 ,0.00619746,0.04776728,-0.00743330,0.03347636,-0.16929389,0.01782752,0
 .03924886,0.65677429,-0.00023117,-0.00017610,-0.00028132,-0.00158597,0
 .00216859,0.00027763,0.00135631,-0.00245020,-0.00904136,-0.00300536,-0
 .00834918,-0.00197450,-0.01303154,0.02044722,-0.06251388,0.01343208,-0
 .07302593,0.17348043,0.00018757,-0.00007350,0.00001357,-0.01058931,0.0
 0742461,-0.00140812,-0.02633607,-0.02461953,0.00242504,-0.00867798,-0.
 01625077,0.00207897,0.02548356,0.03935999,-0.00501195,-0.14408653,0.07
 180198,-0.01387137,0.79753096,-0.00147161,-0.00256570,0.00035388,0.006
 64103,0.01429181,-0.00230432,-0.01187258,0.00054706,0.00085116,-0.0155
 4583,-0.03119810,0.00435338,0.06419929,0.00015459,0.00233774,0.0004537
 8,-0.29121672,0.03485779,0.01341074,0.64120133,0.00022362,0.00040247,0
 .00007632,-0.00128725,-0.00228030,-0.00234584,0.00049950,0.00039583,0.
 00906368,0.00197312,0.00432662,0.00088120,-0.00875046,0.00143998,-0.00
 029470,-0.00313060,0.03744628,-0.06538891,0.02256251,-0.07819675,0.131
 02704,-0.00168853,-0.00052538,-0.00002847,-0.05609789,-0.01501409,-0.0
 0088166,-0.19776325,0.08104699,-0.01666407,0.00416478,0.03146522,-0.00
 475420,-0.03638746,-0.00891096,-0.00004484,0.03811550,-0.04078215,0.00
 762188,-0.32716230,-0.12862707,0.00958312,0.65378560,0.00111703,0.0003
 2704,0.00018251,-0.02944148,0.00779364,0.00232083,0.07153144,-0.138547
 00,0.01216378,0.03570648,-0.01176804,0.00375958,-0.00870520,-0.0020985
 7,0.00028613,-0.01735654,-0.04950474,0.00640881,-0.16590654,-0.2318910
 8,0.02036727,0.07557789,0.75953642,-0.00027117,0.00012987,0.00123468,0
 .00129195,0.00284851,0.02996169,-0.01522834,0.01250657,-0.07747835,-0.
 00538905,0.00360785,0.00385206,-0.00008226,0.00027704,0.00184395,0.004
 09755,0.00554753,-0.00345529,0.01519200,0.02172223,-0.05946383,0.00714
 034,-0.09008129,0.15665586,-0.00715517,-0.02288169,-0.01799944,-0.0001
 5952,0.00071988,-0.00060804,-0.00033715,-0.00014994,0.00002426,0.00010
 578,0.00037509,0.00001760,-0.00040877,-0.00004272,-0.00002909,0.000178
 19,-0.00024725,0.00001224,0.00008535,0.00006267,0.00000247,-0.00008682
 ,-0.00043639,0.00032273,0.00479045,-0.01929969,-0.30261515,-0.26781973
 ,0.00049937,-0.00046841,0.00059842,0.00021271,0.00020378,-0.00007370,-
 0.00002295,-0.00017748,-0.00012055,0.00000548,-0.00000880,0.00002579,0
 .00003404,-0.00021557,-0.00001953,0.00008991,0.00027840,-0.00001424,-0
 .00047451,-0.00004758,0.00016003,0.01961646,0.29129783,-0.01147043,-0.
 21337396,-0.27809302,-0.00056609,0.00126535,-0.00069792,-0.00000122,0.
 00007475,0.00010298,0.00007294,-0.00002769,0.00012893,-0.00001660,0.00
 002694,-0.00004651,0.00012120,-0.00014431,0.00009361,0.00004784,0.0004
 6838,-0.00012485,0.00005723,0.00001132,-0.00010140,0.01347384,0.248459
 65,0.30435376,-0.00434062,0.00173061,-0.00019386,-0.06391196,0.1155929
 0,-0.01825867,-0.00258662,-0.04605178,0.00667210,-0.00315510,0.0005439
 9,-0.00091153,-0.00158738,-0.00149296,0.00031968,0.00148959,-0.0011697
 9,0.00021968,0.00036686,0.00099051,-0.00021799,0.00223416,-0.00362605,
 0.00115347,0.00095918,-0.00078937,0.00119315,0.07138353,-0.00239967,-0
 .00234435,-0.00069438,0.05454434,-0.35374312,0.04917255,0.01283994,-0.
 01800387,0.00386991,-0.00356225,-0.00439725,0.00349181,0.00398043,-0.0
 0040131,-0.00042552,-0.00082968,-0.00029808,0.00005706,0.00170308,0.00
 208856,0.00008925,-0.00256098,0.00358363,-0.00281560,0.00043550,-0.001
 05894,-0.00235682,-0.06427204,0.37231827,0.00043431,-0.00053582,-0.006
 12241,-0.00907240,0.05139144,-0.04840702,-0.00218493,0.00172798,0.0042
 6096,-0.00029522,0.00363308,0.01906329,-0.00050555,-0.00062467,-0.0041
 0991,0.00016833,0.00004618,0.00028208,-0.00032541,0.00006010,0.0022415
 1,0.00099342,-0.00284872,-0.01400839,0.00135191,-0.00171319,0.00159390
 ,0.01097341,-0.05301601,0.04400807,-0.00006366,-0.00007877,0.00001161,
 0.00088970,-0.00022000,0.00010883,0.00013453,-0.00201329,0.00019367,-0
 .32032267,0.09057324,-0.02364569,-0.00967508,0.00943899,-0.00217682,-0
 .00330276,-0.00163043,-0.00024605,-0.00049198,-0.00159445,0.00028231,0
 .00179459,-0.00050078,0.00004478,0.00002637,0.00001628,0.00001157,0.00
 012473,0.00005600,0.00001163,0.33069315,-0.00017678,0.00013025,-0.0000
 3478,0.00048143,0.00291947,-0.00060030,0.02880473,-0.00639755,0.002480
 66,0.08993370,-0.08847171,0.01002673,-0.02047752,0.01248629,-0.0009306
 2,-0.00307824,-0.00383314,0.00201162,0.00021310,0.00103062,-0.00039672
 ,-0.00154042,-0.00604653,0.00125192,0.00001855,-0.00000068,-0.00000198
 ,-0.00045845,0.00001082,-0.00008351,-0.09475683,0.08704777,0.00002616,
 -0.00003089,-0.00005002,0.00000206,-0.00062600,-0.00109388,-0.00444275
 ,0.00136621,0.00277997,-0.02354415,0.01004939,-0.04583001,0.00231938,0
 .00015179,0.01129474,-0.00002864,0.00206395,0.00996636,0.00001087,-0.0
 0046220,-0.00158798,0.00020012,0.00129136,0.00246000,-0.00000512,-0.00
 000659,0.00002300,0.00008940,-0.00006588,-0.00042394,0.02529498,-0.012
 66838,0.02847332,0.00010706,-0.00009262,0.00001608,-0.00026359,-0.0023
 6531,0.00033257,-0.00374130,-0.00005695,-0.00051894,0.00778683,-0.0282
 5584,0.00437474,-0.06139875,0.03057611,-0.00533423,-0.00068282,0.03076
 909,-0.00473946,-0.00505429,0.00079917,-0.00054802,-0.00085867,-0.0005
 9032,0.00010686,-0.00000779,-0.00000024,0.00001003,-0.00031398,-0.0000
 6522,0.00004493,0.00060975,0.00040886,0.00014412,0.06282017,0.00003298
 ,-0.00000759,0.00001074,-0.00028960,-0.00103789,0.00020286,-0.00190170
 ,0.00181326,0.00128285,0.00312975,-0.01209176,0.00260017,0.03113048,-0
 .34329604,0.04659497,-0.00061838,-0.00487563,0.00105731,0.00122030,0.0
 0166736,0.00080612,-0.00036347,0.00040600,-0.00027873,-0.00000244,-0.0
 0000849,0.00000343,-0.00014267,-0.00005554,-0.00019065,0.00008797,0.00
 053555,-0.00083801,-0.03219110,0.35674975,-0.00000311,0.00000641,0.000
 05384,0.00002026,0.00012805,0.00036132,-0.00024074,0.00134887,0.010577
 04,-0.00035040,0.00145924,0.00419281,-0.00541731,0.04657735,-0.0485007
 7,-0.00001403,0.00219585,0.00196650,-0.00061126,0.00079052,0.00658446,
 0.00007248,-0.00028763,-0.00131063,-0.00000375,0.00001369,0.00000227,0
 .00005702,-0.00018814,-0.00125609,0.00019130,-0.00082567,-0.00491912,0
 .00610522,-0.05063336,0.03602172,-0.00000748,0.00008788,-0.00001267,-0
 .00044129,-0.00022100,0.00002819,0.00090121,0.00095975,-0.00006088,-0.
 00532580,0.00208249,-0.00077878,-0.01394054,-0.01792550,0.00172104,-0.
 23902575,-0.13762036,0.01399513,0.00978049,0.00622503,-0.00103744,0.00
 005428,0.00227436,-0.00059314,0.00000914,-0.00000984,-0.00001128,0.000
 00734,-0.00014651,0.00001279,-0.00057724,-0.00091505,0.00020895,0.0007
 8443,0.00001395,0.00013672,0.24687215,-0.00008780,-0.00004124,-0.00000
 077,-0.00032349,-0.00016867,-0.00003164,0.00102674,0.00037860,-0.00023
 013,0.00349387,-0.00081837,0.00137607,0.01181881,0.01262955,0.00047498
 ,-0.13768347,-0.16984549,0.01237443,-0.02360393,-0.01076186,0.00265115
 ,0.00090582,-0.00602400,0.00198472,-0.00000586,-0.00001019,0.00001392,
 0.00008269,-0.00010065,0.00005791,0.00059366,0.00048094,-0.00043217,-0
 .00019055,0.00048538,-0.00053685,0.14501789,0.17348651,0.00001383,0.00
 000569,-0.00002560,0.00004322,-0.00002798,-0.00029439,-0.00006980,-0.0
 0023181,-0.00136743,-0.00099196,0.00132602,0.00724979,-0.00275408,-0.0
 0060722,0.01292036,0.01400517,0.01237534,-0.05570778,0.00345335,0.0037
 3865,0.01211135,-0.00038855,0.00203344,0.00663314,0.00000205,0.0000008
 6,0.00000653,-0.00002174,0.00004921,0.00025503,-0.00001883,-0.00048699
 ,-0.00246007,0.00016734,-0.00052994,-0.00295117,-0.01381707,-0.0168225
 2,0.02870118,0.00011850,0.00001539,0.00000318,-0.00171750,0.00009126,0
 .00001658,0.00062225,-0.00321240,0.00008494,0.00019585,-0.00065524,0.0
 0016073,0.00164492,-0.00030155,-0.00012476,0.00184447,-0.00134367,0.00
 018480,-0.31983017,0.09114597,-0.02379275,-0.01708632,0.00867468,-0.00
 211255,-0.00002830,-0.00002514,0.00000238,0.00006933,0.00019942,-0.000
 06061,-0.00003786,0.00005606,0.00001327,0.00005854,-0.00012580,0.00002
 289,0.00051137,0.00008455,0.00010660,0.33288933,0.00018677,-0.00009924
 ,0.00001721,-0.00218726,0.00030889,-0.00051281,-0.00144708,-0.00294272
 ,0.00214829,-0.00088825,-0.00073804,-0.00015000,-0.00068872,-0.0049950
 1,0.00168513,0.03022568,-0.00760087,0.00258908,0.09042294,-0.08889686,
 0.01041867,-0.02247658,0.01191581,-0.00183154,-0.00006499,-0.00000440,
 0.00000685,0.00010149,0.00032141,0.00009245,0.00001642,0.00013228,-0.0
 0011588,0.00129663,-0.00020401,0.00007076,-0.00014343,0.00073682,-0.00
 053704,-0.09466436,0.09157258,-0.00002275,0.00001109,-0.00003273,0.000
 36070,-0.00042936,-0.00249107,-0.00018417,0.00208374,0.01135430,0.0001
 9533,-0.00014197,-0.00149236,-0.00006669,0.00169959,0.00610974,-0.0045
 6781,0.00144737,0.00194111,-0.02368476,0.01044197,-0.04384502,0.002579
 18,-0.00070314,0.00535999,-0.00000631,0.00000199,0.00003011,-0.0000459
 5,0.00009628,0.00089634,0.00001934,-0.00011438,-0.00062324,-0.00019117
 ,0.00001895,-0.00005792,0.00014198,-0.00052859,-0.00271231,0.02528396,
 -0.01300677,0.03079010,-0.00054053,-0.00050137,0.00013629,0.00262760,-
 0.00040381,0.00026322,0.00017112,0.02933019,-0.00452718,-0.00640137,0.
 00026935,-0.00037500,0.00087261,-0.00000541,0.00009160,-0.00507989,-0.
 00256209,-0.00018331,0.00870384,-0.02491487,0.00365463,-0.06294990,0.0
 3219297,-0.00549243,0.00033272,-0.00005900,-0.00049210,-0.00186679,0.0
 0025217,-0.00016837,0.00017125,0.00146791,-0.00028859,0.00016178,0.000
 02099,0.00003131,0.00038936,-0.00112356,0.00027073,0.00077499,0.000371
 44,0.00016796,0.06238381,0.00083962,-0.00242437,0.00006541,0.00011180,
 0.00075642,-0.00055260,-0.00184316,-0.00472601,0.00113607,0.00119457,0
 .00262716,0.00007497,-0.00257802,-0.00027863,-0.00029822,-0.00051941,-
 0.00248098,0.00195566,0.00473246,-0.00484689,0.00259950,0.03273630,-0.
 33752131,0.04516500,-0.00051174,-0.00067972,-0.00064893,0.00020651,0.0
 0174837,-0.00000279,0.00000048,-0.00002863,0.00030988,-0.00003912,-0.0
 0006787,-0.00010984,0.00032653,-0.00041428,-0.00029035,0.00008647,0.00
 049807,-0.00088391,-0.03438122,0.34810426,-0.00007140,0.00001567,-0.00
 218390,0.00018462,-0.00056905,-0.00285086,0.00016285,0.00226645,0.0029
 3150,-0.00051651,0.00003874,0.00281442,0.00048301,-0.00020523,-0.00159
 357,-0.00049208,0.00188621,0.01033870,-0.00080811,0.00152471,0.0110341
 3,-0.00557224,0.04514124,-0.05213032,-0.00061302,-0.00045323,0.0004821
 0,-0.00015962,-0.00000048,0.00168619,-0.00006728,0.00036338,0.00197349
 ,0.00004041,-0.00010760,-0.00077007,0.00005278,-0.00034239,-0.00236890
 ,0.00021039,-0.00087393,-0.00525851,0.00642107,-0.04938450,0.03574363,
 -0.01123253,-0.02694766,0.04938930,-0.00022709,0.00095570,0.00036826,-
 0.00033392,-0.00014777,-0.00001101,0.00011673,0.00035034,-0.00012500,-
 0.00041316,-0.00003423,0.00001310,0.00018615,-0.00025271,0.00007212,0.
 00009000,0.00009820,-0.00001677,-0.00006777,-0.00051157,-0.00018074,0.
 00169636,0.00020648,-0.00243247,0.00112773,-0.00017454,-0.00137825,0.0
 0002719,0.00001896,-0.00000006,-0.00000737,-0.00000125,0.00000341,0.00
 000833,-0.00000536,-0.00000027,-0.00002939,-0.00006070,0.00002116,0.00
 024938,-0.00036205,0.00074514,0.00880935,-0.02920721,-0.16366495,0.230
 79060,0.00068758,-0.00100267,-0.00044838,0.00019424,0.00019208,0.00005
 984,-0.00005511,-0.00010483,0.00018955,0.00000661,-0.00002773,-0.00003
 127,-0.00000550,-0.00014625,0.00009338,0.00007514,0.00011749,-0.000055
 14,-0.00045662,-0.00011367,-0.00019410,0.00311487,0.01351540,-0.033776
 92,-0.00124558,0.00033205,0.00200624,0.00001151,0.00000425,0.00001340,
 -0.00000259,-0.00001248,-0.00000923,-0.00000619,-0.00001304,0.00000463
 ,-0.00002564,-0.00000473,0.00000713,0.00004632,-0.00026558,0.00070001,
 0.02686816,0.15119465,0.04265929,0.17629442,-0.41318994,0.00039874,-0.
 00109751,-0.00009598,-0.00009237,-0.00011610,0.00010645,-0.00005985,0.
 00012563,0.00004661,-0.00001292,-0.00003538,-0.00002641,-0.00011615,0.
 00019838,0.00001662,-0.00006317,-0.00053725,0.00003145,0.00008626,-0.0
 0004549,-0.00005314,0.00405767,0.02096033,-0.02775348,-0.00086856,0.00
 273675,0.00004040,-0.00001533,0.00000904,0.00001736,-0.00001048,0.0000
 0089,0.00000580,0.00001368,-0.00000813,0.00001028,0.00000094,-0.000000
 47,0.00003147,0.00049017,0.00086462,0.00015197,-0.04646792,-0.19934975
 ,0.44066056\\-0.00002858,0.00005952,-0.00006932,0.00006431,-0.00001921
 ,-0.00000504,-0.00001117,0.00001160,0.00001588,-0.00000673,-0.00001126
 ,0.00000969,0.00001942,-0.00000138,-0.00000121,-0.00003182,0.00001544,
 -0.00000703,0.00001188,-0.00004317,0.00001598,0.00000903,0.00002854,-0
 .00003850,0.00001373,0.00000511,0.00002908,-0.00002893,-0.00001289,0.0
 0001421,-0.00000050,0.00000752,-0.00000940,-0.00000208,0.00000170,0.00
 000365,-0.00000042,-0.00000169,-0.00000311,-0.00000422,0.00000836,0.00
 000298,-0.00000539,-0.00000791,0.00000954,0.00000148,-0.00004026,0.000
 03261\\\@



 WE LOSE BECAUSE WE WIN

 GAMBLERS,

 RECOLLECTING WHICH,

 TOSS THEIR DICE AGAIN....


                          EMILY DICKINSON  BOLTS OF MELODY NO. 533
 Job cpu time:       0 days  0 hours 27 minutes 16.0 seconds.
 Elapsed time:       0 days  0 hours  1 minutes  8.9 seconds.
 File lengths (MBytes):  RWF=     86 Int=      0 D2E=      0 Chk=      6 Scr=      1
 Normal termination of Gaussian 16 at Mon Dec 30 16:57:03 2019.
real 796.08
user 18246.21
sys 90.15
Machine:
brown-a062
brown-a062
brown-a062
brown-a062
brown-a062
brown-a062
brown-a062
brown-a062
brown-a062
brown-a062
brown-a062
brown-a062
brown-a062
brown-a062
brown-a062
brown-a062
brown-a062
brown-a062
brown-a062
brown-a062
