 Entering Gaussian System, Link 0=/apps/cent7/gaussian/g16-A.03/g16-haswell/g16/g16
 Initial command:
 /apps/cent7/gaussian/g16-A.03/g16-haswell/g16/l1.exe "/scratch/brown/finej/gaussian/Gau-51362.inp" -scrdir="/scratch/brown/finej/gaussian/"
 Entering Link 1 = /apps/cent7/gaussian/g16-A.03/g16-haswell/g16/l1.exe PID=     51363.
  
 Copyright (c) 1988,1990,1992,1993,1995,1998,2003,2009,2016,
            Gaussian, Inc.  All Rights Reserved.
  
 This is part of the Gaussian(R) 16 program.  It is based on
 the Gaussian(R) 09 system (copyright 2009, Gaussian, Inc.),
 the Gaussian(R) 03 system (copyright 2003, Gaussian, Inc.),
 the Gaussian(R) 98 system (copyright 1998, Gaussian, Inc.),
 the Gaussian(R) 94 system (copyright 1995, Gaussian, Inc.),
 the Gaussian 92(TM) system (copyright 1992, Gaussian, Inc.),
 the Gaussian 90(TM) system (copyright 1990, Gaussian, Inc.),
 the Gaussian 88(TM) system (copyright 1988, Gaussian, Inc.),
 the Gaussian 86(TM) system (copyright 1986, Carnegie Mellon
 University), and the Gaussian 82(TM) system (copyright 1983,
 Carnegie Mellon University). Gaussian is a federally registered
 trademark of Gaussian, Inc.
  
 This software contains proprietary and confidential information,
 including trade secrets, belonging to Gaussian, Inc.
  
 This software is provided under written license and may be
 used, copied, transmitted, or stored only in accord with that
 written license.
  
 The following legend is applicable only to US Government
 contracts under FAR:
  
                    RESTRICTED RIGHTS LEGEND
  
 Use, reproduction and disclosure by the US Government is
 subject to restrictions as set forth in subparagraphs (a)
 and (c) of the Commercial Computer Software - Restricted
 Rights clause in FAR 52.227-19.
  
 Gaussian, Inc.
 340 Quinnipiac St., Bldg. 40, Wallingford CT 06492
  
  
 ---------------------------------------------------------------
 Warning -- This program may not be used in any manner that
 competes with the business of Gaussian, Inc. or will provide
 assistance to any competitor of Gaussian, Inc.  The licensee
 of this program is prohibited from giving any competitor of
 Gaussian, Inc. access to this program.  By using this program,
 the user acknowledges that Gaussian, Inc. is engaged in the
 business of creating and licensing software in the field of
 computational chemistry and represents and warrants to the
 licensee that it is not a competitor of Gaussian, Inc. and that
 it will not use this program in any manner prohibited above.
 ---------------------------------------------------------------
  

 Cite this work as:
 Gaussian 16, Revision A.03,
 M. J. Frisch, G. W. Trucks, H. B. Schlegel, G. E. Scuseria, 
 M. A. Robb, J. R. Cheeseman, G. Scalmani, V. Barone, 
 G. A. Petersson, H. Nakatsuji, X. Li, M. Caricato, A. V. Marenich, 
 J. Bloino, B. G. Janesko, R. Gomperts, B. Mennucci, H. P. Hratchian, 
 J. V. Ortiz, A. F. Izmaylov, J. L. Sonnenberg, D. Williams-Young, 
 F. Ding, F. Lipparini, F. Egidi, J. Goings, B. Peng, A. Petrone, 
 T. Henderson, D. Ranasinghe, V. G. Zakrzewski, J. Gao, N. Rega, 
 G. Zheng, W. Liang, M. Hada, M. Ehara, K. Toyota, R. Fukuda, 
 J. Hasegawa, M. Ishida, T. Nakajima, Y. Honda, O. Kitao, H. Nakai, 
 T. Vreven, K. Throssell, J. A. Montgomery, Jr., J. E. Peralta, 
 F. Ogliaro, M. J. Bearpark, J. J. Heyd, E. N. Brothers, K. N. Kudin, 
 V. N. Staroverov, T. A. Keith, R. Kobayashi, J. Normand, 
 K. Raghavachari, A. P. Rendell, J. C. Burant, S. S. Iyengar, 
 J. Tomasi, M. Cossi, J. M. Millam, M. Klene, C. Adamo, R. Cammi, 
 J. W. Ochterski, R. L. Martin, K. Morokuma, O. Farkas, 
 J. B. Foresman, and D. J. Fox, Gaussian, Inc., Wallingford CT, 2016.
 
 ******************************************
 Gaussian 16:  ES64L-G16RevA.03 25-Dec-2016
                13-Oct-2019 
 ******************************************
 %chk=10_p.chk
 %nprocshared=24
 Will use up to   24 processors via shared memory.
 %mem=80GB
 -------------------------------------------------------------------
 #P opt freq m062x/6-311++g(d,p) geom=connectivity temperature=0.001
 -------------------------------------------------------------------
 1/18=20,19=15,26=3,38=1,57=2,112=-1000/1,3;
 2/9=110,12=2,17=6,18=5,40=1/2;
 3/5=4,6=6,7=1111,11=2,25=1,30=1,71=1,74=-55/1,2,3;
 4//1;
 5/5=2,38=5/2;
 6/7=2,8=2,9=2,10=2,28=1/1;
 7//1,2,3,16;
 1/18=20,19=15,26=3/3(2);
 2/9=110/2;
 99//99;
 2/9=110/2;
 3/5=4,6=6,7=1111,11=2,25=1,30=1,71=1,74=-55/1,2,3;
 4/5=5,16=3,69=1/1;
 5/5=2,38=5/2;
 7//1,2,3,16;
 1/18=20,19=15,26=3/3(-5);
 2/9=110/2;
 6/7=2,8=2,9=2,10=2,19=2,28=1/1;
 99/9=1/99;
 Leave Link    1 at Sun Oct 13 19:35:29 2019, MaxMem= 10737418240 cpu:               2.6 elap:               0.1
 (Enter /apps/cent7/gaussian/g16-A.03/g16-haswell/g16/l101.exe)
 -------------------
 Title Card Required
 -------------------
 Symbolic Z-matrix:
 Charge =  1 Multiplicity = 1
 O                     1.4199    0.2754   -0.1395 
 N                     0.2167    0.0158    0.2908 
 C                    -0.3604   -1.2098    0.2157 
 C                     0.2259   -2.3083   -0.4575 
 C                    -0.4136   -3.5619   -0.471 
 C                    -1.6429   -3.7289    0.1918 
 C                    -2.2492   -2.6366    0.8375 
 C                    -1.6098   -1.3841    0.8468 
 H                     2.0071    0.4021    0.6093 
 H                     0.20178   0.27466   1.2566 
 H                     1.1799   -2.1875   -0.9708 
 H                     0.0426   -4.4024   -0.9941 
 H                    -2.1261   -4.7058    0.2051 
 H                    -3.2136   -2.7606    1.3301 
 H                    -2.0866   -0.5414    1.3473 
 H                    -0.39512   0.64433  -0.18943 
 
 ITRead=  0  0  0  0  0  0  0  0  0  0  0  0  0  0  0  0
 MicOpt= -1 -1 -1 -1 -1 -1 -1 -1 -1 -1 -1 -1 -1 -1 -1 -1
 NAtoms=     16 NQM=       16 NQMF=       0 NMMI=      0 NMMIF=      0
                NMic=       0 NMicF=      0.
                    Isotopes and Nuclear Properties:
 (Nuclear quadrupole moments (NQMom) in fm**2, nuclear magnetic moments (NMagM)
  in nuclear magnetons)

  Atom         1           2           3           4           5           6           7           8           9          10
 IAtWgt=          16          14          12          12          12          12          12          12           1           1
 AtmWgt=  15.9949146  14.0030740  12.0000000  12.0000000  12.0000000  12.0000000  12.0000000  12.0000000   1.0078250   1.0078250
 NucSpn=           0           2           0           0           0           0           0           0           1           1
 AtZEff=  -0.0000000  -0.0000000  -0.0000000  -0.0000000  -0.0000000  -0.0000000  -0.0000000  -0.0000000  -0.0000000  -0.0000000
 NQMom=    0.0000000   2.0440000   0.0000000   0.0000000   0.0000000   0.0000000   0.0000000   0.0000000   0.0000000   0.0000000
 NMagM=    0.0000000   0.4037610   0.0000000   0.0000000   0.0000000   0.0000000   0.0000000   0.0000000   2.7928460   2.7928460
 AtZNuc=   8.0000000   7.0000000   6.0000000   6.0000000   6.0000000   6.0000000   6.0000000   6.0000000   1.0000000   1.0000000

  Atom        11          12          13          14          15          16
 IAtWgt=           1           1           1           1           1           1
 AtmWgt=   1.0078250   1.0078250   1.0078250   1.0078250   1.0078250   1.0078250
 NucSpn=           1           1           1           1           1           1
 AtZEff=  -0.0000000  -0.0000000  -0.0000000  -0.0000000  -0.0000000  -0.0000000
 NQMom=    0.0000000   0.0000000   0.0000000   0.0000000   0.0000000   0.0000000
 NMagM=    2.7928460   2.7928460   2.7928460   2.7928460   2.7928460   2.7928460
 AtZNuc=   1.0000000   1.0000000   1.0000000   1.0000000   1.0000000   1.0000000
 Leave Link  101 at Sun Oct 13 19:35:29 2019, MaxMem= 10737418240 cpu:              12.4 elap:               0.5
 (Enter /apps/cent7/gaussian/g16-A.03/g16-haswell/g16/l103.exe)

 GradGradGradGradGradGradGradGradGradGradGradGradGradGradGradGradGradGrad
 Berny optimization.
 Initialization pass.
                           ----------------------------
                           !    Initial Parameters    !
                           ! (Angstroms and Degrees)  !
 --------------------------                            --------------------------
 ! Name  Definition              Value          Derivative Info.                !
 --------------------------------------------------------------------------------
 ! R1    R(1,2)                  1.3039         estimate D2E/DX2                !
 ! R2    R(1,9)                  0.96           estimate D2E/DX2                !
 ! R3    R(2,3)                  1.3568         estimate D2E/DX2                !
 ! R4    R(2,10)                 1.0            estimate D2E/DX2                !
 ! R5    R(2,16)                 1.0            estimate D2E/DX2                !
 ! R6    R(3,4)                  1.4155         estimate D2E/DX2                !
 ! R7    R(3,8)                  1.4106         estimate D2E/DX2                !
 ! R8    R(4,5)                  1.4074         estimate D2E/DX2                !
 ! R9    R(4,11)                 1.09           estimate D2E/DX2                !
 ! R10   R(5,6)                  1.4065         estimate D2E/DX2                !
 ! R11   R(5,12)                 1.09           estimate D2E/DX2                !
 ! R12   R(6,7)                  1.4063         estimate D2E/DX2                !
 ! R13   R(6,13)                 1.09           estimate D2E/DX2                !
 ! R14   R(7,8)                  1.4063         estimate D2E/DX2                !
 ! R15   R(7,14)                 1.09           estimate D2E/DX2                !
 ! R16   R(8,15)                 1.0899         estimate D2E/DX2                !
 ! A1    A(2,1,9)              109.4689         estimate D2E/DX2                !
 ! A2    A(1,2,3)              123.6468         estimate D2E/DX2                !
 ! A3    A(1,2,10)             106.3168         estimate D2E/DX2                !
 ! A4    A(1,2,16)             106.3168         estimate D2E/DX2                !
 ! A5    A(3,2,10)             106.3168         estimate D2E/DX2                !
 ! A6    A(3,2,16)             106.3168         estimate D2E/DX2                !
 ! A7    A(10,2,16)            106.9764         estimate D2E/DX2                !
 ! A8    A(2,3,4)              123.4477         estimate D2E/DX2                !
 ! A9    A(2,3,8)              117.6206         estimate D2E/DX2                !
 ! A10   A(4,3,8)              118.9317         estimate D2E/DX2                !
 ! A11   A(3,4,5)              120.5051         estimate D2E/DX2                !
 ! A12   A(3,4,11)             120.0304         estimate D2E/DX2                !
 ! A13   A(5,4,11)             119.4645         estimate D2E/DX2                !
 ! A14   A(4,5,6)              119.8926         estimate D2E/DX2                !
 ! A15   A(4,5,12)             120.0834         estimate D2E/DX2                !
 ! A16   A(6,5,12)             120.024          estimate D2E/DX2                !
 ! A17   A(5,6,7)              120.0628         estimate D2E/DX2                !
 ! A18   A(5,6,13)             119.9751         estimate D2E/DX2                !
 ! A19   A(7,6,13)             119.9622         estimate D2E/DX2                !
 ! A20   A(6,7,8)              119.9201         estimate D2E/DX2                !
 ! A21   A(6,7,14)             120.0395         estimate D2E/DX2                !
 ! A22   A(8,7,14)             120.0403         estimate D2E/DX2                !
 ! A23   A(3,8,7)              120.6517         estimate D2E/DX2                !
 ! A24   A(3,8,15)             119.8273         estimate D2E/DX2                !
 ! A25   A(7,8,15)             119.521          estimate D2E/DX2                !
 ! D1    D(9,1,2,3)           -107.6452         estimate D2E/DX2                !
 ! D2    D(9,1,2,10)            15.4814         estimate D2E/DX2                !
 ! D3    D(9,1,2,16)           129.2282         estimate D2E/DX2                !
 ! D4    D(1,2,3,4)             -6.5759         estimate D2E/DX2                !
 ! D5    D(1,2,3,8)            173.3902         estimate D2E/DX2                !
 ! D6    D(10,2,3,4)          -129.7025         estimate D2E/DX2                !
 ! D7    D(10,2,3,8)            50.2636         estimate D2E/DX2                !
 ! D8    D(16,2,3,4)           116.5508         estimate D2E/DX2                !
 ! D9    D(16,2,3,8)           -63.4832         estimate D2E/DX2                !
 ! D10   D(2,3,4,5)            178.5523         estimate D2E/DX2                !
 ! D11   D(2,3,4,11)            -1.4428         estimate D2E/DX2                !
 ! D12   D(8,3,4,5)             -1.4133         estimate D2E/DX2                !
 ! D13   D(8,3,4,11)           178.5915         estimate D2E/DX2                !
 ! D14   D(2,3,8,7)           -178.3951         estimate D2E/DX2                !
 ! D15   D(2,3,8,15)             1.6072         estimate D2E/DX2                !
 ! D16   D(4,3,8,7)              1.5726         estimate D2E/DX2                !
 ! D17   D(4,3,8,15)          -178.4252         estimate D2E/DX2                !
 ! D18   D(3,4,5,6)             -0.1854         estimate D2E/DX2                !
 ! D19   D(3,4,5,12)           179.8155         estimate D2E/DX2                !
 ! D20   D(11,4,5,6)           179.8098         estimate D2E/DX2                !
 ! D21   D(11,4,5,12)           -0.1893         estimate D2E/DX2                !
 ! D22   D(4,5,6,7)              1.6501         estimate D2E/DX2                !
 ! D23   D(4,5,6,13)          -178.3455         estimate D2E/DX2                !
 ! D24   D(12,5,6,7)          -178.3508         estimate D2E/DX2                !
 ! D25   D(12,5,6,13)            1.6537         estimate D2E/DX2                !
 ! D26   D(5,6,7,8)             -1.4947         estimate D2E/DX2                !
 ! D27   D(5,6,7,14)           178.5003         estimate D2E/DX2                !
 ! D28   D(13,6,7,8)           178.5008         estimate D2E/DX2                !
 ! D29   D(13,6,7,14)           -1.5042         estimate D2E/DX2                !
 ! D30   D(6,7,8,3)             -0.1317         estimate D2E/DX2                !
 ! D31   D(6,7,8,15)           179.8661         estimate D2E/DX2                !
 ! D32   D(14,7,8,3)           179.8733         estimate D2E/DX2                !
 ! D33   D(14,7,8,15)           -0.1289         estimate D2E/DX2                !
 --------------------------------------------------------------------------------
 Trust Radius=3.00D-01 FncErr=1.00D-07 GrdErr=1.00D-06 EigMax=2.50D+02 EigMin=1.00D-04
 Number of steps in this run=     84 maximum allowed number of steps=    100.
 GradGradGradGradGradGradGradGradGradGradGradGradGradGradGradGradGradGrad

 Leave Link  103 at Sun Oct 13 19:35:29 2019, MaxMem= 10737418240 cpu:               0.2 elap:               0.0
 (Enter /apps/cent7/gaussian/g16-A.03/g16-haswell/g16/l202.exe)
                          Input orientation:                          
 ---------------------------------------------------------------------
 Center     Atomic      Atomic             Coordinates (Angstroms)
 Number     Number       Type             X           Y           Z
 ---------------------------------------------------------------------
      1          8           0        1.419900    0.275400   -0.139500
      2          7           0        0.216700    0.015800    0.290800
      3          6           0       -0.360400   -1.209800    0.215700
      4          6           0        0.225900   -2.308300   -0.457500
      5          6           0       -0.413600   -3.561900   -0.471000
      6          6           0       -1.642900   -3.728900    0.191800
      7          6           0       -2.249200   -2.636600    0.837500
      8          6           0       -1.609800   -1.384100    0.846800
      9          1           0        2.007100    0.402100    0.609300
     10          1           0        0.201779    0.274658    1.256600
     11          1           0        1.179900   -2.187500   -0.970800
     12          1           0        0.042600   -4.402400   -0.994100
     13          1           0       -2.126100   -4.705800    0.205100
     14          1           0       -3.213600   -2.760600    1.330100
     15          1           0       -2.086600   -0.541400    1.347300
     16          1           0       -0.395124    0.644330   -0.189431
 ---------------------------------------------------------------------
                    Distance matrix (angstroms):
                    1          2          3          4          5
     1  O    0.000000
     2  N    1.303933   0.000000
     3  C    2.345518   1.356753   0.000000
     4  C    2.863960   2.441614   1.415503   0.000000
     5  C    4.265734   3.711813   2.450870   1.407358   0.000000
     6  C    5.052220   4.182187   2.826879   2.435592   1.406546
     7  C    4.785036   3.662618   2.447439   2.812637   2.436756
     8  C    3.592466   2.367479   1.410556   2.434161   2.812526
     9  H    0.959978   1.859086   2.891055   3.414235   4.768662
    10  H    1.852813   1.000000   1.898192   3.100063   4.252349
    11  H    2.610467   2.715496   2.176282   1.090039   2.162873
    12  H    4.950668   4.604538   3.437836   2.169515   1.090042
    13  H    6.124150   5.271581   3.916609   3.423295   2.167550
    14  H    5.731173   4.533817   3.433310   3.902595   3.424331
    15  H    3.895289   2.594582   2.169572   3.424455   3.902379
    16  H    1.852813   1.000000   1.898192   3.029118   4.215684
                    6          7          8          9         10
     6  C    0.000000
     7  C    1.406289   0.000000
     8  C    2.434791   1.406298   0.000000
     9  H    5.528288   5.234679   4.040901   0.000000
    10  H    4.534878   3.828625   2.490227   1.922088   0.000000
    11  H    3.419905   3.902610   3.425135   3.144361   3.461250
    12  H    2.168149   3.424201   3.902496   5.432621   5.192866
    13  H    1.089951   2.167181   3.422285   6.583112   5.597288
    14  H    2.168048   1.089999   2.168065   6.146376   4.569793
    15  H    3.419387   2.162452   1.089946   4.265351   2.431225
    16  H    4.563707   3.905981   2.581422   2.543094   1.607469
                   11         12         13         14         15
    11  H    0.000000
    12  H    2.489935   0.000000
    13  H    4.319052   2.496676   0.000000
    14  H    4.992537   4.324379   2.496414   0.000000
    15  H    4.330503   4.992291   4.318380   2.489031   0.000000
    16  H    3.333241   5.129189   5.637005   4.674005   2.574604
                   16
    16  H    0.000000
 Stoichiometry    C6H8NO(1+)
 Framework group  C1[X(C6H8NO)]
 Deg. of freedom    42
 Full point group                 C1      NOp   1
 Largest Abelian subgroup         C1      NOp   1
 Largest concise Abelian subgroup C1      NOp   1
                         Standard orientation:                         
 ---------------------------------------------------------------------
 Center     Atomic      Atomic             Coordinates (Angstroms)
 Number     Number       Type             X           Y           Z
 ---------------------------------------------------------------------
      1          8           0       -2.714128    0.434839    0.020133
      2          7           0       -1.783231   -0.473539   -0.072182
      3          6           0       -0.455695   -0.194183   -0.052449
      4          6           0        0.064865    1.122068   -0.064592
      5          6           0        1.454032    1.341419   -0.012097
      6          6           0        2.334452    0.246673    0.056929
      7          6           0        1.829505   -1.065704    0.038479
      8          6           0        0.441120   -1.282373   -0.017341
      9          1           0       -3.130048    0.380138    0.883601
     10          1           0       -1.945614   -1.119075    0.674085
     11          1           0       -0.611211    1.975639   -0.114817
     12          1           0        1.847567    2.357863   -0.024870
     13          1           0        3.409097    0.415545    0.124858
     14          1           0        2.513425   -1.913949    0.067327
     15          1           0        0.056938   -2.302238   -0.033565
     16          1           0       -1.954197   -0.965261   -0.925985
 ---------------------------------------------------------------------
 Rotational constants (GHZ):           5.0126161           1.4864474           1.1588628
 Leave Link  202 at Sun Oct 13 19:35:29 2019, MaxMem= 10737418240 cpu:               0.6 elap:               0.0
 (Enter /apps/cent7/gaussian/g16-A.03/g16-haswell/g16/l301.exe)
 Standard basis: 6-311++G(d,p) (5D, 7F)
 Ernie: Thresh=  0.10000D-02 Tol=  0.10000D-05 Strict=F.
 There are   240 symmetry adapted cartesian basis functions of A   symmetry.
 There are   232 symmetry adapted basis functions of A   symmetry.
   232 basis functions,   360 primitive gaussians,   240 cartesian basis functions
    29 alpha electrons       29 beta electrons
       nuclear repulsion energy       358.7301588289 Hartrees.
 IExCor= 4336 DFT=T Ex+Corr=M062X ExCW=0 ScaHFX=  0.540000
 ScaDFX=  1.000000  1.000000  1.000000  1.000000 ScalE2=  1.000000  1.000000
 IRadAn=      5 IRanWt=     -1 IRanGd=            0 ICorTp=0 IEmpDi=  4
 NAtoms=   16 NActive=   16 NUniq=   16 SFac= 1.00D+00 NAtFMM=   60 NAOKFM=F Big=F
 Integral buffers will be    131072 words long.
 Raffenetti 2 integral format.
 Two-electron integral symmetry is turned on.
 Leave Link  301 at Sun Oct 13 19:35:29 2019, MaxMem= 10737418240 cpu:               1.3 elap:               0.1
 (Enter /apps/cent7/gaussian/g16-A.03/g16-haswell/g16/l302.exe)
 NPDir=0 NMtPBC=     1 NCelOv=     1 NCel=       1 NClECP=     1 NCelD=      1
         NCelK=      1 NCelE2=     1 NClLst=     1 CellRange=     0.0.
 One-electron integrals computed using PRISM.
 One-electron integral symmetry used in STVInt
 NBasis=   232 RedAO= T EigKep=  4.80D-06  NBF=   232
 NBsUse=   231 1.00D-06 EigRej=  9.28D-07 NBFU=   231
 Precomputing XC quadrature grid using
 IXCGrd= 4 IRadAn=           5 IRanWt=          -1 IRanGd=           0 AccXCQ= 0.00D+00.
 Generated NRdTot=       0 NPtTot=           0 NUsed=           0 NTot=          32
 NSgBfM=   240   240   240   240   240 MxSgAt=    16 MxSgA2=    16.
 Leave Link  302 at Sun Oct 13 19:35:30 2019, MaxMem= 10737418240 cpu:               3.9 elap:               0.2
 (Enter /apps/cent7/gaussian/g16-A.03/g16-haswell/g16/l303.exe)
 DipDrv:  MaxL=1.
 Leave Link  303 at Sun Oct 13 19:35:30 2019, MaxMem= 10737418240 cpu:               0.9 elap:               0.1
 (Enter /apps/cent7/gaussian/g16-A.03/g16-haswell/g16/l401.exe)
 ExpMin= 3.60D-02 ExpMax= 8.59D+03 ExpMxC= 1.30D+03 IAcc=3 IRadAn=         5 AccDes= 0.00D+00
 Harris functional with IExCor= 1009 and IRadAn=       5 diagonalized for initial guess.
 HarFok:  IExCor= 1009 AccDes= 0.00D+00 IRadAn=         5 IDoV= 1 UseB2=F ITyADJ=14
 ICtDFT=  3500011 ScaDFX=  1.000000  1.000000  1.000000  1.000000
 FoFCou: FMM=F IPFlag=           0 FMFlag=      100000 FMFlg1=           0
         NFxFlg=           0 DoJE=T BraDBF=F KetDBF=T FulRan=T
         wScrn=  0.000000 ICntrl=       500 IOpCl=  0 I1Cent=   200000004 NGrid=           0
         NMat0=    1 NMatS0=      1 NMatT0=    0 NMatD0=    1 NMtDS0=    0 NMtDT0=    0
 Petite list used in FoFCou.
 Harris En= -362.904575817866    
 JPrj=0 DoOrth=F DoCkMO=F.
 Leave Link  401 at Sun Oct 13 19:35:30 2019, MaxMem= 10737418240 cpu:               8.5 elap:               0.4
 (Enter /apps/cent7/gaussian/g16-A.03/g16-haswell/g16/l502.exe)
 Integral symmetry usage will be decided dynamically.
 Closed shell SCF:
 Using DIIS extrapolation, IDIIS=  1040.
 NGot= 10737418240 LenX= 10737294852 LenY= 10737236811
 Requested convergence on RMS density matrix=1.00D-08 within 128 cycles.
 Requested convergence on MAX density matrix=1.00D-06.
 Requested convergence on             energy=1.00D-06.
 No special actions if energy rises.
 Fock matrices will be formed incrementally for  20 cycles.

 Cycle   1  Pass 1  IDiag  1:
 FoFJK:  IHMeth= 1 ICntrl=       0 DoSepK=F KAlg= 0 I1Cent=           0 FoldK=F
 IRaf= 960000000 NMat=       1 IRICut=       1 DoRegI=T DoRafI=F ISym2E= 0 IDoP0=0 IntGTp=1.
 FoFCou: FMM=F IPFlag=           0 FMFlag=      100000 FMFlg1=           0
         NFxFlg=           0 DoJE=F BraDBF=F KetDBF=F FulRan=T
         wScrn=  0.000000 ICntrl=         0 IOpCl=  0 I1Cent=           0 NGrid=           0
         NMat0=    1 NMatS0=      1 NMatT0=    0 NMatD0=    1 NMtDS0=    0 NMtDT0=    0
 Symmetry not used in FoFCou.
 E= -362.820425534319    
 DIIS: error= 2.73D-02 at cycle   1 NSaved=   1.
 NSaved= 1 IEnMin= 1 EnMin= -362.820425534319     IErMin= 1 ErrMin= 2.73D-02
 ErrMax= 2.73D-02  0.00D+00 EMaxC= 1.00D-01 BMatC= 2.44D-01 BMatP= 2.44D-01
 IDIUse=3 WtCom= 7.27D-01 WtEn= 2.73D-01
 Coeff-Com:  0.100D+01
 Coeff-En:   0.100D+01
 Coeff:      0.100D+01
 Gap=     0.370 Goal=   None    Shift=    0.000
 GapD=    0.370 DampG=1.000 DampE=0.500 DampFc=0.5000 IDamp=-1.
 Damping current iteration by 5.00D-01
 RMSDP=2.98D-02 MaxDP=2.37D+00              OVMax= 2.32D-01

 Cycle   2  Pass 1  IDiag  1:
 RMSU=  1.09D-02    CP:  1.28D+00
 E= -362.913163780874     Delta-E=       -0.092738246555 Rises=F Damp=T
 DIIS: error= 8.16D-03 at cycle   2 NSaved=   2.
 NSaved= 2 IEnMin= 2 EnMin= -362.913163780874     IErMin= 2 ErrMin= 8.16D-03
 ErrMax= 8.16D-03  0.00D+00 EMaxC= 1.00D-01 BMatC= 2.56D-02 BMatP= 2.44D-01
 IDIUse=3 WtCom= 9.18D-01 WtEn= 8.16D-02
 Coeff-Com: -0.917D-01 0.109D+01
 Coeff-En:   0.000D+00 0.100D+01
 Coeff:     -0.842D-01 0.108D+01
 Gap=     0.300 Goal=   None    Shift=    0.000
 RMSDP=6.56D-03 MaxDP=5.47D-01 DE=-9.27D-02 OVMax= 1.65D-01

 Cycle   3  Pass 1  IDiag  1:
 RMSU=  3.19D-03    CP:  1.13D+00  8.44D-01
 E= -363.003959546832     Delta-E=       -0.090795765958 Rises=F Damp=F
 DIIS: error= 1.11D-02 at cycle   3 NSaved=   3.
 NSaved= 3 IEnMin= 3 EnMin= -363.003959546832     IErMin= 2 ErrMin= 8.16D-03
 ErrMax= 1.11D-02  0.00D+00 EMaxC= 1.00D-01 BMatC= 1.16D-02 BMatP= 2.56D-02
 IDIUse=3 WtCom= 8.89D-01 WtEn= 1.11D-01
 Coeff-Com: -0.128D+00 0.469D+00 0.659D+00
 Coeff-En:   0.000D+00 0.000D+00 0.100D+01
 Coeff:     -0.114D+00 0.417D+00 0.697D+00
 Gap=     0.297 Goal=   None    Shift=    0.000
 RMSDP=1.32D-03 MaxDP=4.78D-02 DE=-9.08D-02 OVMax= 5.49D-02

 Cycle   4  Pass 1  IDiag  1:
 RMSU=  1.11D-03    CP:  1.13D+00  8.62D-01  7.97D-01
 E= -363.013013833328     Delta-E=       -0.009054286496 Rises=F Damp=F
 DIIS: error= 5.47D-03 at cycle   4 NSaved=   4.
 NSaved= 4 IEnMin= 4 EnMin= -363.013013833328     IErMin= 4 ErrMin= 5.47D-03
 ErrMax= 5.47D-03  0.00D+00 EMaxC= 1.00D-01 BMatC= 2.01D-03 BMatP= 1.16D-02
 IDIUse=3 WtCom= 9.45D-01 WtEn= 5.47D-02
 Coeff-Com: -0.473D-01 0.124D+00 0.361D+00 0.563D+00
 Coeff-En:   0.000D+00 0.000D+00 0.131D+00 0.869D+00
 Coeff:     -0.448D-01 0.117D+00 0.349D+00 0.579D+00
 Gap=     0.287 Goal=   None    Shift=    0.000
 RMSDP=5.10D-04 MaxDP=1.95D-02 DE=-9.05D-03 OVMax= 1.71D-02

 Cycle   5  Pass 1  IDiag  1:
 RMSU=  2.81D-04    CP:  1.13D+00  8.67D-01  8.59D-01  6.87D-01
 E= -363.015016083889     Delta-E=       -0.002002250560 Rises=F Damp=F
 DIIS: error= 8.96D-04 at cycle   5 NSaved=   5.
 NSaved= 5 IEnMin= 5 EnMin= -363.015016083889     IErMin= 5 ErrMin= 8.96D-04
 ErrMax= 8.96D-04  0.00D+00 EMaxC= 1.00D-01 BMatC= 4.89D-05 BMatP= 2.01D-03
 IDIUse=3 WtCom= 9.91D-01 WtEn= 8.96D-03
 Coeff-Com: -0.939D-02 0.168D-01 0.866D-01 0.216D+00 0.690D+00
 Coeff-En:   0.000D+00 0.000D+00 0.000D+00 0.000D+00 0.100D+01
 Coeff:     -0.931D-02 0.166D-01 0.858D-01 0.214D+00 0.693D+00
 Gap=     0.287 Goal=   None    Shift=    0.000
 RMSDP=7.87D-05 MaxDP=2.71D-03 DE=-2.00D-03 OVMax= 3.26D-03

 Cycle   6  Pass 1  IDiag  1:
 RMSU=  6.63D-05    CP:  1.13D+00  8.65D-01  8.56D-01  7.13D-01  9.79D-01
 E= -363.015065113356     Delta-E=       -0.000049029467 Rises=F Damp=F
 DIIS: error= 2.41D-04 at cycle   6 NSaved=   6.
 NSaved= 6 IEnMin= 6 EnMin= -363.015065113356     IErMin= 6 ErrMin= 2.41D-04
 ErrMax= 2.41D-04  0.00D+00 EMaxC= 1.00D-01 BMatC= 4.24D-06 BMatP= 4.89D-05
 IDIUse=3 WtCom= 9.98D-01 WtEn= 2.41D-03
 Coeff-Com: -0.102D-02 0.159D-04 0.148D-01 0.495D-01 0.282D+00 0.655D+00
 Coeff-En:   0.000D+00 0.000D+00 0.000D+00 0.000D+00 0.000D+00 0.100D+01
 Coeff:     -0.102D-02 0.159D-04 0.148D-01 0.494D-01 0.281D+00 0.656D+00
 Gap=     0.287 Goal=   None    Shift=    0.000
 RMSDP=3.54D-05 MaxDP=1.33D-03 DE=-4.90D-05 OVMax= 8.03D-04

 Cycle   7  Pass 1  IDiag  1:
 RMSU=  2.37D-05    CP:  1.13D+00  8.64D-01  8.53D-01  7.25D-01  1.00D+00
                    CP:  9.81D-01
 E= -363.015069445573     Delta-E=       -0.000004332217 Rises=F Damp=F
 DIIS: error= 2.97D-05 at cycle   7 NSaved=   7.
 NSaved= 7 IEnMin= 7 EnMin= -363.015069445573     IErMin= 7 ErrMin= 2.97D-05
 ErrMax= 2.97D-05  0.00D+00 EMaxC= 1.00D-01 BMatC= 3.29D-07 BMatP= 4.24D-06
 IDIUse=1 WtCom= 1.00D+00 WtEn= 0.00D+00
 Coeff-Com:  0.144D-02-0.320D-02-0.995D-02-0.242D-01-0.396D-01 0.169D+00
 Coeff-Com:  0.907D+00
 Coeff:      0.144D-02-0.320D-02-0.995D-02-0.242D-01-0.396D-01 0.169D+00
 Coeff:      0.907D+00
 Gap=     0.287 Goal=   None    Shift=    0.000
 RMSDP=2.99D-05 MaxDP=2.30D-03 DE=-4.33D-06 OVMax= 3.28D-04

 Cycle   8  Pass 1  IDiag  1:
 RMSU=  6.82D-06    CP:  1.13D+00  8.62D-01  8.53D-01  7.26D-01  1.03D+00
                    CP:  1.08D+00  1.09D+00
 E= -363.015069844084     Delta-E=       -0.000000398511 Rises=F Damp=F
 DIIS: error= 1.36D-05 at cycle   8 NSaved=   8.
 NSaved= 8 IEnMin= 8 EnMin= -363.015069844084     IErMin= 8 ErrMin= 1.36D-05
 ErrMax= 1.36D-05  0.00D+00 EMaxC= 1.00D-01 BMatC= 2.07D-08 BMatP= 3.29D-07
 IDIUse=1 WtCom= 1.00D+00 WtEn= 0.00D+00
 Coeff-Com:  0.519D-03-0.108D-02-0.359D-02-0.989D-02-0.223D-01 0.406D-01
 Coeff-Com:  0.308D+00 0.688D+00
 Coeff:      0.519D-03-0.108D-02-0.359D-02-0.989D-02-0.223D-01 0.406D-01
 Coeff:      0.308D+00 0.688D+00
 Gap=     0.287 Goal=   None    Shift=    0.000
 RMSDP=2.25D-06 MaxDP=1.01D-04 DE=-3.99D-07 OVMax= 6.05D-05

 Cycle   9  Pass 1  IDiag  1:
 RMSU=  1.64D-06    CP:  1.13D+00  8.62D-01  8.53D-01  7.26D-01  1.03D+00
                    CP:  1.09D+00  1.10D+00  8.72D-01
 E= -363.015069865714     Delta-E=       -0.000000021629 Rises=F Damp=F
 DIIS: error= 3.28D-06 at cycle   9 NSaved=   9.
 NSaved= 9 IEnMin= 9 EnMin= -363.015069865714     IErMin= 9 ErrMin= 3.28D-06
 ErrMax= 3.28D-06  0.00D+00 EMaxC= 1.00D-01 BMatC= 2.80D-09 BMatP= 2.07D-08
 IDIUse=1 WtCom= 1.00D+00 WtEn= 0.00D+00
 Coeff-Com: -0.581D-04 0.157D-03 0.559D-03 0.895D-03-0.312D-03-0.141D-01
 Coeff-Com: -0.668D-01 0.205D+00 0.875D+00
 Coeff:     -0.581D-04 0.157D-03 0.559D-03 0.895D-03-0.312D-03-0.141D-01
 Coeff:     -0.668D-01 0.205D+00 0.875D+00
 Gap=     0.287 Goal=   None    Shift=    0.000
 RMSDP=1.84D-06 MaxDP=1.35D-04 DE=-2.16D-08 OVMax= 4.05D-05

 Cycle  10  Pass 1  IDiag  1:
 RMSU=  5.00D-07    CP:  1.13D+00  8.62D-01  8.53D-01  7.26D-01  1.04D+00
                    CP:  1.09D+00  1.10D+00  9.91D-01  1.06D+00
 E= -363.015069869774     Delta-E=       -0.000000004060 Rises=F Damp=F
 DIIS: error= 1.47D-06 at cycle  10 NSaved=  10.
 NSaved=10 IEnMin=10 EnMin= -363.015069869774     IErMin=10 ErrMin= 1.47D-06
 ErrMax= 1.47D-06  0.00D+00 EMaxC= 1.00D-01 BMatC= 1.47D-10 BMatP= 2.80D-09
 IDIUse=1 WtCom= 1.00D+00 WtEn= 0.00D+00
 Coeff-Com: -0.418D-04 0.924D-04 0.345D-03 0.844D-03 0.138D-02-0.530D-02
 Coeff-Com: -0.356D-01-0.177D-01 0.135D+00 0.921D+00
 Coeff:     -0.418D-04 0.924D-04 0.345D-03 0.844D-03 0.138D-02-0.530D-02
 Coeff:     -0.356D-01-0.177D-01 0.135D+00 0.921D+00
 Gap=     0.287 Goal=   None    Shift=    0.000
 RMSDP=2.44D-07 MaxDP=6.89D-06 DE=-4.06D-09 OVMax= 1.31D-05

 Cycle  11  Pass 1  IDiag  1:
 RMSU=  1.59D-07    CP:  1.13D+00  8.62D-01  8.53D-01  7.26D-01  1.04D+00
                    CP:  1.09D+00  1.10D+00  1.00D+00  1.13D+00  1.07D+00
 E= -363.015069870026     Delta-E=       -0.000000000252 Rises=F Damp=F
 DIIS: error= 7.12D-07 at cycle  11 NSaved=  11.
 NSaved=11 IEnMin=11 EnMin= -363.015069870026     IErMin=11 ErrMin= 7.12D-07
 ErrMax= 7.12D-07  0.00D+00 EMaxC= 1.00D-01 BMatC= 5.02D-11 BMatP= 1.47D-10
 IDIUse=1 WtCom= 1.00D+00 WtEn= 0.00D+00
 Coeff-Com: -0.120D-04 0.246D-04 0.993D-04 0.289D-03 0.639D-03-0.694D-03
 Coeff-Com: -0.875D-02-0.254D-01-0.203D-01 0.433D+00 0.621D+00
 Coeff:     -0.120D-04 0.246D-04 0.993D-04 0.289D-03 0.639D-03-0.694D-03
 Coeff:     -0.875D-02-0.254D-01-0.203D-01 0.433D+00 0.621D+00
 Gap=     0.287 Goal=   None    Shift=    0.000
 RMSDP=8.17D-08 MaxDP=2.86D-06 DE=-2.52D-10 OVMax= 5.19D-06

 Cycle  12  Pass 1  IDiag  1:
 RMSU=  5.66D-08    CP:  1.13D+00  8.62D-01  8.53D-01  7.26D-01  1.04D+00
                    CP:  1.09D+00  1.10D+00  1.00D+00  1.15D+00  1.12D+00
                    CP:  8.42D-01
 E= -363.015069870094     Delta-E=       -0.000000000068 Rises=F Damp=F
 DIIS: error= 3.85D-07 at cycle  12 NSaved=  12.
 NSaved=12 IEnMin=12 EnMin= -363.015069870094     IErMin=12 ErrMin= 3.85D-07
 ErrMax= 3.85D-07  0.00D+00 EMaxC= 1.00D-01 BMatC= 4.75D-12 BMatP= 5.02D-11
 IDIUse=1 WtCom= 1.00D+00 WtEn= 0.00D+00
 Coeff-Com:  0.176D-05-0.423D-05-0.142D-04-0.193D-04-0.286D-05 0.520D-03
 Coeff-Com:  0.194D-02-0.521D-02-0.249D-01 0.143D-02 0.227D+00 0.799D+00
 Coeff:      0.176D-05-0.423D-05-0.142D-04-0.193D-04-0.286D-05 0.520D-03
 Coeff:      0.194D-02-0.521D-02-0.249D-01 0.143D-02 0.227D+00 0.799D+00
 Gap=     0.287 Goal=   None    Shift=    0.000
 RMSDP=3.87D-08 MaxDP=2.76D-06 DE=-6.78D-11 OVMax= 2.24D-06

 Cycle  13  Pass 1  IDiag  1:
 RMSU=  2.22D-08    CP:  1.13D+00  8.62D-01  8.53D-01  7.26D-01  1.04D+00
                    CP:  1.09D+00  1.10D+00  1.00D+00  1.15D+00  1.13D+00
                    CP:  9.18D-01  1.04D+00
 E= -363.015069870097     Delta-E=       -0.000000000003 Rises=F Damp=F
 DIIS: error= 8.27D-08 at cycle  13 NSaved=  13.
 NSaved=13 IEnMin=13 EnMin= -363.015069870097     IErMin=13 ErrMin= 8.27D-08
 ErrMax= 8.27D-08  0.00D+00 EMaxC= 1.00D-01 BMatC= 7.15D-13 BMatP= 4.75D-12
 IDIUse=1 WtCom= 1.00D+00 WtEn= 0.00D+00
 Coeff-Com:  0.162D-05-0.371D-05-0.154D-04-0.321D-04-0.592D-04 0.280D-03
 Coeff-Com:  0.156D-02-0.995D-03-0.119D-01-0.440D-01 0.440D-01 0.354D+00
 Coeff-Com:  0.657D+00
 Coeff:      0.162D-05-0.371D-05-0.154D-04-0.321D-04-0.592D-04 0.280D-03
 Coeff:      0.156D-02-0.995D-03-0.119D-01-0.440D-01 0.440D-01 0.354D+00
 Coeff:      0.657D+00
 Gap=     0.287 Goal=   None    Shift=    0.000
 RMSDP=1.67D-08 MaxDP=1.12D-06 DE=-3.30D-12 OVMax= 6.34D-07

 Cycle  14  Pass 1  IDiag  1:
 RMSU=  7.60D-09    CP:  1.13D+00  8.62D-01  8.53D-01  7.26D-01  1.04D+00
                    CP:  1.09D+00  1.10D+00  9.99D-01  1.15D+00  1.13D+00
                    CP:  9.27D-01  1.16D+00  1.01D+00
 E= -363.015069870099     Delta-E=       -0.000000000002 Rises=F Damp=F
 DIIS: error= 3.55D-08 at cycle  14 NSaved=  14.
 NSaved=14 IEnMin=14 EnMin= -363.015069870099     IErMin=14 ErrMin= 3.55D-08
 ErrMax= 3.55D-08  0.00D+00 EMaxC= 1.00D-01 BMatC= 5.92D-14 BMatP= 7.15D-13
 IDIUse=1 WtCom= 1.00D+00 WtEn= 0.00D+00
 Coeff-Com: -0.158D-07 0.370D-07-0.105D-05-0.331D-05-0.126D-04-0.133D-04
 Coeff-Com:  0.464D-04 0.898D-03 0.260D-02-0.848D-02-0.306D-01-0.572D-01
 Coeff-Com:  0.164D+00 0.929D+00
 Coeff:     -0.158D-07 0.370D-07-0.105D-05-0.331D-05-0.126D-04-0.133D-04
 Coeff:      0.464D-04 0.898D-03 0.260D-02-0.848D-02-0.306D-01-0.572D-01
 Coeff:      0.164D+00 0.929D+00
 Gap=     0.287 Goal=   None    Shift=    0.000
 RMSDP=6.88D-09 MaxDP=2.85D-07 DE=-1.82D-12 OVMax= 2.86D-07

 SCF Done:  E(RM062X) =  -363.015069870     A.U. after   14 cycles
            NFock= 14  Conv=0.69D-08     -V/T= 2.0030
 KE= 3.619273915090D+02 PE=-1.551976723839D+03 EE= 4.683041036311D+02
 Leave Link  502 at Sun Oct 13 19:35:40 2019, MaxMem= 10737418240 cpu:             235.5 elap:               9.9
 (Enter /apps/cent7/gaussian/g16-A.03/g16-haswell/g16/l601.exe)
 Copying SCF densities to generalized density rwf, IOpCl= 0 IROHF=0.

 **********************************************************************

            Population analysis using the SCF density.

 **********************************************************************

 Orbital symmetries:
       Occupied  (A) (A) (A) (A) (A) (A) (A) (A) (A) (A) (A) (A)
                 (A) (A) (A) (A) (A) (A) (A) (A) (A) (A) (A) (A)
                 (A) (A) (A) (A) (A)
       Virtual   (A) (A) (A) (A) (A) (A) (A) (A) (A) (A) (A) (A)
                 (A) (A) (A) (A) (A) (A) (A) (A) (A) (A) (A) (A)
                 (A) (A) (A) (A) (A) (A) (A) (A) (A) (A) (A) (A)
                 (A) (A) (A) (A) (A) (A) (A) (A) (A) (A) (A) (A)
                 (A) (A) (A) (A) (A) (A) (A) (A) (A) (A) (A) (A)
                 (A) (A) (A) (A) (A) (A) (A) (A) (A) (A) (A) (A)
                 (A) (A) (A) (A) (A) (A) (A) (A) (A) (A) (A) (A)
                 (A) (A) (A) (A) (A) (A) (A) (A) (A) (A) (A) (A)
                 (A) (A) (A) (A) (A) (A) (A) (A) (A) (A) (A) (A)
                 (A) (A) (A) (A) (A) (A) (A) (A) (A) (A) (A) (A)
                 (A) (A) (A) (A) (A) (A) (A) (A) (A) (A) (A) (A)
                 (A) (A) (A) (A) (A) (A) (A) (A) (A) (A) (A) (A)
                 (A) (A) (A) (A) (A) (A) (A) (A) (A) (A) (A) (A)
                 (A) (A) (A) (A) (A) (A) (A) (A) (A) (A) (A) (A)
                 (A) (A) (A) (A) (A) (A) (A) (A) (A) (A) (A) (A)
                 (A) (A) (A) (A) (A) (A) (A) (A) (A) (A) (A) (A)
                 (A) (A) (A) (A) (A) (A) (A) (A) (A) (A)
 The electronic state is 1-A.
 Alpha  occ. eigenvalues --  -19.90701 -15.14056 -10.77384 -10.73083 -10.72635
 Alpha  occ. eigenvalues --  -10.71305 -10.70975 -10.70646  -1.54409  -1.27640
 Alpha  occ. eigenvalues --   -1.11931  -1.02350  -1.01418  -0.96771  -0.92089
 Alpha  occ. eigenvalues --   -0.90645  -0.84599  -0.80725  -0.73550  -0.71474
 Alpha  occ. eigenvalues --   -0.68176  -0.67689  -0.65399  -0.63482  -0.60269
 Alpha  occ. eigenvalues --   -0.58430  -0.57080  -0.47686  -0.47264
 Alpha virt. eigenvalues --   -0.18540  -0.16573  -0.14645  -0.13577  -0.11416
 Alpha virt. eigenvalues --   -0.10289  -0.09181  -0.08088  -0.07587  -0.05625
 Alpha virt. eigenvalues --   -0.05010  -0.04322  -0.03915  -0.03518  -0.02055
 Alpha virt. eigenvalues --   -0.01375  -0.00891  -0.00691  -0.00067   0.00475
 Alpha virt. eigenvalues --    0.00983   0.01410   0.01583   0.02282   0.02791
 Alpha virt. eigenvalues --    0.03298   0.03898   0.04265   0.04778   0.06116
 Alpha virt. eigenvalues --    0.06427   0.06901   0.07422   0.07816   0.08124
 Alpha virt. eigenvalues --    0.08374   0.09321   0.09641   0.10145   0.11636
 Alpha virt. eigenvalues --    0.13324   0.13729   0.14735   0.15198   0.15931
 Alpha virt. eigenvalues --    0.16952   0.17691   0.18578   0.20058   0.20645
 Alpha virt. eigenvalues --    0.21688   0.23956   0.24649   0.26519   0.27812
 Alpha virt. eigenvalues --    0.30830   0.36844   0.37004   0.38264   0.40534
 Alpha virt. eigenvalues --    0.41354   0.42361   0.43564   0.44186   0.44938
 Alpha virt. eigenvalues --    0.45804   0.46283   0.47565   0.47987   0.50108
 Alpha virt. eigenvalues --    0.50367   0.50940   0.56267   0.57565   0.59886
 Alpha virt. eigenvalues --    0.60141   0.62582   0.63026   0.64717   0.67456
 Alpha virt. eigenvalues --    0.69682   0.71003   0.72239   0.74208   0.75801
 Alpha virt. eigenvalues --    0.76249   0.77315   0.78592   0.79231   0.79522
 Alpha virt. eigenvalues --    0.80921   0.89047   0.89616   0.90526   0.91051
 Alpha virt. eigenvalues --    0.92903   0.97015   1.01300   1.01975   1.02596
 Alpha virt. eigenvalues --    1.04879   1.14184   1.17870   1.24906   1.29021
 Alpha virt. eigenvalues --    1.29623   1.32412   1.35401   1.38381   1.40945
 Alpha virt. eigenvalues --    1.41860   1.42919   1.43584   1.46262   1.46541
 Alpha virt. eigenvalues --    1.50034   1.51710   1.53539   1.57071   1.60865
 Alpha virt. eigenvalues --    1.62122   1.63117   1.65087   1.67911   1.70612
 Alpha virt. eigenvalues --    1.74058   1.77917   1.79073   1.80124   1.81068
 Alpha virt. eigenvalues --    1.82077   1.84796   1.85951   1.86357   1.88225
 Alpha virt. eigenvalues --    1.92726   1.93479   1.93723   2.03222   2.09944
 Alpha virt. eigenvalues --    2.14274   2.16912   2.22181   2.27292   2.30719
 Alpha virt. eigenvalues --    2.31863   2.32850   2.34095   2.36088   2.46495
 Alpha virt. eigenvalues --    2.46805   2.49881   2.52482   2.55864   2.56911
 Alpha virt. eigenvalues --    2.59111   2.60969   2.61705   2.62978   2.67357
 Alpha virt. eigenvalues --    2.69365   2.70005   2.70706   2.74122   2.76978
 Alpha virt. eigenvalues --    2.79997   2.80806   2.81356   2.85900   2.95952
 Alpha virt. eigenvalues --    2.99566   3.03587   3.11224   3.17516   3.19996
 Alpha virt. eigenvalues --    3.22063   3.29440   3.34366   3.38470   3.41376
 Alpha virt. eigenvalues --    3.46705   3.68196   3.75936   3.86584   3.93080
 Alpha virt. eigenvalues --    4.01489   4.02738   4.35237   4.56509   4.66351
 Alpha virt. eigenvalues --    4.74579   4.95987   5.34660   5.86908  23.54892
 Alpha virt. eigenvalues --   23.84854  23.85694  23.93920  23.95984  24.04919
 Alpha virt. eigenvalues --   35.42793  49.80664
          Condensed to atoms (all electrons):
               1          2          3          4          5          6
     1  O    7.679709   0.061481   0.129127  -0.513572   0.019022  -0.009294
     2  N    0.061481   7.262009  -0.786211  -0.240145   0.116409  -0.044885
     3  C    0.129127  -0.786211  10.608045   0.429313  -0.737205   0.288480
     4  C   -0.513572  -0.240145   0.429313  11.155244  -0.526248  -0.251688
     5  C    0.019022   0.116409  -0.737205  -0.526248   5.772358   0.290645
     6  C   -0.009294  -0.044885   0.288480  -0.251688   0.290645   5.779256
     7  C   -0.019566  -0.082110  -0.254470   0.935921  -0.289761   0.434123
     8  C    0.388815   0.233681  -2.565246  -5.480771   1.091544  -0.508032
     9  H    0.259930   0.020645  -0.008334   0.123716  -0.004123   0.003174
    10  H   -0.021852   0.332360  -0.111492  -0.035462   0.019697   0.004353
    11  H   -0.001122  -0.024301  -0.101228   0.626589  -0.093823   0.013587
    12  H    0.001729  -0.000899   0.033713  -0.112959   0.395654  -0.045725
    13  H    0.000375   0.000548   0.027602  -0.019609  -0.046745   0.426064
    14  H   -0.000271  -0.001799   0.031942   0.050688  -0.015787  -0.010638
    15  H    0.005755   0.003218  -0.190499  -0.106696   0.025996  -0.006126
    16  H   -0.005373   0.341702  -0.129616  -0.244936  -0.000719  -0.005702
               7          8          9         10         11         12
     1  O   -0.019566   0.388815   0.259930  -0.021852  -0.001122   0.001729
     2  N   -0.082110   0.233681   0.020645   0.332360  -0.024301  -0.000899
     3  C   -0.254470  -2.565246  -0.008334  -0.111492  -0.101228   0.033713
     4  C    0.935921  -5.480771   0.123716  -0.035462   0.626589  -0.112959
     5  C   -0.289761   1.091544  -0.004123   0.019697  -0.093823   0.395654
     6  C    0.434123  -0.508032   0.003174   0.004353   0.013587  -0.045725
     7  C    5.698617  -0.559323  -0.002097  -0.007490   0.026883  -0.019204
     8  C   -0.559323  12.897023  -0.108215   0.075706  -0.132691   0.066171
     9  H   -0.002097  -0.108215   0.426648  -0.026726  -0.001786  -0.000334
    10  H   -0.007490   0.075706  -0.026726   0.443870   0.000301   0.000102
    11  H    0.026883  -0.132691  -0.001786   0.000301   0.453228  -0.009628
    12  H   -0.019204   0.066171  -0.000334   0.000102  -0.009628   0.425482
    13  H   -0.055505   0.003399   0.000042   0.000209   0.000364  -0.004489
    14  H    0.413895  -0.146200  -0.000038  -0.000504   0.000993  -0.000643
    15  H   -0.071082   0.643994   0.000210   0.007096  -0.002033   0.001435
    16  H   -0.014752   0.277614  -0.002095  -0.043547  -0.004908   0.000777
              13         14         15         16
     1  O    0.000375  -0.000271   0.005755  -0.005373
     2  N    0.000548  -0.001799   0.003218   0.341702
     3  C    0.027602   0.031942  -0.190499  -0.129616
     4  C   -0.019609   0.050688  -0.106696  -0.244936
     5  C   -0.046745  -0.015787   0.025996  -0.000719
     6  C    0.426064  -0.010638  -0.006126  -0.005702
     7  C   -0.055505   0.413895  -0.071082  -0.014752
     8  C    0.003399  -0.146200   0.643994   0.277614
     9  H    0.000042  -0.000038   0.000210  -0.002095
    10  H    0.000209  -0.000504   0.007096  -0.043547
    11  H    0.000364   0.000993  -0.002033  -0.004908
    12  H   -0.004489  -0.000643   0.001435   0.000777
    13  H    0.435163  -0.003979   0.000029   0.000403
    14  H   -0.003979   0.425877  -0.008828   0.000043
    15  H    0.000029  -0.008828   0.485642   0.006460
    16  H    0.000403   0.000043   0.006460   0.426643
 Mulliken charges:
               1
     1  O    0.025105
     2  N   -0.191705
     3  C   -0.663920
     4  C    0.210613
     5  C   -0.016915
     6  C   -0.357593
     7  C   -0.134080
     8  C   -0.177469
     9  H    0.319382
    10  H    0.363379
    11  H    0.249575
    12  H    0.268817
    13  H    0.236128
    14  H    0.265248
    15  H    0.205427
    16  H    0.398006
 Sum of Mulliken charges =   1.00000
 Mulliken charges with hydrogens summed into heavy atoms:
               1
     1  O    0.344488
     2  N    0.569679
     3  C   -0.663920
     4  C    0.460189
     5  C    0.251903
     6  C   -0.121464
     7  C    0.131168
     8  C    0.027957
 Electronic spatial extent (au):  <R**2>=            965.1306
 Charge=              1.0000 electrons
 Dipole moment (field-independent basis, Debye):
    X=             -4.8867    Y=             -2.4688    Z=              1.3017  Tot=              5.6276
 Quadrupole moment (field-independent basis, Debye-Ang):
   XX=            -16.7146   YY=            -34.6297   ZZ=            -45.5090
   XY=              5.6861   XZ=             -4.6758   YZ=              0.7248
 Traceless Quadrupole moment (field-independent basis, Debye-Ang):
   XX=             15.5698   YY=             -2.3452   ZZ=            -13.2246
   XY=              5.6861   XZ=             -4.6758   YZ=              0.7248
 Octapole moment (field-independent basis, Debye-Ang**2):
  XXX=            -39.5287  YYY=             -1.9448  ZZZ=              1.2744  XYY=             -3.6074
  XXY=             -9.4216  XXZ=             19.6410  XZZ=            -22.1366  YZZ=             -2.3000
  YYZ=              0.0073  XYZ=             -2.9143
 Hexadecapole moment (field-independent basis, Debye-Ang**3):
 XXXX=           -604.8213 YYYY=           -265.2856 ZZZZ=            -54.2556 XXXY=             13.8073
 XXXZ=            -58.8117 YYYX=              8.3642 YYYZ=             -0.6931 ZZZX=             -6.4120
 ZZZY=              2.2674 XXYY=           -155.9637 XXZZ=           -131.7961 YYZZ=            -66.0561
 XXYZ=              8.7496 YYXZ=             -1.5081 ZZXY=              3.5633
 N-N= 3.587301588289D+02 E-N=-1.551976724149D+03  KE= 3.619273915090D+02
 No NMR shielding tensors so no spin-rotation constants.
 Leave Link  601 at Sun Oct 13 19:35:40 2019, MaxMem= 10737418240 cpu:               2.5 elap:               0.1
 (Enter /apps/cent7/gaussian/g16-A.03/g16-haswell/g16/l701.exe)
 ... and contract with generalized density number  0.
 Compute integral first derivatives.
 Leave Link  701 at Sun Oct 13 19:35:40 2019, MaxMem= 10737418240 cpu:               2.8 elap:               0.1
 (Enter /apps/cent7/gaussian/g16-A.03/g16-haswell/g16/l702.exe)
 L702 exits ... SP integral derivatives will be done elsewhere.
 Leave Link  702 at Sun Oct 13 19:35:40 2019, MaxMem= 10737418240 cpu:               0.4 elap:               0.0
 (Enter /apps/cent7/gaussian/g16-A.03/g16-haswell/g16/l703.exe)
 Integral derivatives from FoFJK, PRISM(SPDF).
 Compute integral first derivatives, UseDBF=F ICtDFT=           0.
 Calling FoFJK, ICntrl=      2127 FMM=F ISym2X=0 I1Cent= 0 IOpClX= 0 NMat=1 NMatS=1 NMatT=0.
 FoFJK:  IHMeth= 1 ICntrl=    2127 DoSepK=F KAlg= 0 I1Cent=           0 FoldK=F
 IRaf=         0 NMat=       1 IRICut=       1 DoRegI=T DoRafI=F ISym2E= 0 IDoP0=0 IntGTp=1.
 FoFCou: FMM=F IPFlag=           0 FMFlag=      100000 FMFlg1=         800
         NFxFlg=           0 DoJE=F BraDBF=F KetDBF=F FulRan=T
         wScrn=  0.000000 ICntrl=      2127 IOpCl=  0 I1Cent=           0 NGrid=           0
         NMat0=    1 NMatS0=      1 NMatT0=    0 NMatD0=    1 NMtDS0=    0 NMtDT0=    0
 Symmetry not used in FoFCou.
 Leave Link  703 at Sun Oct 13 19:35:42 2019, MaxMem= 10737418240 cpu:              37.7 elap:               1.6
 (Enter /apps/cent7/gaussian/g16-A.03/g16-haswell/g16/l716.exe)
 Dipole        =-1.92259380D+00-9.71301855D-01 5.12132667D-01
 ***** Axes restored to original set *****
 -------------------------------------------------------------------
 Center     Atomic                   Forces (Hartrees/Bohr)
 Number     Number              X              Y              Z
 -------------------------------------------------------------------
      1        8           0.075353529    0.000071664   -0.044180603
      2        7          -0.028885125    0.064961896    0.038169261
      3        6          -0.040181167   -0.137828026   -0.015493239
      4        6          -0.001097858    0.008973108    0.003261502
      5        6          -0.008796373    0.010626753    0.008343521
      6        6           0.006271086    0.008191989   -0.001669075
      7        6           0.011845957    0.003520489   -0.006035301
      8        6           0.003583298   -0.003044939   -0.002357822
      9        1           0.007679723   -0.002130452    0.002925245
     10        1          -0.012918498    0.011714961    0.025314758
     11        1          -0.003329276    0.000630932    0.002582601
     12        1          -0.000746342    0.005273515    0.002698164
     13        1           0.001665105    0.004803136   -0.000691806
     14        1           0.005161495    0.002215070   -0.001699218
     15        1          -0.000224047   -0.001863299    0.000327727
     16        1          -0.015381507    0.023883204   -0.011495715
 -------------------------------------------------------------------
 Cartesian Forces:  Max     0.137828026 RMS     0.028042080
 Leave Link  716 at Sun Oct 13 19:35:42 2019, MaxMem= 10737418240 cpu:               0.6 elap:               0.0
 (Enter /apps/cent7/gaussian/g16-A.03/g16-haswell/g16/l103.exe)

 GradGradGradGradGradGradGradGradGradGradGradGradGradGradGradGradGradGrad
 Berny optimization.
 FormGI is forming the generalized inverse of G from B-inverse, IUseBI=4.
 GSVD:  received Info=                   1 from GESDD.
 Internal  Forces:  Max     0.100571513 RMS     0.018537116
 Search for a local minimum.
 Step number   1 out of a maximum of   84
 All quantities printed in internal units (Hartrees-Bohrs-Radians)
 RMS Force = .18537D-01 SwitMx=.10000D-02 MixMth= 1
 Mixed Optimization -- RFO/linear search
 Second derivative matrix not updated -- first step.
 ITU=  0
     Eigenvalues ---    0.01919   0.01942   0.01976   0.01987   0.01997
     Eigenvalues ---    0.02004   0.02004   0.02006   0.02062   0.02264
     Eigenvalues ---    0.02566   0.05823   0.08172   0.13217   0.14893
     Eigenvalues ---    0.16000   0.16000   0.16000   0.16000   0.16000
     Eigenvalues ---    0.16000   0.21997   0.21998   0.22270   0.23473
     Eigenvalues ---    0.25000   0.34808   0.34808   0.34813   0.34818
     Eigenvalues ---    0.34819   0.40229   0.40487   0.43657   0.44204
     Eigenvalues ---    0.44490   0.44580   0.47688   0.47688   0.53609
     Eigenvalues ---    0.55478   0.66113
 RFO step:  Lambda=-4.92950673D-02 EMin= 1.91921169D-02
 Linear search not attempted -- first point.
 Maximum step size (   0.300) exceeded in Quadratic search.
    -- Step size scaled by   0.914
 Iteration  1 RMS(Cart)=  0.07406825 RMS(Int)=  0.00336073
 Iteration  2 RMS(Cart)=  0.00607592 RMS(Int)=  0.00049857
 Iteration  3 RMS(Cart)=  0.00003601 RMS(Int)=  0.00049823
 Iteration  4 RMS(Cart)=  0.00000002 RMS(Int)=  0.00049823
 ITry= 1 IFail=0 DXMaxC= 2.94D-01 DCOld= 1.00D+10 DXMaxT= 3.00D-01 DXLimC= 3.00D+00 Rises=F
 Variable       Old X    -DE/DX   Delta X   Delta X   Delta X     New X
                                 (Linear)    (Quad)   (Total)
    R1        2.46408   0.08981   0.00000   0.11558   0.11558   2.57966
    R2        1.81410   0.00670   0.00000   0.01014   0.01014   1.82423
    R3        2.56389   0.10057   0.00000   0.15707   0.15707   2.72096
    R4        1.88973   0.02768   0.00000   0.04809   0.04809   1.93782
    R5        1.88973   0.02995   0.00000   0.05203   0.05203   1.94176
    R6        2.67491  -0.02623   0.00000  -0.05015  -0.05009   2.62482
    R7        2.66556  -0.01708   0.00000  -0.03209  -0.03201   2.63355
    R8        2.65952  -0.01760   0.00000  -0.03275  -0.03277   2.62675
    R9        2.05988  -0.00406   0.00000  -0.00934  -0.00934   2.05054
   R10        2.65799  -0.01516   0.00000  -0.02788  -0.02796   2.63002
   R11        2.05988  -0.00567   0.00000  -0.01305  -0.01305   2.04683
   R12        2.65750  -0.01304   0.00000  -0.02382  -0.02388   2.63362
   R13        2.05971  -0.00505   0.00000  -0.01162  -0.01162   2.04809
   R14        2.65752  -0.02026   0.00000  -0.03726  -0.03725   2.62027
   R15        2.05980  -0.00559   0.00000  -0.01286  -0.01286   2.04694
   R16        2.05970  -0.00119   0.00000  -0.00275  -0.00275   2.05695
    A1        1.91059   0.00666   0.00000   0.02908   0.02908   1.93968
    A2        2.15804  -0.04282   0.00000  -0.14302  -0.14208   2.01596
    A3        1.85558   0.02100   0.00000   0.08718   0.08834   1.94392
    A4        1.85558   0.00730   0.00000   0.01013   0.00984   1.86541
    A5        1.85558   0.00824   0.00000   0.02863   0.03029   1.88586
    A6        1.85558   0.01668   0.00000   0.05552   0.05433   1.90991
    A7        1.86709  -0.00811   0.00000  -0.03179  -0.03308   1.83402
    A8        2.15457  -0.01111   0.00000  -0.03397  -0.03404   2.12053
    A9        2.05287  -0.00185   0.00000  -0.00568  -0.00575   2.04711
   A10        2.07575   0.01297   0.00000   0.03965   0.03979   2.11554
   A11        2.10321  -0.00735   0.00000  -0.02493  -0.02489   2.07832
   A12        2.09493   0.00240   0.00000   0.00690   0.00688   2.10180
   A13        2.08505   0.00495   0.00000   0.01803   0.01801   2.10306
   A14        2.09252   0.00132   0.00000   0.00523   0.00513   2.09765
   A15        2.09585  -0.00250   0.00000  -0.01067  -0.01062   2.08523
   A16        2.09481   0.00118   0.00000   0.00543   0.00548   2.10030
   A17        2.09549   0.00046   0.00000   0.00307   0.00292   2.09841
   A18        2.09396  -0.00004   0.00000  -0.00069  -0.00061   2.09335
   A19        2.09373  -0.00042   0.00000  -0.00238  -0.00230   2.09143
   A20        2.09300  -0.00023   0.00000   0.00074   0.00069   2.09369
   A21        2.09509   0.00191   0.00000   0.00744   0.00747   2.10255
   A22        2.09510  -0.00167   0.00000  -0.00818  -0.00816   2.08694
   A23        2.10577  -0.00713   0.00000  -0.02341  -0.02332   2.08245
   A24        2.09138   0.00496   0.00000   0.01779   0.01775   2.10913
   A25        2.08604   0.00217   0.00000   0.00561   0.00557   2.09161
    D1       -1.87876   0.00164   0.00000   0.01323   0.01556  -1.86320
    D2        0.27020   0.00059   0.00000   0.02813   0.02634   0.29654
    D3        2.25546   0.00409   0.00000   0.03572   0.03519   2.29065
    D4       -0.11477   0.00347   0.00000   0.02433   0.02457  -0.09020
    D5        3.02623   0.00390   0.00000   0.02955   0.02965   3.05588
    D6       -2.26374  -0.00120   0.00000  -0.01684  -0.01636  -2.28009
    D7        0.87726  -0.00077   0.00000  -0.01163  -0.01128   0.86599
    D8        2.03419  -0.00317   0.00000  -0.01853  -0.01904   2.01515
    D9       -1.10799  -0.00274   0.00000  -0.01331  -0.01397  -1.12196
   D10        3.11633   0.00092   0.00000   0.01217   0.01216   3.12849
   D11       -0.02518   0.00073   0.00000   0.00989   0.00993  -0.01525
   D12       -0.02467   0.00049   0.00000   0.00690   0.00690  -0.01776
   D13        3.11701   0.00030   0.00000   0.00463   0.00467   3.12168
   D14       -3.11358  -0.00103   0.00000  -0.01378  -0.01386  -3.12744
   D15        0.02805  -0.00077   0.00000  -0.01059  -0.01069   0.01736
   D16        0.02745  -0.00063   0.00000  -0.00883  -0.00882   0.01862
   D17       -3.11411  -0.00036   0.00000  -0.00564  -0.00565  -3.11976
   D18       -0.00324   0.00002   0.00000   0.00111   0.00119  -0.00205
   D19        3.13837  -0.00007   0.00000  -0.00046  -0.00041   3.13796
   D20        3.13827   0.00021   0.00000   0.00337   0.00342  -3.14149
   D21       -0.00330   0.00012   0.00000   0.00180   0.00183  -0.00148
   D22        0.02880  -0.00063   0.00000  -0.00803  -0.00800   0.02080
   D23       -3.11272  -0.00045   0.00000  -0.00633  -0.00636  -3.11908
   D24       -3.11281  -0.00054   0.00000  -0.00646  -0.00639  -3.11920
   D25        0.02886  -0.00036   0.00000  -0.00476  -0.00476   0.02411
   D26       -0.02609   0.00053   0.00000   0.00623   0.00616  -0.01992
   D27        3.11542   0.00058   0.00000   0.00664   0.00654   3.12196
   D28        3.11543   0.00035   0.00000   0.00453   0.00453   3.11996
   D29       -0.02625   0.00040   0.00000   0.00494   0.00490  -0.02135
   D30       -0.00230   0.00029   0.00000   0.00280   0.00268   0.00038
   D31        3.13926   0.00003   0.00000  -0.00038  -0.00046   3.13880
   D32        3.13938   0.00024   0.00000   0.00240   0.00231  -3.14149
   D33       -0.00225  -0.00002   0.00000  -0.00079  -0.00083  -0.00308
         Item               Value     Threshold  Converged?
 Maximum Force            0.100572     0.000450     NO 
 RMS     Force            0.018537     0.000300     NO 
 Maximum Displacement     0.293587     0.001800     NO 
 RMS     Displacement     0.076136     0.001200     NO 
 Predicted change in Energy=-2.682864D-02
 Lowest energy point so far.  Saving SCF results.
 GradGradGradGradGradGradGradGradGradGradGradGradGradGradGradGradGradGrad

 Leave Link  103 at Sun Oct 13 19:35:42 2019, MaxMem= 10737418240 cpu:               1.4 elap:               0.1
 (Enter /apps/cent7/gaussian/g16-A.03/g16-haswell/g16/l202.exe)
                          Input orientation:                          
 ---------------------------------------------------------------------
 Center     Atomic      Atomic             Coordinates (Angstroms)
 Number     Number       Type             X           Y           Z
 ---------------------------------------------------------------------
      1          8           0        1.447779    0.168078   -0.206527
      2          7           0        0.191372    0.067064    0.317612
      3          6           0       -0.408687   -1.239639    0.242200
      4          6           0        0.215562   -2.287611   -0.422162
      5          6           0       -0.401652   -3.532762   -0.450420
      6          6           0       -1.626924   -3.720974    0.182232
      7          6           0       -2.254641   -2.656614    0.826728
      8          6           0       -1.646582   -1.410882    0.859015
      9          1           0        2.110583    0.246741    0.490889
     10          1           0        0.169294    0.370843    1.296784
     11          1           0        1.170815   -2.135227   -0.913802
     12          1           0        0.077827   -4.353614   -0.969544
     13          1           0       -2.094588   -4.698662    0.175579
     14          1           0       -3.216854   -2.794373    1.304725
     15          1           0       -2.139795   -0.580286    1.360678
     16          1           0       -0.396953    0.742905   -0.185316
 ---------------------------------------------------------------------
                    Distance matrix (angstroms):
                    1          2          3          4          5
     1  O    0.000000
     2  N    1.365096   0.000000
     3  C    2.372655   1.439871   0.000000
     4  C    2.755951   2.468268   1.388996   0.000000
     5  C    4.144405   3.728310   2.395451   1.390019   0.000000
     6  C    4.972893   4.204017   2.764909   2.411344   1.391749
     7  C    4.770159   3.696025   2.399383   2.792453   2.415018
     8  C    3.633671   2.419817   1.393617   2.424386   2.786906
     9  H    0.965342   1.935376   2.935624   3.293585   4.634870
    10  H    1.983830   1.025449   2.009940   3.166116   4.314723
    11  H    2.425317   2.706618   2.152498   1.085099   2.154177
    12  H    4.785882   4.605655   3.376664   2.141721   1.083138
    13  H    6.031545   5.287526   3.848577   3.392235   2.148775
    14  H    5.728770   4.558313   3.381118   3.875619   3.398693
    15  H    3.985834   2.634651   2.163902   3.411918   3.875349
    16  H    1.932334   1.027533   2.028149   3.100854   4.283880
                    6          7          8          9         10
     6  C    0.000000
     7  C    1.393652   0.000000
     8  C    2.407270   1.386588   0.000000
     9  H    5.459578   5.253327   4.123048   0.000000
    10  H    4.605605   3.906650   2.581394   2.105581   0.000000
    11  H    3.397533   3.877504   3.406653   2.920632   3.488571
    12  H    2.152440   3.398059   3.869998   5.237196   5.240716
    13  H    1.083802   2.149319   3.387815   6.499222   5.664110
    14  H    2.155564   1.083196   2.139733   6.188076   4.635155
    15  H    3.393478   2.146959   1.088492   4.416585   2.498124
    16  H    4.644797   4.003994   2.700185   2.644082   1.629627
                   11         12         13         14         15
    11  H    0.000000
    12  H    2.473655   0.000000
    13  H    4.291947   2.479869   0.000000
    14  H    4.960643   4.296330   2.482090   0.000000
    15  H    4.307115   4.958405   4.285735   2.462797   0.000000
    16  H    3.357415   5.178314   5.711643   4.762814   2.679259
                   16
    16  H    0.000000
 Stoichiometry    C6H8NO(1+)
 Framework group  C1[X(C6H8NO)]
 Deg. of freedom    42
 Full point group                 C1      NOp   1
 RotChk:  IX=0 Diff= 3.11D-02
 Largest Abelian subgroup         C1      NOp   1
 Largest concise Abelian subgroup C1      NOp   1
                         Standard orientation:                         
 ---------------------------------------------------------------------
 Center     Atomic      Atomic             Coordinates (Angstroms)
 Number     Number       Type             X           Y           Z
 ---------------------------------------------------------------------
      1          8           0       -2.666530    0.493424    0.005499
      2          7           0       -1.809339   -0.566660   -0.064719
      3          6           0       -0.408620   -0.234062   -0.040303
      4          6           0        0.024300    1.085630   -0.057670
      5          6           0        1.388385    1.349732   -0.016743
      6          6           0        2.302535    0.302021    0.043233
      7          6           0        1.857516   -1.018658    0.037622
      8          6           0        0.498633   -1.291295   -0.003989
      9          1           0       -3.088322    0.543162    0.872392
     10          1           0       -1.988557   -1.242610    0.685292
     11          1           0       -0.692836    1.898622   -0.104578
     12          1           0        1.733199    2.376384   -0.033399
     13          1           0        3.364302    0.512925    0.096111
     14          1           0        2.566373   -1.837216    0.065851
     15          1           0        0.153290   -2.323528   -0.010934
     16          1           0       -2.026330   -1.068719   -0.934591
 ---------------------------------------------------------------------
 Rotational constants (GHZ):           4.9399059           1.5114548           1.1696411
 Leave Link  202 at Sun Oct 13 19:35:42 2019, MaxMem= 10737418240 cpu:               0.3 elap:               0.0
 (Enter /apps/cent7/gaussian/g16-A.03/g16-haswell/g16/l301.exe)
 Standard basis: 6-311++G(d,p) (5D, 7F)
 Ernie: Thresh=  0.10000D-02 Tol=  0.10000D-05 Strict=F.
 There are   240 symmetry adapted cartesian basis functions of A   symmetry.
 There are   232 symmetry adapted basis functions of A   symmetry.
   232 basis functions,   360 primitive gaussians,   240 cartesian basis functions
    29 alpha electrons       29 beta electrons
       nuclear repulsion energy       358.1382552704 Hartrees.
 IExCor= 4336 DFT=T Ex+Corr=M062X ExCW=0 ScaHFX=  0.540000
 ScaDFX=  1.000000  1.000000  1.000000  1.000000 ScalE2=  1.000000  1.000000
 IRadAn=      5 IRanWt=     -1 IRanGd=            0 ICorTp=0 IEmpDi=  4
 NAtoms=   16 NActive=   16 NUniq=   16 SFac= 1.00D+00 NAtFMM=   60 NAOKFM=F Big=F
 Integral buffers will be    131072 words long.
 Raffenetti 2 integral format.
 Two-electron integral symmetry is turned on.
 Leave Link  301 at Sun Oct 13 19:35:42 2019, MaxMem= 10737418240 cpu:               1.3 elap:               0.1
 (Enter /apps/cent7/gaussian/g16-A.03/g16-haswell/g16/l302.exe)
 NPDir=0 NMtPBC=     1 NCelOv=     1 NCel=       1 NClECP=     1 NCelD=      1
         NCelK=      1 NCelE2=     1 NClLst=     1 CellRange=     0.0.
 One-electron integrals computed using PRISM.
 One-electron integral symmetry used in STVInt
 NBasis=   232 RedAO= T EigKep=  3.87D-06  NBF=   232
 NBsUse=   231 1.00D-06 EigRej=  8.49D-07 NBFU=   231
 Precomputing XC quadrature grid using
 IXCGrd= 4 IRadAn=           5 IRanWt=          -1 IRanGd=           0 AccXCQ= 0.00D+00.
 Generated NRdTot=       0 NPtTot=           0 NUsed=           0 NTot=          32
 NSgBfM=   240   240   240   240   240 MxSgAt=    16 MxSgA2=    16.
 Leave Link  302 at Sun Oct 13 19:35:42 2019, MaxMem= 10737418240 cpu:               3.7 elap:               0.2
 (Enter /apps/cent7/gaussian/g16-A.03/g16-haswell/g16/l303.exe)
 DipDrv:  MaxL=1.
 Leave Link  303 at Sun Oct 13 19:35:43 2019, MaxMem= 10737418240 cpu:               1.4 elap:               0.1
 (Enter /apps/cent7/gaussian/g16-A.03/g16-haswell/g16/l401.exe)
 Initial guess from the checkpoint file:  "10_p.chk"
 B after Tr=     0.000000    0.000000    0.000000
         Rot=    0.999960    0.004531   -0.000537   -0.007650 Ang=   1.02 deg.
 Guess basis will be translated and rotated to current coordinates.
 JPrj=2 DoOrth=T DoCkMO=T.
 Generating alternative initial guess.
 ExpMin= 3.60D-02 ExpMax= 8.59D+03 ExpMxC= 1.30D+03 IAcc=3 IRadAn=         5 AccDes= 0.00D+00
 Harris functional with IExCor= 1009 and IRadAn=       5 diagonalized for initial guess.
 HarFok:  IExCor= 1009 AccDes= 0.00D+00 IRadAn=         5 IDoV= 1 UseB2=F ITyADJ=14
 ICtDFT=  3500011 ScaDFX=  1.000000  1.000000  1.000000  1.000000
 FoFCou: FMM=F IPFlag=           0 FMFlag=      100000 FMFlg1=           0
         NFxFlg=           0 DoJE=T BraDBF=F KetDBF=T FulRan=T
         wScrn=  0.000000 ICntrl=       500 IOpCl=  0 I1Cent=   200000004 NGrid=           0
         NMat0=    1 NMatS0=      1 NMatT0=    0 NMatD0=    1 NMtDS0=    0 NMtDT0=    0
 Petite list used in FoFCou.
 Harris En= -362.940690305496    
 Leave Link  401 at Sun Oct 13 19:35:43 2019, MaxMem= 10737418240 cpu:              10.3 elap:               0.5
 (Enter /apps/cent7/gaussian/g16-A.03/g16-haswell/g16/l502.exe)
 Integral symmetry usage will be decided dynamically.
 Closed shell SCF:
 Using DIIS extrapolation, IDIIS=  1040.
 NGot= 10737418240 LenX= 10737294852 LenY= 10737236811
 Requested convergence on RMS density matrix=1.00D-08 within 128 cycles.
 Requested convergence on MAX density matrix=1.00D-06.
 Requested convergence on             energy=1.00D-06.
 No special actions if energy rises.
 Fock matrices will be formed incrementally for  20 cycles.

 Cycle   1  Pass 1  IDiag  1:
 FoFJK:  IHMeth= 1 ICntrl=       0 DoSepK=F KAlg= 0 I1Cent=           0 FoldK=F
 IRaf= 970000000 NMat=       1 IRICut=       1 DoRegI=T DoRafI=F ISym2E= 0 IDoP0=0 IntGTp=1.
 FoFCou: FMM=F IPFlag=           0 FMFlag=      100000 FMFlg1=           0
         NFxFlg=           0 DoJE=F BraDBF=F KetDBF=F FulRan=T
         wScrn=  0.000000 ICntrl=         0 IOpCl=  0 I1Cent=           0 NGrid=           0
         NMat0=    1 NMatS0=      1 NMatT0=    0 NMatD0=    1 NMtDS0=    0 NMtDT0=    0
 Symmetry not used in FoFCou.
 E= -363.021166821207    
 DIIS: error= 4.81D-03 at cycle   1 NSaved=   1.
 NSaved= 1 IEnMin= 1 EnMin= -363.021166821207     IErMin= 1 ErrMin= 4.81D-03
 ErrMax= 4.81D-03  0.00D+00 EMaxC= 1.00D-01 BMatC= 1.51D-02 BMatP= 1.51D-02
 IDIUse=3 WtCom= 9.52D-01 WtEn= 4.81D-02
 Coeff-Com:  0.100D+01
 Coeff-En:   0.100D+01
 Coeff:      0.100D+01
 Gap=     0.451 Goal=   None    Shift=    0.000
 GapD=    0.451 DampG=2.000 DampE=1.000 DampFc=2.0000 IDamp=-1.
 RMSDP=7.53D-03 MaxDP=2.90D-01              OVMax= 3.71D-02

 Cycle   2  Pass 1  IDiag  1:
 RMSU=  7.44D-03    CP:  9.74D-01
 E= -363.039890407176     Delta-E=       -0.018723585969 Rises=F Damp=F
 DIIS: error= 1.41D-03 at cycle   2 NSaved=   2.
 NSaved= 2 IEnMin= 2 EnMin= -363.039890407176     IErMin= 2 ErrMin= 1.41D-03
 ErrMax= 1.41D-03  0.00D+00 EMaxC= 1.00D-01 BMatC= 1.00D-03 BMatP= 1.51D-02
 IDIUse=3 WtCom= 9.86D-01 WtEn= 1.41D-02
 Coeff-Com:  0.288D-02 0.997D+00
 Coeff-En:   0.000D+00 0.100D+01
 Coeff:      0.284D-02 0.997D+00
 Gap=     0.290 Goal=   None    Shift=    0.000
 RMSDP=8.93D-04 MaxDP=3.03D-02 DE=-1.87D-02 OVMax= 1.16D-02

 Cycle   3  Pass 1  IDiag  1:
 RMSU=  7.36D-04    CP:  9.77D-01  1.06D+00
 E= -363.040477499696     Delta-E=       -0.000587092520 Rises=F Damp=F
 DIIS: error= 1.51D-03 at cycle   3 NSaved=   3.
 NSaved= 3 IEnMin= 3 EnMin= -363.040477499696     IErMin= 2 ErrMin= 1.41D-03
 ErrMax= 1.51D-03  0.00D+00 EMaxC= 1.00D-01 BMatC= 9.29D-04 BMatP= 1.00D-03
 IDIUse=3 WtCom= 9.85D-01 WtEn= 1.51D-02
 Coeff-Com: -0.678D-01 0.519D+00 0.549D+00
 Coeff-En:   0.000D+00 0.266D+00 0.734D+00
 Coeff:     -0.668D-01 0.515D+00 0.551D+00
 Gap=     0.295 Goal=   None    Shift=    0.000
 RMSDP=8.18D-04 MaxDP=6.85D-02 DE=-5.87D-04 OVMax= 7.79D-03

 Cycle   4  Pass 1  IDiag  1:
 RMSU=  4.11D-04    CP:  9.61D-01  1.06D+00  9.38D-01
 E= -363.041281191938     Delta-E=       -0.000803692242 Rises=F Damp=F
 DIIS: error= 3.29D-04 at cycle   4 NSaved=   4.
 NSaved= 4 IEnMin= 4 EnMin= -363.041281191938     IErMin= 4 ErrMin= 3.29D-04
 ErrMax= 3.29D-04  0.00D+00 EMaxC= 1.00D-01 BMatC= 2.34D-05 BMatP= 9.29D-04
 IDIUse=3 WtCom= 9.97D-01 WtEn= 3.29D-03
 Coeff-Com: -0.161D-01 0.508D-01 0.134D+00 0.832D+00
 Coeff-En:   0.000D+00 0.000D+00 0.000D+00 0.100D+01
 Coeff:     -0.161D-01 0.507D-01 0.133D+00 0.832D+00
 Gap=     0.295 Goal=   None    Shift=    0.000
 RMSDP=1.07D-04 MaxDP=4.42D-03 DE=-8.04D-04 OVMax= 2.02D-03

 Cycle   5  Pass 1  IDiag  1:
 RMSU=  9.58D-05    CP:  9.61D-01  1.06D+00  9.62D-01  1.00D+00
 E= -363.041304167997     Delta-E=       -0.000022976059 Rises=F Damp=F
 DIIS: error= 2.88D-04 at cycle   5 NSaved=   5.
 NSaved= 5 IEnMin= 5 EnMin= -363.041304167997     IErMin= 5 ErrMin= 2.88D-04
 ErrMax= 2.88D-04  0.00D+00 EMaxC= 1.00D-01 BMatC= 9.69D-06 BMatP= 2.34D-05
 IDIUse=3 WtCom= 9.97D-01 WtEn= 2.88D-03
 Coeff-Com:  0.422D-02-0.691D-01-0.318D-01 0.436D+00 0.661D+00
 Coeff-En:   0.000D+00 0.000D+00 0.000D+00 0.000D+00 0.100D+01
 Coeff:      0.420D-02-0.689D-01-0.317D-01 0.434D+00 0.662D+00
 Gap=     0.295 Goal=   None    Shift=    0.000
 RMSDP=1.20D-04 MaxDP=1.04D-02 DE=-2.30D-05 OVMax= 1.12D-03

 Cycle   6  Pass 1  IDiag  1:
 RMSU=  5.06D-05    CP:  9.59D-01  1.06D+00  1.00D+00  1.10D+00  9.25D-01
 E= -363.041314243940     Delta-E=       -0.000010075943 Rises=F Damp=F
 DIIS: error= 6.06D-05 at cycle   6 NSaved=   6.
 NSaved= 6 IEnMin= 6 EnMin= -363.041314243940     IErMin= 6 ErrMin= 6.06D-05
 ErrMax= 6.06D-05  0.00D+00 EMaxC= 1.00D-01 BMatC= 3.74D-07 BMatP= 9.69D-06
 IDIUse=1 WtCom= 1.00D+00 WtEn= 0.00D+00
 Coeff-Com:  0.251D-02-0.230D-01-0.218D-01 0.392D-01 0.187D+00 0.816D+00
 Coeff:      0.251D-02-0.230D-01-0.218D-01 0.392D-01 0.187D+00 0.816D+00
 Gap=     0.295 Goal=   None    Shift=    0.000
 RMSDP=1.98D-05 MaxDP=1.11D-03 DE=-1.01D-05 OVMax= 3.33D-04

 Cycle   7  Pass 1  IDiag  1:
 RMSU=  1.01D-05    CP:  9.59D-01  1.06D+00  1.02D+00  1.12D+00  9.70D-01
                    CP:  1.03D+00
 E= -363.041314730933     Delta-E=       -0.000000486993 Rises=F Damp=F
 DIIS: error= 2.37D-05 at cycle   7 NSaved=   7.
 NSaved= 7 IEnMin= 7 EnMin= -363.041314730933     IErMin= 7 ErrMin= 2.37D-05
 ErrMax= 2.37D-05  0.00D+00 EMaxC= 1.00D-01 BMatC= 5.39D-08 BMatP= 3.74D-07
 IDIUse=1 WtCom= 1.00D+00 WtEn= 0.00D+00
 Coeff-Com:  0.375D-03 0.832D-04-0.419D-02-0.339D-01-0.106D-01 0.282D+00
 Coeff-Com:  0.766D+00
 Coeff:      0.375D-03 0.832D-04-0.419D-02-0.339D-01-0.106D-01 0.282D+00
 Coeff:      0.766D+00
 Gap=     0.295 Goal=   None    Shift=    0.000
 RMSDP=4.79D-06 MaxDP=1.30D-04 DE=-4.87D-07 OVMax= 1.17D-04

 Cycle   8  Pass 1  IDiag  1:
 RMSU=  3.37D-06    CP:  9.59D-01  1.06D+00  1.02D+00  1.13D+00  9.97D-01
                    CP:  1.05D+00  1.18D+00
 E= -363.041314794938     Delta-E=       -0.000000064006 Rises=F Damp=F
 DIIS: error= 8.18D-06 at cycle   8 NSaved=   8.
 NSaved= 8 IEnMin= 8 EnMin= -363.041314794938     IErMin= 8 ErrMin= 8.18D-06
 ErrMax= 8.18D-06  0.00D+00 EMaxC= 1.00D-01 BMatC= 1.08D-08 BMatP= 5.39D-08
 IDIUse=1 WtCom= 1.00D+00 WtEn= 0.00D+00
 Coeff-Com: -0.118D-03 0.268D-02 0.825D-03-0.182D-01-0.287D-01 0.105D-01
 Coeff-Com:  0.350D+00 0.683D+00
 Coeff:     -0.118D-03 0.268D-02 0.825D-03-0.182D-01-0.287D-01 0.105D-01
 Coeff:      0.350D+00 0.683D+00
 Gap=     0.295 Goal=   None    Shift=    0.000
 RMSDP=3.71D-06 MaxDP=2.96D-04 DE=-6.40D-08 OVMax= 3.91D-05

 Cycle   9  Pass 1  IDiag  1:
 RMSU=  9.83D-07    CP:  9.59D-01  1.06D+00  1.02D+00  1.13D+00  9.98D-01
                    CP:  1.09D+00  1.20D+00  7.90D-01
 E= -363.041314806117     Delta-E=       -0.000000011178 Rises=F Damp=F
 DIIS: error= 9.17D-07 at cycle   9 NSaved=   9.
 NSaved= 9 IEnMin= 9 EnMin= -363.041314806117     IErMin= 9 ErrMin= 9.17D-07
 ErrMax= 9.17D-07  0.00D+00 EMaxC= 1.00D-01 BMatC= 2.91D-10 BMatP= 1.08D-08
 IDIUse=1 WtCom= 1.00D+00 WtEn= 0.00D+00
 Coeff-Com: -0.556D-04 0.708D-03 0.546D-03-0.291D-02-0.745D-02-0.143D-01
 Coeff-Com:  0.372D-01 0.143D+00 0.843D+00
 Coeff:     -0.556D-04 0.708D-03 0.546D-03-0.291D-02-0.745D-02-0.143D-01
 Coeff:      0.372D-01 0.143D+00 0.843D+00
 Gap=     0.295 Goal=   None    Shift=    0.000
 RMSDP=6.96D-07 MaxDP=4.58D-05 DE=-1.12D-08 OVMax= 1.01D-05

 Cycle  10  Pass 1  IDiag  1:
 RMSU=  2.98D-07    CP:  9.59D-01  1.06D+00  1.02D+00  1.13D+00  9.99D-01
                    CP:  1.09D+00  1.21D+00  8.25D-01  9.58D-01
 E= -363.041314806452     Delta-E=       -0.000000000335 Rises=F Damp=F
 DIIS: error= 5.60D-07 at cycle  10 NSaved=  10.
 NSaved=10 IEnMin=10 EnMin= -363.041314806452     IErMin=10 ErrMin= 5.60D-07
 ErrMax= 5.60D-07  0.00D+00 EMaxC= 1.00D-01 BMatC= 8.80D-11 BMatP= 2.91D-10
 IDIUse=1 WtCom= 1.00D+00 WtEn= 0.00D+00
 Coeff-Com: -0.500D-05-0.761D-04 0.127D-03 0.121D-02 0.669D-03-0.749D-02
 Coeff-Com: -0.311D-01-0.280D-01 0.375D+00 0.690D+00
 Coeff:     -0.500D-05-0.761D-04 0.127D-03 0.121D-02 0.669D-03-0.749D-02
 Coeff:     -0.311D-01-0.280D-01 0.375D+00 0.690D+00
 Gap=     0.295 Goal=   None    Shift=    0.000
 RMSDP=1.65D-07 MaxDP=7.32D-06 DE=-3.35D-10 OVMax= 4.14D-06

 Cycle  11  Pass 1  IDiag  1:
 RMSU=  7.33D-08    CP:  9.59D-01  1.06D+00  1.02D+00  1.13D+00  9.99D-01
                    CP:  1.09D+00  1.21D+00  8.30D-01  1.05D+00  9.17D-01
 E= -363.041314806545     Delta-E=       -0.000000000093 Rises=F Damp=F
 DIIS: error= 3.64D-07 at cycle  11 NSaved=  11.
 NSaved=11 IEnMin=11 EnMin= -363.041314806545     IErMin=11 ErrMin= 3.64D-07
 ErrMax= 3.64D-07  0.00D+00 EMaxC= 1.00D-01 BMatC= 6.82D-12 BMatP= 8.80D-11
 IDIUse=1 WtCom= 1.00D+00 WtEn= 0.00D+00
 Coeff-Com:  0.253D-05-0.849D-04 0.455D-05 0.700D-03 0.895D-03-0.153D-02
 Coeff-Com: -0.152D-01-0.211D-01 0.695D-01 0.271D+00 0.696D+00
 Coeff:      0.253D-05-0.849D-04 0.455D-05 0.700D-03 0.895D-03-0.153D-02
 Coeff:     -0.152D-01-0.211D-01 0.695D-01 0.271D+00 0.696D+00
 Gap=     0.295 Goal=   None    Shift=    0.000
 RMSDP=4.60D-08 MaxDP=2.29D-06 DE=-9.28D-11 OVMax= 1.61D-06

 Cycle  12  Pass 1  IDiag  1:
 RMSU=  3.06D-08    CP:  9.59D-01  1.06D+00  1.02D+00  1.13D+00  9.99D-01
                    CP:  1.09D+00  1.21D+00  8.35D-01  1.06D+00  9.22D-01
                    CP:  1.00D+00
 E= -363.041314806550     Delta-E=       -0.000000000006 Rises=F Damp=F
 DIIS: error= 8.00D-08 at cycle  12 NSaved=  12.
 NSaved=12 IEnMin=12 EnMin= -363.041314806550     IErMin=12 ErrMin= 8.00D-08
 ErrMax= 8.00D-08  0.00D+00 EMaxC= 1.00D-01 BMatC= 1.07D-12 BMatP= 6.82D-12
 IDIUse=1 WtCom= 1.00D+00 WtEn= 0.00D+00
 Coeff-Com:  0.177D-05-0.244D-04-0.188D-04 0.114D-03 0.298D-03 0.610D-03
 Coeff-Com: -0.165D-02-0.397D-02-0.312D-01 0.100D-01 0.306D+00 0.720D+00
 Coeff:      0.177D-05-0.244D-04-0.188D-04 0.114D-03 0.298D-03 0.610D-03
 Coeff:     -0.165D-02-0.397D-02-0.312D-01 0.100D-01 0.306D+00 0.720D+00
 Gap=     0.295 Goal=   None    Shift=    0.000
 RMSDP=5.21D-08 MaxDP=4.32D-06 DE=-5.57D-12 OVMax= 5.15D-07

 Cycle  13  Pass 1  IDiag  1:
 RMSU=  1.08D-08    CP:  9.59D-01  1.06D+00  1.02D+00  1.13D+00  9.99D-01
                    CP:  1.09D+00  1.21D+00  8.34D-01  1.06D+00  9.60D-01
                    CP:  1.08D+00  8.14D-01
 E= -363.041314806557     Delta-E=       -0.000000000007 Rises=F Damp=F
 DIIS: error= 2.86D-08 at cycle  13 NSaved=  13.
 NSaved=13 IEnMin=13 EnMin= -363.041314806557     IErMin=13 ErrMin= 2.86D-08
 ErrMax= 2.86D-08  0.00D+00 EMaxC= 1.00D-01 BMatC= 6.19D-14 BMatP= 1.07D-12
 IDIUse=1 WtCom= 1.00D+00 WtEn= 0.00D+00
 Coeff-Com:  0.381D-06-0.100D-05-0.659D-05-0.239D-04 0.191D-04 0.300D-03
 Coeff-Com:  0.715D-03 0.645D-03-0.157D-01-0.201D-01 0.423D-01 0.234D+00
 Coeff-Com:  0.758D+00
 Coeff:      0.381D-06-0.100D-05-0.659D-05-0.239D-04 0.191D-04 0.300D-03
 Coeff:      0.715D-03 0.645D-03-0.157D-01-0.201D-01 0.423D-01 0.234D+00
 Coeff:      0.758D+00
 Gap=     0.295 Goal=   None    Shift=    0.000
 RMSDP=6.06D-09 MaxDP=3.56D-07 DE=-6.93D-12 OVMax= 1.51D-07

 SCF Done:  E(RM062X) =  -363.041314807     A.U. after   13 cycles
            NFock= 13  Conv=0.61D-08     -V/T= 2.0034
 KE= 3.617978563147D+02 PE=-1.551054218457D+03 EE= 4.680767920656D+02
 Leave Link  502 at Sun Oct 13 19:35:52 2019, MaxMem= 10737418240 cpu:             212.7 elap:               8.9
 (Enter /apps/cent7/gaussian/g16-A.03/g16-haswell/g16/l701.exe)
 ... and contract with generalized density number  0.
 Compute integral first derivatives.
 Leave Link  701 at Sun Oct 13 19:35:52 2019, MaxMem= 10737418240 cpu:               3.2 elap:               0.2
 (Enter /apps/cent7/gaussian/g16-A.03/g16-haswell/g16/l702.exe)
 L702 exits ... SP integral derivatives will be done elsewhere.
 Leave Link  702 at Sun Oct 13 19:35:52 2019, MaxMem= 10737418240 cpu:               0.4 elap:               0.0
 (Enter /apps/cent7/gaussian/g16-A.03/g16-haswell/g16/l703.exe)
 Integral derivatives from FoFJK, PRISM(SPDF).
 Compute integral first derivatives, UseDBF=F ICtDFT=           0.
 Calling FoFJK, ICntrl=      2127 FMM=F ISym2X=0 I1Cent= 0 IOpClX= 0 NMat=1 NMatS=1 NMatT=0.
 FoFJK:  IHMeth= 1 ICntrl=    2127 DoSepK=F KAlg= 0 I1Cent=           0 FoldK=F
 IRaf=         0 NMat=       1 IRICut=       1 DoRegI=T DoRafI=F ISym2E= 0 IDoP0=0 IntGTp=1.
 FoFCou: FMM=F IPFlag=           0 FMFlag=      100000 FMFlg1=         800
         NFxFlg=           0 DoJE=F BraDBF=F KetDBF=F FulRan=T
         wScrn=  0.000000 ICntrl=      2127 IOpCl=  0 I1Cent=           0 NGrid=           0
         NMat0=    1 NMatS0=      1 NMatT0=    0 NMatD0=    1 NMtDS0=    0 NMtDT0=    0
 Symmetry not used in FoFCou.
 Leave Link  703 at Sun Oct 13 19:35:54 2019, MaxMem= 10737418240 cpu:              37.2 elap:               1.6
 (Enter /apps/cent7/gaussian/g16-A.03/g16-haswell/g16/l716.exe)
 Dipole        =-1.99751439D+00-1.02269625D+00 5.15281404D-01
 ***** Axes restored to original set *****
[...]
     6         -2.56937116         -0.46087724         -7.11004917
     6         -3.67783968         -1.92264419         -5.22623732
     6         -2.74973800         -1.82051372         -2.77020651
     1          2.51807419         -2.93067981         -0.55382085
     1         -0.95470896         -0.89146930          1.54759772
     1          2.02333793          2.45440454         -3.68510908
     1          0.31665766          2.24833888         -8.05342484
     1         -3.30413637         -0.54691703         -9.01819527
     1         -5.26576780         -3.13710875         -5.65840451
     1         -3.60182762         -2.94412941         -1.28012672
     1          0.74990505          1.63788172          0.82072823

 Electric dipole moment (dipole orientation):
 (Debye = 10**-18 statcoulomb cm , SI units = C m)
                  (au)            (Debye)         (10**-30 SI)
   Tot        0.130898D+01      0.332710D+01      0.110980D+02
   x          0.000000D+00      0.000000D+00      0.000000D+00
   y          0.000000D+00      0.000000D+00      0.000000D+00
   z          0.130898D+01      0.332710D+01      0.110980D+02

 Dipole polarizability, Alpha (dipole orientation).
 (esu units = cm**3 , SI units = C**2 m**2 J**-1)
 Alpha(0;0):
               (au)            (10**-24 esu)      (10**-40 SI)
   iso        0.744616D+02      0.110341D+02      0.122771D+02
   aniso      0.414652D+02      0.614450D+01      0.683668D+01
   xx         0.721029D+02      0.106845D+02      0.118882D+02
   yx         0.141302D+02      0.209389D+01      0.232976D+01
   yy         0.618599D+02      0.916669D+01      0.101993D+02
   zx         0.115959D+02      0.171834D+01      0.191191D+01
   zy        -0.670080D+01     -0.992956D+00     -0.110481D+01
   zz         0.894220D+02      0.132510D+02      0.147437D+02

 ----------------------------------------------------------------------
 1\1\GINC-BROWN-A199\Freq\RM062X\6-311++G(d,p)\C6H8N1O1(1+)\FINEJ\13-Oc
 t-2019\0\\#P Geom=AllCheck Guess=TCheck SCRF=Check GenChk RM062X/6-311
 ++G(d,p) Freq\\Title Card Required\\1,1\O,1.4383648696,0.2094888147,0.
 716061075\N,0.1830408328,0.1337714227,0.086761307\C,-0.4378079004,-1.1
 972584885,0.1118479332\C,0.0832340215,-2.1799198075,-0.7188018614\C,-0
 .4817925528,-3.4458685478,-0.6506308916\C,-1.5327000336,-3.6962173133,
 0.2305848376\C,-2.0301006844,-2.6906783626,1.0537862782\C,-1.477769645
 8,-1.4156648614,1.0032165564\H,1.3904436411,-0.3950102948,1.4755445455
 \H,-0.439903286,0.8311419448,0.5139589945\H,0.9069349596,-1.9684184082
 ,-1.3924515656\H,-0.1043488284,-4.2350287569,-1.2881249711\H,-1.968878
 2731,-4.6865344369,0.273772659\H,-2.8483404719,-2.8933318273,1.7326329
 961\H,-1.8590156646,-0.620517184,1.6364665672\H,0.3751939965,0.4350337
 47,-0.8759551202\\Version=ES64L-G16RevA.03\State=1-A\HF=-363.0523205\R
 MSD=2.129e-09\RMSF=5.328e-05\ZeroPoint=0.1365657\Thermal=0.1365657\Dip
 ole=0.065515,1.3070377,0.0281767\DipoleDeriv=-0.3117677,-0.1233967,-0.
 0322315,-0.001207,-0.4559353,-0.0205261,-0.1899209,-0.1609595,-0.34266
 95,0.3218736,0.1065366,0.1335168,0.0479062,0.1462703,0.0210139,0.24456
 26,0.1164336,0.1268069,0.0293182,0.0854032,-0.1623155,0.0381949,0.1089
 362,0.0610454,-0.1373584,0.0842215,0.0251563,-0.0478756,-0.0172447,-0.
 0376397,0.1155715,-0.0346693,-0.0751438,0.0450979,0.0552141,-0.0620348
 ,-0.126269,-0.0772152,-0.0059234,-0.1181616,0.0113445,0.1312382,-0.008
 1116,0.1040706,-0.0321305,0.0160635,0.0647482,-0.0356312,0.0609032,0.1
 325994,0.0040427,-0.0427096,-0.0021265,-0.0125476,0.0373333,0.0330853,
 -0.1061096,0.0564585,-0.1578552,-0.0874158,-0.0908757,-0.0556078,-0.03
 42272,-0.0624621,0.0816235,0.0364144,-0.0585058,0.0149116,0.0627524,-0
 .0447338,-0.0762009,-0.0969723,0.298404,-0.0077756,0.0869556,-0.032200
 8,0.3375943,0.0254344,0.1249403,0.0887173,0.3725067,0.1423179,-0.02949
 31,-0.0242335,-0.0346996,0.3182575,0.0240093,-0.0309478,-0.0044151,0.1
 942992,0.0954035,-0.040198,0.0434361,-0.0378422,0.0786703,0.0151518,0.
 042105,0.0158626,0.12011,0.1040348,-0.0044097,0.0355697,-0.0052989,0.0
 758899,-0.0228599,0.0379757,-0.0221637,0.1037572,0.1080929,-0.0211156,
 0.0257848,-0.0235627,0.0613629,-0.0078078,0.0258879,-0.00667,0.1172185
 ,0.0953687,-0.0111135,0.0444195,-0.013248,0.0855863,-0.0136243,0.04280
 1,-0.0095588,0.1045095,0.1307046,-0.0056886,0.0247376,-0.0068271,0.010
 1721,-0.0445202,0.0209667,-0.0376126,0.1198736,0.1694594,-0.0337461,-0
 .0267503,0.0125194,0.2668646,-0.0727903,-0.0396794,-0.0892048,0.296344
 \Polar=71.9332992,13.090555,87.8777928,-13.9598836,7.3765245,63.573752
 8\Quadrupole=-4.5895349,7.4832363,-2.8937015,2.8204203,-3.1991545,0.89
 33056\PG=C01 [X(C6H8N1O1)]\NImag=0\\0.31654348,0.05266306,0.27960629,0
 .08206937,-0.27433781,0.43193700,-0.20025849,0.01223185,-0.08154906,0.
 55134853,-0.00934171,-0.08115410,0.02052836,-0.08793795,0.61509048,-0.
 04096168,0.03663805,-0.12384695,-0.10776719,-0.02213062,0.72468310,-0.
 02948277,-0.03626474,-0.00429848,-0.10049091,-0.02617433,0.02102727,0.
 47950744,-0.02156822,-0.00345865,-0.00778627,-0.01831949,-0.17167697,0
 .00053002,0.04218319,0.56761049,-0.01106810,-0.01500279,0.00303551,0.0
 2380612,-0.00152863,-0.09686664,-0.27611262,0.11745189,0.45008332,-0.0
 0031448,-0.00133440,-0.00010495,0.00699182,-0.01958464,-0.01332195,-0.
 13207602,0.08234453,0.10068300,0.49590091,0.00536658,0.00211183,0.0001
 9276,0.00298350,-0.04358147,-0.02018553,0.02385854,-0.20277650,-0.0745
 2700,0.11009047,0.64517191,0.00257427,0.00002256,0.00097141,-0.0075540
 0,0.00200630,0.00324693,0.08052919,-0.12724239,-0.17480728,-0.29681413
 ,0.08522856,0.43265029,-0.00090608,-0.00000180,0.00047167,0.00550858,0
 .00714858,0.00505053,0.04064345,-0.02001231,-0.04303697,-0.13733529,-0
 .06577432,0.04655510,0.44945270,-0.00209836,0.00060926,0.00048963,0.00
 465811,0.00043896,-0.00430562,0.02758103,-0.05654225,-0.04712110,-0.12
 022584,-0.31145656,0.02054109,0.06726419,0.69273196,0.00227892,0.00120
 863,0.00034211,0.00330491,-0.00911104,0.00087764,-0.02594659,-0.002815
 13,0.02444025,0.02729494,-0.02913320,-0.09682928,-0.26405735,0.1379417
 4,0.43321067,0.00022554,-0.00085059,-0.00099504,-0.00232704,0.00099591
 ,0.00096670,-0.03547518,0.01607013,0.03506903,-0.01322541,-0.06277541,
 -0.00585263,-0.22027026,-0.01264380,0.14061965,0.45823298,0.00018691,0
 .00020236,0.00053028,0.00052444,0.00028940,-0.00042882,0.01580191,-0.0
 1143709,-0.01768564,-0.02609271,0.01627310,0.02838508,-0.06599494,-0.1
 3768277,0.03422255,0.12038865,0.71343074,-0.00046521,0.00072961,0.0009
 5508,0.00147524,0.00032870,-0.00238593,0.03426090,-0.01759173,-0.04335
 842,0.00644371,0.06254409,0.01940261,0.12124928,-0.01531924,-0.1808731
 1,-0.24778301,0.09506307,0.40657033,0.00168029,0.00067040,-0.00019651,
 -0.00104362,-0.00408584,0.00871272,-0.01713246,-0.02205924,0.00897775,
 -0.00125689,-0.00431997,-0.00302432,-0.00819529,0.02089882,0.01957291,
 -0.13220854,0.06888613,0.08846321,0.49710227,-0.00237705,-0.00244167,-
 0.00241937,0.00150140,0.00740228,0.00020852,-0.06790293,0.00731839,0.0
 6716900,0.00343104,-0.06817259,-0.02583908,0.05542398,0.05821191,-0.03
 197925,0.01525869,-0.24012131,-0.07811400,0.10389086,0.63919355,0.0008
 5552,0.00047867,-0.00037395,0.00812563,0.00213162,0.00243827,-0.007229
 91,0.02260457,0.01777547,0.00006530,-0.01988445,-0.00930887,0.03182309
 ,0.00041402,-0.02511989,0.06877683,-0.12719033,-0.17298867,-0.29296248
 ,0.08428309,0.43896152,0.00215043,0.00175479,0.00218705,-0.01402057,-0
 .01096821,0.00552165,-0.21578409,-0.05192290,0.13297576,-0.01199354,0.
 05391116,0.03564060,-0.03564940,-0.03469170,0.01773313,0.04427640,-0.0
 1069154,-0.04082218,-0.13667879,-0.06392102,0.04535774,0.45027714,0.00
 199216,0.00083392,0.00221203,-0.03509628,-0.02315269,0.02506226,0.0056
 6571,-0.11105825,-0.02846653,0.01252103,0.04682546,0.00205775,-0.02805
 453,-0.03036603,0.01661392,0.02666799,-0.04891985,-0.04408658,-0.11754
 163,-0.30477978,0.02162887,0.06790052,0.68709711,-0.00501557,-0.003986
 89,-0.00172838,0.00010857,0.00583026,0.00220203,0.15371499,0.02503000,
 -0.18479925,0.02091061,-0.03605382,-0.02615425,0.02063658,0.02261773,-
 0.01400407,-0.02789218,-0.00884451,0.02649230,0.02578936,-0.02875241,-
 0.09743777,-0.27184085,0.13744136,0.43011211,-0.04738882,-0.06081756,0
 .05150534,-0.01032462,0.03131703,-0.04503611,0.00336549,0.00127213,-0.
 00081406,0.00016616,-0.00100970,-0.00036464,0.00040807,0.00041137,-0.0
 0015136,-0.00026066,0.00026413,0.00021345,-0.00006695,-0.00046076,0.00
 020759,0.00003854,0.00026438,0.00112814,0.06289024,-0.02042579,-0.2069
 4802,0.25740858,-0.00499410,0.00425549,-0.01336545,0.00023485,0.003428
 33,-0.00133677,0.00047556,-0.00070324,-0.00033576,0.00016978,-0.000406
 50,0.00023849,-0.00010595,-0.00016340,-0.00010009,0.00029279,-0.000201
 69,0.00018507,-0.00102455,0.00002636,0.00059727,0.02774513,0.20176885,
 0.00075178,0.23292297,-0.30150304,0.00276512,0.01085650,-0.01752805,-0
 .00022356,-0.00148087,0.00185629,0.00061662,-0.00033271,-0.00032626,0.
 00003425,-0.00012430,-0.00008436,0.00019475,0.00012640,-0.00013721,-0.
 00006488,0.00060106,-0.00033562,-0.00058287,-0.00007851,0.00053187,-0.
 00199031,-0.24243701,0.31652940,-0.03422499,0.01595010,-0.00058477,-0.
 16877539,0.13448052,0.08973447,0.01386610,-0.00900615,-0.00682500,-0.0
 0128051,-0.00329578,0.00165465,-0.00013266,-0.00059531,-0.00080537,0.0
 0031149,0.00000677,-0.00005915,-0.00067257,0.00015122,0.00042577,0.000
 74725,-0.00210131,-0.00253913,-0.00173996,0.00118884,0.00137238,0.1942
 7822,-0.00416402,0.00767426,0.00263929,0.13810398,-0.21974672,-0.09901
 019,0.01738062,-0.02070427,-0.01537839,-0.00314761,-0.00392974,0.00214
 030,0.00102647,-0.00003443,-0.00159566,-0.00013442,0.00034978,0.000362
 28,-0.00027133,-0.00035834,-0.00034170,0.00122962,0.00235323,-0.000306
 90,0.00061672,-0.00099627,0.00029102,-0.14160059,0.22410594,-0.0216041
 3,0.01524987,0.00700102,0.09524441,-0.09855461,-0.13126442,-0.00295961
 ,0.00014671,0.00239066,0.00076683,-0.00013384,0.00020334,0.00018031,0.
 00019035,0.00011619,-0.00013597,-0.00006687,0.00001199,0.00033504,-0.0
 0017259,-0.00046213,-0.00188174,0.00222700,0.00122285,-0.00285832,0.00
 172026,0.00161401,-0.08796379,0.10527916,0.13069302,-0.00028870,0.0000
 2316,-0.00010311,-0.00122048,0.00025269,-0.00214397,-0.00434578,-0.003
 68454,0.00531086,-0.21399256,-0.04516081,0.14609037,-0.00373193,-0.000
 46060,0.00735559,0.00337245,-0.00307010,0.00280348,-0.00036826,-0.0000
 5229,-0.00110506,0.00328194,0.00080914,0.00257679,0.00001561,-0.000199
 50,0.00000379,-0.00003511,0.00011177,-0.00013206,0.21888521,-0.0000494
 1,-0.00001246,0.00022110,0.00127329,0.00191267,0.00049865,0.01733438,0
 .00720534,-0.01457592,-0.04447303,-0.06816887,0.02980175,-0.02202455,0
 .00099912,0.01857756,-0.00317967,-0.00474149,-0.00163012,0.00012639,-0
 .00120142,0.00000670,0.00043068,-0.00318510,-0.00365159,0.00000314,0.0
 0017118,-0.00014673,0.00015375,0.00011005,0.00018315,0.04929066,0.0665
 9691,-0.00123388,0.00015466,-0.00001516,-0.00141313,0.00132461,-0.0009
 8979,0.01284201,0.00566084,-0.00706730,0.14564598,0.02956592,-0.158483
 07,0.00007168,-0.00084904,0.00434879,0.00301035,-0.00155879,0.00459115
 ,-0.00106462,0.00035546,-0.00049609,0.00234805,-0.00426944,0.00216758,
 0.00020405,-0.00037971,-0.00042012,0.00024564,0.00013612,0.00010396,-0
 .15913872,-0.03059287,0.15885226,0.00002031,0.00014819,-0.00005200,0.0
 0063299,-0.00141939,-0.00026439,0.00262966,-0.00344123,0.00341103,0.00
 820688,-0.01128601,-0.00822593,-0.08709460,0.07178630,0.06886037,-0.00
 283221,0.01768562,0.01329588,-0.00001965,-0.00249069,0.00604755,-0.001
 20102,-0.00064714,-0.00038331,0.00001953,-0.00001723,0.00002666,-0.000
 23618,-0.00023802,-0.00004061,-0.00141575,0.00117498,-0.00227150,0.083
 05208,-0.00000649,0.00007094,-0.00001558,0.00058034,-0.00137726,-0.000
 94208,-0.00393334,-0.00217242,-0.00015398,0.01013535,-0.01569842,-0.01
 666490,0.07146006,-0.21376250,-0.12907613,-0.00379437,0.00958646,0.005
 27129,-0.00278131,0.00108957,0.00022919,-0.00030679,-0.00011813,0.0007
 8141,0.00000099,-0.00002333,0.00007022,-0.00020770,-0.00028716,0.00006
 479,0.00095477,0.00057082,0.00092164,-0.07311149,0.22154402,-0.0000100
 2,0.00004636,-0.00005810,0.00021448,0.00031066,0.00058435,0.00326278,-
 0.00028070,0.00457126,-0.00034239,0.00352343,0.00561651,0.06868223,-0.
 12953304,-0.15192276,0.00546113,-0.01463901,-0.00579652,0.00591060,-0.
 00004535,0.00195767,-0.00027674,0.00105267,-0.00065583,0.00000180,-0.0
 0003830,-0.00002929,-0.00006642,0.00006429,-0.00007121,-0.00224221,0.0
 0077116,-0.00197133,-0.07799131,0.13848615,0.15030298,-0.00018483,-0.0
 0008270,-0.00008044,-0.00050969,0.00001481,-0.00079594,-0.00062186,0.0
 0092401,0.00081586,0.00017747,-0.00188711,0.00618294,-0.00411573,-0.02
 162797,0.00046454,-0.09980854,-0.11017428,0.01246516,0.00911233,0.0118
 4377,0.00047650,0.00300227,0.00110082,0.00494223,-0.00003738,-0.000037
 45,0.00005975,-0.00003295,-0.00003477,0.00006756,-0.00041661,-0.000932
 82,-0.00023355,-0.00118771,0.00092317,-0.00220085,0.09573940,0.0001761
 7,0.00012586,0.00007036,0.00007725,-0.00028004,0.00030643,0.00074232,0
 .00073553,-0.00044087,-0.00123925,0.00176533,-0.00099626,-0.00007739,0
 .00085010,-0.00140867,-0.11018200,-0.30258167,0.00769420,-0.00973563,-
 0.01393954,0.00211233,0.00048159,-0.00122549,-0.00376204,0.00000579,-0
 .00000609,-0.00004418,0.00004255,0.00003169,-0.00006448,0.00016390,-0.
 00002653,-0.00003501,0.00067788,0.00019391,0.00087375,0.11856511,0.314
 69331,-0.00033252,-0.00006066,-0.00002112,-0.00066595,0.00022662,-0.00
 058818,0.00074949,-0.00036644,-0.00100001,0.00648271,-0.00039934,0.001
 52925,0.00833727,0.01848797,0.00381858,0.01252200,0.00768027,-0.051848
 68,-0.00748014,-0.01765962,0.00541573,0.00468544,-0.00444308,0.0020759
 4,0.00002332,-0.00006753,0.00001385,0.00010289,0.00011781,0.00001276,0
 .00016981,0.00102803,-0.00015934,-0.00228771,0.00066175,-0.00156023,-0
 .01968550,-0.00549331,0.04415175,0.00010073,0.00012517,0.00011622,-0.0
 0005010,-0.00044999,0.00054860,0.00376835,-0.00251037,0.00220851,-0.00
 023887,0.00058925,-0.00089866,0.00352445,0.00029875,0.00390227,-0.0024
 2903,-0.00343566,0.00526749,-0.21887486,-0.04482003,0.14775912,-0.0042
 0188,-0.00058760,0.00701909,-0.00001021,-0.00000679,0.00004972,-0.0000
 4634,0.00005712,0.00002720,-0.00037572,0.00013956,-0.00035545,-0.00038
 180,-0.00015216,-0.00003654,-0.00141741,0.00077538,-0.00217614,0.22216
 601,-0.00015009,-0.00017541,-0.00012674,-0.00149913,-0.00066224,0.0012
 5391,-0.00244883,-0.00355186,-0.00194340,0.00030907,-0.00117048,-0.000
 15142,0.00052823,-0.00277218,-0.00429091,0.01813286,0.00916724,-0.0150
 6966,-0.04433160,-0.06803659,0.03088796,-0.02235053,-0.00206926,0.0185
 3009,0.00005332,0.00000822,0.00007884,-0.00007997,0.00017135,0.0000723
 3,0.00013747,0.00005329,0.00018295,0.00093967,0.00032442,-0.00062165,0
 .00054529,0.00038620,0.00112116,0.04930221,0.06790165,0.00014336,0.000
 12513,0.00011061,-0.00012078,-0.00069309,0.00041999,0.00254776,-0.0011
 8326,0.00453543,-0.00104380,-0.00048391,-0.00069275,0.00407910,-0.0040
 6819,0.00248111,0.01312257,0.00471126,-0.00562766,0.14779018,0.0312623
 3,-0.16523694,-0.00088719,-0.00137179,0.00404873,-0.00001545,0.0000329
 3,0.00002501,-0.00000488,0.00004254,0.00002090,-0.00034359,0.00019950,
 -0.00043343,0.00035432,0.00039046,-0.00054985,-0.00228944,0.00090586,-
 0.00170043,-0.16116994,-0.03065024,0.16453104,-0.00061682,-0.00050783,
 -0.00037963,-0.00055134,0.00253775,-0.00273953,-0.00402406,0.01723259,
 0.01199717,-0.00051363,-0.00294695,0.00477381,-0.00103343,-0.00039442,
 -0.00069542,0.00231174,-0.00412597,0.00332010,0.00945510,-0.00956061,-
 0.00818315,-0.08447184,0.06955465,0.07052639,-0.00049908,0.00007726,0.
 00034776,-0.00026968,-0.00102731,0.00087573,0.00027705,0.00066164,0.00
 093611,-0.00029025,0.00018903,-0.00037598,0.00018206,-0.00042386,-0.00
 056971,-0.00144414,0.00101485,-0.00212504,0.08099333,0.00052661,0.0001
 9167,0.00021750,0.00016754,0.00181671,0.00163386,-0.00426082,0.0054264
 3,0.00487125,-0.00239021,0.00132390,0.00077936,-0.00056485,-0.00060562
 ,0.00079873,-0.00414604,-0.00367788,-0.00014852,0.01170185,-0.01433440
 ,-0.01759462,0.06932097,-0.20794927,-0.12501544,0.00021558,0.00005411,
 -0.00026524,0.00045295,0.00020338,-0.00034569,-0.00030160,0.00048802,0
 .00004541,0.00020065,-0.00002588,0.00008766,0.00073333,-0.00071149,-0.
 00080414,0.00084795,0.00067522,0.00092369,-0.07235950,0.21707412,-0.00
 070212,-0.00004059,-0.00010231,-0.00258027,-0.00017364,-0.00162962,0.0
 0526661,-0.01465807,-0.00727234,0.00506191,0.00128242,0.00153222,-0.00
 085376,0.00065208,-0.00053745,0.00332435,-0.00035796,0.00435977,-0.000
 39294,0.00215684,0.00560106,0.06953039,-0.12515452,-0.14383647,-0.0000
 1517,-0.00022843,0.00018167,0.00117108,0.00123681,-0.00021888,0.000530
 45,-0.00085220,0.00019440,-0.00037884,0.00009650,-0.00041000,-0.000155
 83,0.00023619,-0.00005552,-0.00217783,0.00080596,-0.00188918,-0.077796
 95,0.13483312,0.14405966,-0.00705481,0.01629289,-0.04800567,-0.0649096
 8,-0.01678521,0.08146882,-0.00434736,-0.00750215,0.01260166,0.00078396
 ,0.00165656,-0.00126661,-0.00107259,-0.00016059,0.00026885,0.00010628,
 -0.00015934,-0.00012837,-0.00083209,0.00008442,-0.00044004,0.00022715,
 -0.00244791,0.00031829,-0.00657596,-0.00337284,-0.00336095,-0.00175672
 ,-0.00790824,0.02007918,0.00035863,0.00007101,0.00040698,0.00009772,0.
 00004994,0.00000944,0.00011919,-0.00004982,0.00012474,-0.00008919,-0.0
 0010282,-0.00003719,0.00049498,-0.00014441,0.00016892,0.08445048,-0.00
 073036,0.00276393,0.00017589,-0.01425474,-0.08957451,0.09423662,-0.009
 79755,-0.00834627,0.02866887,-0.00081936,0.00218634,0.00026707,-0.0005
 1659,-0.00021246,-0.00019164,0.00029802,0.00002636,0.00006672,-0.00134
 071,0.00037163,0.00004901,0.00084792,-0.00431223,-0.00045452,0.0001183
 1,-0.00026402,-0.00003746,0.00446011,0.01105724,-0.02579553,0.00118588
 ,-0.00077154,-0.00066276,0.00003792,0.00008494,-0.00005808,0.00012679,
 -0.00001109,-0.00002949,-0.00017281,-0.00024955,-0.00014322,0.00007867
 ,0.00005098,0.00016551,0.02047850,0.08720026,-0.00727996,0.00585225,-0
 .01670373,0.06660588,0.08864800,-0.35935271,0.00256977,0.00198084,0.00
 648304,-0.00234439,-0.00120339,0.00144920,0.00077699,-0.00001408,-0.00
 026442,-0.00040852,0.00005302,0.00063295,-0.00036587,-0.00105464,-0.00
 038978,0.00031176,-0.00042538,-0.00023738,-0.00203829,-0.00189356,-0.0
 0038814,0.00414162,0.00432322,-0.01137407,0.00036758,0.00016184,-0.000
 22251,-0.00010023,-0.00012072,-0.00000764,-0.00003298,0.00004569,-0.00
 008435,-0.00008365,-0.00007919,-0.00004257,0.00008833,-0.00001692,0.00
 002299,-0.06220803,-0.09625698,0.38047914\\0.00007702,-0.00000875,-0.0
 0000296,-0.00016427,0.00000775,-0.00008148,0.00005007,0.00006126,0.000
 00944,0.00001263,0.00011471,0.00004931,-0.00008673,-0.00007913,0.00004
 781,0.00008833,-0.00003667,-0.00009567,-0.00001463,0.00012996,0.000041
 79,-0.00003571,-0.00010503,0.00002374,-0.00002764,-0.00000610,0.000008
 42,0.00002292,-0.00005233,0.00001387,0.00001627,-0.00001728,-0.0000157
 1,0.00000937,0.00000349,-0.00001282,-0.00000010,-0.00000194,-0.0000009
 1,0.00000280,-0.00002033,-0.00000563,0.00000947,0.00001329,-0.00000333
 ,0.00004021,-0.00000291,0.00002414\\\@


 SUCCESS-- IF YOU HAVE TRIED TO DO SOMETHING AND FAILED
           YOU ARE BETTER OFF THAN IF YOU HAD TRIED TO DO
           NOTHING AND SUCCEEDED.

                   -- FROM THE BACK OF A SUGAR PACKET
 Job cpu time:       0 days  0 hours 29 minutes 37.6 seconds.
 Elapsed time:       0 days  0 hours  1 minutes 14.7 seconds.
 File lengths (MBytes):  RWF=     86 Int=      0 D2E=      0 Chk=      6 Scr=      1
 Normal termination of Gaussian 16 at Sun Oct 13 19:39:44 2019.
real 255.43
user 5920.77
sys 27.87
Machine:
brown-a199
brown-a199
brown-a199
brown-a199
brown-a199
brown-a199
brown-a199
brown-a199
brown-a199
brown-a199
brown-a199
brown-a199
brown-a199
brown-a199
brown-a199
brown-a199
brown-a199
brown-a199
brown-a199
brown-a199
brown-a199
brown-a199
brown-a199
brown-a199
