Title Card Required                                                     
Freq      RM062X                                                      6-311++G(d,p)       
Number of atoms                            I               16
Info1-9                                    I   N=           9
          42          42        1002           0           0         100
           6          18        -502
Full Title                                 C   N=           2
Title Card Required     
Route                                      C   N=           6
#P opt freq m062x/6-311++g(d,p) geom=connectivity temperatur
e=0.001     
Charge                                     I                1
Multiplicity                               I                1
Number of electrons                        I               58
Number of alpha electrons                  I               29
Number of beta electrons                   I               29
Number of basis functions                  I              232
Number of independent functions            I              231
Number of point charges in /Mol/           I                0
Number of translation vectors              I                0
Atomic numbers                             I   N=          16
           8           7           6           6           6           6
           6           6           1           1           1           1
           1           1           1           1
Nuclear charges                            R   N=          16
  8.00000000E+00  7.00000000E+00  6.00000000E+00  6.00000000E+00  6.00000000E+00
  6.00000000E+00  6.00000000E+00  6.00000000E+00  1.00000000E+00  1.00000000E+00
  1.00000000E+00  1.00000000E+00  1.00000000E+00  1.00000000E+00  1.00000000E+00
  1.00000000E+00
Current cartesian coordinates              R   N=          48
 -4.96269266E+00  3.36430773E-01  1.23803717E+00 -3.50999844E+00 -2.98666875E-01
 -8.94668084E-01 -7.64334791E-01 -1.35799265E-01 -5.20269360E-01  3.29803381E-01
  2.24480331E+00 -3.88566004E-01  2.91167531E+00  2.37310644E+00  5.55442354E-02
  4.31259116E+00  1.62234283E-01  3.56010487E-01  3.15856965E+00 -2.19667105E+00
  2.21801176E-01  5.73872563E-01 -2.36912647E+00 -2.18074713E-01 -4.01436048E+00
 -2.72384432E-01  2.68820637E+00 -4.01493322E+00 -2.08145212E+00 -1.47854729E+00
 -7.93849831E-01  3.94502183E+00 -6.11893456E-01  3.82988611E+00  4.19797554E+00
  1.59134138E-01  6.32717407E+00  2.82593193E-01  6.95530288E-01  4.26218143E+00
 -3.90327811E+00  4.51456860E-01 -3.49623181E-01 -4.19728353E+00 -3.35990519E-01
 -4.10800821E+00  9.56746138E-01 -2.24819211E+00
Number of symbols in /Mol/                 I                0
Force Field                                I                0
Atom Types                                 C   N=          16
                                                            
                                                            
                                                            
            
Int Atom Types                             I   N=          16
           0           0           0           0           0           0
           0           0           0           0           0           0
           0           0           0           0
MM charges                                 R   N=          16
  0.00000000E+00  0.00000000E+00  0.00000000E+00  0.00000000E+00  0.00000000E+00
  0.00000000E+00  0.00000000E+00  0.00000000E+00  0.00000000E+00  0.00000000E+00
  0.00000000E+00  0.00000000E+00  0.00000000E+00  0.00000000E+00  0.00000000E+00
  0.00000000E+00
Integer atomic weights                     I   N=          16
          16          14          12          12          12          12
          12          12           1           1           1           1
           1           1           1           1
Real atomic weights                        R   N=          16
  1.59949146E+01  1.40030740E+01  1.20000000E+01  1.20000000E+01  1.20000000E+01
  1.20000000E+01  1.20000000E+01  1.20000000E+01  1.00782504E+00  1.00782504E+00
  1.00782504E+00  1.00782504E+00  1.00782504E+00  1.00782504E+00  1.00782504E+00
  1.00782504E+00
Atom fragment info                         I   N=          16
           0           0           0           0           0           0
           0           0           0           0           0           0
           0           0           0           0
Atom residue num                           I   N=          16
           0           0           0           0           0           0
           0           0           0           0           0           0
           0           0           0           0
Nuclear spins                              I   N=          16
           0           2           0           0           0           0
           0           0           1           1           1           1
           1           1           1           1
Nuclear ZEff                               R   N=          16
 -5.60000000E+00 -4.55000000E+00 -3.60000000E+00 -3.60000000E+00 -3.60000000E+00
 -3.60000000E+00 -3.60000000E+00 -3.60000000E+00 -1.00000000E+00 -1.00000000E+00
 -1.00000000E+00 -1.00000000E+00 -1.00000000E+00 -1.00000000E+00 -1.00000000E+00
 -1.00000000E+00
Nuclear ZNuc                               R   N=          16
  8.00000000E+00  7.00000000E+00  6.00000000E+00  6.00000000E+00  6.00000000E+00
  6.00000000E+00  6.00000000E+00  6.00000000E+00  1.00000000E+00  1.00000000E+00
  1.00000000E+00  1.00000000E+00  1.00000000E+00  1.00000000E+00  1.00000000E+00
  1.00000000E+00
Nuclear QMom                               R   N=          16
  0.00000000E+00  2.04400000E+00  0.00000000E+00  0.00000000E+00  0.00000000E+00
  0.00000000E+00  0.00000000E+00  0.00000000E+00  0.00000000E+00  0.00000000E+00
  0.00000000E+00  0.00000000E+00  0.00000000E+00  0.00000000E+00  0.00000000E+00
  0.00000000E+00
Nuclear GFac                               R   N=          16
  0.00000000E+00  4.03761000E-01  0.00000000E+00  0.00000000E+00  0.00000000E+00
  0.00000000E+00  0.00000000E+00  0.00000000E+00  2.79284600E+00  2.79284600E+00
  2.79284600E+00  2.79284600E+00  2.79284600E+00  2.79284600E+00  2.79284600E+00
  2.79284600E+00
MicOpt                                     I   N=          16
          -1          -1          -1          -1          -1          -1
          -1          -1          -1          -1          -1          -1
          -1          -1          -1          -1
Number of residues                         I                0
Number of secondary structures             I                0
Redundant internal dimensions              I   N=           4
          74          16          25          33
Redundant internal coordinate indices      I   N=         296
           1           2           0           0           1           9
           0           0           2           3           0           0
           2          10           0           0           2          16
           0           0           3           4           0           0
           3           8           0           0           4           5
           0           0           4          11           0           0
           5           6           0           0           5          12
           0           0           6           7           0           0
           6          13           0           0           7           8
           0           0           7          14           0           0
           8          15           0           0           2           1
           9           0           1           2           3           0
           1           2          10           0           1           2
          16           0           3           2          10           0
           3           2          16           0          10           2
          16           0           2           3           4           0
           2           3           8           0           4           3
           8           0           3           4           5           0
           3           4          11           0           5           4
          11           0           4           5           6           0
           4           5          12           0           6           5
          12           0           5           6           7           0
           5           6          13           0           7           6
          13           0           6           7           8           0
           6           7          14           0           8           7
          14           0           3           8           7           0
           3           8          15           0           7           8
          15           0           9           1           2           3
           9           1           2          10           9           1
           2          16           1           2           3           4
           1           2           3           8          10           2
           3           4          10           2           3           8
          16           2           3           4          16           2
           3           8           2           3           4           5
           2           3           4          11           8           3
           4           5           8           3           4          11
           2           3           8           7           2           3
           8          15           4           3           8           7
           4           3           8          15           3           4
           5           6           3           4           5          12
          11           4           5           6          11           4
           5          12           4           5           6           7
           4           5           6          13          12           5
           6           7          12           5           6          13
           5           6           7           8           5           6
           7          14          13           6           7           8
          13           6           7          14           6           7
           8           3           6           7           8          15
          14           7           8           3          14           7
           8          15
Redundant internal coordinates             R   N=          74
  2.65746143E+00  1.83656761E+00  2.77585466E+00  1.94272934E+00  1.94054240E+00
  2.62330950E+00  2.62104387E+00  2.62292933E+00  2.05017432E+00  2.63453997E+00
  2.04548019E+00  2.62948895E+00  2.04653470E+00  2.62752559E+00  2.04528930E+00
  2.05156203E+00  1.84647246E+00  2.00251937E+00  1.89486946E+00  1.80976234E+00
  1.92992890E+00  1.94006458E+00  1.87963393E+00  2.06299295E+00  2.06072917E+00
  2.15856611E+00  2.05267571E+00  2.11590982E+00  2.11457757E+00  2.09634418E+00
  2.08757934E+00  2.09925337E+00  2.11021611E+00  2.08634798E+00  2.08661993E+00
  2.09341145E+00  2.10133935E+00  2.08842853E+00  2.05512806E+00  2.12097063E+00
  2.10704458E+00 -6.19208249E-01  1.54957100E+00 -2.73832768E+00 -1.28337538E+00
  1.81440215E+00  2.84970360E+00 -3.35704168E-01  7.62885117E-01 -2.42252265E+00
  3.10242663E+00 -3.20831274E-02  7.29323727E-03 -3.12721652E+00 -3.10397390E+00
  4.74066868E-02 -8.78426236E-03 -3.14058898E+00 -1.77385023E-03  3.13542348E+00
  3.13274162E+00 -1.32463576E-02 -1.85635832E-03  3.13800663E+00 -3.13902403E+00
  8.38955174E-04  3.25620440E-04  3.13818893E+00 -3.13953710E+00 -1.67379356E-03
  4.73791014E-03  3.13662459E+00 -3.13315312E+00 -1.26644440E-03
ZRed-IntVec                                I   N=          74
           0           0           0           0           0           0
           0           0           0           0           0           0
           0           0           0           0           0           0
           0           0           0           0           0           0
           0           0           0           0           0           0
           0           0           0           0           0           0
           0           0           0           0           0           0
           0           0           0           0           0           0
           0           0           0           0           0           0
           0           0           0           0           0           0
           0           0           0           0           0           0
           0           0           0           0           0           0
           0           0
ZRed-FPVec                                 R   N=          74
  0.00000000E+00  0.00000000E+00  0.00000000E+00  0.00000000E+00  0.00000000E+00
  0.00000000E+00  0.00000000E+00  0.00000000E+00  0.00000000E+00  0.00000000E+00
  0.00000000E+00  0.00000000E+00  0.00000000E+00  0.00000000E+00  0.00000000E+00
  0.00000000E+00  0.00000000E+00  0.00000000E+00  0.00000000E+00  0.00000000E+00
  0.00000000E+00  0.00000000E+00  0.00000000E+00  0.00000000E+00  0.00000000E+00
  0.00000000E+00  0.00000000E+00  0.00000000E+00  0.00000000E+00  0.00000000E+00
  0.00000000E+00  0.00000000E+00  0.00000000E+00  0.00000000E+00  0.00000000E+00
  0.00000000E+00  0.00000000E+00  0.00000000E+00  0.00000000E+00  0.00000000E+00
  0.00000000E+00  0.00000000E+00  0.00000000E+00  0.00000000E+00  0.00000000E+00
  0.00000000E+00  0.00000000E+00  0.00000000E+00  0.00000000E+00  0.00000000E+00
  0.00000000E+00  0.00000000E+00  0.00000000E+00  0.00000000E+00  0.00000000E+00
  0.00000000E+00  0.00000000E+00  0.00000000E+00  0.00000000E+00  0.00000000E+00
  0.00000000E+00  0.00000000E+00  0.00000000E+00  0.00000000E+00  0.00000000E+00
  0.00000000E+00  0.00000000E+00  0.00000000E+00  0.00000000E+00  0.00000000E+00
  0.00000000E+00  0.00000000E+00  0.00000000E+00  0.00000000E+00
ZRed-Constraint1                           R   N=          74
  2.65746143E+00  1.83656761E+00  2.77585466E+00  1.94272934E+00  1.94054240E+00
  2.62330950E+00  2.62104387E+00  2.62292933E+00  2.05017432E+00  2.63453997E+00
  2.04548019E+00  2.62948895E+00  2.04653470E+00  2.62752559E+00  2.04528930E+00
  2.05156203E+00  1.84647246E+00  2.00251937E+00  1.89486946E+00  1.80976234E+00
  1.92992890E+00  1.94006458E+00  1.87963393E+00  2.06299295E+00  2.06072917E+00
  2.15856611E+00  2.05267571E+00  2.11590982E+00  2.11457757E+00  2.09634418E+00
  2.08757934E+00  2.09925337E+00  2.11021611E+00  2.08634798E+00  2.08661993E+00
  2.09341145E+00  2.10133935E+00  2.08842853E+00  2.05512806E+00  2.12097063E+00
  2.10704458E+00 -6.19208249E-01  1.54957100E+00 -2.73832768E+00 -1.28337538E+00
  1.81440215E+00  2.84970360E+00 -3.35704168E-01  7.62885117E-01 -2.42252265E+00
  3.10242663E+00 -3.20831274E-02  7.29323727E-03 -3.12721652E+00 -3.10397390E+00
  4.74066868E-02 -8.78426236E-03 -3.14058898E+00 -1.77385023E-03  3.13542348E+00
  3.13274162E+00 -1.32463576E-02 -1.85635832E-03  3.13800663E+00 -3.13902403E+00
  8.38955174E-04  3.25620441E-04  3.13818893E+00 -3.13953710E+00 -1.67379356E-03
  4.73791014E-03  3.13662459E+00 -3.13315312E+00 -1.26644440E-03
ZRed-Constraint2                           R   N=          74
  2.46407569E+00  1.81409591E+00  2.56389234E+00  1.88972613E+00  1.88972612E+00
  2.67491262E+00  2.66556441E+00  2.65952045E+00  2.05987562E+00  2.65798651E+00
  2.05988148E+00  2.65750020E+00  2.05970850E+00  2.65751877E+00  2.05979985E+00
  2.05969899E+00  1.91059318E+00  2.15804398E+00  1.85557796E+00  1.85557796E+00
  1.85557796E+00  1.85557796E+00  1.86709077E+00  2.15456818E+00  2.05286697E+00
  2.07575000E+00  2.10321049E+00  2.09492515E+00  2.08504966E+00  2.09252027E+00
  2.09585072E+00  2.09481431E+00  2.09549046E+00  2.09396011E+00  2.09373473E+00
  2.09300132E+00  2.09508503E+00  2.09509896E+00  2.10577014E+00  2.09138006E+00
  2.08603510E+00 -1.87876254E+00  2.70202185E-01  2.25545804E+00 -1.14770321E-01
  3.02622964E+00 -2.26373505E+00  8.77264912E-01  2.03419440E+00 -1.10799094E+00
  3.11632598E+00 -2.51821586E-02 -2.46666342E-02  3.11701053E+00 -3.11358120E+00
  2.80508060E-02  2.74463957E-02 -3.11410691E+00 -3.23539313E-03  3.13837201E+00
  3.13827322E+00 -3.30468334E-03  2.87988853E-02 -3.11271579E+00 -3.11280851E+00
  2.88621217E-02 -2.60876950E-02  3.11541743E+00  3.11542699E+00 -2.62531909E-02
 -2.29822224E-03  3.13925520E+00  3.13938196E+00 -2.24991970E-03
SymInf integers                            I   N=          26
           1           1           1           1           1           0
           0           0           0           0           0           0
           0           0           0           0           0           0
           0           0           0           0           0           0
           0           0
RotTr to input orientation                 R   N=          12
 -5.40580648E-01 -8.40236980E-01 -4.21233929E-02  6.31292610E-01 -3.72038272E-01
 -6.80483038E-01  5.56095498E-01 -3.94448149E-01  7.31552086E-01 -8.65473103E-01
 -3.16045481E+00  4.67360626E-01
Number of contracted shells                I               88
Number of primitive shells                 I              160
Pure/Cartesian d shells                    I                0
Pure/Cartesian f shells                    I                0
Highest angular momentum                   I                2
Largest degree of contraction              I                6
Shell types                                I   N=          88
           0          -1          -1          -1          -1          -2
           0          -1          -1          -1          -1          -2
           0          -1          -1          -1          -1          -2
           0          -1          -1          -1          -1          -2
           0          -1          -1          -1          -1          -2
           0          -1          -1          -1          -1          -2
           0          -1          -1          -1          -1          -2
           0          -1          -1          -1          -1          -2
           0           0           0           0           1           0
           0           0           0           1           0           0
           0           0           1           0           0           0
           0           1           0           0           0           0
           1           0           0           0           0           1
           0           0           0           0           1           0
           0           0           0           1
Number of primitives per shell             I   N=          88
           6           3           1           1           1           1
           6           3           1           1           1           1
           6           3           1           1           1           1
           6           3           1           1           1           1
           6           3           1           1           1           1
           6           3           1           1           1           1
           6           3           1           1           1           1
           6           3           1           1           1           1
           3           1           1           1           1           3
           1           1           1           1           3           1
           1           1           1           3           1           1
           1           1           3           1           1           1
           1           3           1           1           1           1
           3           1           1           1           1           3
           1           1           1           1
Shell to atom map                          I   N=          88
           1           1           1           1           1           1
           2           2           2           2           2           2
           3           3           3           3           3           3
           4           4           4           4           4           4
           5           5           5           5           5           5
           6           6           6           6           6           6
           7           7           7           7           7           7
           8           8           8           8           8           8
           9           9           9           9           9          10
          10          10          10          10          11          11
          11          11          11          12          12          12
          12          12          13          13          13          13
          13          14          14          14          14          14
          15          15          15          15          15          16
          16          16          16          16
Primitive exponents                        R   N=         160
  8.58850000E+03  1.29723000E+03  2.99296000E+02  8.73771000E+01  2.56789000E+01
  3.74004000E+00  4.21175000E+01  9.62837000E+00  2.85332000E+00  9.05661000E-01
  2.55611000E-01  8.45000000E-02  1.29200000E+00  6.29348000E+03  9.49044000E+02
  2.18776000E+02  6.36916000E+01  1.88282000E+01  2.72023000E+00  3.06331000E+01
  7.02614000E+00  2.11205000E+00  6.84009000E-01  2.00878000E-01  6.39000000E-02
  9.13000000E-01  4.56324000E+03  6.82024000E+02  1.54973000E+02  4.44553000E+01
  1.30290000E+01  1.82773000E+00  2.09642000E+01  4.80331000E+00  1.45933000E+00
  4.83456000E-01  1.45585000E-01  4.38000000E-02  6.26000000E-01  4.56324000E+03
  6.82024000E+02  1.54973000E+02  4.44553000E+01  1.30290000E+01  1.82773000E+00
  2.09642000E+01  4.80331000E+00  1.45933000E+00  4.83456000E-01  1.45585000E-01
  4.38000000E-02  6.26000000E-01  4.56324000E+03  6.82024000E+02  1.54973000E+02
  4.44553000E+01  1.30290000E+01  1.82773000E+00  2.09642000E+01  4.80331000E+00
  1.45933000E+00  4.83456000E-01  1.45585000E-01  4.38000000E-02  6.26000000E-01
  4.56324000E+03  6.82024000E+02  1.54973000E+02  4.44553000E+01  1.30290000E+01
  1.82773000E+00  2.09642000E+01  4.80331000E+00  1.45933000E+00  4.83456000E-01
  1.45585000E-01  4.38000000E-02  6.26000000E-01  4.56324000E+03  6.82024000E+02
  1.54973000E+02  4.44553000E+01  1.30290000E+01  1.82773000E+00  2.09642000E+01
  4.80331000E+00  1.45933000E+00  4.83456000E-01  1.45585000E-01  4.38000000E-02
  6.26000000E-01  4.56324000E+03  6.82024000E+02  1.54973000E+02  4.44553000E+01
  1.30290000E+01  1.82773000E+00  2.09642000E+01  4.80331000E+00  1.45933000E+00
  4.83456000E-01  1.45585000E-01  4.38000000E-02  6.26000000E-01  3.38650000E+01
  5.09479000E+00  1.15879000E+00  3.25840000E-01  1.02741000E-01  3.60000000E-02
  7.50000000E-01  3.38650000E+01  5.09479000E+00  1.15879000E+00  3.25840000E-01
  1.02741000E-01  3.60000000E-02  7.50000000E-01  3.38650000E+01  5.09479000E+00
  1.15879000E+00  3.25840000E-01  1.02741000E-01  3.60000000E-02  7.50000000E-01
  3.38650000E+01  5.09479000E+00  1.15879000E+00  3.25840000E-01  1.02741000E-01
  3.60000000E-02  7.50000000E-01  3.38650000E+01  5.09479000E+00  1.15879000E+00
  3.25840000E-01  1.02741000E-01  3.60000000E-02  7.50000000E-01  3.38650000E+01
  5.09479000E+00  1.15879000E+00  3.25840000E-01  1.02741000E-01  3.60000000E-02
  7.50000000E-01  3.38650000E+01  5.09479000E+00  1.15879000E+00  3.25840000E-01
  1.02741000E-01  3.60000000E-02  7.50000000E-01  3.38650000E+01  5.09479000E+00
  1.15879000E+00  3.25840000E-01  1.02741000E-01  3.60000000E-02  7.50000000E-01
Contraction coefficients                   R   N=         160
  1.89515008E-03  1.43859006E-02  7.07320031E-02  2.40001011E-01  5.94797026E-01
  2.80802012E-01  1.13889012E-01  9.20811101E-01 -3.27447036E-03  1.00000000E+00
  1.00000000E+00  1.00000000E+00  1.00000000E+00  1.96978815E-03  1.49612859E-02
  7.35005308E-02  2.48936766E-01  6.02459433E-01  2.56201759E-01  1.11906080E-01
  9.21666655E-01 -2.56919183E-03  1.00000000E+00  1.00000000E+00  1.00000000E+00
  1.00000000E+00  1.96665025E-03  1.52306019E-02  7.61269097E-02  2.60801033E-01
  6.16462078E-01  2.21006028E-01  1.14660081E-01  9.19999648E-01 -3.03068213E-03
  1.00000000E+00  1.00000000E+00  1.00000000E+00  1.00000000E+00  1.96665025E-03
  1.52306019E-02  7.61269097E-02  2.60801033E-01  6.16462078E-01  2.21006028E-01
  1.14660081E-01  9.19999648E-01 -3.03068213E-03  1.00000000E+00  1.00000000E+00
  1.00000000E+00  1.00000000E+00  1.96665025E-03  1.52306019E-02  7.61269097E-02
  2.60801033E-01  6.16462078E-01  2.21006028E-01  1.14660081E-01  9.19999648E-01
 -3.03068213E-03  1.00000000E+00  1.00000000E+00  1.00000000E+00  1.00000000E+00
  1.96665025E-03  1.52306019E-02  7.61269097E-02  2.60801033E-01  6.16462078E-01
  2.21006028E-01  1.14660081E-01  9.19999648E-01 -3.03068213E-03  1.00000000E+00
  1.00000000E+00  1.00000000E+00  1.00000000E+00  1.96665025E-03  1.52306019E-02
  7.61269097E-02  2.60801033E-01  6.16462078E-01  2.21006028E-01  1.14660081E-01
  9.19999648E-01 -3.03068213E-03  1.00000000E+00  1.00000000E+00  1.00000000E+00
  1.00000000E+00  1.96665025E-03  1.52306019E-02  7.61269097E-02  2.60801033E-01
  6.16462078E-01  2.21006028E-01  1.14660081E-01  9.19999648E-01 -3.03068213E-03
  1.00000000E+00  1.00000000E+00  1.00000000E+00  1.00000000E+00  2.54938145E-02
  1.90373109E-01  8.52161486E-01  1.00000000E+00  1.00000000E+00  1.00000000E+00
  1.00000000E+00  2.54938145E-02  1.90373109E-01  8.52161486E-01  1.00000000E+00
  1.00000000E+00  1.00000000E+00  1.00000000E+00  2.54938145E-02  1.90373109E-01
  8.52161486E-01  1.00000000E+00  1.00000000E+00  1.00000000E+00  1.00000000E+00
  2.54938145E-02  1.90373109E-01  8.52161486E-01  1.00000000E+00  1.00000000E+00
  1.00000000E+00  1.00000000E+00  2.54938145E-02  1.90373109E-01  8.52161486E-01
  1.00000000E+00  1.00000000E+00  1.00000000E+00  1.00000000E+00  2.54938145E-02
  1.90373109E-01  8.52161486E-01  1.00000000E+00  1.00000000E+00  1.00000000E+00
  1.00000000E+00  2.54938145E-02  1.90373109E-01  8.52161486E-01  1.00000000E+00
  1.00000000E+00  1.00000000E+00  1.00000000E+00  2.54938145E-02  1.90373109E-01
  8.52161486E-01  1.00000000E+00  1.00000000E+00  1.00000000E+00  1.00000000E+00
P(S=P) Contraction coefficients            R   N=         160
  0.00000000E+00  0.00000000E+00  0.00000000E+00  0.00000000E+00  0.00000000E+00
  0.00000000E+00  3.65113974E-02  2.37152983E-01  8.19701941E-01  1.00000000E+00
  1.00000000E+00  1.00000000E+00  0.00000000E+00  0.00000000E+00  0.00000000E+00
  0.00000000E+00  0.00000000E+00  0.00000000E+00  0.00000000E+00  3.83119186E-02
  2.37403116E-01  8.17592398E-01  1.00000000E+00  1.00000000E+00  1.00000000E+00
  0.00000000E+00  0.00000000E+00  0.00000000E+00  0.00000000E+00  0.00000000E+00
  0.00000000E+00  0.00000000E+00  4.02486927E-02  2.37593957E-01  8.15853851E-01
  1.00000000E+00  1.00000000E+00  1.00000000E+00  0.00000000E+00  0.00000000E+00
  0.00000000E+00  0.00000000E+00  0.00000000E+00  0.00000000E+00  0.00000000E+00
  4.02486927E-02  2.37593957E-01  8.15853851E-01  1.00000000E+00  1.00000000E+00
  1.00000000E+00  0.00000000E+00  0.00000000E+00  0.00000000E+00  0.00000000E+00
  0.00000000E+00  0.00000000E+00  0.00000000E+00  4.02486927E-02  2.37593957E-01
  8.15853851E-01  1.00000000E+00  1.00000000E+00  1.00000000E+00  0.00000000E+00
  0.00000000E+00  0.00000000E+00  0.00000000E+00  0.00000000E+00  0.00000000E+00
  0.00000000E+00  4.02486927E-02  2.37593957E-01  8.15853851E-01  1.00000000E+00
  1.00000000E+00  1.00000000E+00  0.00000000E+00  0.00000000E+00  0.00000000E+00
  0.00000000E+00  0.00000000E+00  0.00000000E+00  0.00000000E+00  4.02486927E-02
  2.37593957E-01  8.15853851E-01  1.00000000E+00  1.00000000E+00  1.00000000E+00
  0.00000000E+00  0.00000000E+00  0.00000000E+00  0.00000000E+00  0.00000000E+00
  0.00000000E+00  0.00000000E+00  4.02486927E-02  2.37593957E-01  8.15853851E-01
  1.00000000E+00  1.00000000E+00  1.00000000E+00  0.00000000E+00  0.00000000E+00
  0.00000000E+00  0.00000000E+00  0.00000000E+00  0.00000000E+00  0.00000000E+00
  0.00000000E+00  0.00000000E+00  0.00000000E+00  0.00000000E+00  0.00000000E+00
  0.00000000E+00  0.00000000E+00  0.00000000E+00  0.00000000E+00  0.00000000E+00
  0.00000000E+00  0.00000000E+00  0.00000000E+00  0.00000000E+00  0.00000000E+00
  0.00000000E+00  0.00000000E+00  0.00000000E+00  0.00000000E+00  0.00000000E+00
  0.00000000E+00  0.00000000E+00  0.00000000E+00  0.00000000E+00  0.00000000E+00
  0.00000000E+00  0.00000000E+00  0.00000000E+00  0.00000000E+00  0.00000000E+00
  0.00000000E+00  0.00000000E+00  0.00000000E+00  0.00000000E+00  0.00000000E+00
  0.00000000E+00  0.00000000E+00  0.00000000E+00  0.00000000E+00  0.00000000E+00
  0.00000000E+00  0.00000000E+00  0.00000000E+00  0.00000000E+00  0.00000000E+00
  0.00000000E+00  0.00000000E+00  0.00000000E+00  0.00000000E+00  0.00000000E+00
Coordinates of each shell                  R   N=         264
 -4.96269266E+00  3.36430773E-01  1.23803717E+00 -4.96269266E+00  3.36430773E-01
  1.23803717E+00 -4.96269266E+00  3.36430773E-01  1.23803717E+00 -4.96269266E+00
  3.36430773E-01  1.23803717E+00 -4.96269266E+00  3.36430773E-01  1.23803717E+00
 -4.96269266E+00  3.36430773E-01  1.23803717E+00 -3.50999844E+00 -2.98666875E-01
 -8.94668084E-01 -3.50999844E+00 -2.98666875E-01 -8.94668084E-01 -3.50999844E+00
 -2.98666875E-01 -8.94668084E-01 -3.50999844E+00 -2.98666875E-01 -8.94668084E-01
 -3.50999844E+00 -2.98666875E-01 -8.94668084E-01 -3.50999844E+00 -2.98666875E-01
 -8.94668084E-01 -7.64334791E-01 -1.35799265E-01 -5.20269360E-01 -7.64334791E-01
 -1.35799265E-01 -5.20269360E-01 -7.64334791E-01 -1.35799265E-01 -5.20269360E-01
 -7.64334791E-01 -1.35799265E-01 -5.20269360E-01 -7.64334791E-01 -1.35799265E-01
 -5.20269360E-01 -7.64334791E-01 -1.35799265E-01 -5.20269360E-01  3.29803381E-01
  2.24480331E+00 -3.88566004E-01  3.29803381E-01  2.24480331E+00 -3.88566004E-01
  3.29803381E-01  2.24480331E+00 -3.88566004E-01  3.29803381E-01  2.24480331E+00
 -3.88566004E-01  3.29803381E-01  2.24480331E+00 -3.88566004E-01  3.29803381E-01