Title Card Required                                                     
Freq      RM062X                                                      6-311++G(d,p)       
Number of atoms                            I               21
Info1-9                                    I   N=           9
          52          52        1002           0           0         100
           6          18        -502
Full Title                                 C   N=           2
Title Card Required     
Route                                      C   N=           6
#P opt freq m062x/6-311++g(d,p) geom=connectivity temperatur
e=0.001     
Charge                                     I                0
Multiplicity                               I                1
Number of electrons                        I               64
Number of alpha electrons                  I               32
Number of beta electrons                   I               32
Number of basis functions                  I              267
Number of independent functions            I              267
Number of point charges in /Mol/           I                0
Number of translation vectors              I                0
Atomic numbers                             I   N=          21
           8           7           6           6           6           6
           6           6           1           1           1           1
           1           1           1           1           1           1
           1           1           1
Nuclear charges                            R   N=          21
  8.00000000E+00  7.00000000E+00  6.00000000E+00  6.00000000E+00  6.00000000E+00
  6.00000000E+00  6.00000000E+00  6.00000000E+00  1.00000000E+00  1.00000000E+00
  1.00000000E+00  1.00000000E+00  1.00000000E+00  1.00000000E+00  1.00000000E+00
  1.00000000E+00  1.00000000E+00  1.00000000E+00  1.00000000E+00  1.00000000E+00
  1.00000000E+00
Current cartesian coordinates              R   N=          63
 -5.36570967E+00  8.21568953E-01  2.79245175E-01 -3.66600368E+00 -1.16574932E+00
 -3.69225231E-01 -1.12429165E+00 -4.66431308E-01  4.75112764E-01 -2.18006000E-01
  2.09363036E+00 -5.20443699E-01  2.47554110E+00  2.65814708E+00  3.69374504E-01
  4.29230262E+00  5.50826362E-01 -4.17790227E-01  3.38192533E+00 -2.01546946E+00
  5.56218957E-01  6.80318713E-01 -2.57704899E+00 -3.13966456E-01 -6.63831145E+00
 -1.85172089E-02  1.26274728E+00 -3.66551232E+00 -1.16077823E+00 -2.29631461E+00
 -1.19989546E+00 -3.93984982E-01  2.54547062E+00 -2.59655568E-01  2.03902990E+00
 -2.59620918E+00 -1.52681277E+00  3.57029293E+00  7.97552769E-02  3.10666577E+00
  4.47506576E+00 -3.83097456E-01  2.48776489E+00  2.83220348E+00  2.43479568E+00
  4.40572932E+00  4.91291443E-01 -2.48665319E+00  6.19795150E+00  9.42977454E-01
  2.76841449E-01  4.65038644E+00 -3.51892386E+00 -7.32342085E-02  3.43731939E+00
 -2.01443554E+00  2.62763939E+00  6.51794592E-01 -2.74341352E+00 -2.38324221E+00
  1.35380731E-02 -4.37503831E+00  4.51081312E-01
Number of symbols in /Mol/                 I                0
Force Field                                I                0
Atom Types                                 C   N=          21
                                                            
                                                            
                                                            
                                                            
            
Int Atom Types                             I   N=          21
           0           0           0           0           0           0
           0           0           0           0           0           0
           0           0           0           0           0           0
           0           0           0
MM charges                                 R   N=          21
  0.00000000E+00  0.00000000E+00  0.00000000E+00  0.00000000E+00  0.00000000E+00
  0.00000000E+00  0.00000000E+00  0.00000000E+00  0.00000000E+00  0.00000000E+00
  0.00000000E+00  0.00000000E+00  0.00000000E+00  0.00000000E+00  0.00000000E+00
  0.00000000E+00  0.00000000E+00  0.00000000E+00  0.00000000E+00  0.00000000E+00
  0.00000000E+00
Integer atomic weights                     I   N=          21
          16          14          12          12          12          12
          12          12           1           1           1           1
           1           1           1           1           1           1
           1           1           1
Real atomic weights                        R   N=          21
  1.59949146E+01  1.40030740E+01  1.20000000E+01  1.20000000E+01  1.20000000E+01
  1.20000000E+01  1.20000000E+01  1.20000000E+01  1.00782504E+00  1.00782504E+00
  1.00782504E+00  1.00782504E+00  1.00782504E+00  1.00782504E+00  1.00782504E+00
  1.00782504E+00  1.00782504E+00  1.00782504E+00  1.00782504E+00  1.00782504E+00
  1.00782504E+00
Atom fragment info                         I   N=          21
           0           0           0           0           0           0
           0           0           0           0           0           0
           0           0           0           0           0           0
           0           0           0
Atom residue num                           I   N=          21
           0           0           0           0           0           0
           0           0           0           0           0           0
           0           0           0           0           0           0
           0           0           0
Nuclear spins                              I   N=          21
           0           2           0           0           0           0
           0           0           1           1           1           1
           1           1           1           1           1           1
           1           1           1
Nuclear ZEff                               R   N=          21
 -5.60000000E+00 -4.55000000E+00 -3.60000000E+00 -3.60000000E+00 -3.60000000E+00
 -3.60000000E+00 -3.60000000E+00 -3.60000000E+00 -1.00000000E+00 -1.00000000E+00
 -1.00000000E+00 -1.00000000E+00 -1.00000000E+00 -1.00000000E+00 -1.00000000E+00
 -1.00000000E+00 -1.00000000E+00 -1.00000000E+00 -1.00000000E+00 -1.00000000E+00
 -1.00000000E+00
Nuclear ZNuc                               R   N=          21
  8.00000000E+00  7.00000000E+00  6.00000000E+00  6.00000000E+00  6.00000000E+00
  6.00000000E+00  6.00000000E+00  6.00000000E+00  1.00000000E+00  1.00000000E+00
  1.00000000E+00  1.00000000E+00  1.00000000E+00  1.00000000E+00  1.00000000E+00
  1.00000000E+00  1.00000000E+00  1.00000000E+00  1.00000000E+00  1.00000000E+00
  1.00000000E+00
Nuclear QMom                               R   N=          21
  0.00000000E+00  2.04400000E+00  0.00000000E+00  0.00000000E+00  0.00000000E+00
  0.00000000E+00  0.00000000E+00  0.00000000E+00  0.00000000E+00  0.00000000E+00
  0.00000000E+00  0.00000000E+00  0.00000000E+00  0.00000000E+00  0.00000000E+00
  0.00000000E+00  0.00000000E+00  0.00000000E+00  0.00000000E+00  0.00000000E+00
  0.00000000E+00
Nuclear GFac                               R   N=          21
  0.00000000E+00  4.03761000E-01  0.00000000E+00  0.00000000E+00  0.00000000E+00
  0.00000000E+00  0.00000000E+00  0.00000000E+00  2.79284600E+00  2.79284600E+00
  2.79284600E+00  2.79284600E+00  2.79284600E+00  2.79284600E+00  2.79284600E+00
  2.79284600E+00  2.79284600E+00  2.79284600E+00  2.79284600E+00  2.79284600E+00
  2.79284600E+00
MicOpt                                     I   N=          21
          -1          -1          -1          -1          -1          -1
          -1          -1          -1          -1          -1          -1
          -1          -1          -1          -1          -1          -1
          -1          -1          -1
Number of residues                         I                0
Number of secondary structures             I                0
Redundant internal dimensions              I   N=           4
         123          21          40          62
Redundant internal coordinate indices      I   N=         492
           1           2           0           0           1           9
           0           0           2           3           0           0
           2          10           0           0           3           4
           0           0           3           8           0           0
           3          11           0           0           4           5
           0           0           4          12           0           0
           4          13           0           0           5           6
           0           0           5          14           0           0
           5          15           0           0           6           7
           0           0           6          16           0           0
           6          17           0           0           7           8
           0           0           7          18           0           0
           7          19           0           0           8          20
           0           0           8          21           0           0
           2           1           9           0           1           2
           3           0           1           2          10           0
           3           2          10           0           2           3
           4           0           2           3           8           0
           2           3          11           0           4           3
           8           0           4           3          11           0
           8           3          11           0           3           4
           5           0           3           4          12           0
           3           4          13           0           5           4
          12           0           5           4          13           0
          12           4          13           0           4           5
           6           0           4           5          14           0
           4           5          15           0           6           5
          14           0           6           5          15           0
          14           5          15           0           5           6
           7           0           5           6          16           0
           5           6          17           0           7           6
          16           0           7           6          17           0
          16           6          17           0           6           7
           8           0           6           7          18           0
           6           7          19           0           8           7
          18           0           8           7          19           0
          18           7          19           0           3           8
           7           0           3           8          20           0
           3           8          21           0           7           8
          20           0           7           8          21           0
          20           8          21           0           9           1
           2           3           9           1           2          10
           1           2           3           4           1           2
           3           8           1           2           3          11
          10           2           3           4          10           2
           3           8          10           2           3          11
           2           3           4           5           2           3
           4          12           2           3           4          13
           8           3           4           5           8           3
           4          12           8           3           4          13
          11           3           4           5          11           3
           4          12          11           3           4          13
           2           3           8           7           2           3
           8          20           2           3           8          21
           4           3           8           7           4           3
           8          20           4           3           8          21
          11           3           8           7          11           3
           8          20          11           3           8          21
           3           4           5           6           3           4
           5          14           3           4           5          15
          12           4           5           6          12           4
           5          14          12           4           5          15
          13           4           5           6          13           4
           5          14          13           4           5          15
           4           5           6           7           4           5
           6          16           4           5           6          17
          14           5           6           7          14           5
           6          16          14           5           6          17
          15           5           6           7          15           5
           6          16          15           5           6          17
           5           6           7           8           5           6
           7          18           5           6           7          19
          16           6           7           8          16           6
           7          18          16           6           7          19
          17           6           7           8          17           6
           7          18          17           6           7          19
           6           7           8           3           6           7
           8          20           6           7           8          21
          18           7           8           3          18           7
           8          20          18           7           8          21
          19           7           8           3          19           7
           8          20          19           7           8          21
Redundant internal coordinates             R   N=         123
  2.69424354E+00  1.81453477E+00  2.76807738E+00  1.92709585E+00  2.89247335E+00
  2.88686189E+00  2.07300411E+00  2.89234361E+00  2.07690111E+00  2.06246123E+00
  2.89154826E+00  2.06536338E+00  2.07277826E+00  2.89194656E+00  2.07282512E+00
  2.06586382E+00  2.89331515E+00  2.06532806E+00  2.07216124E+00  2.07614858E+00
  2.06462105E+00  1.80432004E+00  1.89600895E+00  1.81207523E+00  1.87983189E+00
  1.98921803E+00  1.88169215E+00  1.85456787E+00  1.93600894E+00  1.90101006E+00
  1.89793463E+00  1.93761516E+00  1.89067245E+00  1.91207810E+00  1.90846075E+00
  1.94088670E+00  1.87229182E+00  1.93812560E+00  1.92216870E+00  1.90544308E+00
  1.92830911E+00  1.90578237E+00  1.86226839E+00  1.93611406E+00  1.90394712E+00
  1.92804420E+00  1.90487120E+00  1.92365946E+00  1.86562407E+00  1.94430368E+00
  1.92835867E+00  1.90479363E+00  1.91826731E+00  1.90255655E+00  1.86356845E+00
  1.93861331E+00  1.89908789E+00  1.91083734E+00  1.90513375E+00  1.93814278E+00
  1.87036125E+00 -2.17232282E+00  2.11375977E+00 -9.52099931E-01 -3.10937560E+00
  1.14152098E+00  1.00023943E+00 -1.15703624E+00  3.09386034E+00 -3.11065198E+00
 -1.01495366E+00  1.02217778E+00 -9.83065393E-01  1.11263293E+00 -3.13342093E+00
  1.10525811E+00 -3.08222887E+00 -1.04509743E+00 -3.11916176E+00  1.06643494E+00
 -9.72463468E-01  9.74777075E-01 -1.12281154E+00  3.12147536E+00 -1.11538493E+00
  3.07021177E+00  1.03131336E+00  9.82773182E-01  3.12450425E+00 -1.11942920E+00
 -1.10231620E+00  1.03941487E+00  3.07866672E+00  3.11647661E+00 -1.02497764E+00
  1.01427422E+00 -9.72408962E-01  1.12643336E+00 -3.11091911E+00 -3.11058820E+00
 -1.01174588E+00  1.03408696E+00  1.12959255E+00 -3.05475043E+00 -1.00891759E+00
  9.67066919E-01  3.10456826E+00 -1.13459398E+00 -1.13122601E+00  1.00627534E+00
  3.05029841E+00  3.10811909E+00 -1.03756487E+00  1.00645820E+00 -9.69965108E-01
  1.12403288E+00 -3.10086449E+00 -3.11326347E+00 -1.01926548E+00  1.03902246E+00
  1.13301127E+00 -3.05617605E+00 -9.97888111E-01
ZRed-IntVec                                I   N=         123
           0           0           0           0           0           0
           0           0           0           0           0           0
           0           0           0           0           0           0
           0           0           0           0           0           0
           0           0           0           0           0           0
           0           0           0           0           0           0
           0           0           0           0           0           0
           0           0           0           0           0           0
           0           0           0           0           0           0
           0           0           0           0           0           0
           0           0           0           0           0           0
           0           0           0           0           0           0
           0           0           0           0           0           0
           0           0           0           0           0           0
           0           0           0           0           0           0
           0           0           0           0           0           0
           0           0           0           0           0           0
           0           0           0           0           0           0
           0           0           0           0           0           0
           0           0           0           0           0           0
           0           0           0
ZRed-FPVec                                 R   N=         123
  0.00000000E+00  0.00000000E+00  0.00000000E+00  0.00000000E+00  0.00000000E+00
  0.00000000E+00  0.00000000E+00  0.00000000E+00  0.00000000E+00  0.00000000E+00
  0.00000000E+00  0.00000000E+00  0.00000000E+00  0.00000000E+00  0.00000000E+00
  0.00000000E+00  0.00000000E+00  0.00000000E+00  0.00000000E+00  0.00000000E+00
  0.00000000E+00  0.00000000E+00  0.00000000E+00  0.00000000E+00  0.00000000E+00
  0.00000000E+00  0.00000000E+00  0.00000000E+00  0.00000000E+00  0.00000000E+00
  0.00000000E+00  0.00000000E+00  0.00000000E+00  0.00000000E+00  0.00000000E+00
  0.00000000E+00  0.00000000E+00  0.00000000E+00  0.00000000E+00  0.00000000E+00
  0.00000000E+00  0.00000000E+00  0.00000000E+00  0.00000000E+00  0.00000000E+00
  0.00000000E+00  0.00000000E+00  0.00000000E+00  0.00000000E+00  0.00000000E+00
  0.00000000E+00  0.00000000E+00  0.00000000E+00  0.00000000E+00  0.00000000E+00
  0.00000000E+00  0.00000000E+00  0.00000000E+00  0.00000000E+00  0.00000000E+00
  0.00000000E+00  0.00000000E+00  0.00000000E+00  0.00000000E+00  0.00000000E+00
  0.00000000E+00  0.00000000E+00  0.00000000E+00  0.00000000E+00  0.00000000E+00
  0.00000000E+00  0.00000000E+00  0.00000000E+00  0.00000000E+00  0.00000000E+00
  0.00000000E+00  0.00000000E+00  0.00000000E+00  0.00000000E+00  0.00000000E+00
  0.00000000E+00  0.00000000E+00  0.00000000E+00  0.00000000E+00  0.00000000E+00
  0.00000000E+00  0.00000000E+00  0.00000000E+00  0.00000000E+00  0.00000000E+00
  0.00000000E+00  0.00000000E+00  0.00000000E+00  0.00000000E+00  0.00000000E+00
  0.00000000E+00  0.00000000E+00  0.00000000E+00  0.00000000E+00  0.00000000E+00
  0.00000000E+00  0.00000000E+00  0.00000000E+00  0.00000000E+00  0.00000000E+00
  0.00000000E+00  0.00000000E+00  0.00000000E+00  0.00000000E+00  0.00000000E+00
  0.00000000E+00  0.00000000E+00  0.00000000E+00  0.00000000E+00  0.00000000E+00
  0.00000000E+00  0.00000000E+00  0.00000000E+00  0.00000000E+00  0.00000000E+00
  0.00000000E+00  0.00000000E+00  0.00000000E+00
ZRed-Constraint1                           R   N=         123
  2.69424354E+00  1.81453477E+00  2.76807738E+00  1.92709585E+00  2.89247335E+00
  2.88686189E+00  2.07300411E+00  2.89234361E+00  2.07690111E+00  2.06246123E+00
  2.89154826E+00  2.06536338E+00  2.07277826E+00  2.89194656E+00  2.07282512E+00
  2.06586382E+00  2.89331515E+00  2.06532806E+00  2.07216124E+00  2.07614858E+00
  2.06462105E+00  1.80432004E+00  1.89600895E+00  1.81207523E+00  1.87983189E+00
  1.98921803E+00  1.88169215E+00  1.85456787E+00  1.93600894E+00  1.90101006E+00
  1.89793463E+00  1.93761516E+00  1.89067245E+00  1.91207810E+00  1.90846075E+00
  1.94088670E+00  1.87229182E+00  1.93812560E+00  1.92216870E+00  1.90544308E+00
  1.92830911E+00  1.90578237E+00  1.86226839E+00  1.93611406E+00  1.90394712E+00
  1.92804420E+00  1.90487120E+00  1.92365946E+00  1.86562407E+00  1.94430368E+00
  1.92835867E+00  1.90479363E+00  1.91826731E+00  1.90255655E+00  1.86356845E+00
  1.93861331E+00  1.89908789E+00  1.91083734E+00  1.90513375E+00  1.93814278E+00
  1.87036125E+00 -2.17232282E+00  2.11375977E+00 -9.52099931E-01 -3.10937560E+00
  1.14152098E+00  1.00023943E+00 -1.15703624E+00  3.09386034E+00 -3.11065198E+00
 -1.01495366E+00  1.02217778E+00 -9.83065393E-01  1.11263293E+00 -3.13342093E+00
  1.10525811E+00 -3.08222887E+00 -1.04509743E+00 -3.11916176E+00  1.06643494E+00
 -9.72463468E-01  9.74777075E-01 -1.12281154E+00  3.12147536E+00 -1.11538493E+00
  3.07021177E+00  1.03131336E+00  9.82773182E-01  3.12450425E+00 -1.11942920E+00
 -1.10231620E+00  1.03941487E+00  3.07866672E+00  3.11647661E+00 -1.02497764E+00
  1.01427422E+00 -9.72408962E-01  1.12643336E+00 -3.11091911E+00 -3.11058820E+00
 -1.01174588E+00  1.03408696E+00  1.12959255E+00 -3.05475043E+00 -1.00891759E+00
  9.67066919E-01  3.10456826E+00 -1.13459398E+00 -1.13122601E+00  1.00627534E+00
  3.05029841E+00  3.10811909E+00 -1.03756487E+00  1.00645820E+00 -9.69965108E-01
  1.12403288E+00 -3.10086449E+00 -3.11326347E+00 -1.01926548E+00  1.03902246E+00
  1.13301127E+00 -3.05617605E+00 -9.97888111E-01
ZRed-Constraint2                           R   N=         123
  2.56805672E+00  1.81406091E+00  2.79727419E+00  1.90866154E+00  2.94416753E+00
  2.93999926E+00  2.05980109E+00  2.93009901E+00  2.05981092E+00  2.05990134E+00
  2.92831032E+00  2.05981096E+00  2.05986500E+00  2.92987506E+00  2.05967195E+00
  2.05990808E+00  2.93127237E+00  2.05993042E+00  2.05971371E+00  2.05970439E+00
  2.05981729E+00  1.91072455E+00  1.93813464E+00  2.11040043E+00  2.23465024E+00
  1.94704389E+00  1.90477977E+00  1.84711605E+00  1.93123024E+00  1.89579542E+00
  1.93644994E+00  1.95370947E+00  1.85598219E+00  1.85599162E+00  1.85284357E+00
  1.85286980E+00  2.09429756E+00  1.95479160E+00  1.85444180E+00  1.85435014E+00
  1.85393892E+00  1.85390826E+00  2.09441631E+00  1.95069354E+00  1.85480106E+00
  1.85485188E+00  1.85530831E+00  1.85521039E+00  2.09442033E+00  1.95658991E+00
  1.85358512E+00  1.85370421E+00  1.85389259E+00  1.85394156E+00  2.09437919E+00
  1.95832716E+00  1.85441078E+00  1.85442803E+00  1.85237614E+00  1.85231684E+00
  2.09446648E+00 -1.64503714E+00  1.49648948E+00 -1.13780466E+00  3.00596860E+00
  9.21027121E-01  2.00385992E+00 -1.35552120E-01 -2.22049360E+00 -3.07602631E+00
 -1.05988193E+00  1.19097773E+00 -9.51847953E-01  1.06429642E+00 -2.96802922E+00
  1.17780337E+00 -3.08923756E+00 -8.38377894E-01  3.09461474E+00  1.07756466E+00
 -1.17158133E+00  9.45750155E-01 -1.07129992E+00  2.96273940E+00 -1.15987493E+00
  3.10626030E+00  8.57114306E-01  9.51911990E-01  2.96902145E+00 -1.06510696E+00
 -1.06614423E+00  9.50965226E-01 -3.08316318E+00  2.96999484E+00 -1.29608101E+00
  9.52975891E-01 -9.29197827E-01  1.08764505E+00 -2.94595344E+00 -2.94661322E+00
 -9.29770343E-01  1.31981647E+00  1.08808997E+00  3.10493285E+00 -9.28665641E-01
  9.21564671E-01  2.93904360E+00 -1.09604307E+00 -1.09496816E+00  9.22510769E-01
 -3.11257590E+00  2.93810114E+00 -1.32760524E+00  9.20493403E-01 -9.38587379E-01
  1.07969558E+00 -2.95685590E+00 -2.95587962E+00 -9.37596665E-01  1.30903717E+00
  1.07887626E+00  3.09715921E+00 -9.39392260E-01
SymInf integers                            I   N=          26
           1           1           1           1           1           0
           0           0           0           0           0           0
           0           0           0           0           0           0
           0           0           0           0           0           0
           0           0
RotTr to input orientation                 R   N=          12
 -7.25646982E-01 -6.63462082E-01 -1.82358228E-01  5.70881566E-01 -4.32584987E-01
 -6.97828394E-01  3.84097247E-01 -6.10482018E-01  6.92662263E-01 -1.66545932E+00
 -2.99911590E+00 -4.33588871E-01
Number of contracted shells                I              113
Number of primitive shells                 I              195
Pure/Cartesian d shells                    I                0
Pure/Cartesian f shells                    I                0
Highest angular momentum                   I                2
Largest degree of contraction              I                6
Shell types                                I   N=         113
           0          -1          -1          -1          -1          -2
           0          -1          -1          -1          -1          -2
           0          -1          -1          -1          -1          -2
           0          -1          -1          -1          -1          -2
           0          -1          -1          -1          -1          -2
           0          -1          -1          -1          -1          -2
           0          -1          -1          -1          -1          -2
           0          -1          -1          -1          -1          -2
           0           0           0           0           1           0
           0           0           0           1           0           0
           0           0           1           0           0           0
           0           1           0           0           0           0
           1           0           0           0           0           1
           0           0           0           0           1           0
           0           0           0           1           0           0
           0           0           1           0           0           0
           0           1           0           0           0           0
           1           0           0           0           0           1
           0           0           0           0           1
Number of primitives per shell             I   N=         113
           6           3           1           1           1           1
           6           3           1           1           1           1
           6           3           1           1           1           1
           6           3           1           1           1           1
           6           3           1           1           1           1
           6           3           1           1           1           1
           6           3           1           1           1           1
           6           3           1           1           1           1
           3           1           1           1           1           3
           1           1           1           1           3           1
           1           1           1           3           1           1
           1           1           3           1           1           1
           1           3           1           1           1           1
           3           1           1           1           1           3
           1           1           1           1           3           1
           1           1           1           3           1           1
           1           1           3           1           1           1
           1           3           1           1           1           1
           3           1           1           1           1
Shell to atom map                          I   N=         113
           1           1           1           1           1           1
           2           2           2           2           2           2
           3           3           3           3           3           3
           4           4           4           4           4           4
           5           5           5           5           5           5
           6           6           6           6           6           6
           7           7           7           7           7           7
           8           8           8           8           8           8
           9           9           9           9           9          10
          10          10          10          10          11          11
          11          11          11          12          12          12
          12          12          13          13          13          13
          13          14          14          14          14          14
          15          15          15          15          15          16
          16          16          16          16          17          17
          17          17          17          18          18          18
          18          18          19          19          19          19
          19          20          20          20          20          20
          21          21          21          21          21
Primitive exponents                        R   N=         195
  8.58850000E+03  1.29723000E+03  2.99296000E+02  8.73771000E+01  2.56789000E+01
  3.74004000E+00  4.21175000E+01  9.62837000E+00  2.85332000E+00  9.05661000E-01
  2.55611000E-01  8.45000000E-02  1.29200000E+00  6.29348000E+03  9.49044000E+02
  2.18776000E+02  6.36916000E+01  1.88282000E+01  2.72023000E+00  3.06331000E+01
  7.02614000E+00  2.11205000E+00  6.84009000E-01  2.00878000E-01  6.39000000E-02
  9.13000000E-01  4.56324000E+03  6.82024000E+02  1.54973000E+02  4.44553000E+01
  1.30290000E+01  1.82773000E+00  2.09642000E+01  4.80331000E+00  1.45933000E+00
  4.83456000E-01  1.45585000E-01  4.38000000E-02  6.26000000E-01  4.56324000E+03
  6.82024000E+02  1.54973000E+02  4.44553000E+01  1.30290000E+01  1.82773000E+00