 Entering Gaussian System, Link 0=/apps/cent7/gaussian/g16-A.03/g16-haswell/g16/g16
 Initial command:
 /apps/cent7/gaussian/g16-A.03/g16-haswell/g16/l1.exe "/scratch/brown/finej/gaussian/Gau-33112.inp" -scrdir="/scratch/brown/finej/gaussian/"
 Entering Link 1 = /apps/cent7/gaussian/g16-A.03/g16-haswell/g16/l1.exe PID=     33113.
  
 Copyright (c) 1988,1990,1992,1993,1995,1998,2003,2009,2016,
            Gaussian, Inc.  All Rights Reserved.
  
 This is part of the Gaussian(R) 16 program.  It is based on
 the Gaussian(R) 09 system (copyright 2009, Gaussian, Inc.),
 the Gaussian(R) 03 system (copyright 2003, Gaussian, Inc.),
 the Gaussian(R) 98 system (copyright 1998, Gaussian, Inc.),
 the Gaussian(R) 94 system (copyright 1995, Gaussian, Inc.),
 the Gaussian 92(TM) system (copyright 1992, Gaussian, Inc.),
 the Gaussian 90(TM) system (copyright 1990, Gaussian, Inc.),
 the Gaussian 88(TM) system (copyright 1988, Gaussian, Inc.),
 the Gaussian 86(TM) system (copyright 1986, Carnegie Mellon
 University), and the Gaussian 82(TM) system (copyright 1983,
 Carnegie Mellon University). Gaussian is a federally registered
 trademark of Gaussian, Inc.
  
 This software contains proprietary and confidential information,
 including trade secrets, belonging to Gaussian, Inc.
  
 This software is provided under written license and may be
 used, copied, transmitted, or stored only in accord with that
 written license.
  
 The following legend is applicable only to US Government
 contracts under FAR:
  
                    RESTRICTED RIGHTS LEGEND
  
 Use, reproduction and disclosure by the US Government is
 subject to restrictions as set forth in subparagraphs (a)
 and (c) of the Commercial Computer Software - Restricted
 Rights clause in FAR 52.227-19.
  
 Gaussian, Inc.
 340 Quinnipiac St., Bldg. 40, Wallingford CT 06492
  
  
 ---------------------------------------------------------------
 Warning -- This program may not be used in any manner that
 competes with the business of Gaussian, Inc. or will provide
 assistance to any competitor of Gaussian, Inc.  The licensee
 of this program is prohibited from giving any competitor of
 Gaussian, Inc. access to this program.  By using this program,
 the user acknowledges that Gaussian, Inc. is engaged in the
 business of creating and licensing software in the field of
 computational chemistry and represents and warrants to the
 licensee that it is not a competitor of Gaussian, Inc. and that
 it will not use this program in any manner prohibited above.
 ---------------------------------------------------------------
  

 Cite this work as:
 Gaussian 16, Revision A.03,
 M. J. Frisch, G. W. Trucks, H. B. Schlegel, G. E. Scuseria, 
 M. A. Robb, J. R. Cheeseman, G. Scalmani, V. Barone, 
 G. A. Petersson, H. Nakatsuji, X. Li, M. Caricato, A. V. Marenich, 
 J. Bloino, B. G. Janesko, R. Gomperts, B. Mennucci, H. P. Hratchian, 
 J. V. Ortiz, A. F. Izmaylov, J. L. Sonnenberg, D. Williams-Young, 
 F. Ding, F. Lipparini, F. Egidi, J. Goings, B. Peng, A. Petrone, 
 T. Henderson, D. Ranasinghe, V. G. Zakrzewski, J. Gao, N. Rega, 
 G. Zheng, W. Liang, M. Hada, M. Ehara, K. Toyota, R. Fukuda, 
 J. Hasegawa, M. Ishida, T. Nakajima, Y. Honda, O. Kitao, H. Nakai, 
 T. Vreven, K. Throssell, J. A. Montgomery, Jr., J. E. Peralta, 
 F. Ogliaro, M. J. Bearpark, J. J. Heyd, E. N. Brothers, K. N. Kudin, 
 V. N. Staroverov, T. A. Keith, R. Kobayashi, J. Normand, 
 K. Raghavachari, A. P. Rendell, J. C. Burant, S. S. Iyengar, 
 J. Tomasi, M. Cossi, J. M. Millam, M. Klene, C. Adamo, R. Cammi, 
 J. W. Ochterski, R. L. Martin, K. Morokuma, O. Farkas, 
 J. B. Foresman, and D. J. Fox, Gaussian, Inc., Wallingford CT, 2016.
 
 ******************************************
 Gaussian 16:  ES64L-G16RevA.03 25-Dec-2016
                13-Oct-2019 
 ******************************************
 %chk=11.chk
 %nprocshared=24
 Will use up to   24 processors via shared memory.
 %mem=80GB
 -------------------------------------------------------------------
 #P opt freq m062x/6-311++g(d,p) geom=connectivity temperature=0.001
 -------------------------------------------------------------------
 1/18=20,19=15,26=3,38=1,57=2,112=-1000/1,3;
 2/9=110,12=2,17=6,18=5,40=1/2;
 3/5=4,6=6,7=1111,11=2,25=1,30=1,71=1,74=-55/1,2,3;
 4//1;
 5/5=2,38=5/2;
 6/7=2,8=2,9=2,10=2,28=1/1;
 7//1,2,3,16;
 1/18=20,19=15,26=3/3(2);
 2/9=110/2;
 99//99;
 2/9=110/2;
 3/5=4,6=6,7=1111,11=2,25=1,30=1,71=1,74=-55/1,2,3;
 4/5=5,16=3,69=1/1;
 5/5=2,38=5/2;
 7//1,2,3,16;
 1/18=20,19=15,26=3/3(-5);
 2/9=110/2;
 6/7=2,8=2,9=2,10=2,19=2,28=1/1;
 99/9=1/99;
 Leave Link    1 at Sun Oct 13 19:37:55 2019, MaxMem= 10737418240 cpu:               1.9 elap:               0.1
 (Enter /apps/cent7/gaussian/g16-A.03/g16-haswell/g16/l101.exe)
 -------------------
 Title Card Required
 -------------------
 Symbolic Z-matrix:
 Charge =  0 Multiplicity = 1
 O                     1.4691    0.1099    0.0818 
 N                     0.1166    0.1616    0.2036 
 C                    -0.4743   -1.1945    0.149 
 C                    -0.2616   -1.8559   -1.2455 
 C                    -0.9574   -3.2381   -1.3433 
 C                    -2.4641   -3.1558   -0.9907 
 C                    -2.6964   -2.4816    0.386 
 C                    -1.99     -1.1044    0.4881 
 H                     1.8687    0.0945    0.9545 
 H                    -0.3611    1.0446    0.3143 
 H                     0.0583   -1.7813    0.8974 
 H                    -0.7617   -1.2126   -1.9695 
 H                     0.8078   -2.0476   -1.3341 
 H                    -0.9056   -3.5322   -2.3916 
 H                    -0.4994   -3.8649   -0.5781 
 H                    -2.9161   -2.4985   -1.7334 
 H                    -2.8109   -4.1843   -0.89 
 H                    -3.7659   -2.2807    0.4497 
 H                    -2.2178   -3.1248    1.1244 
 H                    -2.438    -0.4764   -0.2819 
 H                    -2.0512   -0.8096    1.5357 
 
 ITRead=  0  0  0  0  0  0  0  0  0  0  0  0  0  0  0  0  0  0  0  0
 ITRead=  0
 MicOpt= -1 -1 -1 -1 -1 -1 -1 -1 -1 -1 -1 -1 -1 -1 -1 -1 -1 -1 -1 -1
 MicOpt= -1
 NAtoms=     21 NQM=       21 NQMF=       0 NMMI=      0 NMMIF=      0
                NMic=       0 NMicF=      0.
                    Isotopes and Nuclear Properties:
 (Nuclear quadrupole moments (NQMom) in fm**2, nuclear magnetic moments (NMagM)
  in nuclear magnetons)

  Atom         1           2           3           4           5           6           7           8           9          10
 IAtWgt=          16          14          12          12          12          12          12          12           1           1
 AtmWgt=  15.9949146  14.0030740  12.0000000  12.0000000  12.0000000  12.0000000  12.0000000  12.0000000   1.0078250   1.0078250
 NucSpn=           0           2           0           0           0           0           0           0           1           1
 AtZEff=  -0.0000000  -0.0000000  -0.0000000  -0.0000000  -0.0000000  -0.0000000  -0.0000000  -0.0000000  -0.0000000  -0.0000000
 NQMom=    0.0000000   2.0440000   0.0000000   0.0000000   0.0000000   0.0000000   0.0000000   0.0000000   0.0000000   0.0000000
 NMagM=    0.0000000   0.4037610   0.0000000   0.0000000   0.0000000   0.0000000   0.0000000   0.0000000   2.7928460   2.7928460
 AtZNuc=   8.0000000   7.0000000   6.0000000   6.0000000   6.0000000   6.0000000   6.0000000   6.0000000   1.0000000   1.0000000

  Atom        11          12          13          14          15          16          17          18          19          20
 IAtWgt=           1           1           1           1           1           1           1           1           1           1
 AtmWgt=   1.0078250   1.0078250   1.0078250   1.0078250   1.0078250   1.0078250   1.0078250   1.0078250   1.0078250   1.0078250
 NucSpn=           1           1           1           1           1           1           1           1           1           1
 AtZEff=  -0.0000000  -0.0000000  -0.0000000  -0.0000000  -0.0000000  -0.0000000  -0.0000000  -0.0000000  -0.0000000  -0.0000000
 NQMom=    0.0000000   0.0000000   0.0000000   0.0000000   0.0000000   0.0000000   0.0000000   0.0000000   0.0000000   0.0000000
 NMagM=    2.7928460   2.7928460   2.7928460   2.7928460   2.7928460   2.7928460   2.7928460   2.7928460   2.7928460   2.7928460
 AtZNuc=   1.0000000   1.0000000   1.0000000   1.0000000   1.0000000   1.0000000   1.0000000   1.0000000   1.0000000   1.0000000

  Atom        21
 IAtWgt=           1
 AtmWgt=   1.0078250
 NucSpn=           1
 AtZEff=  -0.0000000
 NQMom=    0.0000000
 NMagM=    2.7928460
 AtZNuc=   1.0000000
 Leave Link  101 at Sun Oct 13 19:37:55 2019, MaxMem= 10737418240 cpu:               8.4 elap:               0.4
 (Enter /apps/cent7/gaussian/g16-A.03/g16-haswell/g16/l103.exe)

 GradGradGradGradGradGradGradGradGradGradGradGradGradGradGradGradGradGrad
 Berny optimization.
 Initialization pass.
                           ----------------------------
                           !    Initial Parameters    !
                           ! (Angstroms and Degrees)  !
 --------------------------                            --------------------------
 ! Name  Definition              Value          Derivative Info.                !
 --------------------------------------------------------------------------------
 ! R1    R(1,2)                  1.359          estimate D2E/DX2                !
 ! R2    R(1,9)                  0.96           estimate D2E/DX2                !
 ! R3    R(2,3)                  1.4803         estimate D2E/DX2                !
 ! R4    R(2,10)                 1.01           estimate D2E/DX2                !
 ! R5    R(3,4)                  1.558          estimate D2E/DX2                !
 ! R6    R(3,8)                  1.5558         estimate D2E/DX2                !
 ! R7    R(3,11)                 1.09           estimate D2E/DX2                !
 ! R8    R(4,5)                  1.5505         estimate D2E/DX2                !
 ! R9    R(4,12)                 1.09           estimate D2E/DX2                !
 ! R10   R(4,13)                 1.0901         estimate D2E/DX2                !
 ! R11   R(5,6)                  1.5496         estimate D2E/DX2                !
 ! R12   R(5,14)                 1.09           estimate D2E/DX2                !
 ! R13   R(5,15)                 1.09           estimate D2E/DX2                !
 ! R14   R(6,7)                  1.5504         estimate D2E/DX2                !
 ! R15   R(6,16)                 1.0899         estimate D2E/DX2                !
 ! R16   R(6,17)                 1.0901         estimate D2E/DX2                !
 ! R17   R(7,8)                  1.5512         estimate D2E/DX2                !
 ! R18   R(7,18)                 1.0901         estimate D2E/DX2                !
 ! R19   R(7,19)                 1.09           estimate D2E/DX2                !
 ! R20   R(8,20)                 1.0899         estimate D2E/DX2                !
 ! R21   R(8,21)                 1.09           estimate D2E/DX2                !
 ! A1    A(2,1,9)              109.4765         estimate D2E/DX2                !
 ! A2    A(1,2,3)              111.0469         estimate D2E/DX2                !
 ! A3    A(1,2,10)             120.917          estimate D2E/DX2                !
 ! A4    A(3,2,10)             128.036          estimate D2E/DX2                !
 ! A5    A(2,3,4)              111.5574         estimate D2E/DX2                !
 ! A6    A(2,3,8)              109.1358         estimate D2E/DX2                !
 ! A7    A(2,3,11)             105.832          estimate D2E/DX2                !
 ! A8    A(4,3,8)              110.6513         estimate D2E/DX2                !
 ! A9    A(4,3,11)             108.6211         estimate D2E/DX2                !
 ! A10   A(8,3,11)             110.9504         estimate D2E/DX2                !
 ! A11   A(3,4,5)              111.9393         estimate D2E/DX2                !
 ! A12   A(3,4,12)             106.3399         estimate D2E/DX2                !
 ! A13   A(3,4,13)             106.3405         estimate D2E/DX2                !
 ! A14   A(5,4,12)             106.1601         estimate D2E/DX2                !
 ! A15   A(5,4,13)             106.1616         estimate D2E/DX2                !
 ! A16   A(12,4,13)            119.9944         estimate D2E/DX2                !
 ! A17   A(4,5,6)              112.0013         estimate D2E/DX2                !
 ! A18   A(4,5,14)             106.2517         estimate D2E/DX2                !
 ! A19   A(4,5,15)             106.2464         estimate D2E/DX2                !
 ! A20   A(6,5,14)             106.2229         estimate D2E/DX2                !
 ! A21   A(6,5,15)             106.2211         estimate D2E/DX2                !
 ! A22   A(14,5,15)            120.0012         estimate D2E/DX2                !
 ! A23   A(5,6,7)              111.7665         estimate D2E/DX2                !
 ! A24   A(5,6,16)             106.2723         estimate D2E/DX2                !
 ! A25   A(5,6,17)             106.2752         estimate D2E/DX2                !
 ! A26   A(7,6,16)             106.3013         estimate D2E/DX2                !
 ! A27   A(7,6,17)             106.2957         estimate D2E/DX2                !
 ! A28   A(16,6,17)            120.0014         estimate D2E/DX2                !
 ! A29   A(6,7,8)              112.1043         estimate D2E/DX2                !
 ! A30   A(6,7,18)             106.2026         estimate D2E/DX2                !
 ! A31   A(6,7,19)             106.2094         estimate D2E/DX2                !
 ! A32   A(8,7,18)             106.2202         estimate D2E/DX2                !
 ! A33   A(8,7,19)             106.223          estimate D2E/DX2                !
 ! A34   A(18,7,19)            119.9991         estimate D2E/DX2                !
 ! A35   A(3,8,7)              112.2039         estimate D2E/DX2                !
 ! A36   A(3,8,20)             106.2499         estimate D2E/DX2                !
 ! A37   A(3,8,21)             106.2509         estimate D2E/DX2                !
 ! A38   A(7,8,20)             106.1333         estimate D2E/DX2                !
 ! A39   A(7,8,21)             106.1299         estimate D2E/DX2                !
 ! A40   A(20,8,21)            120.0041         estimate D2E/DX2                !
 ! D1    D(9,1,2,3)            -94.2537         estimate D2E/DX2                !
 ! D2    D(9,1,2,10)            85.7425         estimate D2E/DX2                !
 ! D3    D(1,2,3,4)            -65.1914         estimate D2E/DX2                !
 ! D4    D(1,2,3,8)            172.2293         estimate D2E/DX2                !
 ! D5    D(1,2,3,11)            52.771          estimate D2E/DX2                !
 ! D6    D(10,2,3,4)           114.8127         estimate D2E/DX2                !
 ! D7    D(10,2,3,8)            -7.7666         estimate D2E/DX2                !
 ! D8    D(10,2,3,11)         -127.2249         estimate D2E/DX2                !
 ! D9    D(2,3,4,5)           -176.2433         estimate D2E/DX2                !
 ! D10   D(2,3,4,12)           -60.7268         estimate D2E/DX2                !
 ! D11   D(2,3,4,13)            68.238          estimate D2E/DX2                !
 ! D12   D(8,3,4,5)            -54.5369         estimate D2E/DX2                !
 ! D13   D(8,3,4,12)            60.9797         estimate D2E/DX2                !
 ! D14   D(8,3,4,13)          -170.0555         estimate D2E/DX2                !
 ! D15   D(11,3,4,5)            67.4832         estimate D2E/DX2                !
 ! D16   D(11,3,4,12)         -177.0003         estimate D2E/DX2                !
 ! D17   D(11,3,4,13)          -48.0355         estimate D2E/DX2                !
 ! D18   D(2,3,8,7)            177.3084         estimate D2E/DX2                !
 ! D19   D(2,3,8,20)            61.7399         estimate D2E/DX2                !
 ! D20   D(2,3,8,21)           -67.1267         estimate D2E/DX2                !
 ! D21   D(4,3,8,7)             54.1875         estimate D2E/DX2                !
 ! D22   D(4,3,8,20)           -61.381          estimate D2E/DX2                !
 ! D23   D(4,3,8,21)           169.7525         estimate D2E/DX2                !
 ! D24   D(11,3,8,7)           -66.4559         estimate D2E/DX2                !
 ! D25   D(11,3,8,20)          177.9756         estimate D2E/DX2                !
 ! D26   D(11,3,8,21)           49.109          estimate D2E/DX2                !
 ! D27   D(3,4,5,6)             54.5405         estimate D2E/DX2                !
 ! D28   D(3,4,5,14)           170.1124         estimate D2E/DX2                !
 ! D29   D(3,4,5,15)           -61.0261         estimate D2E/DX2                !
 ! D30   D(12,4,5,6)           -61.0856         estimate D2E/DX2                !
 ! D31   D(12,4,5,14)           54.4863         estimate D2E/DX2                !
 ! D32   D(12,4,5,15)         -176.6522         estimate D2E/DX2                !
 ! D33   D(13,4,5,6)           170.1682         estimate D2E/DX2                !
 ! D34   D(13,4,5,14)          -74.26           estimate D2E/DX2                !
 ! D35   D(13,4,5,15)           54.6015         estimate D2E/DX2                !
 ! D36   D(4,5,6,7)            -53.2391         estimate D2E/DX2                !
 ! D37   D(4,5,6,16)            62.3175         estimate D2E/DX2                !
 ! D38   D(4,5,6,17)          -168.7907         estimate D2E/DX2                !
 ! D39   D(14,5,6,7)          -168.8285         estimate D2E/DX2                !
 ! D40   D(14,5,6,16)          -53.2719         estimate D2E/DX2                !
 ! D41   D(14,5,6,17)           75.6199         estimate D2E/DX2                !
 ! D42   D(15,5,6,7)            62.343          estimate D2E/DX2                !
 ! D43   D(15,5,6,16)          177.8995         estimate D2E/DX2                !
 ! D44   D(15,5,6,17)          -53.2086         estimate D2E/DX2                !
 ! D45   D(5,6,7,8)             52.8018         estimate D2E/DX2                !
 ! D46   D(5,6,7,18)           168.3948         estimate D2E/DX2                !
 ! D47   D(5,6,7,19)           -62.7986         estimate D2E/DX2                !
 ! D48   D(16,6,7,8)           -62.7371         estimate D2E/DX2                !
 ! D49   D(16,6,7,18)           52.856          estimate D2E/DX2                !
 ! D50   D(16,6,7,19)         -178.3375         estimate D2E/DX2                !
 ! D51   D(17,6,7,8)           168.3408         estimate D2E/DX2                !
 ! D52   D(17,6,7,18)          -76.0662         estimate D2E/DX2                !
 ! D53   D(17,6,7,19)           52.7404         estimate D2E/DX2                !
 ! D54   D(6,7,8,3)            -53.7771         estimate D2E/DX2                !
 ! D55   D(6,7,8,20)            61.862          estimate D2E/DX2                !
 ! D56   D(6,7,8,21)          -169.4154         estimate D2E/DX2                !
 ! D57   D(18,7,8,3)          -169.3594         estimate D2E/DX2                !
 ! D58   D(18,7,8,20)          -53.7203         estimate D2E/DX2                !
 ! D59   D(18,7,8,21)           75.0023         estimate D2E/DX2                !
 ! D60   D(19,7,8,3)            61.8151         estimate D2E/DX2                !
 ! D61   D(19,7,8,20)          177.4542         estimate D2E/DX2                !
 ! D62   D(19,7,8,21)          -53.8232         estimate D2E/DX2                !
 --------------------------------------------------------------------------------
 Trust Radius=3.00D-01 FncErr=1.00D-07 GrdErr=1.00D-06 EigMax=2.50D+02 EigMin=1.00D-04
 Number of steps in this run=    126 maximum allowed number of steps=    126.
 GradGradGradGradGradGradGradGradGradGradGradGradGradGradGradGradGradGrad

 Leave Link  103 at Sun Oct 13 19:37:55 2019, MaxMem= 10737418240 cpu:               0.3 elap:               0.0
 (Enter /apps/cent7/gaussian/g16-A.03/g16-haswell/g16/l202.exe)
                          Input orientation:                          
 ---------------------------------------------------------------------
 Center     Atomic      Atomic             Coordinates (Angstroms)
 Number     Number       Type             X           Y           Z
 ---------------------------------------------------------------------
      1          8           0        1.469100    0.109900    0.081800
      2          7           0        0.116600    0.161600    0.203600
      3          6           0       -0.474300   -1.194500    0.149000
      4          6           0       -0.261600   -1.855900   -1.245500
      5          6           0       -0.957400   -3.238100   -1.343300
      6          6           0       -2.464100   -3.155800   -0.990700
      7          6           0       -2.696400   -2.481600    0.386000
      8          6           0       -1.990000   -1.104400    0.488100
      9          1           0        1.868700    0.094500    0.954500
     10          1           0       -0.361100    1.044600    0.314300
     11          1           0        0.058300   -1.781300    0.897400
     12          1           0       -0.761700   -1.212600   -1.969500
     13          1           0        0.807800   -2.047600   -1.334100
     14          1           0       -0.905600   -3.532200   -2.391600
     15          1           0       -0.499400   -3.864900   -0.578100
     16          1           0       -2.916100   -2.498500   -1.733400
     17          1           0       -2.810900   -4.184300   -0.890000
     18          1           0       -3.765900   -2.280700    0.449700
     19          1           0       -2.217800   -3.124800    1.124400
     20          1           0       -2.438000   -0.476400   -0.281900
     21          1           0       -2.051200   -0.809600    1.535700
 ---------------------------------------------------------------------
                    Distance matrix (angstroms):
                    1          2          3          4          5
     1  O    0.000000
     2  N    1.358957   0.000000
     3  C    2.341533   1.480254   0.000000
     4  C    2.936225   2.512615   1.557986   0.000000
     5  C    4.373547   3.886430   2.576169   1.550542   0.000000
     6  C    5.223516   4.369383   3.017436   2.570150   1.549595
     7  C    4.915262   3.864291   2.578861   2.996922   2.566494
     8  C    3.688493   2.474158   1.555781   2.560759   2.995491
     9  H    0.959960   1.907409   2.792848   3.630735   4.936897
    10  H    2.068176   1.010020   2.248045   3.294811   4.630846
    11  H    2.496437   2.063884   1.090000   2.167930   2.859134
    12  H    3.306555   2.717020   2.137982   1.090005   2.129102
    13  H    2.664000   2.779000   2.138024   1.090053   2.129156
    14  H    5.002180   4.628619   3.479297   2.130320   1.090005
    15  H    4.484361   4.147676   2.767732   2.130271   1.090034
    16  H    5.415596   4.474972   3.347571   2.774410   2.129716
    17  H    6.140273   5.352856   3.934225   3.470844   2.129844
    18  H    5.766762   4.593387   3.479207   3.915900   3.466863
    19  H    5.014333   4.134939   2.777995   3.324643   2.773263
    20  H    3.967550   2.677449   2.134821   2.751047   3.308434
    21  H    3.918140   2.723431   2.134877   3.468787   3.922072
                    6          7          8          9         10
     6  C    0.000000
     7  C    1.550423   0.000000
     8  C    2.572909   1.551163   0.000000
     9  H    5.755120   5.272535   4.067488   0.000000
    10  H    4.875346   4.229994   2.702170   2.506901   0.000000
    11  H    3.437539   2.887962   2.195735   2.607572   2.915753
    12  H    2.762651   3.301788   2.749586   4.144550   3.235919
    13  H    3.471507   3.927661   3.469542   3.309349   3.693948
    14  H    2.129112   3.467822   3.919542   5.660926   5.344668
    15  H    2.129110   2.769443   3.313462   4.861441   4.991863
    16  H    1.089931   2.130824   2.781409   6.069824   4.824382
    17  H    1.090056   2.130839   3.472581   6.603708   5.898581
    18  H    2.129609   1.090068   2.130488   6.135562   4.761157
    19  H    2.129618   1.089954   2.130443   5.205021   4.635460
    20  H    2.771690   2.129246   1.089949   4.516888   2.642425
    21  H    3.472440   2.129243   1.090008   4.064579   2.790397
                   11         12         13         14         15
    11  H    0.000000
    12  H    3.035611   0.000000
    13  H    2.369021   1.887932   0.000000
    14  H    3.848672   2.362080   2.501616   0.000000
    15  H    2.613335   3.006575   2.362813   1.887980   0.000000
    16  H    4.035163   2.520064   3.772291   2.354543   3.007026
    17  H    4.147471   3.767697   4.225837   2.512012   2.354215
    18  H    3.882569   4.002322   4.914775   4.221440   3.773074
    19  H    2.652763   3.917774   4.044606   3.774930   2.529655
    20  H    3.053691   2.489973   3.756463   4.017088   3.915078
    21  H    2.408655   3.756547   4.235833   4.914126   4.026300
                   16         17         18         19         20
    16  H    0.000000
    17  H    1.887939   0.000000
    18  H    2.352769   2.516051   0.000000
    19  H    3.007806   2.352045   1.887946   0.000000
    20  H    2.534624   3.775892   2.356704   3.006691   0.000000
    21  H    3.779874   4.224898   2.506736   2.357345   1.887937
                   21
    21  H    0.000000
 Stoichiometry    C6H13NO
 Framework group  C1[X(C6H13NO)]
 Deg. of freedom    57
 Full point group                 C1      NOp   1
 Largest Abelian subgroup         C1      NOp   1
 Largest concise Abelian subgroup C1      NOp   1
                         Standard orientation:                         
 ---------------------------------------------------------------------
 Center     Atomic      Atomic             Coordinates (Angstroms)
 Number     Number       Type             X           Y           Z
 ---------------------------------------------------------------------
      1          8           0       -2.879954    0.417434    0.160814
      2          7           0       -1.977647   -0.489654   -0.297223
      3          6           0       -0.624266   -0.206793    0.231456
      4          6           0       -0.074309    1.150630   -0.299837
      5          6           0        1.379017    1.411883    0.173205
      6          6           0        2.328475    0.244242   -0.196107
      7          6           0        1.786886   -1.118434    0.307486
      8          6           0        0.328678   -1.374099   -0.155516
      9          1           0       -3.309338    0.072756    0.947165
     10          1           0       -2.260573   -1.236058   -0.916072
     11          1           0       -0.736192   -0.137418    1.313472
     12          1           0       -0.028326    1.059226   -1.385029
     13          1           0       -0.686316    1.928999    0.156020
     14          1           0        1.730665    2.278855   -0.386092
     15          1           0        1.344264    1.443277    1.262232
     16          1           0        2.334147    0.187819   -1.284563
     17          1           0        3.257546    0.423061    0.345256
     18          1           0        2.397156   -1.884118   -0.171625
     19          1           0        1.753505   -1.049536    1.394748
     20          1           0        0.356380   -1.396853   -1.244874
     21          1           0       -0.016653   -2.246483    0.399291
 ---------------------------------------------------------------------
 Rotational constants (GHZ):           3.9214674           1.3129078           1.0590757
 Leave Link  202 at Sun Oct 13 19:37:55 2019, MaxMem= 10737418240 cpu:               0.9 elap:               0.1
 (Enter /apps/cent7/gaussian/g16-A.03/g16-haswell/g16/l301.exe)
 Standard basis: 6-311++G(d,p) (5D, 7F)
 Ernie: Thresh=  0.10000D-02 Tol=  0.10000D-05 Strict=F.
 There are   275 symmetry adapted cartesian basis functions of A   symmetry.
 There are   267 symmetry adapted basis functions of A   symmetry.
   267 basis functions,   405 primitive gaussians,   275 cartesian basis functions
    32 alpha electrons       32 beta electrons
       nuclear repulsion energy       406.8265022406 Hartrees.
 IExCor= 4336 DFT=T Ex+Corr=M062X ExCW=0 ScaHFX=  0.540000
 ScaDFX=  1.000000  1.000000  1.000000  1.000000 ScalE2=  1.000000  1.000000
 IRadAn=      5 IRanWt=     -1 IRanGd=            0 ICorTp=0 IEmpDi=  4
 NAtoms=   21 NActive=   21 NUniq=   21 SFac= 1.00D+00 NAtFMM=   60 NAOKFM=F Big=F
 Integral buffers will be    131072 words long.
 Raffenetti 2 integral format.
 Two-electron integral symmetry is turned on.
 Leave Link  301 at Sun Oct 13 19:37:55 2019, MaxMem= 10737418240 cpu:               1.4 elap:               0.1
 (Enter /apps/cent7/gaussian/g16-A.03/g16-haswell/g16/l302.exe)
 NPDir=0 NMtPBC=     1 NCelOv=     1 NCel=       1 NClECP=     1 NCelD=      1
         NCelK=      1 NCelE2=     1 NClLst=     1 CellRange=     0.0.
 One-electron integrals computed using PRISM.
 One-electron integral symmetry used in STVInt
 NBasis=   267 RedAO= T EigKep=  8.65D-06  NBF=   267
 NBsUse=   267 1.00D-06 EigRej= -1.00D+00 NBFU=   267
 Precomputing XC quadrature grid using
 IXCGrd= 4 IRadAn=           5 IRanWt=          -1 IRanGd=           0 AccXCQ= 0.00D+00.
 Generated NRdTot=       0 NPtTot=           0 NUsed=           0 NTot=          32
 NSgBfM=   275   275   275   275   275 MxSgAt=    21 MxSgA2=    21.
 Leave Link  302 at Sun Oct 13 19:37:56 2019, MaxMem= 10737418240 cpu:               4.5 elap:               0.2
 (Enter /apps/cent7/gaussian/g16-A.03/g16-haswell/g16/l303.exe)
 DipDrv:  MaxL=1.
 Leave Link  303 at Sun Oct 13 19:37:56 2019, MaxMem= 10737418240 cpu:               0.8 elap:               0.1
 (Enter /apps/cent7/gaussian/g16-A.03/g16-haswell/g16/l401.exe)
 ExpMin= 3.60D-02 ExpMax= 8.59D+03 ExpMxC= 1.30D+03 IAcc=3 IRadAn=         5 AccDes= 0.00D+00
 Harris functional with IExCor= 1009 and IRadAn=       5 diagonalized for initial guess.
 HarFok:  IExCor= 1009 AccDes= 0.00D+00 IRadAn=         5 IDoV= 1 UseB2=F ITyADJ=14
 ICtDFT=  3500011 ScaDFX=  1.000000  1.000000  1.000000  1.000000
 FoFCou: FMM=F IPFlag=           0 FMFlag=      100000 FMFlg1=           0
         NFxFlg=           0 DoJE=T BraDBF=F KetDBF=T FulRan=T
         wScrn=  0.000000 ICntrl=       500 IOpCl=  0 I1Cent=   200000004 NGrid=           0
         NMat0=    1 NMatS0=      1 NMatT0=    0 NMatD0=    1 NMtDS0=    0 NMtDT0=    0
 Petite list used in FoFCou.
 Harris En= -366.171200412617    
 JPrj=0 DoOrth=F DoCkMO=F.
 Leave Link  401 at Sun Oct 13 19:37:56 2019, MaxMem= 10737418240 cpu:              11.7 elap:               0.5
 (Enter /apps/cent7/gaussian/g16-A.03/g16-haswell/g16/l502.exe)
 Integral symmetry usage will be decided dynamically.
 Closed shell SCF:
 Using DIIS extrapolation, IDIIS=  1040.
 NGot= 10737418240 LenX= 10737257537 LenY= 10737181471
 Requested convergence on RMS density matrix=1.00D-08 within 128 cycles.
 Requested convergence on MAX density matrix=1.00D-06.
 Requested convergence on             energy=1.00D-06.
 No special actions if energy rises.
 Fock matrices will be formed incrementally for  20 cycles.

 Cycle   1  Pass 1  IDiag  1:
 FoFJK:  IHMeth= 1 ICntrl=       0 DoSepK=F KAlg= 0 I1Cent=           0 FoldK=F
 IRaf= 970000000 NMat=       1 IRICut=       1 DoRegI=T DoRafI=F ISym2E= 0 IDoP0=0 IntGTp=1.
 FoFCou: FMM=F IPFlag=           0 FMFlag=      100000 FMFlg1=           0
         NFxFlg=           0 DoJE=F BraDBF=F KetDBF=F FulRan=T
         wScrn=  0.000000 ICntrl=         0 IOpCl=  0 I1Cent=           0 NGrid=           0
         NMat0=    1 NMatS0=      1 NMatT0=    0 NMatD0=    1 NMtDS0=    0 NMtDT0=    0
 Symmetry not used in FoFCou.
 E= -366.022437406632    
 DIIS: error= 3.25D-02 at cycle   1 NSaved=   1.
 NSaved= 1 IEnMin= 1 EnMin= -366.022437406632     IErMin= 1 ErrMin= 3.25D-02
 ErrMax= 3.25D-02  0.00D+00 EMaxC= 1.00D-01 BMatC= 3.14D-01 BMatP= 3.14D-01
 IDIUse=3 WtCom= 6.75D-01 WtEn= 3.25D-01
 Coeff-Com:  0.100D+01
 Coeff-En:   0.100D+01
 Coeff:      0.100D+01
 Gap=     0.268 Goal=   None    Shift=    0.000
 GapD=    0.268 DampG=1.000 DampE=0.500 DampFc=0.5000 IDamp=-1.
 Damping current iteration by 5.00D-01
 RMSDP=8.87D-03 MaxDP=4.18D-01              OVMax= 1.49D-01

 Cycle   2  Pass 1  IDiag  1:
 RMSU=  4.30D-03    CP:  9.47D-01
 E= -366.153573347354     Delta-E=       -0.131135940721 Rises=F Damp=T
 DIIS: error= 5.44D-03 at cycle   2 NSaved=   2.
 NSaved= 2 IEnMin= 2 EnMin= -366.153573347354     IErMin= 2 ErrMin= 5.44D-03
 ErrMax= 5.44D-03  0.00D+00 EMaxC= 1.00D-01 BMatC= 2.21D-02 BMatP= 3.14D-01
 IDIUse=3 WtCom= 9.46D-01 WtEn= 5.44D-02
 Coeff-Com: -0.930D-01 0.109D+01
 Coeff-En:   0.000D+00 0.100D+01
 Coeff:     -0.879D-01 0.109D+01
 Gap=     0.285 Goal=   None    Shift=    0.000
 RMSDP=4.35D-03 MaxDP=4.55D-01 DE=-1.31D-01 OVMax= 8.11D-02

 Cycle   3  Pass 1  IDiag  1:
 RMSU=  4.10D-03    CP:  1.01D+00  1.12D+00
 E= -366.283699426954     Delta-E=       -0.130126079601 Rises=F Damp=F
 DIIS: error= 4.20D-03 at cycle   3 NSaved=   3.
 NSaved= 3 IEnMin= 3 EnMin= -366.283699426954     IErMin= 3 ErrMin= 4.20D-03
 ErrMax= 4.20D-03  0.00D+00 EMaxC= 1.00D-01 BMatC= 4.28D-03 BMatP= 2.21D-02
 IDIUse=3 WtCom= 9.58D-01 WtEn= 4.20D-02
 Coeff-Com: -0.874D-01 0.311D+00 0.777D+00
 Coeff-En:   0.000D+00 0.000D+00 0.100D+01
 Coeff:     -0.837D-01 0.298D+00 0.786D+00
 Gap=     0.265 Goal=   None    Shift=    0.000
 RMSDP=2.02D-03 MaxDP=3.19D-01 DE=-1.30D-01 OVMax= 1.06D-02

 Cycle   4  Pass 1  IDiag  1:
 RMSU=  9.22D-04    CP:  9.45D-01  1.15D+00  7.21D-01
 E= -366.287208476122     Delta-E=       -0.003509049167 Rises=F Damp=F
 DIIS: error= 8.61D-04 at cycle   4 NSaved=   4.
 NSaved= 4 IEnMin= 4 EnMin= -366.287208476122     IErMin= 4 ErrMin= 8.61D-04
 ErrMax= 8.61D-04  0.00D+00 EMaxC= 1.00D-01 BMatC= 3.12D-04 BMatP= 4.28D-03
 IDIUse=3 WtCom= 9.91D-01 WtEn= 8.61D-03
 Coeff-Com: -0.262D-01 0.662D-01 0.279D+00 0.681D+00
 Coeff-En:   0.000D+00 0.000D+00 0.000D+00 0.100D+01
 Coeff:     -0.260D-01 0.656D-01 0.277D+00 0.684D+00
 Gap=     0.260 Goal=   None    Shift=    0.000
 RMSDP=4.19D-04 MaxDP=6.91D-02 DE=-3.51D-03 OVMax= 4.49D-03

 Cycle   5  Pass 1  IDiag  1:
 RMSU=  1.82D-04    CP:  9.57D-01  1.15D+00  7.81D-01  8.23D-01
 E= -366.287422436755     Delta-E=       -0.000213960633 Rises=F Damp=F
 DIIS: error= 3.09D-04 at cycle   5 NSaved=   5.
 NSaved= 5 IEnMin= 5 EnMin= -366.287422436755     IErMin= 5 ErrMin= 3.09D-04
 ErrMax= 3.09D-04  0.00D+00 EMaxC= 1.00D-01 BMatC= 4.63D-05 BMatP= 3.12D-04
 IDIUse=3 WtCom= 9.97D-01 WtEn= 3.09D-03
 Coeff-Com: -0.698D-02 0.125D-01 0.809D-01 0.334D+00 0.580D+00
 Coeff-En:   0.000D+00 0.000D+00 0.000D+00 0.000D+00 0.100D+01
 Coeff:     -0.696D-02 0.125D-01 0.807D-01 0.333D+00 0.581D+00
 Gap=     0.262 Goal=   None    Shift=    0.000
 RMSDP=8.17D-05 MaxDP=7.47D-03 DE=-2.14D-04 OVMax= 1.42D-03

 Cycle   6  Pass 1  IDiag  1:
 RMSU=  5.50D-05    CP:  9.59D-01  1.14D+00  7.86D-01  8.14D-01  8.46D-01
 E= -366.287456219671     Delta-E=       -0.000033782916 Rises=F Damp=F
 DIIS: error= 4.31D-05 at cycle   6 NSaved=   6.
 NSaved= 6 IEnMin= 6 EnMin= -366.287456219671     IErMin= 6 ErrMin= 4.31D-05
 ErrMax= 4.31D-05  0.00D+00 EMaxC= 1.00D-01 BMatC= 7.13D-07 BMatP= 4.63D-05
 IDIUse=1 WtCom= 1.00D+00 WtEn= 0.00D+00
 Coeff-Com:  0.804D-03-0.262D-02-0.662D-02 0.133D-01 0.101D+00 0.894D+00
 Coeff:      0.804D-03-0.262D-02-0.662D-02 0.133D-01 0.101D+00 0.894D+00
 Gap=     0.262 Goal=   None    Shift=    0.000
 RMSDP=1.93D-05 MaxDP=8.23D-04 DE=-3.38D-05 OVMax= 2.07D-04

 Cycle   7  Pass 1  IDiag  1:
 RMSU=  7.51D-06    CP:  9.59D-01  1.14D+00  7.85D-01  8.20D-01  9.18D-01
                    CP:  1.09D+00
 E= -366.287456865088     Delta-E=       -0.000000645417 Rises=F Damp=F
 DIIS: error= 1.99D-05 at cycle   7 NSaved=   7.
 NSaved= 7 IEnMin= 7 EnMin= -366.287456865088     IErMin= 7 ErrMin= 1.99D-05
 ErrMax= 1.99D-05  0.00D+00 EMaxC= 1.00D-01 BMatC= 1.60D-07 BMatP= 7.13D-07
 IDIUse=1 WtCom= 1.00D+00 WtEn= 0.00D+00
 Coeff-Com:  0.869D-03-0.206D-02-0.911D-02-0.198D-01-0.130D-02 0.382D+00
 Coeff-Com:  0.649D+00
 Coeff:      0.869D-03-0.206D-02-0.911D-02-0.198D-01-0.130D-02 0.382D+00
 Coeff:      0.649D+00
 Gap=     0.262 Goal=   None    Shift=    0.000
 RMSDP=1.14D-05 MaxDP=1.87D-03 DE=-6.45D-07 OVMax= 7.89D-05

 Cycle   8  Pass 1  IDiag  1:
 RMSU=  3.84D-06    CP:  9.60D-01  1.14D+00  7.87D-01  8.16D-01  9.29D-01
                    CP:  1.14D+00  1.01D+00
 E= -366.287457003967     Delta-E=       -0.000000138879 Rises=F Damp=F
 DIIS: error= 6.41D-06 at cycle   8 NSaved=   8.
 NSaved= 8 IEnMin= 8 EnMin= -366.287457003967     IErMin= 8 ErrMin= 6.41D-06
 ErrMax= 6.41D-06  0.00D+00 EMaxC= 1.00D-01 BMatC= 8.80D-09 BMatP= 1.60D-07
 IDIUse=1 WtCom= 1.00D+00 WtEn= 0.00D+00
 Coeff-Com:  0.205D-03-0.434D-03-0.236D-02-0.771D-02-0.100D-01 0.366D-01
 Coeff-Com:  0.213D+00 0.771D+00
 Coeff:      0.205D-03-0.434D-03-0.236D-02-0.771D-02-0.100D-01 0.366D-01
 Coeff:      0.213D+00 0.771D+00
 Gap=     0.262 Goal=   None    Shift=    0.000
 RMSDP=1.63D-06 MaxDP=7.98D-05 DE=-1.39D-07 OVMax= 2.24D-05

 Cycle   9  Pass 1  IDiag  1:
 RMSU=  1.25D-06    CP:  9.60D-01  1.14D+00  7.87D-01  8.17D-01  9.31D-01
                    CP:  1.14D+00  1.02D+00  9.38D-01
 E= -366.287457012039     Delta-E=       -0.000000008072 Rises=F Damp=F
 DIIS: error= 7.97D-07 at cycle   9 NSaved=   9.
 NSaved= 9 IEnMin= 9 EnMin= -366.287457012039     IErMin= 9 ErrMin= 7.97D-07
 ErrMax= 7.97D-07  0.00D+00 EMaxC= 1.00D-01 BMatC= 3.62D-10 BMatP= 8.80D-09
 IDIUse=1 WtCom= 1.00D+00 WtEn= 0.00D+00
 Coeff-Com:  0.123D-04-0.225D-04-0.205D-03-0.110D-02-0.236D-02-0.566D-02
 Coeff-Com:  0.274D-01 0.202D+00 0.780D+00
 Coeff:      0.123D-04-0.225D-04-0.205D-03-0.110D-02-0.236D-02-0.566D-02
 Coeff:      0.274D-01 0.202D+00 0.780D+00
 Gap=     0.262 Goal=   None    Shift=    0.000
 RMSDP=8.42D-07 MaxDP=1.34D-04 DE=-8.07D-09 OVMax= 8.16D-06

 Cycle  10  Pass 1  IDiag  1:
 RMSU=  2.12D-07    CP:  9.60D-01  1.14D+00  7.87D-01  8.16D-01  9.31D-01
                    CP:  1.14D+00  1.03D+00  1.00D+00  1.07D+00
 E= -366.287457012375     Delta-E=       -0.000000000336 Rises=F Damp=F
 DIIS: error= 4.99D-07 at cycle  10 NSaved=  10.
 NSaved=10 IEnMin=10 EnMin= -366.287457012375     IErMin=10 ErrMin= 4.99D-07
 ErrMax= 4.99D-07  0.00D+00 EMaxC= 1.00D-01 BMatC= 7.76D-11 BMatP= 3.62D-10
 IDIUse=1 WtCom= 1.00D+00 WtEn= 0.00D+00
 Coeff-Com: -0.161D-04 0.354D-04 0.159D-03 0.341D-03 0.874D-05-0.613D-02
 Coeff-Com: -0.112D-01 0.578D-03 0.325D+00 0.691D+00
 Coeff:     -0.161D-04 0.354D-04 0.159D-03 0.341D-03 0.874D-05-0.613D-02
 Coeff:     -0.112D-01 0.578D-03 0.325D+00 0.691D+00
 Gap=     0.262 Goal=   None    Shift=    0.000
 RMSDP=1.61D-07 MaxDP=1.93D-05 DE=-3.36D-10 OVMax= 2.58D-06

 Cycle  11  Pass 1  IDiag  1:
 RMSU=  7.18D-08    CP:  9.60D-01  1.14D+00  7.87D-01  8.17D-01  9.31D-01
                    CP:  1.14D+00  1.03D+00  1.01D+00  1.14D+00  9.20D-01
 E= -366.287457012455     Delta-E=       -0.000000000080 Rises=F Damp=F
 DIIS: error= 7.55D-08 at cycle  11 NSaved=  11.
 NSaved=11 IEnMin=11 EnMin= -366.287457012455     IErMin=11 ErrMin= 7.55D-08
 ErrMax= 7.55D-08  0.00D+00 EMaxC= 1.00D-01 BMatC= 3.47D-12 BMatP= 7.76D-11
 IDIUse=1 WtCom= 1.00D+00 WtEn= 0.00D+00
 Coeff-Com: -0.411D-05 0.919D-05 0.511D-04 0.163D-03 0.177D-03-0.842D-03
 Coeff-Com: -0.476D-02-0.180D-01 0.654D-02 0.156D+00 0.860D+00
 Coeff:     -0.411D-05 0.919D-05 0.511D-04 0.163D-03 0.177D-03-0.842D-03
 Coeff:     -0.476D-02-0.180D-01 0.654D-02 0.156D+00 0.860D+00
 Gap=     0.262 Goal=   None    Shift=    0.000
 RMSDP=5.97D-08 MaxDP=4.22D-06 DE=-8.00D-11 OVMax= 1.30D-06

 Cycle  12  Pass 1  IDiag  1:
 RMSU=  2.95D-08    CP:  9.60D-01  1.14D+00  7.87D-01  8.17D-01  9.31D-01
                    CP:  1.14D+00  1.03D+00  1.02D+00  1.16D+00  9.50D-01
                    CP:  1.02D+00
 E= -366.287457012459     Delta-E=       -0.000000000004 Rises=F Damp=F
 DIIS: error= 2.83D-08 at cycle  12 NSaved=  12.
 NSaved=12 IEnMin=12 EnMin= -366.287457012459     IErMin=12 ErrMin= 2.83D-08
 ErrMax= 2.83D-08  0.00D+00 EMaxC= 1.00D-01 BMatC= 3.77D-13 BMatP= 3.47D-12
 IDIUse=1 WtCom= 1.00D+00 WtEn= 0.00D+00
 Coeff-Com:  0.846D-06-0.163D-05-0.390D-05 0.173D-05 0.309D-04 0.374D-03
 Coeff-Com:  0.348D-04-0.441D-02-0.316D-01-0.372D-01 0.220D+00 0.853D+00
 Coeff:      0.846D-06-0.163D-05-0.390D-05 0.173D-05 0.309D-04 0.374D-03
 Coeff:      0.348D-04-0.441D-02-0.316D-01-0.372D-01 0.220D+00 0.853D+00
 Gap=     0.262 Goal=   None    Shift=    0.000
 RMSDP=1.19D-08 MaxDP=5.96D-07 DE=-3.98D-12 OVMax= 4.09D-07

 Cycle  13  Pass 1  IDiag  1:
 RMSU=  6.97D-09    CP:  9.60D-01  1.14D+00  7.87D-01  8.17D-01  9.31D-01
                    CP:  1.14D+00  1.03D+00  1.02D+00  1.17D+00  9.62D-01
                    CP:  1.11D+00  1.09D+00
 E= -366.287457012458     Delta-E=        0.000000000001 Rises=F Damp=F
 DIIS: error= 6.88D-09 at cycle  13 NSaved=  13.
 NSaved=13 IEnMin=12 EnMin= -366.287457012459     IErMin=13 ErrMin= 6.88D-09
 ErrMax= 6.88D-09  0.00D+00 EMaxC= 1.00D-01 BMatC= 1.62D-14 BMatP= 3.77D-13
 IDIUse=1 WtCom= 1.00D+00 WtEn= 0.00D+00
 Coeff-Com:  0.377D-06-0.808D-06-0.321D-05-0.795D-05-0.366D-05 0.107D-03
 Coeff-Com:  0.285D-03 0.241D-03-0.558D-02-0.165D-01-0.131D-01 0.156D+00
 Coeff-Com:  0.879D+00
 Coeff:      0.377D-06-0.808D-06-0.321D-05-0.795D-05-0.366D-05 0.107D-03
 Coeff:      0.285D-03 0.241D-03-0.558D-02-0.165D-01-0.131D-01 0.156D+00
 Coeff:      0.879D+00
 Gap=     0.262 Goal=   None    Shift=    0.000
 RMSDP=3.57D-09 MaxDP=4.81D-07 DE= 1.02D-12 OVMax= 9.32D-08

 SCF Done:  E(RM062X) =  -366.287457012     A.U. after   13 cycles
            NFock= 13  Conv=0.36D-08     -V/T= 2.0042
 KE= 3.647381790063D+02 PE=-1.667060708818D+03 EE= 5.292085705586D+02
 Leave Link  502 at Sun Oct 13 19:38:11 2019, MaxMem= 10737418240 cpu:             356.8 elap:              15.0
 (Enter /apps/cent7/gaussian/g16-A.03/g16-haswell/g16/l601.exe)
 Copying SCF densities to generalized density rwf, IOpCl= 0 IROHF=0.

 **********************************************************************

            Population analysis using the SCF density.

 **********************************************************************

 Orbital symmetries:
       Occupied  (A) (A) (A) (A) (A) (A) (A) (A) (A) (A) (A) (A)
                 (A) (A) (A) (A) (A) (A) (A) (A) (A) (A) (A) (A)
                 (A) (A) (A) (A) (A) (A) (A) (A)
       Virtual   (A) (A) (A) (A) (A) (A) (A) (A) (A) (A) (A) (A)
                 (A) (A) (A) (A) (A) (A) (A) (A) (A) (A) (A) (A)
                 (A) (A) (A) (A) (A) (A) (A) (A) (A) (A) (A) (A)
                 (A) (A) (A) (A) (A) (A) (A) (A) (A) (A) (A) (A)
                 (A) (A) (A) (A) (A) (A) (A) (A) (A) (A) (A) (A)
                 (A) (A) (A) (A) (A) (A) (A) (A) (A) (A) (A) (A)
                 (A) (A) (A) (A) (A) (A) (A) (A) (A) (A) (A) (A)
                 (A) (A) (A) (A) (A) (A) (A) (A) (A) (A) (A) (A)
                 (A) (A) (A) (A) (A) (A) (A) (A) (A) (A) (A) (A)
                 (A) (A) (A) (A) (A) (A) (A) (A) (A) (A) (A) (A)
                 (A) (A) (A) (A) (A) (A) (A) (A) (A) (A) (A) (A)
                 (A) (A) (A) (A) (A) (A) (A) (A) (A) (A) (A) (A)
                 (A) (A) (A) (A) (A) (A) (A) (A) (A) (A) (A) (A)
                 (A) (A) (A) (A) (A) (A) (A) (A) (A) (A) (A) (A)
                 (A) (A) (A) (A) (A) (A) (A) (A) (A) (A) (A) (A)
                 (A) (A) (A) (A) (A) (A) (A) (A) (A) (A) (A) (A)
                 (A) (A) (A) (A) (A) (A) (A) (A) (A) (A) (A) (A)
                 (A) (A) (A) (A) (A) (A) (A) (A) (A) (A) (A) (A)
                 (A) (A) (A) (A) (A) (A) (A) (A) (A) (A) (A) (A)
                 (A) (A) (A) (A) (A) (A) (A)
 The electronic state is 1-A.
 Alpha  occ. eigenvalues --  -19.64866 -14.76382 -10.56793 -10.53435 -10.53166
 Alpha  occ. eigenvalues --  -10.52681 -10.52538 -10.51948  -1.20252  -0.94792
 Alpha  occ. eigenvalues --   -0.89488  -0.83447  -0.80460  -0.69346  -0.68692
 Alpha  occ. eigenvalues --   -0.63332  -0.61811  -0.56091  -0.53230  -0.53066
 Alpha  occ. eigenvalues --   -0.51913  -0.50125  -0.46665  -0.44277  -0.43487
 Alpha  occ. eigenvalues --   -0.40985  -0.39268  -0.38357  -0.37677  -0.35437
 Alpha  occ. eigenvalues --   -0.34706  -0.26527
 Alpha virt. eigenvalues --   -0.00354   0.00585   0.00885   0.01582   0.02786
 Alpha virt. eigenvalues --    0.03095   0.03729   0.03848   0.04383   0.06022
 Alpha virt. eigenvalues --    0.06361   0.06825   0.07165   0.09195   0.10108
 Alpha virt. eigenvalues --    0.11153   0.12087   0.12334   0.12622   0.13093
 Alpha virt. eigenvalues --    0.13482   0.13952   0.14545   0.14914   0.15193
 Alpha virt. eigenvalues --    0.15615   0.15813   0.16296   0.16613   0.16842
 Alpha virt. eigenvalues --    0.17506   0.18375   0.18443   0.19009   0.19356
 Alpha virt. eigenvalues --    0.19721   0.20002   0.20608   0.21047   0.22171
 Alpha virt. eigenvalues --    0.23334   0.25174   0.25642   0.26491   0.26867
 Alpha virt. eigenvalues --    0.27581   0.28712   0.28881   0.29361   0.29881
 Alpha virt. eigenvalues --    0.31073   0.31485   0.32879   0.34624   0.34975
 Alpha virt. eigenvalues --    0.35530   0.36153   0.36520   0.37303   0.38045
 Alpha virt. eigenvalues --    0.38241   0.39177   0.39643   0.41004   0.43292
 Alpha virt. eigenvalues --    0.47026   0.49135   0.50075   0.50331   0.53112
 Alpha virt. eigenvalues --    0.53941   0.54792   0.56982   0.59943   0.60631
 Alpha virt. eigenvalues --    0.61762   0.64361   0.68185   0.68510   0.69140
 Alpha virt. eigenvalues --    0.69868   0.70909   0.72951   0.73460   0.76001
 Alpha virt. eigenvalues --    0.76568   0.77576   0.78068   0.79164   0.80155
 Alpha virt. eigenvalues --    0.80477   0.81119   0.81772   0.82333   0.84596
 Alpha virt. eigenvalues --    0.86840   0.90403   0.92907   0.94090   0.94878
 Alpha virt. eigenvalues --    0.95358   1.00849   1.07308   1.07890   1.10329
 Alpha virt. eigenvalues --    1.12877   1.14577   1.18277   1.21013   1.22390
 Alpha virt. eigenvalues --    1.26977   1.27800   1.30160   1.33792   1.33917
 Alpha virt. eigenvalues --    1.35356   1.38555   1.43656   1.47791   1.48820
 Alpha virt. eigenvalues --    1.53536   1.55711   1.56822   1.57393   1.59363
 Alpha virt. eigenvalues --    1.61011   1.61885   1.62681   1.63603   1.64576
 Alpha virt. eigenvalues --    1.65706   1.67265   1.67531   1.68448   1.68631
 Alpha virt. eigenvalues --    1.71559   1.73165   1.74655   1.75917   1.79900
 Alpha virt. eigenvalues --    1.81912   1.83032   1.85628   1.87447   1.88106
 Alpha virt. eigenvalues --    1.88773   1.90149   1.91647   1.94026   1.99588
 Alpha virt. eigenvalues --    2.03108   2.03314   2.05580   2.08988   2.10347
 Alpha virt. eigenvalues --    2.13346   2.15394   2.17158   2.17635   2.21436
 Alpha virt. eigenvalues --    2.24118   2.24602   2.28406   2.30571   2.31330
 Alpha virt. eigenvalues --    2.36086   2.38907   2.39358   2.46769   2.47023
 Alpha virt. eigenvalues --    2.52066   2.54441   2.57132   2.59312   2.59950
 Alpha virt. eigenvalues --    2.61723   2.64032   2.65353   2.67454   2.67873
 Alpha virt. eigenvalues --    2.69449   2.69838   2.71458   2.73471   2.74421
 Alpha virt. eigenvalues --    2.81137   2.82964   2.86738   2.87899   2.89264
 Alpha virt. eigenvalues --    2.90515   2.92318   2.95071   2.95914   3.01067
 Alpha virt. eigenvalues --    3.01782   3.06765   3.08339   3.11556   3.12102
 Alpha virt. eigenvalues --    3.14292   3.19665   3.31533   3.34740   3.36562
 Alpha virt. eigenvalues --    3.39950   3.47604   3.50518   3.66383   3.86386
 Alpha virt. eigenvalues --    3.87480   3.90916   3.94975   3.99957   4.01671
 Alpha virt. eigenvalues --    4.01965   4.07098   4.08958   4.13971   4.25877
 Alpha virt. eigenvalues --    4.28715   4.44933   4.59411   4.91161   5.21651
 Alpha virt. eigenvalues --    5.53044   5.92098  23.88618  23.94898  23.99024
 Alpha virt. eigenvalues --   24.02127  24.02830  24.04694  35.64091  50.04564
          Condensed to atoms (all electrons):
               1          2          3          4          5          6
     1  O    7.836966   0.172867  -0.335578   0.021679   0.039850  -0.010479
     2  N    0.172867   7.268074  -0.491945   0.095992   0.000428  -0.003148
     3  C   -0.335578  -0.491945  10.915420  -1.769101  -0.150210  -0.011454
     4  C    0.021679   0.095992  -1.769101   6.873083   0.003129  -0.019313
     5  C    0.039850   0.000428  -0.150210   0.003129   5.699649   0.267673
     6  C   -0.010479  -0.003148  -0.011454  -0.019313   0.267673   5.506651
     7  C   -0.000643   0.048071  -0.313403   0.149969  -0.199076   0.352964
     8  C    0.180900   0.235866  -2.618726   0.552195   0.152835  -0.273129
     9  H    0.247414  -0.105469   0.122551  -0.048164  -0.013341  -0.001972
    10  H   -0.007578   0.331072  -0.053337  -0.041395   0.001640  -0.006700
    11  H   -0.032371  -0.171649   1.035630  -0.284016  -0.053817  -0.037829
    12  H   -0.015369  -0.030892   0.308737   0.294221  -0.087252  -0.045896
    13  H    0.035670  -0.010351  -0.159031   0.461849  -0.026928   0.011002
    14  H    0.002592   0.001836  -0.069839  -0.008426   0.374662  -0.027301
    15  H   -0.007174  -0.004840   0.109858  -0.076426   0.423222  -0.049509
    16  H   -0.001376  -0.004054   0.052996  -0.039860  -0.026337   0.452692
    17  H   -0.000033  -0.000573   0.010967  -0.005900  -0.034466   0.395259
    18  H    0.001401   0.000704  -0.018606  -0.006230   0.023843  -0.079845
    19  H   -0.000351  -0.002906   0.022003  -0.014231  -0.004854  -0.046842
    20  H   -0.001809  -0.034640   0.189597  -0.124288   0.005125  -0.029272
    21  H    0.000595   0.034813  -0.194528   0.044477  -0.017782   0.014400
               7          8          9         10         11         12
     1  O   -0.000643   0.180900   0.247414  -0.007578  -0.032371  -0.015369
     2  N    0.048071   0.235866  -0.105469   0.331072  -0.171649  -0.030892
     3  C   -0.313403  -2.618726   0.122551  -0.053337   1.035630   0.308737
     4  C    0.149969   0.552195  -0.048164  -0.041395  -0.284016   0.294221
     5  C   -0.199076   0.152835  -0.013341   0.001640  -0.053817  -0.087252
     6  C    0.352964  -0.273129  -0.001972  -0.006700  -0.037829  -0.045896
     7  C    5.501340   0.203643  -0.003879  -0.007364  -0.068710   0.000917
     8  C    0.203643   7.484555  -0.049796   0.062346  -0.248962  -0.145053
     9  H   -0.003879  -0.049796   0.561310  -0.000713   0.037249   0.005554
    10  H   -0.007364   0.062346  -0.000713   0.420823   0.008193   0.000737
    11  H   -0.068710  -0.248962   0.037249   0.008193   0.641208   0.029213
    12  H    0.000917  -0.145053   0.005554   0.000737   0.029213   0.528783
    13  H    0.001494   0.061202  -0.007367   0.000775  -0.022902   0.004417
    14  H    0.023912   0.034703  -0.000451   0.000392  -0.008331  -0.016379
    15  H    0.004293  -0.087129   0.000450  -0.001066   0.010268   0.009985
    16  H   -0.015143  -0.083365  -0.000226  -0.000559   0.001329  -0.001990
    17  H   -0.066934   0.015488   0.000110   0.000203   0.003698   0.000606
    18  H    0.367121   0.026625   0.000011   0.001149   0.001517   0.000954
    19  H    0.484637  -0.103394  -0.000854  -0.000064  -0.004028  -0.000635
    20  H   -0.054788   0.355768   0.002158   0.005852   0.014890   0.001505
    21  H   -0.022263   0.499089  -0.002498  -0.000635  -0.022709  -0.007747
              13         14         15         16         17         18
     1  O    0.035670   0.002592  -0.007174  -0.001376  -0.000033   0.001401
     2  N   -0.010351   0.001836  -0.004840  -0.004054  -0.000573   0.000704
     3  C   -0.159031  -0.069839   0.109858   0.052996   0.010967  -0.018606
     4  C    0.461849  -0.008426  -0.076426  -0.039860  -0.005900  -0.006230
     5  C   -0.026928   0.374662   0.423222  -0.026337  -0.034466   0.023843
     6  C    0.011002  -0.027301  -0.049509   0.452692   0.395259  -0.079845
     7  C    0.001494   0.023912   0.004293  -0.015143  -0.066934   0.367121
     8  C    0.061202   0.034703  -0.087129  -0.083365   0.015488   0.026625
     9  H   -0.007367  -0.000451   0.000450  -0.000226   0.000110   0.000011
    10  H    0.000775   0.000392  -0.001066  -0.000559   0.000203   0.001149
    11  H   -0.022902  -0.008331   0.010268   0.001329   0.003698   0.001517
    12  H    0.004417  -0.016379   0.009985  -0.001990   0.000606   0.000954
    13  H    0.479372  -0.008935  -0.014522  -0.003657  -0.000537   0.001528
    14  H   -0.008935   0.514323   0.003194  -0.009964  -0.014191   0.001061
    15  H   -0.014522   0.003194   0.541422   0.008922  -0.001662  -0.006241
    16  H   -0.003657  -0.009964   0.008922   0.529683   0.014995  -0.012311
    17  H   -0.000537  -0.014191  -0.001662   0.014995   0.503118  -0.010903
    18  H    0.001528   0.001061  -0.006241  -0.012311  -0.010903   0.518883
    19  H   -0.000119  -0.003821   0.000587   0.008442  -0.003195   0.005166
    20  H   -0.005432  -0.002639   0.001479  -0.001414   0.000081  -0.005298
    21  H    0.000661   0.002529  -0.001831  -0.004160  -0.001005  -0.014506
              19         20         21
     1  O   -0.000351  -0.001809   0.000595
     2  N   -0.002906  -0.034640   0.034813
     3  C    0.022003   0.189597  -0.194528
     4  C   -0.014231  -0.124288   0.044477
     5  C   -0.004854   0.005125  -0.017782
     6  C   -0.046842  -0.029272   0.014400
     7  C    0.484637  -0.054788  -0.022263
     8  C   -0.103394   0.355768   0.499089
     9  H   -0.000854   0.002158  -0.002498
    10  H   -0.000064   0.005852  -0.000635
    11  H   -0.004028   0.014890  -0.022709
    12  H   -0.000635   0.001505  -0.007747
    13  H   -0.000119  -0.005432   0.000661
    14  H   -0.003821  -0.002639   0.002529
    15  H    0.000587   0.001479  -0.001831
    16  H    0.008442  -0.001414  -0.004160
    17  H   -0.003195   0.000081  -0.001005
    18  H    0.005166  -0.005298  -0.014506
    19  H    0.526186   0.004115  -0.010732
    20  H    0.004115   0.513047  -0.000754
    21  H   -0.010732  -0.000754   0.506431
 Mulliken charges:
               1
     1  O   -0.127174
     2  N   -0.329257
     3  C   -0.581999
     4  C   -0.059243
     5  C   -0.377994
     6  C   -0.357953
     7  C   -0.386159
     8  C   -0.255662
     9  H    0.257922
    10  H    0.286229
    11  H    0.172132
    12  H    0.165586
    13  H    0.201812
    14  H    0.211072
    15  H    0.136719
    16  H    0.135355
    17  H    0.194874
    18  H    0.203976
    19  H    0.144890
    20  H    0.166717
    21  H    0.198157
 Sum of Mulliken charges =  -0.00000
 Mulliken charges with hydrogens summed into heavy atoms:
               1
     1  O    0.130748
     2  N   -0.043028
     3  C   -0.409866
     4  C    0.308156
     5  C   -0.030204
     6  C   -0.027723
     7  C   -0.037294
     8  C    0.109211
 Electronic spatial extent (au):  <R**2>=           1150.0805
 Charge=             -0.0000 electrons
 Dipole moment (field-independent basis, Debye):
    X=              0.4465    Y=             -1.4896    Z=              0.8704  Tot=              1.7821
 Quadrupole moment (field-independent basis, Debye-Ang):
   XX=            -52.0516   YY=            -52.3619   ZZ=            -49.0545
   XY=              4.1578   XZ=             -3.7110   YZ=              1.3836
 Traceless Quadrupole moment (field-independent basis, Debye-Ang):
   XX=             -0.8956   YY=             -1.2059   ZZ=              2.1015
   XY=              4.1578   XZ=             -3.7110   YZ=              1.3836
 Octapole moment (field-independent basis, Debye-Ang**2):
  XXX=            -27.1050  YYY=             -1.1587  ZZZ=              2.0239  XYY=             -6.1558
  XXY=            -12.5556  XXZ=             13.3639  XZZ=            -10.3790  YZZ=             -1.3030
  YYZ=             -2.5251  XYZ=             -3.2503
 Hexadecapole moment (field-independent basis, Debye-Ang**3):
 XXXX=           -977.5241 YYYY=           -398.1263 ZZZZ=           -122.2603 XXXY=             33.7580
 XXXZ=            -44.9056 YYYX=              1.1847 YYYZ=              0.8542 ZZZX=             -8.6627
 ZZZY=              2.7439 XXYY=           -236.4256 XXZZ=           -168.3959 YYZZ=            -85.3516
 XXYZ=             12.7034 YYXZ=             -2.4838 ZZXY=              3.4083
 N-N= 4.068265022406D+02 E-N=-1.667060709070D+03  KE= 3.647381790063D+02
 No NMR shielding tensors so no spin-rotation constants.
 Leave Link  601 at Sun Oct 13 19:38:11 2019, MaxMem= 10737418240 cpu:               3.5 elap:               0.2
 (Enter /apps/cent7/gaussian/g16-A.03/g16-haswell/g16/l701.exe)
 ... and contract with generalized density number  0.
 Compute integral first derivatives.
 Leave Link  701 at Sun Oct 13 19:38:12 2019, MaxMem= 10737418240 cpu:               3.1 elap:               0.2
 (Enter /apps/cent7/gaussian/g16-A.03/g16-haswell/g16/l702.exe)
 L702 exits ... SP integral derivatives will be done elsewhere.
 Leave Link  702 at Sun Oct 13 19:38:12 2019, MaxMem= 10737418240 cpu:               0.5 elap:               0.0
 (Enter /apps/cent7/gaussian/g16-A.03/g16-haswell/g16/l703.exe)
 Integral derivatives from FoFJK, PRISM(SPDF).
 Compute integral first derivatives, UseDBF=F ICtDFT=           0.
 Calling FoFJK, ICntrl=      2127 FMM=F ISym2X=0 I1Cent= 0 IOpClX= 0 NMat=1 NMatS=1 NMatT=0.
 FoFJK:  IHMeth= 1 ICntrl=    2127 DoSepK=F KAlg= 0 I1Cent=           0 FoldK=F
 IRaf=         0 NMat=       1 IRICut=       1 DoRegI=T DoRafI=F ISym2E= 0 IDoP0=0 IntGTp=1.
 FoFCou: FMM=F IPFlag=           0 FMFlag=      100000 FMFlg1=         800
         NFxFlg=           0 DoJE=F BraDBF=F KetDBF=F FulRan=T
         wScrn=  0.000000 ICntrl=      2127 IOpCl=  0 I1Cent=           0 NGrid=           0
         NMat0=    1 NMatS0=      1 NMatT0=    0 NMatD0=    1 NMtDS0=    0 NMtDT0=    0
 Symmetry not used in FoFCou.
 Leave Link  703 at Sun Oct 13 19:38:14 2019, MaxMem= 10737418240 cpu:              58.9 elap:               2.5
 (Enter /apps/cent7/gaussian/g16-A.03/g16-haswell/g16/l716.exe)
 Dipole        = 1.75648791D-01-5.86035473D-01 3.42459446D-01
 ***** Axes restored to original set *****
 -------------------------------------------------------------------
 Center     Atomic                   Forces (Hartrees/Bohr)
 Number     Number              X              Y              Z
 -------------------------------------------------------------------
      1        8           0.023393284    0.015478739   -0.012307534
      2        7          -0.027087073   -0.036532667    0.004157875
      3        6          -0.014927295    0.020340143   -0.012239580
      4        6          -0.015287418   -0.011303820    0.025600299
      5        6          -0.015432821    0.026884379    0.013947551
      6        6           0.024443006    0.013706573    0.018154060
      7        6           0.021609413    0.010519891   -0.024278120
      8        6           0.022163565   -0.026005015   -0.006091266
      9        1          -0.001996949   -0.000572809    0.007153693
     10        1           0.005859619   -0.003415062   -0.002050712
     11        1          -0.000980625   -0.006298931    0.005428631
     12        1           0.013705637    0.006013888   -0.007111246
     13        1           0.000502247    0.012385444   -0.014243065
     14        1           0.010184018   -0.014884678    0.004799218
     15        1           0.006136396   -0.013216706   -0.010558975
     16        1          -0.011528956   -0.011053517   -0.006760230
     17        1          -0.012764806    0.002797009   -0.013487340
     18        1          -0.000848196   -0.009990225    0.015620852
     19        1          -0.014269451   -0.003472023    0.009570214
     20        1          -0.004088598    0.013085550    0.008977281
     21        1          -0.008784998    0.015533838   -0.004281607
 -------------------------------------------------------------------
 Cartesian Forces:  Max     0.036532667 RMS     0.014286649
 Leave Link  716 at Sun Oct 13 19:38:14 2019, MaxMem= 10737418240 cpu:               0.7 elap:               0.1
 (Enter /apps/cent7/gaussian/g16-A.03/g16-haswell/g16/l103.exe)

 GradGradGradGradGradGradGradGradGradGradGradGradGradGradGradGradGradGrad
 Berny optimization.
 FormGI is forming the generalized inverse of G from B-inverse, IUseBI=4.
 Internal  Forces:  Max     0.024342875 RMS     0.006084704
 Search for a local minimum.
 Step number   1 out of a maximum of  126
 All quantities printed in internal units (Hartrees-Bohrs-Radians)
 RMS Force = .60847D-02 SwitMx=.10000D-02 MixMth= 1
 Mixed Optimization -- RFO/linear search
 Second derivative matrix not updated -- first step.
 ITU=  0
     Eigenvalues ---    0.00403   0.00408   0.00507   0.00630   0.00895
     Eigenvalues ---    0.01838   0.01968   0.01985   0.03995   0.04083
     Eigenvalues ---    0.04280   0.04471   0.04862   0.05075   0.05140
     Eigenvalues ---    0.05354   0.05629   0.05672   0.05993   0.06355
     Eigenvalues ---    0.07666   0.07693   0.07702   0.07719   0.07734
     Eigenvalues ---    0.08154   0.08473   0.11740   0.11778   0.14056
     Eigenvalues ---    0.16000   0.16000   0.16080   0.17391   0.21465
     Eigenvalues ---    0.22000   0.26100   0.26284   0.26734   0.27381
     Eigenvalues ---    0.27482   0.27579   0.34541   0.34805   0.34806
     Eigenvalues ---    0.34807   0.34809   0.34812   0.34812   0.34812
     Eigenvalues ---    0.34813   0.34818   0.34819   0.34821   0.45969
     Eigenvalues ---    0.53159   0.55482
 RFO step:  Lambda=-3.01489143D-02 EMin= 4.02982597D-03
 Linear search not attempted -- first point.
 Maximum step size (   0.300) exceeded in Quadratic search.
    -- Step size scaled by   0.876
 Iteration  1 RMS(Cart)=  0.03869828 RMS(Int)=  0.00125481
 Iteration  2 RMS(Cart)=  0.00153713 RMS(Int)=  0.00012170
 Iteration  3 RMS(Cart)=  0.00000196 RMS(Int)=  0.00012169
 Iteration  4 RMS(Cart)=  0.00000000 RMS(Int)=  0.00012169
 ITry= 1 IFail=0 DXMaxC= 1.34D-01 DCOld= 1.00D+10 DXMaxT= 3.00D-01 DXLimC= 3.00D+00 Rises=F
 Variable       Old X    -DE/DX   Delta X   Delta X   Delta X     New X
                                 (Linear)    (Quad)   (Total)
    R1        2.56806   0.02117   0.00000   0.03301   0.03301   2.60107
    R2        1.81406   0.00569   0.00000   0.00851   0.00851   1.82258
    R3        2.79727  -0.02298   0.00000  -0.05360  -0.05360   2.74368
    R4        1.90866  -0.00597   0.00000  -0.01068  -0.01068   1.89798
    R5        2.94417  -0.01186   0.00000  -0.03334  -0.03335   2.91081
    R6        2.94000  -0.01379   0.00000  -0.03875  -0.03875   2.90125
    R7        2.05980   0.00664   0.00000   0.01537   0.01537   2.07517
    R8        2.93010  -0.00212   0.00000  -0.00636  -0.00638   2.92372
    R9        2.05981   0.00199   0.00000   0.00460   0.00460   2.06441
   R10        2.05990  -0.00053   0.00000  -0.00122  -0.00122   2.05868
   R11        2.92831  -0.00205   0.00000  -0.00711  -0.00711   2.92120
   R12        2.05981  -0.00011   0.00000  -0.00026  -0.00026   2.05955
   R13        2.05986   0.00276   0.00000   0.00640   0.00640   2.06627
   R14        2.92988  -0.00224   0.00000  -0.00767  -0.00766   2.92221
   R15        2.05967   0.00272   0.00000   0.00630   0.00630   2.06597
   R16        2.05991   0.00018   0.00000   0.00041   0.00041   2.06032
   R17        2.93127  -0.00288   0.00000  -0.00796  -0.00794   2.92333
   R18        2.05993  -0.00010   0.00000  -0.00023  -0.00023   2.05970
   R19        2.05971   0.00227   0.00000   0.00525   0.00525   2.06497
   R20        2.05970   0.00288   0.00000   0.00666   0.00666   2.06636
   R21        2.05982   0.00058   0.00000   0.00134   0.00134   2.06116
    A1        1.91072  -0.00868   0.00000  -0.04001  -0.04001   1.87072
    A2        1.93813   0.02434   0.00000   0.08524   0.08518   2.02331
    A3        2.11040  -0.01558   0.00000  -0.05832  -0.05838   2.05202
    A4        2.23465  -0.00876   0.00000  -0.02692  -0.02699   2.20766
    A5        1.94704  -0.00366   0.00000  -0.01037  -0.01032   1.93672
    A6        1.90478  -0.00382   0.00000  -0.01254  -0.01252   1.89226
    A7        1.84712   0.00339   0.00000   0.01813   0.01806   1.86517
    A8        1.93123   0.00705   0.00000   0.01822   0.01819   1.94942
    A9        1.89580  -0.00066   0.00000   0.00284   0.00296   1.89875
   A10        1.93645  -0.00256   0.00000  -0.01679  -0.01675   1.91970
   A11        1.95371  -0.00386   0.00000  -0.01458  -0.01450   1.93921
   A12        1.85598   0.00107   0.00000   0.01131   0.01115   1.86713
   A13        1.85599   0.00298   0.00000   0.02154   0.02145   1.87744
   A14        1.85284   0.00624   0.00000   0.04393   0.04392   1.89676
   A15        1.85287   0.00343   0.00000   0.03527   0.03517   1.88804
   A16        2.09430  -0.01028   0.00000  -0.09843  -0.09839   1.99591
   A17        1.95479  -0.00101   0.00000  -0.00861  -0.00876   1.94603
   A18        1.85444   0.00127   0.00000   0.01987   0.01974   1.87418
   A19        1.85435   0.00416   0.00000   0.03408   0.03384   1.88819
   A20        1.85394   0.00324   0.00000   0.02771   0.02767   1.88161
   A21        1.85391   0.00262   0.00000   0.02977   0.02945   1.88336
   A22        2.09442  -0.01033   0.00000  -0.10309  -0.10273   1.99169
   A23        1.95069  -0.00232   0.00000  -0.00793  -0.00822   1.94248
   A24        1.85480   0.00387   0.00000   0.02963   0.02946   1.88426
   A25        1.85485   0.00258   0.00000   0.02693   0.02682   1.88167
   A26        1.85531   0.00394   0.00000   0.02967   0.02950   1.88480
   A27        1.85521   0.00209   0.00000   0.02341   0.02328   1.87849
   A28        2.09442  -0.01036   0.00000  -0.10157  -0.10125   1.99318
   A29        1.95659  -0.00061   0.00000  -0.00550  -0.00563   1.95096
   A30        1.85359   0.00322   0.00000   0.02870   0.02859   1.88218
   A31        1.85370   0.00268   0.00000   0.02935   0.02900   1.88271
   A32        1.85389   0.00115   0.00000   0.01938   0.01915   1.87304
   A33        1.85394   0.00368   0.00000   0.02992   0.02962   1.88356
   A34        2.09438  -0.01013   0.00000  -0.10185  -0.10148   1.99290
   A35        1.95833  -0.00337   0.00000  -0.01355  -0.01349   1.94484
   A36        1.85441   0.00154   0.00000   0.01494   0.01481   1.86922
   A37        1.85443   0.00339   0.00000   0.02661   0.02652   1.88094
   A38        1.85238   0.00510   0.00000   0.03669   0.03669   1.88907
   A39        1.85232   0.00299   0.00000   0.03088   0.03074   1.88305
   A40        2.09447  -0.01004   0.00000  -0.09681  -0.09660   1.99787
    D1       -1.64504   0.00010   0.00000  -0.00015  -0.00005  -1.64509
    D2        1.49649   0.00099   0.00000   0.01989   0.01979   1.51628
    D3       -1.13780   0.00216   0.00000   0.01436   0.01441  -1.12339
    D4        3.00597  -0.00167   0.00000   0.00688   0.00684   3.01280
    D5        0.92103   0.00145   0.00000   0.02311   0.02319   0.94422
    D6        2.00386   0.00119   0.00000  -0.00746  -0.00747   1.99639
    D7       -0.13555  -0.00265   0.00000  -0.01494  -0.01504  -0.15060
    D8       -2.22049   0.00048   0.00000   0.00128   0.00131  -2.21918
    D9       -3.07603  -0.00044   0.00000  -0.00758  -0.00756  -3.08359
   D10       -1.05988   0.00565   0.00000   0.04405   0.04406  -1.01583
   D11        1.19098  -0.00430   0.00000  -0.05484  -0.05485   1.13613
   D12       -0.95185  -0.00291   0.00000  -0.01800  -0.01808  -0.96993
   D13        1.06430   0.00318   0.00000   0.03363   0.03354   1.09783
   D14       -2.96803  -0.00677   0.00000  -0.06526  -0.06537  -3.03339
   D15        1.17780  -0.00207   0.00000  -0.02545  -0.02541   1.15240
   D16       -3.08924   0.00402   0.00000   0.02617   0.02621  -3.06302
   D17       -0.83838  -0.00593   0.00000  -0.07272  -0.07269  -0.91107
   D18        3.09461   0.00024   0.00000   0.00557   0.00551   3.10013
   D19        1.07756  -0.00504   0.00000  -0.04021  -0.04031   1.03725
   D20       -1.17158   0.00407   0.00000   0.05129   0.05129  -1.12029
   D21        0.94575   0.00277   0.00000   0.01504   0.01509   0.96084
   D22       -1.07130  -0.00251   0.00000  -0.03074  -0.03073  -1.10203
   D23        2.96274   0.00660   0.00000   0.06077   0.06086   3.02360
   D24       -1.15987   0.00059   0.00000   0.01045   0.01053  -1.14934
   D25        3.10626  -0.00468   0.00000  -0.03534  -0.03529   3.07097
   D26        0.85711   0.00443   0.00000   0.05617   0.05631   0.91342
   D27        0.95191   0.00041   0.00000   0.01192   0.01190   0.96382
   D28        2.96902   0.00451   0.00000   0.05228   0.05232   3.02134
   D29       -1.06511  -0.00464   0.00000  -0.03925  -0.03941  -1.10452
   D30       -1.06614  -0.00253   0.00000  -0.01982  -0.01985  -1.08600
   D31        0.95097   0.00157   0.00000   0.02054   0.02056   0.97153
   D32       -3.08316  -0.00759   0.00000  -0.07099  -0.07117   3.12885
   D33        2.96999   0.00400   0.00000   0.05082   0.05087   3.02086
   D34       -1.29608   0.00810   0.00000   0.09118   0.09129  -1.20479
   D35        0.95298  -0.00105   0.00000  -0.00036  -0.00045   0.95253
   D36       -0.92920  -0.00292   0.00000  -0.02104  -0.02115  -0.95035
   D37        1.08765   0.00284   0.00000   0.02753   0.02759   1.11524
   D38       -2.94595  -0.00573   0.00000  -0.06058  -0.06070  -3.00666
   D39       -2.94661  -0.00583   0.00000  -0.05663  -0.05679  -3.00340
   D40       -0.92977  -0.00006   0.00000  -0.00805  -0.00805  -0.93782
   D41        1.31982  -0.00863   0.00000  -0.09617  -0.09634   1.22348
   D42        1.08809   0.00307   0.00000   0.03275   0.03279   1.12088
   D43        3.10493   0.00883   0.00000   0.08132   0.08153  -3.09673
   D44       -0.92867   0.00026   0.00000  -0.00679  -0.00677  -0.93543
   D45        0.92156   0.00272   0.00000   0.01920   0.01931   0.94087
   D46        2.93904   0.00568   0.00000   0.05647   0.05666   2.99570
   D47       -1.09604  -0.00295   0.00000  -0.03107  -0.03112  -1.12716
   D48       -1.09497  -0.00300   0.00000  -0.02935  -0.02942  -1.12439
   D49        0.92251  -0.00004   0.00000   0.00791   0.00793   0.93045
   D50       -3.11258  -0.00867   0.00000  -0.07962  -0.07984   3.09077
   D51        2.93810   0.00583   0.00000   0.06090   0.06100   2.99910
   D52       -1.32761   0.00878   0.00000   0.09817   0.09835  -1.22925
   D53        0.92049   0.00016   0.00000   0.01063   0.01058   0.93107
   D54       -0.93859  -0.00025   0.00000  -0.00774  -0.00770  -0.94629
   D55        1.07970   0.00287   0.00000   0.02486   0.02493   1.10463
   D56       -2.95686  -0.00433   0.00000  -0.05086  -0.05093  -3.00778
   D57       -2.95588  -0.00446   0.00000  -0.05067  -0.05071  -3.00659
   D58       -0.93760  -0.00134   0.00000  -0.01807  -0.01808  -0.95568
   D59        1.30904  -0.00854   0.00000  -0.09380  -0.09394   1.21510
   D60        1.07888   0.00482   0.00000   0.04219   0.04235   1.12123
   D61        3.09716   0.00794   0.00000   0.07479   0.07499  -3.11104
   D62       -0.93939   0.00074   0.00000  -0.00094  -0.00087  -0.94026
         Item               Value     Threshold  Converged?
 Maximum Force            0.024343     0.000450     NO 
 RMS     Force            0.006085     0.000300     NO 
 Maximum Displacement     0.134082     0.001800     NO 
 RMS     Displacement     0.038788     0.001200     NO 
 Predicted change in Energy=-1.811836D-02
 Lowest energy point so far.  Saving SCF results.
 GradGradGradGradGradGradGradGradGradGradGradGradGradGradGradGradGradGrad

 Leave Link  103 at Sun Oct 13 19:38:14 2019, MaxMem= 10737418240 cpu:               1.3 elap:               0.1
 (Enter /apps/cent7/gaussian/g16-A.03/g16-haswell/g16/l202.exe)
                          Input orientation:                          
 ---------------------------------------------------------------------
 Center     Atomic      Atomic             Coordinates (Angstroms)
 Number     Number       Type             X           Y           Z
 ---------------------------------------------------------------------
      1          8           0        1.479175    0.162326    0.073280
      2          7           0        0.109901    0.105311    0.201293
      3          6           0       -0.478388   -1.220807    0.143750
      4          6           0       -0.260828   -1.860687   -1.240395
      5          6           0       -0.957425   -3.239074   -1.332729
      6          6           0       -2.461690   -3.137629   -0.991426
      7          6           0       -2.681036   -2.475437    0.388663
      8          6           0       -1.970252   -1.104982    0.487261
      9          1           0        1.848846    0.163427    0.964086
     10          1           0       -0.383728    0.973647    0.306540
     11          1           0        0.034707   -1.830062    0.899688
     12          1           0       -0.711948   -1.190772   -1.976010
     13          1           0        0.810437   -2.012076   -1.367984
     14          1           0       -0.871970   -3.578588   -2.364833
     15          1           0       -0.491316   -3.906561   -0.602815
     16          1           0       -2.937223   -2.507472   -1.747731
     17          1           0       -2.860771   -4.150865   -0.938671
     18          1           0       -3.749584   -2.295964    0.506882
     19          1           0       -2.250778   -3.132764    1.148181
     20          1           0       -2.418659   -0.433146   -0.249794
     21          1           0       -2.048471   -0.760425    1.519165
 ---------------------------------------------------------------------
                    Distance matrix (angstroms):
                    1          2          3          4          5
     1  O    0.000000
     2  N    1.376426   0.000000
     3  C    2.397932   1.451891   0.000000
     4  C    2.974212   2.465979   1.540336   0.000000
     5  C    4.414000   3.831099   2.546147   1.547166   0.000000
     6  C    5.249163   4.307240   2.982669   2.556630   1.545831
     7  C    4.936052   3.805877   2.546710   2.981468   2.552874
     8  C    3.698107   2.423556   1.535276   2.545194   2.982034
     9  H    0.964465   1.899779   2.829324   3.661626   4.972678
    10  H    2.045253   1.004367   2.202519   3.231341   4.556682
    11  H    2.595968   2.058903   1.098135   2.160610   2.820164
    12  H    3.291122   2.663815   2.132799   1.092439   2.160928
    13  H    2.693042   2.727033   2.138344   1.089407   2.152232
    14  H    5.046456   4.595670   3.465115   2.142204   1.089867
    15  H    4.571190   4.135598   2.787615   2.155280   1.093422
    16  H    5.472520   4.462095   3.358433   2.799787   2.151062
    17  H    6.201838   5.314080   3.928437   3.477881   2.146945
    18  H    5.794059   4.555780   3.462448   3.926049   3.474159
    19  H    5.091717   4.117589   2.793891   3.359074   2.799818
    20  H    3.956270   2.624316   2.130713   2.770451   3.343828
    21  H    3.922542   2.672987   2.137494   3.467192   3.932860
                    6          7          8          9         10
     6  C    0.000000
     7  C    1.546368   0.000000
     8  C    2.561187   1.546959   0.000000
     9  H    5.770764   5.273950   4.052374   0.000000
    10  H    4.785941   4.144943   2.621148   2.464389   0.000000
    11  H    3.393824   2.837766   2.171566   2.696154   2.896152
    12  H    2.796651   3.334569   2.767380   4.127431   3.162668
    13  H    3.480730   3.935847   3.463666   3.354051   3.625549
    14  H    2.146602   3.474391   3.931843   5.699756   5.300703
    15  H    2.150500   2.797502   3.350278   4.949378   4.965373
    16  H    1.093265   2.151938   2.810196   6.115072   4.781062
    17  H    1.090273   2.145035   3.479038   6.664390   5.826398
    18  H    2.147556   1.089946   2.141225   6.131889   4.696752
    19  H    2.149983   1.092734   2.151142   5.263619   4.588774
    20  H    2.804656   2.155788   1.093472   4.476718   2.535650
    21  H    3.482085   2.149289   1.090718   4.043600   2.692366
                   11         12         13         14         15
    11  H    0.000000
    12  H    3.039050   0.000000
    13  H    2.403585   1.833546   0.000000
    14  H    3.812676   2.424553   2.505626   0.000000
    15  H    2.616498   3.051205   2.422626   1.832258   0.000000
    16  H    4.037336   2.595700   3.799286   2.406942   3.041504
    17  H    4.141193   3.802060   4.270421   2.513318   2.405577
    18  H    3.833043   4.075958   4.938573   4.262925   3.800232
    19  H    2.642390   3.987468   4.118018   3.800150   2.600088
    20  H    3.048227   2.542967   3.764363   4.093829   3.987968
    21  H    2.422294   3.766662   4.251543   4.940814   4.101915
                   16         17         18         19         20
    16  H    0.000000
    17  H    1.833348   0.000000
    18  H    2.405815   2.514014   0.000000
    19  H    3.041136   2.400744   1.832462   0.000000
    20  H    2.610661   3.806763   2.411225   3.044742   0.000000
    21  H    3.809812   4.265662   2.505271   2.409679   1.836672
                   21
    21  H    0.000000
 Stoichiometry    C6H13NO
 Framework group  C1[X(C6H13NO)]
 Deg. of freedom    57
 Full point group                 C1      NOp   1
 RotChk:  IX=0 Diff= 1.00D-02
 Largest Abelian subgroup         C1      NOp   1
 Largest concise Abelian subgroup C1      NOp   1
                         Standard orientation:                         
 ---------------------------------------------------------------------
 Center     Atomic      Atomic             Coordinates (Angstroms)
 Number     Number       Type             X           Y           Z
 ---------------------------------------------------------------------
      1          8           0       -2.919582    0.398617    0.135925
      2          7           0       -1.931933   -0.470645   -0.268403
      3          6           0       -0.599594   -0.198720    0.240436
      4          6           0       -0.072874    1.149425   -0.286544
      5          6           0        1.378105    1.403978    0.186304
      6          6           0        2.315727    0.240991   -0.211088
      7          6           0        1.775766   -1.115204    0.299238
      8          6           0        0.319028   -1.362182   -0.159020
      9          1           0       -3.339897    0.010982    0.912627
     10          1           0       -2.192832   -1.212699   -0.892936
     11          1           0       -0.681372   -0.143403    1.334124
     12          1           0       -0.080040    1.090324   -1.377360
     13          1           0       -0.706993    1.933808    0.125090
     14          1           0        1.731420    2.303824   -0.316942
     15          1           0        1.373989    1.474726    1.277426
     16          1           0        2.356661    0.198931   -1.302776
     17          1           0        3.280874    0.412776    0.266065
     18          1           0        2.390449   -1.903897   -0.134478
     19          1           0        1.784921   -1.090142    1.391646
     20          1           0        0.308881   -1.419545   -1.250939
     21          1           0       -0.042825   -2.259831    0.343924
 ---------------------------------------------------------------------
 Rotational constants (GHZ):           3.9604169           1.3152343           1.0614328
 Leave Link  202 at Sun Oct 13 19:38:14 2019, MaxMem= 10737418240 cpu:               0.5 elap:               0.0
 (Enter /apps/cent7/gaussian/g16-A.03/g16-haswell/g16/l301.exe)
 Standard basis: 6-311++G(d,p) (5D, 7F)
 Ernie: Thresh=  0.10000D-02 Tol=  0.10000D-05 Strict=F.
 There are   275 symmetry adapted cartesian basis functions of A   symmetry.
 There are   267 symmetry adapted basis functions of A   symmetry.
   267 basis functions,   405 primitive gaussians,   275 cartesian basis functions
    32 alpha electrons       32 beta electrons
       nuclear repulsion energy       407.5905458753 Hartrees.
 IExCor= 4336 DFT=T Ex+Corr=M062X ExCW=0 ScaHFX=  0.540000
 ScaDFX=  1.000000  1.000000  1.000000  1.000000 ScalE2=  1.000000  1.000000
 IRadAn=      5 IRanWt=     -1 IRanGd=            0 ICorTp=0 IEmpDi=  4
[...]
 ,-0.00039479,-0.00008783,0.00005012,0.00009004,0.00047118,-0.00019073,
 0.00016061,0.00050018,0.00066904,0.00000399,0.00022855,0.00156371,0.00
 001331,0.09791087,-0.17332055,0.22012866,0.00186661,0.00081122,0.00054
 374,0.00479246,-0.01340324,0.00884465,-0.09599092,0.06902283,-0.077007
 38,0.00290209,-0.00274803,0.00471221,-0.00000711,-0.00000777,-0.000462
 95,-0.00012705,-0.00022202,0.00007331,0.00150300,0.00138551,-0.0007355
 0,-0.01656228,0.01951854,-0.02123028,0.00015403,-0.00039419,-0.0002503
 6,-0.00097249,-0.00329090,0.00084870,0.10575647,0.00001572,0.00315474,
 -0.00118443,0.01411177,-0.03183303,0.02057290,0.06173172,-0.13179887,0
 .09846812,-0.00468694,0.00647755,-0.00811491,-0.00006988,0.00119659,-0
 .00018093,-0.00000930,0.00004272,-0.00006382,-0.00065427,0.00059536,-0
 .00028748,0.00158209,-0.00135542,0.00071515,-0.00012386,-0.00048130,0.
 00043248,-0.00339237,-0.00500298,-0.00007665,-0.06918209,0.15822211,0.
 00084282,-0.00068599,0.00014308,0.00255221,-0.00177534,0.00474609,-0.0
 7643324,0.10273855,-0.16724163,-0.01353718,0.01698609,-0.02390163,-0.0
 0002898,0.00167472,0.00067739,0.00003258,-0.00026570,-0.00000922,-0.00
 036607,-0.00005996,0.00005742,0.00353160,-0.00467440,0.00464630,-0.000
 01065,0.00024649,-0.00023937,-0.00039138,-0.00130895,0.00113108,0.0809
 7693,-0.10817166,0.18179688,-0.00018051,-0.00053658,0.00006406,0.00003
 701,-0.00014793,-0.00037352,0.00071996,-0.00286932,0.00310957,-0.08831
 731,0.06374184,-0.06547516,0.00464688,-0.00972384,0.00996883,0.0012565
 2,-0.00050450,0.00082020,-0.00006001,-0.00004690,0.00010467,0.00057662
 ,-0.00064051,0.00075883,-0.00002603,-0.00002687,0.00008552,0.00008136,
 -0.00034302,-0.00059219,0.00071316,0.00009703,0.00092718,0.09135168,0.
 00021720,0.00004292,0.00021623,-0.00022961,0.00280050,-0.00048969,-0.0
 0482952,0.00544639,-0.00930410,0.06266586,-0.14515946,0.10575600,0.011
 62170,-0.02152576,0.02052626,0.00171650,0.00116225,0.00029150,-0.00024
 723,-0.00009519,-0.00012638,-0.00044629,0.00040629,0.00019714,-0.00004
 470,-0.00001222,-0.00001626,0.00042735,-0.00024160,0.00062983,0.000154
 16,-0.00038282,-0.00248954,-0.06760200,0.16274708,-0.00020228,-0.00032
 138,-0.00030392,0.00062162,0.00141963,0.00293974,-0.01295547,0.0207286
 8,-0.02558002,-0.06506409,0.10551511,-0.15806504,0.00168074,-0.0030059
 9,0.00300929,0.00009017,0.00012093,-0.00010185,0.00019879,-0.00007772,
 -0.00003985,-0.00166884,0.00092519,0.00099477,0.00000029,0.00005257,-0
 .00007358,-0.00010797,-0.00164162,0.00010024,0.00143822,-0.00270998,-0
 .00506569,0.07257762,-0.11480020,0.17606130,-0.00042586,-0.00172376,-0
 .00189440,-0.00100459,0.00020222,0.00064675,-0.00369532,0.00119491,0.0
 0099822,-0.30860611,0.02211990,0.04759568,-0.01129801,0.00146813,0.001
 64697,0.00046710,-0.00312333,-0.00059234,0.00032799,0.00014651,-0.0002
 6786,0.00108416,0.00002550,0.00102622,0.00024024,-0.00035965,-0.000268
 05,-0.00009737,0.00000275,0.00015271,0.00039103,0.00010322,0.00035100,
 -0.01086120,0.00093375,0.00188448,0.33333057,-0.00112112,-0.00111993,-
 0.00042786,0.00093611,0.00047521,0.00062607,0.01268321,-0.00144507,-0.
 00103485,0.02128920,-0.04912756,-0.00203607,-0.03100364,0.00308414,0.0
 0599650,-0.00137091,-0.00613190,-0.00086571,-0.00003443,-0.00026784,-0
 .00026902,-0.00011133,-0.00087379,-0.00307076,-0.00021823,0.00016760,0
 .00016343,0.00014827,-0.00010613,0.00000556,-0.00054491,0.00029409,0.0
 0016074,0.02025617,-0.00204108,-0.00432248,-0.02068838,0.05406187,-0.0
 0151332,-0.00012467,-0.00014920,0.00059476,0.00102911,0.00121957,0.032
 67114,-0.00233577,-0.00554305,0.04533755,-0.00228563,-0.05669211,-0.00
 391353,0.00113474,-0.00022829,-0.00066431,-0.00108257,0.00040652,-0.00
 042534,-0.00034121,0.00007707,-0.00102998,-0.00265671,-0.00561718,-0.0
 0010509,0.00003755,0.00007886,-0.00010137,-0.00021971,-0.00009213,-0.0
 0022544,0.00062246,0.00092433,-0.02153443,0.00134063,0.00382520,-0.051
 39262,0.00503502,0.06143296,0.00003620,0.00018421,0.00011922,0.0004218
 2,-0.00126194,-0.00119369,-0.00140069,-0.00267527,0.00095103,0.0017093
 9,-0.00494191,-0.01544585,-0.05174668,0.01323412,0.03218038,-0.0038987
 7,0.01196771,0.03196801,-0.00719172,-0.00013984,-0.00038336,-0.0002320
 8,-0.00041379,-0.00015677,0.00005224,0.00000407,0.00004184,-0.00006797
 ,0.00000339,-0.00000266,-0.00008986,0.00014122,0.00036672,0.00038828,0
 .00044567,0.00048786,0.00018155,0.00062651,-0.00030403,0.05817530,-0.0
 0013364,0.00023894,0.00026067,0.00020627,-0.00187287,-0.00250140,-0.00
 323756,-0.00396762,0.00308630,0.00390925,-0.01171385,-0.02933341,0.013
 44480,-0.07936857,-0.08532510,0.00063775,-0.00131507,-0.00107936,0.000
 20143,0.00053201,0.00032727,-0.00029480,0.00025007,0.00037773,0.000096
 37,-0.00000107,0.00008243,-0.00000080,0.00017132,0.00001263,-0.0001099
 4,0.00019207,-0.00024899,0.00082818,0.00075483,0.00028612,-0.00001990,
 0.00123379,0.00035762,-0.01227565,0.08681725,-0.00016948,0.00000140,0.
 00006612,0.00037690,-0.00016738,-0.00021890,-0.00048576,-0.00022897,0.
 00134205,-0.00031046,0.00033697,-0.00084026,0.03303158,-0.08631259,-0.
 27611156,-0.00019475,-0.00092490,-0.00450967,0.00194569,0.00026840,0.0
 0102730,-0.00014881,0.00034812,0.00028646,0.00004991,0.00001319,0.0000
 2830,-0.00003300,-0.00001921,-0.00002812,0.00001615,0.00013054,0.00039
 673,-0.00005251,-0.00039724,0.00048437,-0.00046618,-0.00030429,0.00005
 497,-0.03685951,0.09451354,0.29645683,-0.00003738,0.00004750,-0.000002
 66,0.00000040,0.00004286,0.00002130,0.00027110,0.00038291,0.00043349,0
 .00646257,-0.01095972,0.01048024,-0.09205651,0.07018793,-0.06824696,-0
 .01692433,0.02197846,-0.02173419,0.00141976,-0.00006990,-0.00163242,-0
 .00008970,-0.00003975,0.00018492,0.00000295,0.00000127,0.00000006,-0.0
 0006665,0.00011639,0.00001148,0.00005106,0.00026108,-0.00010284,-0.000
 62719,-0.00340905,-0.00062868,0.00048792,0.00062652,0.00041569,0.00139
 666,-0.00343371,0.00266120,0.10447855,-0.00007118,0.00007613,-0.000041
 49,-0.00047891,0.00020770,-0.00066114,0.00098134,0.00056907,0.00207299
 ,0.01205931,-0.02142400,0.01932865,0.07017082,-0.15304010,0.10350009,0
 .00070435,-0.00102724,0.00082077,-0.00009928,-0.00019290,0.00038964,0.
 00002349,-0.00013270,-0.00023660,0.00003457,-0.00006563,0.00000653,0.0
 0001481,0.00044817,0.00010164,-0.00019577,-0.00009751,-0.00117858,-0.0
 0290786,-0.00481791,-0.00115579,-0.00013665,0.00108497,0.00004931,-0.0
 0543935,0.00769348,-0.00696499,-0.07490198,0.16892855,0.00013918,-0.00
 002371,-0.00000474,0.00002642,0.00001060,0.00022787,0.00026896,-0.0008
 2448,0.00055323,0.00182977,-0.00180296,0.00140067,-0.06881535,0.103880
 44,-0.15291326,0.00287407,-0.00484418,0.00350347,0.00040824,-0.0005259
 0,0.00113862,0.00004859,-0.00009652,0.00006381,-0.00004410,0.00001722,
 -0.00001306,-0.00007560,-0.00005199,-0.00016720,-0.00021711,0.00005318
 ,0.00038326,0.00013670,-0.00085549,0.00089254,0.00027620,0.00050808,0.
 00009216,-0.01280691,0.01965952,-0.01897826,0.07524862,-0.11486376,0.1
 6268660,0.00007095,-0.00001140,0.00001583,-0.00000071,-0.00010595,-0.0
 0006313,-0.00015056,-0.00006838,0.00008145,0.00160061,0.00139682,-0.00
 088321,-0.01710207,0.02047490,-0.02254578,-0.09493366,0.06392664,-0.07
 587627,0.00227568,-0.00364052,0.00460649,-0.00017759,0.00005394,-0.000
 44571,-0.00001305,0.00001596,-0.00000474,-0.00002788,-0.00004375,-0.00
 000985,0.00005576,0.00006007,0.00021862,-0.00006906,-0.00109394,0.0004
 0117,0.00037855,-0.00005660,0.00048810,0.00122155,0.00000406,0.0003155
 7,-0.00630551,0.00000451,0.00160249,0.10599068,0.00008072,0.00004468,-
 0.00000400,0.00000295,0.00007782,0.00010411,-0.00011870,-0.00002729,-0
 .00021853,-0.00075421,0.00075699,-0.00046845,0.00159913,-0.00278319,0.
 00165200,0.06445174,-0.13856378,0.10272243,-0.00615291,0.00692140,-0.0
 0948004,-0.00021429,0.00135414,-0.00039184,-0.00001672,-0.00001220,-0.
 00000816,0.00000249,-0.00004966,0.00000045,0.00005850,-0.00012724,0.00
 004863,0.00002188,0.00052797,0.00018682,0.00001254,0.00007205,-0.00012
 703,0.00032708,-0.00010238,-0.00016383,0.00044829,0.00107939,-0.000699
 33,-0.07304389,0.14732382,-0.00003886,-0.00004260,0.00000591,-0.000087
 83,-0.00002380,0.00002782,0.00012693,-0.00017609,-0.00006581,-0.000226
 90,-0.00024982,0.00004435,0.00391060,-0.00454971,0.00516287,-0.0760885
 1,0.10215016,-0.16384659,-0.01310212,0.01849177,-0.02387096,-0.0001435
 6,0.00160525,0.00114411,-0.00000558,0.00000801,-0.00000245,-0.00003225
 ,-0.00003004,0.00000738,0.00019750,0.00004533,0.00002077,-0.00034602,-
 0.00019571,-0.00000300,-0.00003271,-0.00021321,0.00004775,-0.00056478,
 -0.00023875,0.00057441,0.00202575,-0.00005032,0.00075972,0.08101093,-0
 .11111864,0.18208018,-0.00000958,-0.00009052,-0.00011508,0.00000843,-0
 .00023438,-0.00025038,-0.00002752,0.00063297,0.00085276,-0.00651869,0.
 00263869,0.00151677,-0.01342804,-0.03056085,-0.00207795,-0.09493823,-0
 .10065284,-0.00755806,0.00212608,0.00590760,-0.00025869,0.00029047,0.0
 0063675,0.00138129,0.00007249,-0.00002318,-0.00001424,-0.00004524,0.00
 007340,0.00007807,0.00000184,-0.00001495,-0.00010624,0.00020434,0.0000
 7044,0.00018260,-0.00075942,-0.00187487,-0.00031849,0.00114119,0.00015
 101,0.00040025,0.00107962,0.00019138,-0.00076466,0.00609113,0.01305104
 ,0.00157214,0.10417933,-0.00023673,-0.00006958,0.00005839,0.00000856,0
 .00004292,0.00002488,0.00050829,0.00021552,0.00001228,0.00045605,0.000
 87101,0.00005761,0.00264923,0.00414915,0.00063945,-0.10166280,-0.26417
 435,-0.01367615,-0.00433598,-0.01046128,0.00049138,0.00116012,0.000479
 77,-0.00313875,0.00003744,0.00001662,0.00002434,0.00003162,0.00003027,
 -0.00000093,-0.00005551,-0.00000979,-0.00002409,0.00014361,0.00030437,
 -0.00011450,0.00010136,0.00011345,-0.00017758,-0.00063792,0.00017729,0
 .00032438,-0.00056487,0.00047746,-0.00002820,-0.00771480,-0.01698568,-
 0.00116881,0.11033633,0.28436663,-0.00025277,-0.00001540,0.00011825,-0
 .00006479,0.00020560,0.00014610,0.00070910,-0.00004461,-0.00033779,0.0
 0192590,-0.00049331,0.00002643,0.00222870,0.00704903,-0.00036136,-0.00
 713473,-0.01252695,-0.04863719,-0.01389529,-0.02907282,-0.00178750,0.0
 0172188,-0.00102686,-0.00616467,0.00000272,0.00000811,0.00002279,0.000
 05471,-0.00004005,-0.00005590,-0.00007361,0.00002741,0.00001295,-0.000
 15207,-0.00050326,0.00007400,0.00040216,0.00040657,0.00041904,-0.00022
 901,0.00034505,-0.00007085,-0.00028748,-0.00041361,0.00018527,0.010044
 57,0.01978598,0.00133026,0.00594951,0.01697581,0.05282762,-0.00060276,
 -0.00035014,0.00005326,-0.00067405,0.00023760,0.00019947,0.00119705,-0
 .00313724,-0.00088350,0.00045601,0.00007656,-0.00036564,0.00126334,0.0
 0053791,0.00124164,-0.00247131,0.00039374,-0.00012648,-0.30245840,0.02
 647300,0.04549758,-0.01340623,0.00166028,0.00195401,0.00000542,0.00001
 479,0.00009861,-0.00000558,-0.00001875,0.00007388,0.00037933,-0.000027
 65,-0.00005125,-0.00001271,-0.00003688,0.00007123,-0.00003344,0.000054
 89,-0.00000144,-0.00036361,-0.00011355,0.00004326,0.00025789,-0.000114
 88,-0.00010115,0.00034587,-0.00016074,0.00043731,0.00021059,0.00044353
 ,0.00033612,0.32656973,-0.00113718,-0.00066066,0.00008490,-0.00134039,
 0.00095538,0.00018028,-0.00033341,-0.00633817,-0.00125232,0.00001727,-
 0.00019446,-0.00016075,-0.00031948,-0.00085343,-0.00315141,0.01307946,
 -0.00187331,-0.00103324,0.02763031,-0.04984827,-0.00388830,-0.03185102
 ,0.00261674,0.00594498,-0.00007957,-0.00002629,0.00013393,0.00006031,0
 .00002483,0.00006867,-0.00002616,0.00010432,-0.00023979,0.00002524,0.0
 0005992,0.00005815,0.00000854,0.00008892,0.00008727,0.00094584,0.00029
 180,-0.00045966,-0.00052890,0.00013820,0.00004516,-0.00052467,0.000443
 56,0.00022338,0.00017190,-0.00010783,0.00047100,-0.02703809,0.05519429
 ,-0.00019183,-0.00006868,0.00002817,-0.00013443,-0.00006978,0.00040604
 ,-0.00048984,-0.00079866,0.00012757,-0.00043549,-0.00033319,0.00011169
 ,-0.00101057,-0.00262722,-0.00597760,0.03150691,-0.00279526,-0.0053298
 7,0.04445052,-0.00358931,-0.05581780,-0.00346085,0.00103981,-0.0001098
 4,-0.00001736,0.00000686,0.00002402,-0.00000549,-0.00008887,-0.0000032
 5,0.00043696,-0.00017065,0.00004458,-0.00000836,0.00009454,0.00000273,
 -0.00002381,0.00009607,0.00006355,0.00196317,-0.00017078,-0.00037261,0
 .00005416,-0.00021820,0.00014151,-0.00015317,0.00085812,0.00092516,-0.
 00049295,-0.00000007,0.00117373,-0.05002043,0.00694349,0.06050375,0.00
 003733,0.00013675,-0.00010744,0.00013277,-0.00017837,0.00010296,0.0012
 0540,-0.00059952,0.00089980,-0.00009953,-0.00012826,0.00003188,0.00080
 715,-0.00072842,0.00072410,0.00083563,-0.00297505,0.00308602,-0.085511
 59,0.06066842,-0.06477322,0.00477576,-0.01024684,0.01072130,-0.0000281
 9,-0.00001266,-0.00000711,-0.00009304,0.00011413,-0.00013865,-0.000127
 91,-0.00001038,-0.00027509,-0.00009929,0.00010147,-0.00012637,-0.00001
 945,0.00003895,-0.00000271,0.00006505,-0.00001938,-0.00011923,0.000226
 25,0.00025883,0.00002075,0.00074960,-0.00006855,0.00112629,0.00001860,
 -0.00011390,-0.00056997,-0.01140760,0.01997924,-0.02209030,0.08880954,
 -0.00030286,0.00002989,-0.00007879,0.00004413,0.00034427,-0.00038321,0
 .00187537,0.00030293,0.00059583,-0.00019431,0.00000974,-0.00004692,-0.
 00066197,0.00035785,0.00021428,-0.00502999,0.00849083,-0.01039041,0.06
 010169,-0.14719501,0.11030753,0.01072284,-0.02168265,0.02057512,-0.000
 02023,-0.00001268,0.00005701,0.00024875,0.00032838,-0.00021180,-0.0010
 3769,0.00045403,-0.00019781,0.00006660,-0.00003805,-0.00018640,-0.0000
 2579,0.00003409,0.00010235,-0.00023362,0.00001863,0.00004633,-0.000091
 32,-0.00002594,0.00034692,0.00070859,-0.00011346,-0.00318596,-0.000342
 78,0.00070331,0.00064369,0.00128666,-0.00232579,0.00158171,-0.06408550
 ,0.16433236,0.00007280,0.00003027,-0.00001442,0.00022736,-0.00027252,0
 .00015509,-0.00008574,0.00027935,-0.00014883,0.00026356,-0.00013628,-0
 .00004542,-0.00137054,0.00106722,0.00121057,-0.01195522,0.01887927,-0.
 02380145,-0.06406100,0.11044776,-0.16639281,0.00144849,-0.00273850,0.0
 0266797,-0.00000158,0.00002744,-0.00000909,-0.00010829,-0.00003453,-0.
 00002615,0.00042584,0.00012889,0.00005968,-0.00013602,-0.00017041,0.00
 006538,0.00006176,0.00006209,-0.00000850,-0.00004950,-0.00039145,0.000
 46484,0.00112222,-0.00045072,0.00021680,0.00141648,-0.00293337,-0.0050
 9755,-0.00029232,-0.00022338,0.00105820,0.00168077,-0.00420410,0.00398
 160,0.07145065,-0.11854971,0.18415361,0.00060846,-0.00071764,0.0005840
 9,0.00099630,0.00168603,-0.00041329,-0.01697610,0.02263464,-0.02282352
 ,0.00142743,-0.00019821,-0.00187016,-0.00011868,-0.00005543,0.00015301
 ,0.00028244,0.00068402,0.00051636,0.00653429,-0.01171073,0.01067437,-0
 .09091040,0.06876701,-0.06624216,0.00015990,0.00009298,-0.00011878,-0.
 00087004,-0.00111186,0.00057446,-0.00580367,-0.00024052,0.00194885,0.0
 0022467,-0.00021234,0.00109511,0.00021772,-0.00052897,0.00012044,0.000
 06262,0.00008502,0.00002043,-0.00008895,-0.00017635,-0.00002304,0.0000
 3618,0.00034210,-0.00018397,-0.00010101,0.00015506,0.00017462,0.000590
 19,0.00060167,0.00041723,-0.00072495,-0.00349931,-0.00058294,0.1032360
 7,0.00015090,-0.00005057,-0.00026246,-0.00085893,0.00069826,-0.0003896
 7,0.00173975,-0.00301427,0.00194733,-0.00005702,-0.00003797,0.00047588
 ,-0.00009288,-0.00013425,-0.00029519,0.00095120,0.00115397,0.00142438,
 0.01186123,-0.02162958,0.01948780,0.06831956,-0.15043166,0.10199076,-0
 .00004168,0.00003354,-0.00000080,0.00020441,0.00047169,0.00016359,0.00
 032114,0.00048036,-0.00029958,0.00020457,0.00001267,-0.00055732,-0.000
 07484,0.00016307,-0.00019597,0.00006987,-0.00003742,-0.00005906,-0.000
 17273,0.00016334,0.00005428,-0.00018778,0.00002145,-0.00115574,-0.0003
 4219,0.00050235,-0.00010543,-0.00013436,0.00116389,-0.00000083,-0.0029
 8834,-0.00476802,-0.00106087,-0.07351485,0.16749799,0.00003619,-0.0002
 1802,0.00000364,-0.00007166,-0.00029838,0.00027726,0.00232347,-0.00429
 157,0.00311378,0.00039112,-0.00076047,0.00093833,0.00015815,-0.0000646
 6,0.00004815,0.00031170,-0.00072435,0.00089804,0.00141598,-0.00177153,
 0.00085808,-0.06644321,0.10280289,-0.15208863,-0.00000602,-0.00000820,
 -0.00004091,-0.00075481,-0.00000529,0.00031570,0.00138387,-0.00025461,
 0.00077981,0.00022415,0.00022653,0.00029501,-0.00008088,0.00002781,0.0
 0010259,-0.00003300,0.00001778,-0.00000630,-0.00004594,0.00001935,-0.0
 0016181,-0.00027435,0.00012197,0.00035487,0.00005310,0.00006085,0.0001
 3597,0.00034295,0.00045810,0.00004298,0.00011540,-0.00082891,0.0010060
 6,0.07348379,-0.11434532,0.16141597,0.00066363,0.00000277,-0.00084319,
 0.00138991,0.00072925,0.00037036,-0.00440440,0.01165447,0.03286577,-0.
 00682557,-0.00053570,-0.00040022,-0.00019529,-0.00045469,-0.00017323,-
 0.00143606,-0.00331342,0.00041372,0.00174427,-0.00459661,-0.01549521,-
 0.05094465,0.01182787,0.02690397,-0.00013704,-0.00008689,-0.00000737,-
 0.00013715,-0.00001331,0.00002851,0.00111445,0.00030829,-0.00044560,0.
 00005286,-0.00020254,0.00002378,-0.00030605,0.00089357,0.00190441,0.00
 013953,0.00007480,-0.00002125,0.00006150,0.00007882,-0.00003208,-0.000
 03646,0.00013155,0.00044563,0.00040362,-0.00070868,-0.00089027,0.00016
 029,0.00065909,-0.00029404,0.00044847,0.00047076,0.00047321,0.00121754
 ,-0.00535705,-0.01253002,0.05702661,0.00018406,-0.00023292,0.00005006,
 -0.00083357,0.00052085,0.00088788,0.00110609,-0.00233521,-0.00306587,0
 .00033878,0.00038402,0.00061437,-0.00029696,0.00024385,0.00020894,-0.0
 0339349,-0.00489713,0.00154227,0.00415094,-0.01037576,-0.02779592,0.01
 254719,-0.08033480,-0.08612381,0.00000177,0.00007729,-0.00005920,0.000
 01601,0.00005173,0.00026049,-0.00005367,-0.00012499,-0.00023485,-0.000
 03577,0.00004889,-0.00039982,-0.00016702,0.00024005,-0.00024921,0.0000
 6962,0.00000737,0.00001924,0.00007874,-0.00004252,0.00004114,-0.000153
 81,0.00014160,-0.00012471,0.00027505,-0.00064161,-0.00167596,-0.000046
 66,0.00114638,0.00031092,0.00085737,0.00075529,0.00024353,-0.00308233,
 0.00774116,0.01983604,-0.01156235,0.08762645,-0.00008211,0.00032328,0.
 00061140,-0.00105311,0.00017848,0.00010604,0.00047182,-0.00183837,-0.0
 0636462,0.00205689,-0.00013338,0.00101874,-0.00003152,0.00037295,0.000
 15751,-0.00051246,-0.00036784,0.00120509,-0.00035473,0.00067579,-0.000
 18839,0.02911768,-0.08655959,-0.27879839,0.00014070,0.00000683,-0.0000
 3395,0.00013377,-0.00030543,-0.00029994,0.00030452,0.00001866,0.000637
 19,-0.00010705,0.00006961,0.00048837,-0.00002331,-0.00054370,-0.000414
 12,-0.00004917,-0.00003744,-0.00004587,0.00002203,-0.00005380,-0.00000
 719,0.00005450,0.00013270,0.00040076,0.00026257,-0.00011692,-0.0001153
 6,-0.00048021,-0.00030973,0.00003389,-0.00006904,-0.00041083,0.0005044
 1,0.00249509,-0.00681576,-0.01828858,-0.03229687,0.09571450,0.29939299
 \\-0.00000923,0.00000450,-0.00000190,0.00001349,-0.00000883,-0.0000021
 5,0.00000794,0.00002567,0.00001834,-0.00000196,-0.00001534,-0.00001765
 ,0.00000806,-0.00000333,0.00000264,-0.00000673,-0.00000484,-0.00000290
 ,0.00000389,0.00000019,0.00000240,-0.00000090,0.00000461,-0.00000235,-
 0.00000129,-0.00000229,0.00000130,-0.00000766,0.00000118,-0.00001138,-
 0.00000059,-0.00000578,-0.00000144,-0.00000187,-0.00000190,0.00000114,
 0.00000142,-0.00000086,0.00000537,-0.00000126,-0.00000170,0.00000091,-
 0.00000248,0.00000190,0.00000255,0.00000259,-0.00000139,0.00000018,0.0
 0000163,-0.00000062,0.00000588,-0.00000150,0.00000266,-0.00000204,0.00
 000106,0.00000206,0.00000072,0.00000084,0.00000149,-0.00000181,-0.0000
 0544,0.00000262,0.00000219\\\@


 YOU WILL NEVER "FIND" TIME FOR ANYTHING.
 IF YOU WANT TIME, YOU MUST MAKE IT.

                        -- CHARLES BIXTON
 Job cpu time:       0 days  0 hours 52 minutes 42.2 seconds.
 Elapsed time:       0 days  0 hours  2 minutes 13.6 seconds.
 File lengths (MBytes):  RWF=    133 Int=      0 D2E=      0 Chk=      7 Scr=      1
 Normal termination of Gaussian 16 at Sun Oct 13 19:43:35 2019.
real 340.62
user 7917.57
sys 21.45
Machine:
brown-a480
brown-a480
brown-a480
brown-a480
brown-a480
brown-a480
brown-a480
brown-a480
brown-a480
brown-a480
brown-a480
brown-a480
brown-a480
brown-a480
brown-a480
brown-a480
brown-a480
brown-a480
brown-a480
brown-a480
brown-a480
brown-a480
brown-a480
brown-a480
