Title Card Required                                                     
Freq      RM062X                                                      6-311++G(d,p)       
Number of atoms                            I               22
Info1-9                                    I   N=           9
          54          54        1002           0           0         100
           6          18        -502
Full Title                                 C   N=           2
Title Card Required     
Route                                      C   N=           6
#p opt freq m062x/6-311++g(d,p) geom=connectivity temperatur
e=0.001     
Charge                                     I                1
Multiplicity                               I                1
Number of electrons                        I               64
Number of alpha electrons                  I               32
Number of beta electrons                   I               32
Number of basis functions                  I              274
Number of independent functions            I              274
Number of point charges in /Mol/           I                0
Number of translation vectors              I                0
Atomic numbers                             I   N=          22
           8           7           6           6           6           6
           6           6           1           1           1           1
           1           1           1           1           1           1
           1           1           1           1
Nuclear charges                            R   N=          22
  8.00000000E+00  7.00000000E+00  6.00000000E+00  6.00000000E+00  6.00000000E+00
  6.00000000E+00  6.00000000E+00  6.00000000E+00  1.00000000E+00  1.00000000E+00
  1.00000000E+00  1.00000000E+00  1.00000000E+00  1.00000000E+00  1.00000000E+00
  1.00000000E+00  1.00000000E+00  1.00000000E+00  1.00000000E+00  1.00000000E+00
  1.00000000E+00  1.00000000E+00
Current cartesian coordinates              R   N=          66
 -5.41436161E+00  6.62153025E-01  7.88596526E-02 -3.50028668E+00 -1.39974488E+00
 -2.96065510E-01 -1.00456634E+00 -5.15007828E-01  5.69121524E-01 -2.15052099E-01
  2.06775741E+00 -4.66264439E-01  2.49822996E+00  2.69164195E+00  3.55060456E-01
  4.33095972E+00  6.21036482E-01 -4.80594643E-01  3.51651528E+00 -1.95614000E+00
  5.35565676E-01  8.16044347E-01 -2.60437164E+00 -2.89813936E-01 -6.45827317E+00
  2.16951101E-01  1.52952904E+00 -3.53175005E+00 -1.50536533E+00 -2.22808204E+00
 -1.06443989E+00 -4.90682100E-01  2.63860263E+00 -3.32256694E-01  2.04152482E+00
 -2.53675069E+00 -1.43695971E+00  3.61178810E+00  2.15177900E-01  3.04055536E+00
  4.51673690E+00 -4.34839952E-01  2.55491793E+00  2.88481750E+00  2.41520121E+00
  4.40853494E+00  5.59418798E-01 -2.54887612E+00  6.23350366E+00  1.07204296E+00
  1.74045802E-01  4.78546754E+00 -3.43774723E+00 -1.30998069E-01  3.62019504E+00
 -1.96290470E+00  2.60240512E+00  7.52539675E-01 -2.74860403E+00 -2.35751398E+00
  2.13786779E-01 -4.41541580E+00  4.92149662E-01 -4.62170695E+00  2.32893074E+00
  2.73083013E-01
Number of symbols in /Mol/                 I                0
Force Field                                I                0
Atom Types                                 C   N=          22
                                                            
                                                            
                                                            
                                                            
                        
Int Atom Types                             I   N=          22
           0           0           0           0           0           0
           0           0           0           0           0           0
           0           0           0           0           0           0
           0           0           0           0
MM charges                                 R   N=          22
  0.00000000E+00  0.00000000E+00  0.00000000E+00  0.00000000E+00  0.00000000E+00
  0.00000000E+00  0.00000000E+00  0.00000000E+00  0.00000000E+00  0.00000000E+00
  0.00000000E+00  0.00000000E+00  0.00000000E+00  0.00000000E+00  0.00000000E+00
  0.00000000E+00  0.00000000E+00  0.00000000E+00  0.00000000E+00  0.00000000E+00
  0.00000000E+00  0.00000000E+00
Integer atomic weights                     I   N=          22
          16          14          12          12          12          12
          12          12           1           1           1           1
           1           1           1           1           1           1
           1           1           1           1
Real atomic weights                        R   N=          22
  1.59949146E+01  1.40030740E+01  1.20000000E+01  1.20000000E+01  1.20000000E+01
  1.20000000E+01  1.20000000E+01  1.20000000E+01  1.00782504E+00  1.00782504E+00
  1.00782504E+00  1.00782504E+00  1.00782504E+00  1.00782504E+00  1.00782504E+00
  1.00782504E+00  1.00782504E+00  1.00782504E+00  1.00782504E+00  1.00782504E+00
  1.00782504E+00  1.00782504E+00
Atom fragment info                         I   N=          22
           0           0           0           0           0           0
           0           0           0           0           0           0
           0           0           0           0           0           0
           0           0           0           0
Atom residue num                           I   N=          22
           0           0           0           0           0           0
           0           0           0           0           0           0
           0           0           0           0           0           0
           0           0           0           0
Nuclear spins                              I   N=          22
           0           2           0           0           0           0
           0           0           1           1           1           1
           1           1           1           1           1           1
           1           1           1           1
Nuclear ZEff                               R   N=          22
 -5.60000000E+00 -4.55000000E+00 -3.60000000E+00 -3.60000000E+00 -3.60000000E+00
 -3.60000000E+00 -3.60000000E+00 -3.60000000E+00 -1.00000000E+00 -1.00000000E+00
 -1.00000000E+00 -1.00000000E+00 -1.00000000E+00 -1.00000000E+00 -1.00000000E+00
 -1.00000000E+00 -1.00000000E+00 -1.00000000E+00 -1.00000000E+00 -1.00000000E+00
 -1.00000000E+00 -1.00000000E+00
Nuclear ZNuc                               R   N=          22
  8.00000000E+00  7.00000000E+00  6.00000000E+00  6.00000000E+00  6.00000000E+00
  6.00000000E+00  6.00000000E+00  6.00000000E+00  1.00000000E+00  1.00000000E+00
  1.00000000E+00  1.00000000E+00  1.00000000E+00  1.00000000E+00  1.00000000E+00
  1.00000000E+00  1.00000000E+00  1.00000000E+00  1.00000000E+00  1.00000000E+00
  1.00000000E+00  1.00000000E+00
Nuclear QMom                               R   N=          22
  0.00000000E+00  2.04400000E+00  0.00000000E+00  0.00000000E+00  0.00000000E+00
  0.00000000E+00  0.00000000E+00  0.00000000E+00  0.00000000E+00  0.00000000E+00
  0.00000000E+00  0.00000000E+00  0.00000000E+00  0.00000000E+00  0.00000000E+00
  0.00000000E+00  0.00000000E+00  0.00000000E+00  0.00000000E+00  0.00000000E+00
  0.00000000E+00  0.00000000E+00
Nuclear GFac                               R   N=          22
  0.00000000E+00  4.03761000E-01  0.00000000E+00  0.00000000E+00  0.00000000E+00
  0.00000000E+00  0.00000000E+00  0.00000000E+00  2.79284600E+00  2.79284600E+00
  2.79284600E+00  2.79284600E+00  2.79284600E+00  2.79284600E+00  2.79284600E+00
  2.79284600E+00  2.79284600E+00  2.79284600E+00  2.79284600E+00  2.79284600E+00
  2.79284600E+00  2.79284600E+00
MicOpt                                     I   N=          22
          -1          -1          -1          -1          -1          -1
          -1          -1          -1          -1          -1          -1
          -1          -1          -1          -1          -1          -1
          -1          -1          -1          -1
Number of residues                         I                0
Number of secondary structures             I                0
Redundant internal dimensions              I   N=           4
         128          22          42          64
Redundant internal coordinate indices      I   N=         512
           1           2           0           0           1           9
           0           0           1          22           0           0
           2           3           0           0           2          10
           0           0           3           4           0           0
           3           8           0           0           3          11
           0           0           4           5           0           0
           4          12           0           0           4          13
           0           0           5           6           0           0
           5          14           0           0           5          15
           0           0           6           7           0           0
           6          16           0           0           6          17
           0           0           7           8           0           0
           7          18           0           0           7          19
           0           0           8          20           0           0
           8          21           0           0           2           1
           9           0           2           1          22           0
           9           1          22           0           1           2
           3           0           1           2          10           0
           3           2          10           0           2           3
           4           0           2           3           8           0
           2           3          11           0           4           3
           8           0           4           3          11           0
           8           3          11           0           3           4
           5           0           3           4          12           0
           3           4          13           0           5           4
          12           0           5           4          13           0
          12           4          13           0           4           5
           6           0           4           5          14           0
           4           5          15           0           6           5
          14           0           6           5          15           0
          14           5          15           0           5           6
           7           0           5           6          16           0
           5           6          17           0           7           6
          16           0           7           6          17           0
          16           6          17           0           6           7
           8           0           6           7          18           0
           6           7          19           0           8           7
          18           0           8           7          19           0
          18           7          19           0           3           8
           7           0           3           8          20           0
           3           8          21           0           7           8
          20           0           7           8          21           0
          20           8          21           0           9           1
           2           3           9           1           2          10
          22           1           2           3          22           1
           2          10           1           2           3           4
           1           2           3           8           1           2
           3          11          10           2           3           4
          10           2           3           8          10           2
           3          11           2           3           4           5
           2           3           4          12           2           3
           4          13           8           3           4           5
           8           3           4          12           8           3
           4          13          11           3           4           5
          11           3           4          12          11           3
           4          13           2           3           8           7
           2           3           8          20           2           3
           8          21           4           3           8           7
           4           3           8          20           4           3
           8          21          11           3           8           7
          11           3           8          20          11           3
           8          21           3           4           5           6
           3           4           5          14           3           4
           5          15          12           4           5           6
          12           4           5          14          12           4
           5          15          13           4           5           6
          13           4           5          14          13           4
           5          15           4           5           6           7
           4           5           6          16           4           5
           6          17          14           5           6           7
          14           5           6          16          14           5
           6          17          15           5           6           7
          15           5           6          16          15           5
           6          17           5           6           7           8
           5           6           7          18           5           6
           7          19          16           6           7           8
          16           6           7          18          16           6
           7          19          17           6           7           8
          17           6           7          18          17           6
           7          19           6           7           8           3
           6           7           8          20           6           7
           8          21          18           7           8           3
          18           7           8          20          18           7
           8          21          19           7           8           3
          19           7           8          20          19           7
           8          21
Redundant internal coordinates             R   N=         128
  2.83825205E+00  1.84184629E+00  1.85584808E+00  2.78566478E+00  1.93515722E+00
  2.89240957E+00  2.90135047E+00  2.07048995E+00  2.90270668E+00  2.07396683E+00
  2.08361528E+00  2.88870643E+00  2.06131780E+00  2.06995417E+00  2.88751453E+00
  2.07065278E+00  2.06194918E+00  2.89723990E+00  2.06148176E+00  2.06944934E+00
  2.07369702E+00  2.06253780E+00  1.88669225E+00  1.95869398E+00  1.95706839E+00
  1.90968158E+00  1.73206297E+00  1.91982229E+00  2.00090913E+00  1.81473427E+00
  1.86320334E+00  1.94526982E+00  1.93391845E+00  1.89917541E+00  1.92386987E+00
  1.90778407E+00  1.96552453E+00  1.91560808E+00  1.87167127E+00  1.87835349E+00
  1.93598858E+00  1.90477146E+00  1.90420630E+00  1.93571755E+00  1.91498256E+00
  1.86664407E+00  1.93799455E+00  1.91139482E+00  1.91428313E+00  1.91295335E+00
  1.92169724E+00  1.86404487E+00  1.94157371E+00  1.93270037E+00  1.91798738E+00
  1.89739924E+00  1.90762084E+00  1.86475734E+00  1.91710076E+00  1.90293095E+00
  1.91437245E+00  1.90515868E+00  1.93972768E+00  1.88390330E+00 -1.83794822E+00
  2.43579474E+00  3.29294859E-01 -1.68014748E+00 -8.65129167E-01 -2.99322608E+00
  1.28350453E+00  1.02028452E+00 -1.10781239E+00 -3.11426709E+00 -3.05174251E+00
 -9.44807318E-01  1.14203980E+00 -9.96390649E-01  1.11054454E+00 -3.08579364E+00
  1.12129304E+00 -3.05495707E+00 -9.68109953E-01 -3.12319061E+00  1.07308021E+00
 -9.86377811E-01  9.95404096E-01 -1.09151039E+00  3.13221690E+00 -1.14237943E+00
  3.05389140E+00  9.94433371E-01  9.81896490E-01  3.11966324E+00 -1.12958869E+00
 -1.12034247E+00  1.01742428E+00  3.05135766E+00  3.12725096E+00 -1.01816760E+00
  1.01576578E+00 -9.82053507E-01  1.13292081E+00 -3.10993856E+00 -3.10174964E+00
 -9.86775321E-01  1.05355062E+00  1.12306060E+00 -3.04515038E+00 -1.00482445E+00
  9.88160141E-01  3.10023820E+00 -1.12686532E+00 -1.12589817E+00  9.86179890E-01
  3.04226167E+00  3.11171739E+00 -1.05938986E+00  9.96691924E-01 -9.85210091E-01
  1.10034319E+00 -3.10692109E+00 -3.11786041E+00 -1.03230712E+00  1.04361390E+00
  1.13587192E+00 -3.06176010E+00 -9.85839082E-01
ZRed-IntVec                                I   N=         128
           0           0           0           0           0           0
           0           0           0           0           0           0
           0           0           0           0           0           0
           0           0           0           0           0           0
           0           0           0           0           0           0
           0           0           0           0           0           0
           0           0           0           0           0           0
           0           0           0           0           0           0
           0           0           0           0           0           0
           0           0           0           0           0           0
           0           0           0           0           0           0
           0           0           0           0           0           0
           0           0           0           0           0           0
           0           0           0           0           0           0
           0           0           0           0           0           0
           0           0           0           0           0           0
           0           0           0           0           0           0
           0           0           0           0           0           0
           0           0           0           0           0           0
           0           0           0           0           0           0
           0           0           0           0           0           0
           0           0
ZRed-FPVec                                 R   N=         128
  0.00000000E+00  0.00000000E+00  0.00000000E+00  0.00000000E+00  0.00000000E+00
  0.00000000E+00  0.00000000E+00  0.00000000E+00  0.00000000E+00  0.00000000E+00
  0.00000000E+00  0.00000000E+00  0.00000000E+00  0.00000000E+00  0.00000000E+00
  0.00000000E+00  0.00000000E+00  0.00000000E+00  0.00000000E+00  0.00000000E+00
  0.00000000E+00  0.00000000E+00  0.00000000E+00  0.00000000E+00  0.00000000E+00
  0.00000000E+00  0.00000000E+00  0.00000000E+00  0.00000000E+00  0.00000000E+00
  0.00000000E+00  0.00000000E+00  0.00000000E+00  0.00000000E+00  0.00000000E+00
  0.00000000E+00  0.00000000E+00  0.00000000E+00  0.00000000E+00  0.00000000E+00
  0.00000000E+00  0.00000000E+00  0.00000000E+00  0.00000000E+00  0.00000000E+00
  0.00000000E+00  0.00000000E+00  0.00000000E+00  0.00000000E+00  0.00000000E+00
  0.00000000E+00  0.00000000E+00  0.00000000E+00  0.00000000E+00  0.00000000E+00
  0.00000000E+00  0.00000000E+00  0.00000000E+00  0.00000000E+00  0.00000000E+00
  0.00000000E+00  0.00000000E+00  0.00000000E+00  0.00000000E+00  0.00000000E+00
  0.00000000E+00  0.00000000E+00  0.00000000E+00  0.00000000E+00  0.00000000E+00
  0.00000000E+00  0.00000000E+00  0.00000000E+00  0.00000000E+00  0.00000000E+00
  0.00000000E+00  0.00000000E+00  0.00000000E+00  0.00000000E+00  0.00000000E+00
  0.00000000E+00  0.00000000E+00  0.00000000E+00  0.00000000E+00  0.00000000E+00
  0.00000000E+00  0.00000000E+00  0.00000000E+00  0.00000000E+00  0.00000000E+00
  0.00000000E+00  0.00000000E+00  0.00000000E+00  0.00000000E+00  0.00000000E+00
  0.00000000E+00  0.00000000E+00  0.00000000E+00  0.00000000E+00  0.00000000E+00
  0.00000000E+00  0.00000000E+00  0.00000000E+00  0.00000000E+00  0.00000000E+00
  0.00000000E+00  0.00000000E+00  0.00000000E+00  0.00000000E+00  0.00000000E+00
  0.00000000E+00  0.00000000E+00  0.00000000E+00  0.00000000E+00  0.00000000E+00
  0.00000000E+00  0.00000000E+00  0.00000000E+00  0.00000000E+00  0.00000000E+00
  0.00000000E+00  0.00000000E+00  0.00000000E+00  0.00000000E+00  0.00000000E+00
  0.00000000E+00  0.00000000E+00  0.00000000E+00
ZRed-Constraint1                           R   N=         128
  2.83825205E+00  1.84184629E+00  1.85584808E+00  2.78566478E+00  1.93515722E+00
  2.89240957E+00  2.90135047E+00  2.07048995E+00  2.90270668E+00  2.07396683E+00
  2.08361528E+00  2.88870643E+00  2.06131780E+00  2.06995417E+00  2.88751453E+00
  2.07065278E+00  2.06194918E+00  2.89723990E+00  2.06148176E+00  2.06944934E+00
  2.07369702E+00  2.06253780E+00  1.88669225E+00  1.95869398E+00  1.95706839E+00
  1.90968158E+00  1.73206297E+00  1.91982229E+00  2.00090913E+00  1.81473427E+00
  1.86320334E+00  1.94526982E+00  1.93391845E+00  1.89917541E+00  1.92386987E+00
  1.90778407E+00  1.96552453E+00  1.91560808E+00  1.87167127E+00  1.87835349E+00
  1.93598858E+00  1.90477146E+00  1.90420630E+00  1.93571755E+00  1.91498256E+00
  1.86664407E+00  1.93799455E+00  1.91139482E+00  1.91428313E+00  1.91295335E+00
  1.92169724E+00  1.86404487E+00  1.94157371E+00  1.93270037E+00  1.91798738E+00
  1.89739924E+00  1.90762084E+00  1.86475734E+00  1.91710076E+00  1.90293095E+00
  1.91437245E+00  1.90515868E+00  1.93972768E+00  1.88390330E+00 -1.83794822E+00
  2.43579474E+00  3.29294859E-01 -1.68014748E+00 -8.65129167E-01 -2.99322608E+00
  1.28350453E+00  1.02028452E+00 -1.10781239E+00 -3.11426709E+00 -3.05174251E+00
 -9.44807318E-01  1.14203980E+00 -9.96390649E-01  1.11054454E+00 -3.08579364E+00
  1.12129304E+00 -3.05495707E+00 -9.68109953E-01 -3.12319061E+00  1.07308021E+00
 -9.86377811E-01  9.95404096E-01 -1.09151039E+00  3.13221690E+00 -1.14237943E+00
  3.05389140E+00  9.94433371E-01  9.81896490E-01  3.11966324E+00 -1.12958869E+00
 -1.12034247E+00  1.01742428E+00  3.05135766E+00  3.12725096E+00 -1.01816760E+00
  1.01576578E+00 -9.82053507E-01  1.13292081E+00 -3.10993856E+00 -3.10174964E+00
 -9.86775321E-01  1.05355062E+00  1.12306060E+00 -3.04515038E+00 -1.00482445E+00
  9.88160141E-01  3.10023820E+00 -1.12686532E+00 -1.12589817E+00  9.86179890E-01
  3.04226167E+00  3.11171739E+00 -1.05938986E+00  9.96691924E-01 -9.85210091E-01
  1.10034319E+00 -3.10692109E+00 -3.11786041E+00 -1.03230712E+00  1.04361390E+00
  1.13587192E+00 -3.06176010E+00 -9.85839082E-01
ZRed-Constraint2                           R   N=         128
  2.56805672E+00  1.81413707E+00  1.81413709E+00  2.79727419E+00  1.90866154E+00
  2.94416753E+00  2.93999926E+00  2.05980109E+00  2.93009901E+00  2.05981092E+00
  2.05990134E+00  2.92831032E+00  2.05981096E+00  2.05986500E+00  2.92987506E+00
  2.05967195E+00  2.05990808E+00  2.93127237E+00  2.05993042E+00  2.05971371E+00
  2.05970439E+00  2.05981729E+00  2.09439511E+00  2.09439510E+00  2.09439510E+00
  1.93813464E+00  2.11040043E+00  2.23465024E+00  1.94704389E+00  1.90477977E+00
  1.84711605E+00  1.93123024E+00  1.89579542E+00  1.93644994E+00  1.95370947E+00
  1.85598219E+00  1.85599162E+00  1.85284357E+00  1.85286980E+00  2.09429756E+00
  1.95479160E+00  1.85444180E+00  1.85435014E+00  1.85393892E+00  1.85390826E+00
  2.09441631E+00  1.95069354E+00  1.85480106E+00  1.85485188E+00  1.85530831E+00
  1.85521039E+00  2.09442033E+00  1.95658991E+00  1.85358512E+00  1.85370421E+00
  1.85389259E+00  1.85394156E+00  2.09437919E+00  1.95832716E+00  1.85441078E+00
  1.85442803E+00  1.85237614E+00  1.85231684E+00  2.09446648E+00 -1.64503714E+00
  1.49648948E+00  1.49655551E+00 -1.64510318E+00 -1.13780466E+00  3.00596860E+00
  9.21027121E-01  2.00385992E+00 -1.35552120E-01 -2.22049360E+00 -3.07602631E+00
 -1.05988193E+00  1.19097773E+00 -9.51847953E-01  1.06429642E+00 -2.96802922E+00
  1.17780337E+00 -3.08923756E+00 -8.38377894E-01  3.09461474E+00  1.07756466E+00
 -1.17158133E+00  9.45750155E-01 -1.07129992E+00  2.96273940E+00 -1.15987493E+00
  3.10626030E+00  8.57114306E-01  9.51911990E-01  2.96902145E+00 -1.06510696E+00
 -1.06614423E+00  9.50965226E-01 -3.08316318E+00  2.96999484E+00 -1.29608101E+00
  9.52975891E-01 -9.29197827E-01  1.08764505E+00 -2.94595344E+00 -2.94661322E+00
 -9.29770343E-01  1.31981647E+00  1.08808997E+00  3.10493285E+00 -9.28665641E-01
  9.21564671E-01  2.93904360E+00 -1.09604307E+00 -1.09496816E+00  9.22510769E-01
 -3.11257590E+00  2.93810114E+00 -1.32760524E+00  9.20493403E-01 -9.38587379E-01
  1.07969558E+00 -2.95685590E+00 -2.95587962E+00 -9.37596665E-01  1.30903717E+00
  1.07887626E+00  3.09715921E+00 -9.39392260E-01
SymInf integers                            I   N=          26
           1           1           1           1           1           0
           0           0           0           0           0           0
           0           0           0           0           0           0
           0           0           0           0           0           0
           0           0
RotTr to input orientation                 R   N=          12
 -7.26421942E-01 -6.69730454E-01 -1.54182625E-01  5.54283617E-01 -4.38308898E-01
 -7.07569772E-01  4.06301408E-01 -5.99455111E-01  6.89617819E-01 -1.57816782E+00
 -2.88032131E+00 -4.72611862E-01
Number of contracted shells                I              118
Number of primitive shells                 I              202
Pure/Cartesian d shells                    I                0
Pure/Cartesian f shells                    I                0
Highest angular momentum                   I                2
Largest degree of contraction              I                6
Shell types                                I   N=         118
           0          -1          -1          -1          -1          -2
           0          -1          -1          -1          -1          -2
           0          -1          -1          -1          -1          -2
           0          -1          -1          -1          -1          -2
           0          -1          -1          -1          -1          -2
           0          -1          -1          -1          -1          -2
           0          -1          -1          -1          -1          -2
           0          -1          -1          -1          -1          -2
           0           0           0           0           1           0
           0           0           0           1           0           0
           0           0           1           0           0           0
           0           1           0           0           0           0
           1           0           0           0           0           1
           0           0           0           0           1           0
           0           0           0           1           0           0
           0           0           1           0           0           0
           0           1           0           0           0           0
           1           0           0           0           0           1
           0           0           0           0           1           0
           0           0           0           1
Number of primitives per shell             I   N=         118
           6           3           1           1           1           1
           6           3           1           1           1           1
           6           3           1           1           1           1
           6           3           1           1           1           1
           6           3           1           1           1           1
           6           3           1           1           1           1
           6           3           1           1           1           1
           6           3           1           1           1           1
           3           1           1           1           1           3
           1           1           1           1           3           1
           1           1           1           3           1           1
           1           1           3           1           1           1
           1           3           1           1           1           1
           3           1           1           1           1           3
           1           1           1           1           3           1
           1           1           1           3           1           1
           1           1           3           1           1           1
           1           3           1           1           1           1
           3           1           1           1           1           3
           1           1           1           1
Shell to atom map                          I   N=         118
           1           1           1           1           1           1
           2           2           2           2           2           2
           3           3           3           3           3           3
           4           4           4           4           4           4
           5           5           5           5           5           5
           6           6           6           6           6           6
           7           7           7           7           7           7
           8           8           8           8           8           8
           9           9           9           9           9          10
          10          10          10          10          11          11
          11          11          11          12          12          12
          12          12          13          13          13          13
          13          14          14          14          14          14
          15          15          15          15          15          16
          16          16          16          16          17          17
          17          17          17          18          18          18