 Entering Gaussian System, Link 0=/apps/cent7/gaussian/g16-A.03/g16-haswell/g16/g16
 Initial command:
 /apps/cent7/gaussian/g16-A.03/g16-haswell/g16/l1.exe "/scratch/brown/finej/gaussian/Gau-327974.inp" -scrdir="/scratch/brown/finej/gaussian/"
 Entering Link 1 = /apps/cent7/gaussian/g16-A.03/g16-haswell/g16/l1.exe PID=    327975.
  
 Copyright (c) 1988,1990,1992,1993,1995,1998,2003,2009,2016,
            Gaussian, Inc.  All Rights Reserved.
  
 This is part of the Gaussian(R) 16 program.  It is based on
 the Gaussian(R) 09 system (copyright 2009, Gaussian, Inc.),
 the Gaussian(R) 03 system (copyright 2003, Gaussian, Inc.),
 the Gaussian(R) 98 system (copyright 1998, Gaussian, Inc.),
 the Gaussian(R) 94 system (copyright 1995, Gaussian, Inc.),
 the Gaussian 92(TM) system (copyright 1992, Gaussian, Inc.),
 the Gaussian 90(TM) system (copyright 1990, Gaussian, Inc.),
 the Gaussian 88(TM) system (copyright 1988, Gaussian, Inc.),
 the Gaussian 86(TM) system (copyright 1986, Carnegie Mellon
 University), and the Gaussian 82(TM) system (copyright 1983,
 Carnegie Mellon University). Gaussian is a federally registered
 trademark of Gaussian, Inc.
  
 This software contains proprietary and confidential information,
 including trade secrets, belonging to Gaussian, Inc.
  
 This software is provided under written license and may be
 used, copied, transmitted, or stored only in accord with that
 written license.
  
 The following legend is applicable only to US Government
 contracts under FAR:
  
                    RESTRICTED RIGHTS LEGEND
  
 Use, reproduction and disclosure by the US Government is
 subject to restrictions as set forth in subparagraphs (a)
 and (c) of the Commercial Computer Software - Restricted
 Rights clause in FAR 52.227-19.
  
 Gaussian, Inc.
 340 Quinnipiac St., Bldg. 40, Wallingford CT 06492
  
  
 ---------------------------------------------------------------
 Warning -- This program may not be used in any manner that
 competes with the business of Gaussian, Inc. or will provide
 assistance to any competitor of Gaussian, Inc.  The licensee
 of this program is prohibited from giving any competitor of
 Gaussian, Inc. access to this program.  By using this program,
 the user acknowledges that Gaussian, Inc. is engaged in the
 business of creating and licensing software in the field of
 computational chemistry and represents and warrants to the
 licensee that it is not a competitor of Gaussian, Inc. and that
 it will not use this program in any manner prohibited above.
 ---------------------------------------------------------------
  

 Cite this work as:
 Gaussian 16, Revision A.03,
 M. J. Frisch, G. W. Trucks, H. B. Schlegel, G. E. Scuseria, 
 M. A. Robb, J. R. Cheeseman, G. Scalmani, V. Barone, 
 G. A. Petersson, H. Nakatsuji, X. Li, M. Caricato, A. V. Marenich, 
 J. Bloino, B. G. Janesko, R. Gomperts, B. Mennucci, H. P. Hratchian, 
 J. V. Ortiz, A. F. Izmaylov, J. L. Sonnenberg, D. Williams-Young, 
 F. Ding, F. Lipparini, F. Egidi, J. Goings, B. Peng, A. Petrone, 
 T. Henderson, D. Ranasinghe, V. G. Zakrzewski, J. Gao, N. Rega, 
 G. Zheng, W. Liang, M. Hada, M. Ehara, K. Toyota, R. Fukuda, 
 J. Hasegawa, M. Ishida, T. Nakajima, Y. Honda, O. Kitao, H. Nakai, 
 T. Vreven, K. Throssell, J. A. Montgomery, Jr., J. E. Peralta, 
 F. Ogliaro, M. J. Bearpark, J. J. Heyd, E. N. Brothers, K. N. Kudin, 
 V. N. Staroverov, T. A. Keith, R. Kobayashi, J. Normand, 
 K. Raghavachari, A. P. Rendell, J. C. Burant, S. S. Iyengar, 
 J. Tomasi, M. Cossi, J. M. Millam, M. Klene, C. Adamo, R. Cammi, 
 J. W. Ochterski, R. L. Martin, K. Morokuma, O. Farkas, 
 J. B. Foresman, and D. J. Fox, Gaussian, Inc., Wallingford CT, 2016.
 
 ******************************************
 Gaussian 16:  ES64L-G16RevA.03 25-Dec-2016
                13-Oct-2019 
 ******************************************
 %chk=11_p.chk
 %nprocshared=24
 Will use up to   24 processors via shared memory.
 %mem=80GB
 -------------------------------------------------------------------
 #P opt freq m062x/6-311++g(d,p) geom=connectivity temperature=0.001
 -------------------------------------------------------------------
 1/18=20,19=15,26=3,38=1,57=2,112=-1000/1,3;
 2/9=110,12=2,17=6,18=5,40=1/2;
 3/5=4,6=6,7=1111,11=2,25=1,30=1,71=1,74=-55/1,2,3;
 4//1;
 5/5=2,38=5/2;
 6/7=2,8=2,9=2,10=2,28=1/1;
 7//1,2,3,16;
 1/18=20,19=15,26=3/3(2);
 2/9=110/2;
 99//99;
 2/9=110/2;
 3/5=4,6=6,7=1111,11=2,25=1,30=1,71=1,74=-55/1,2,3;
 4/5=5,16=3,69=1/1;
 5/5=2,38=5/2;
 7//1,2,3,16;
 1/18=20,19=15,26=3/3(-5);
 2/9=110/2;
 6/7=2,8=2,9=2,10=2,19=2,28=1/1;
 99/9=1/99;
 Leave Link    1 at Sun Oct 13 19:38:43 2019, MaxMem= 10737418240 cpu:               1.6 elap:               0.1
 (Enter /apps/cent7/gaussian/g16-A.03/g16-haswell/g16/l101.exe)
 -------------------
 Title Card Required
 -------------------
 Symbolic Z-matrix:
 Charge =  1 Multiplicity = 1
 O                     1.4691    0.1099    0.0818 
 N                     0.1166    0.1616    0.2036 
 C                    -0.4743   -1.1945    0.149 
 C                    -0.2616   -1.8559   -1.2455 
 C                    -0.9574   -3.2381   -1.3433 
 C                    -2.4641   -3.1558   -0.9907 
 C                    -2.6964   -2.4816    0.386 
 C                    -1.99     -1.1044    0.4881 
 H                     1.8687    0.0945    0.9545 
 H                    -0.11807   0.58677   1.07776 
 H                     0.0583   -1.7813    0.8974 
 H                    -0.7617   -1.2126   -1.9695 
 H                     0.8078   -2.0476   -1.3341 
 H                    -0.9056   -3.5322   -2.3916 
 H                    -0.4994   -3.8649   -0.5781 
 H                    -2.9161   -2.4985   -1.7334 
 H                    -2.8109   -4.1843   -0.89 
 H                    -3.7659   -2.2807    0.4497 
 H                    -2.2178   -3.1248    1.1244 
 H                    -2.438    -0.4764   -0.2819 
 H                    -2.0512   -0.8096    1.5357 
 H                    -0.25901   0.71336  -0.54103 
 
 ITRead=  0  0  0  0  0  0  0  0  0  0  0  0  0  0  0  0  0  0  0  0
 ITRead=  0  0
 MicOpt= -1 -1 -1 -1 -1 -1 -1 -1 -1 -1 -1 -1 -1 -1 -1 -1 -1 -1 -1 -1
 MicOpt= -1 -1
 NAtoms=     22 NQM=       22 NQMF=       0 NMMI=      0 NMMIF=      0
                NMic=       0 NMicF=      0.
                    Isotopes and Nuclear Properties:
 (Nuclear quadrupole moments (NQMom) in fm**2, nuclear magnetic moments (NMagM)
  in nuclear magnetons)

  Atom         1           2           3           4           5           6           7           8           9          10
 IAtWgt=          16          14          12          12          12          12          12          12           1           1
 AtmWgt=  15.9949146  14.0030740  12.0000000  12.0000000  12.0000000  12.0000000  12.0000000  12.0000000   1.0078250   1.0078250
 NucSpn=           0           2           0           0           0           0           0           0           1           1
 AtZEff=  -0.0000000  -0.0000000  -0.0000000  -0.0000000  -0.0000000  -0.0000000  -0.0000000  -0.0000000  -0.0000000  -0.0000000
 NQMom=    0.0000000   2.0440000   0.0000000   0.0000000   0.0000000   0.0000000   0.0000000   0.0000000   0.0000000   0.0000000
 NMagM=    0.0000000   0.4037610   0.0000000   0.0000000   0.0000000   0.0000000   0.0000000   0.0000000   2.7928460   2.7928460
 AtZNuc=   8.0000000   7.0000000   6.0000000   6.0000000   6.0000000   6.0000000   6.0000000   6.0000000   1.0000000   1.0000000

  Atom        11          12          13          14          15          16          17          18          19          20
 IAtWgt=           1           1           1           1           1           1           1           1           1           1
 AtmWgt=   1.0078250   1.0078250   1.0078250   1.0078250   1.0078250   1.0078250   1.0078250   1.0078250   1.0078250   1.0078250
 NucSpn=           1           1           1           1           1           1           1           1           1           1
 AtZEff=  -0.0000000  -0.0000000  -0.0000000  -0.0000000  -0.0000000  -0.0000000  -0.0000000  -0.0000000  -0.0000000  -0.0000000
 NQMom=    0.0000000   0.0000000   0.0000000   0.0000000   0.0000000   0.0000000   0.0000000   0.0000000   0.0000000   0.0000000
 NMagM=    2.7928460   2.7928460   2.7928460   2.7928460   2.7928460   2.7928460   2.7928460   2.7928460   2.7928460   2.7928460
 AtZNuc=   1.0000000   1.0000000   1.0000000   1.0000000   1.0000000   1.0000000   1.0000000   1.0000000   1.0000000   1.0000000

  Atom        21          22
 IAtWgt=           1           1
 AtmWgt=   1.0078250   1.0078250
 NucSpn=           1           1
 AtZEff=  -0.0000000  -0.0000000
 NQMom=    0.0000000   0.0000000
 NMagM=    2.7928460   2.7928460
 AtZNuc=   1.0000000   1.0000000
 Leave Link  101 at Sun Oct 13 19:38:43 2019, MaxMem= 10737418240 cpu:               8.5 elap:               0.4
 (Enter /apps/cent7/gaussian/g16-A.03/g16-haswell/g16/l103.exe)

 GradGradGradGradGradGradGradGradGradGradGradGradGradGradGradGradGradGrad
 Berny optimization.
 Initialization pass.
                           ----------------------------
                           !    Initial Parameters    !
                           ! (Angstroms and Degrees)  !
 --------------------------                            --------------------------
 ! Name  Definition              Value          Derivative Info.                !
 --------------------------------------------------------------------------------
 ! R1    R(1,2)                  1.359          estimate D2E/DX2                !
 ! R2    R(1,9)                  0.96           estimate D2E/DX2                !
 ! R3    R(2,3)                  1.4803         estimate D2E/DX2                !
 ! R4    R(2,10)                 1.0            estimate D2E/DX2                !
 ! R5    R(2,22)                 1.0            estimate D2E/DX2                !
 ! R6    R(3,4)                  1.558          estimate D2E/DX2                !
 ! R7    R(3,8)                  1.5558         estimate D2E/DX2                !
 ! R8    R(3,11)                 1.09           estimate D2E/DX2                !
 ! R9    R(4,5)                  1.5505         estimate D2E/DX2                !
 ! R10   R(4,12)                 1.09           estimate D2E/DX2                !
 ! R11   R(4,13)                 1.0901         estimate D2E/DX2                !
 ! R12   R(5,6)                  1.5496         estimate D2E/DX2                !
 ! R13   R(5,14)                 1.09           estimate D2E/DX2                !
 ! R14   R(5,15)                 1.09           estimate D2E/DX2                !
 ! R15   R(6,7)                  1.5504         estimate D2E/DX2                !
 ! R16   R(6,16)                 1.0899         estimate D2E/DX2                !
 ! R17   R(6,17)                 1.0901         estimate D2E/DX2                !
 ! R18   R(7,8)                  1.5512         estimate D2E/DX2                !
 ! R19   R(7,18)                 1.0901         estimate D2E/DX2                !
 ! R20   R(7,19)                 1.09           estimate D2E/DX2                !
 ! R21   R(8,20)                 1.0899         estimate D2E/DX2                !
 ! R22   R(8,21)                 1.09           estimate D2E/DX2                !
 ! A1    A(2,1,9)              109.4765         estimate D2E/DX2                !
 ! A2    A(1,2,3)              111.0469         estimate D2E/DX2                !
 ! A3    A(1,2,10)             109.152          estimate D2E/DX2                !
 ! A4    A(1,2,22)             109.152          estimate D2E/DX2                !
 ! A5    A(3,2,10)             109.152          estimate D2E/DX2                !
 ! A6    A(3,2,22)             109.152          estimate D2E/DX2                !
 ! A7    A(10,2,22)            109.1595         estimate D2E/DX2                !
 ! A8    A(2,3,4)              111.5574         estimate D2E/DX2                !
 ! A9    A(2,3,8)              109.1358         estimate D2E/DX2                !
 ! A10   A(2,3,11)             105.832          estimate D2E/DX2                !
 ! A11   A(4,3,8)              110.6513         estimate D2E/DX2                !
 ! A12   A(4,3,11)             108.6211         estimate D2E/DX2                !
 ! A13   A(8,3,11)             110.9504         estimate D2E/DX2                !
 ! A14   A(3,4,5)              111.9393         estimate D2E/DX2                !
 ! A15   A(3,4,12)             106.3399         estimate D2E/DX2                !
 ! A16   A(3,4,13)             106.3405         estimate D2E/DX2                !
 ! A17   A(5,4,12)             106.1601         estimate D2E/DX2                !
 ! A18   A(5,4,13)             106.1616         estimate D2E/DX2                !
 ! A19   A(12,4,13)            119.9944         estimate D2E/DX2                !
 ! A20   A(4,5,6)              112.0013         estimate D2E/DX2                !
 ! A21   A(4,5,14)             106.2517         estimate D2E/DX2                !
 ! A22   A(4,5,15)             106.2464         estimate D2E/DX2                !
 ! A23   A(6,5,14)             106.2229         estimate D2E/DX2                !
 ! A24   A(6,5,15)             106.2211         estimate D2E/DX2                !
 ! A25   A(14,5,15)            120.0012         estimate D2E/DX2                !
 ! A26   A(5,6,7)              111.7665         estimate D2E/DX2                !
 ! A27   A(5,6,16)             106.2723         estimate D2E/DX2                !
 ! A28   A(5,6,17)             106.2752         estimate D2E/DX2                !
 ! A29   A(7,6,16)             106.3013         estimate D2E/DX2                !
 ! A30   A(7,6,17)             106.2957         estimate D2E/DX2                !
 ! A31   A(16,6,17)            120.0014         estimate D2E/DX2                !
 ! A32   A(6,7,8)              112.1043         estimate D2E/DX2                !
 ! A33   A(6,7,18)             106.2026         estimate D2E/DX2                !
 ! A34   A(6,7,19)             106.2094         estimate D2E/DX2                !
 ! A35   A(8,7,18)             106.2202         estimate D2E/DX2                !
 ! A36   A(8,7,19)             106.223          estimate D2E/DX2                !
 ! A37   A(18,7,19)            119.9991         estimate D2E/DX2                !
 ! A38   A(3,8,7)              112.2039         estimate D2E/DX2                !
 ! A39   A(3,8,20)             106.2499         estimate D2E/DX2                !
 ! A40   A(3,8,21)             106.2509         estimate D2E/DX2                !
 ! A41   A(7,8,20)             106.1333         estimate D2E/DX2                !
 ! A42   A(7,8,21)             106.1299         estimate D2E/DX2                !
 ! A43   A(20,8,21)            120.0041         estimate D2E/DX2                !
 ! D1    D(9,1,2,3)            -94.2537         estimate D2E/DX2                !
 ! D2    D(9,1,2,10)            26.1285         estimate D2E/DX2                !
 ! D3    D(9,1,2,22)           145.3641         estimate D2E/DX2                !
 ! D4    D(1,2,3,4)            -65.1914         estimate D2E/DX2                !
 ! D5    D(1,2,3,8)            172.2293         estimate D2E/DX2                !
 ! D6    D(1,2,3,11)            52.771          estimate D2E/DX2                !
 ! D7    D(10,2,3,4)           174.4264         estimate D2E/DX2                !
 ! D8    D(10,2,3,8)            51.8471         estimate D2E/DX2                !
 ! D9    D(10,2,3,11)          -67.6113         estimate D2E/DX2                !
 ! D10   D(22,2,3,4)            55.1908         estimate D2E/DX2                !
 ! D11   D(22,2,3,8)           -67.3885         estimate D2E/DX2                !
 ! D12   D(22,2,3,11)          173.1532         estimate D2E/DX2                !
 ! D13   D(2,3,4,5)           -176.2433         estimate D2E/DX2                !
 ! D14   D(2,3,4,12)           -60.7268         estimate D2E/DX2                !
 ! D15   D(2,3,4,13)            68.238          estimate D2E/DX2                !
 ! D16   D(8,3,4,5)            -54.5369         estimate D2E/DX2                !
 ! D17   D(8,3,4,12)            60.9797         estimate D2E/DX2                !
 ! D18   D(8,3,4,13)          -170.0555         estimate D2E/DX2                !
 ! D19   D(11,3,4,5)            67.4832         estimate D2E/DX2                !
 ! D20   D(11,3,4,12)         -177.0003         estimate D2E/DX2                !
 ! D21   D(11,3,4,13)          -48.0355         estimate D2E/DX2                !
 ! D22   D(2,3,8,7)            177.3084         estimate D2E/DX2                !
 ! D23   D(2,3,8,20)            61.7399         estimate D2E/DX2                !
 ! D24   D(2,3,8,21)           -67.1267         estimate D2E/DX2                !
 ! D25   D(4,3,8,7)             54.1875         estimate D2E/DX2                !
 ! D26   D(4,3,8,20)           -61.381          estimate D2E/DX2                !
 ! D27   D(4,3,8,21)           169.7525         estimate D2E/DX2                !
 ! D28   D(11,3,8,7)           -66.4559         estimate D2E/DX2                !
 ! D29   D(11,3,8,20)          177.9756         estimate D2E/DX2                !
 ! D30   D(11,3,8,21)           49.109          estimate D2E/DX2                !
 ! D31   D(3,4,5,6)             54.5405         estimate D2E/DX2                !
 ! D32   D(3,4,5,14)           170.1124         estimate D2E/DX2                !
 ! D33   D(3,4,5,15)           -61.0261         estimate D2E/DX2                !
 ! D34   D(12,4,5,6)           -61.0856         estimate D2E/DX2                !
 ! D35   D(12,4,5,14)           54.4863         estimate D2E/DX2                !
 ! D36   D(12,4,5,15)         -176.6522         estimate D2E/DX2                !
 ! D37   D(13,4,5,6)           170.1682         estimate D2E/DX2                !
 ! D38   D(13,4,5,14)          -74.26           estimate D2E/DX2                !
 ! D39   D(13,4,5,15)           54.6015         estimate D2E/DX2                !
 ! D40   D(4,5,6,7)            -53.2391         estimate D2E/DX2                !
 ! D41   D(4,5,6,16)            62.3175         estimate D2E/DX2                !
 ! D42   D(4,5,6,17)          -168.7907         estimate D2E/DX2                !
 ! D43   D(14,5,6,7)          -168.8285         estimate D2E/DX2                !
 ! D44   D(14,5,6,16)          -53.2719         estimate D2E/DX2                !
 ! D45   D(14,5,6,17)           75.6199         estimate D2E/DX2                !
 ! D46   D(15,5,6,7)            62.343          estimate D2E/DX2                !
 ! D47   D(15,5,6,16)          177.8995         estimate D2E/DX2                !
 ! D48   D(15,5,6,17)          -53.2086         estimate D2E/DX2                !
 ! D49   D(5,6,7,8)             52.8018         estimate D2E/DX2                !
 ! D50   D(5,6,7,18)           168.3948         estimate D2E/DX2                !
 ! D51   D(5,6,7,19)           -62.7986         estimate D2E/DX2                !
 ! D52   D(16,6,7,8)           -62.7371         estimate D2E/DX2                !
 ! D53   D(16,6,7,18)           52.856          estimate D2E/DX2                !
 ! D54   D(16,6,7,19)         -178.3375         estimate D2E/DX2                !
 ! D55   D(17,6,7,8)           168.3408         estimate D2E/DX2                !
 ! D56   D(17,6,7,18)          -76.0662         estimate D2E/DX2                !
 ! D57   D(17,6,7,19)           52.7404         estimate D2E/DX2                !
 ! D58   D(6,7,8,3)            -53.7771         estimate D2E/DX2                !
 ! D59   D(6,7,8,20)            61.862          estimate D2E/DX2                !
 ! D60   D(6,7,8,21)          -169.4154         estimate D2E/DX2                !
 ! D61   D(18,7,8,3)          -169.3594         estimate D2E/DX2                !
 ! D62   D(18,7,8,20)          -53.7203         estimate D2E/DX2                !
 ! D63   D(18,7,8,21)           75.0023         estimate D2E/DX2                !
 ! D64   D(19,7,8,3)            61.8151         estimate D2E/DX2                !
 ! D65   D(19,7,8,20)          177.4542         estimate D2E/DX2                !
 ! D66   D(19,7,8,21)          -53.8232         estimate D2E/DX2                !
 --------------------------------------------------------------------------------
 Trust Radius=3.00D-01 FncErr=1.00D-07 GrdErr=1.00D-06 EigMax=2.50D+02 EigMin=1.00D-04
 Number of steps in this run=    132 maximum allowed number of steps=    132.
 GradGradGradGradGradGradGradGradGradGradGradGradGradGradGradGradGradGrad

 Leave Link  103 at Sun Oct 13 19:38:43 2019, MaxMem= 10737418240 cpu:               0.3 elap:               0.0
 (Enter /apps/cent7/gaussian/g16-A.03/g16-haswell/g16/l202.exe)
                          Input orientation:                          
 ---------------------------------------------------------------------
 Center     Atomic      Atomic             Coordinates (Angstroms)
 Number     Number       Type             X           Y           Z
 ---------------------------------------------------------------------
      1          8           0        1.469100    0.109900    0.081800
      2          7           0        0.116600    0.161600    0.203600
      3          6           0       -0.474300   -1.194500    0.149000
      4          6           0       -0.261600   -1.855900   -1.245500
      5          6           0       -0.957400   -3.238100   -1.343300
      6          6           0       -2.464100   -3.155800   -0.990700
      7          6           0       -2.696400   -2.481600    0.386000
      8          6           0       -1.990000   -1.104400    0.488100
      9          1           0        1.868700    0.094500    0.954500
     10          1           0       -0.118067    0.586768    1.077764
     11          1           0        0.058300   -1.781300    0.897400
     12          1           0       -0.761700   -1.212600   -1.969500
     13          1           0        0.807800   -2.047600   -1.334100
     14          1           0       -0.905600   -3.532200   -2.391600
     15          1           0       -0.499400   -3.864900   -0.578100
     16          1           0       -2.916100   -2.498500   -1.733400
     17          1           0       -2.810900   -4.184300   -0.890000
     18          1           0       -3.765900   -2.280700    0.449700
     19          1           0       -2.217800   -3.124800    1.124400
     20          1           0       -2.438000   -0.476400   -0.281900
     21          1           0       -2.051200   -0.809600    1.535700
     22          1           0       -0.259009    0.713359   -0.541034
 ---------------------------------------------------------------------
                    Distance matrix (angstroms):
                    1          2          3          4          5
     1  O    0.000000
     2  N    1.358957   0.000000
     3  C    2.341533   1.480254   0.000000
     4  C    2.936225   2.512615   1.557986   0.000000
     5  C    4.373547   3.886430   2.576169   1.550542   0.000000
     6  C    5.223516   4.369383   3.017436   2.570150   1.549595
     7  C    4.915262   3.864291   2.578861   2.996922   2.566494
     8  C    3.688493   2.474158   1.555781   2.560759   2.995491
     9  H    0.959960   1.907409   2.792848   3.630735   4.936897
    10  H    1.933506   1.000000   2.040202   3.374135   4.603874
    11  H    2.496437   2.063884   1.090000   2.167930   2.859134
    12  H    3.306555   2.717020   2.137982   1.090005   2.129102
    13  H    2.664000   2.779000   2.138024   1.090053   2.129156
    14  H    5.002180   4.628619   3.479297   2.130320   1.090005
    15  H    4.484361   4.147676   2.767732   2.130271   1.090034
    16  H    5.415596   4.474972   3.347571   2.774410   2.129716
    17  H    6.140273   5.352856   3.934225   3.470844   2.129844
    18  H    5.766762   4.593387   3.479207   3.915900   3.466863
    19  H    5.014333   4.134939   2.777995   3.324643   2.773263
    20  H    3.967550   2.677449   2.134821   2.751047   3.308434
    21  H    3.918140   2.723431   2.134877   3.468787   3.922072
    22  H    1.933506   1.000000   2.040202   2.664089   4.092115
                    6          7          8          9         10
     6  C    0.000000
     7  C    1.550423   0.000000
     8  C    2.572909   1.551163   0.000000
     9  H    5.755120   5.272535   4.067488   0.000000
    10  H    4.877421   4.067091   2.590731   2.050552   0.000000
    11  H    3.437539   2.887962   2.195735   2.607572   2.381467
    12  H    2.762651   3.301788   2.749586   4.144550   3.596917
    13  H    3.471507   3.927661   3.469542   3.309349   3.689745
    14  H    2.129112   3.467822   3.919542   5.660926   5.442665
    15  H    2.129110   2.769443   3.313462   4.861441   4.764940
    16  H    1.089931   2.130824   2.781409   6.069824   5.024989
    17  H    1.090056   2.130839   3.472581   6.603708   5.821215
    18  H    2.129609   1.090068   2.130488   6.135562   4.682257
    19  H    2.129618   1.089954   2.130443   5.205021   4.264598
    20  H    2.771690   2.129246   1.089949   4.516888   2.891557
    21  H    3.472440   2.129243   1.090008   4.064579   2.428282
    22  H    4.476049   4.124079   2.712875   2.673342   1.629846
                   11         12         13         14         15
    11  H    0.000000
    12  H    3.035611   0.000000
    13  H    2.369021   1.887932   0.000000
    14  H    3.848672   2.362080   2.501616   0.000000
    15  H    2.613335   3.006575   2.362813   1.887980   0.000000
    16  H    4.035163   2.520064   3.772291   2.354543   3.007026
    17  H    4.147471   3.767697   4.225837   2.512012   2.354215
    18  H    3.882569   4.002322   4.914775   4.221440   3.773074
    19  H    2.652763   3.917774   4.044606   3.774930   2.529655
    20  H    3.053691   2.489973   3.756463   4.017088   3.915078
    21  H    2.408655   3.756547   4.235833   4.914126   4.026300
    22  H    2.897085   2.450006   3.064299   4.676264   4.584716
                   16         17         18         19         20
    16  H    0.000000
    17  H    1.887939   0.000000
    18  H    2.352769   2.516051   0.000000
    19  H    3.007806   2.352045   1.887946   0.000000
    20  H    2.534624   3.775892   2.356704   3.006691   0.000000
    21  H    3.779874   4.224898   2.506736   2.357345   1.887937
    22  H    4.335655   5.533623   4.716378   4.619740   2.496132
                   21         22
    21  H    0.000000
    22  H    3.137543   0.000000
 Stoichiometry    C6H14NO(1+)
 Framework group  C1[X(C6H14NO)]
 Deg. of freedom    60
 Full point group                 C1      NOp   1
 Largest Abelian subgroup         C1      NOp   1
 Largest concise Abelian subgroup C1      NOp   1
                         Standard orientation:                         
 ---------------------------------------------------------------------
 Center     Atomic      Atomic             Coordinates (Angstroms)
 Number     Number       Type             X           Y           Z
 ---------------------------------------------------------------------
      1          8           0        2.845678    0.450158   -0.178278
      2          7           0        1.952457   -0.460006    0.291319
      3          6           0        0.595385   -0.194457   -0.236876
      4          6           0        0.034826    1.163518    0.281775
      5          6           0       -1.421865    1.407161   -0.190316
      6          6           0       -2.360162    0.235140    0.193363
      7          6           0       -1.807858   -1.127875   -0.297516
      8          6           0       -0.346359   -1.365993    0.164466
      9          1           0        3.276180    0.101149   -0.962104
     10          1           0        2.239849   -1.376121    0.011783
     11          1           0        0.704104   -0.135277   -1.319824
     12          1           0       -0.007752    1.082919    1.367962
     13          1           0        0.638891    1.942460   -0.183595
     14          1           0       -1.779757    2.276753    0.360896
     15          1           0       -1.389999    1.427617   -1.279691
     16          1           0       -2.362730    0.189905    1.282352
     17          1           0       -3.292060    0.400235   -0.347500
     18          1           0       -2.410242   -1.893879    0.190972
     19          1           0       -1.777688   -1.069912   -1.385509
     20          1           0       -0.371249   -1.377744    1.254067
     21          1           0        0.005275   -2.241004   -0.382185
     22          1           0        1.930754   -0.413291    1.289992
 ---------------------------------------------------------------------
 Rotational constants (GHZ):           3.8759258           1.2980061           1.0496833
 Leave Link  202 at Sun Oct 13 19:38:43 2019, MaxMem= 10737418240 cpu:               0.5 elap:               0.0
 (Enter /apps/cent7/gaussian/g16-A.03/g16-haswell/g16/l301.exe)
 Standard basis: 6-311++G(d,p) (5D, 7F)
 Ernie: Thresh=  0.10000D-02 Tol=  0.10000D-05 Strict=F.
 There are   282 symmetry adapted cartesian basis functions of A   symmetry.
 There are   274 symmetry adapted basis functions of A   symmetry.
   274 basis functions,   414 primitive gaussians,   282 cartesian basis functions
    32 alpha electrons       32 beta electrons
       nuclear repulsion energy       421.5206729551 Hartrees.
 IExCor= 4336 DFT=T Ex+Corr=M062X ExCW=0 ScaHFX=  0.540000
 ScaDFX=  1.000000  1.000000  1.000000  1.000000 ScalE2=  1.000000  1.000000
 IRadAn=      5 IRanWt=     -1 IRanGd=            0 ICorTp=0 IEmpDi=  4
 NAtoms=   22 NActive=   22 NUniq=   22 SFac= 1.00D+00 NAtFMM=   60 NAOKFM=F Big=F
 Integral buffers will be    131072 words long.
 Raffenetti 2 integral format.
 Two-electron integral symmetry is turned on.
 Leave Link  301 at Sun Oct 13 19:38:43 2019, MaxMem= 10737418240 cpu:               1.0 elap:               0.1
 (Enter /apps/cent7/gaussian/g16-A.03/g16-haswell/g16/l302.exe)
 NPDir=0 NMtPBC=     1 NCelOv=     1 NCel=       1 NClECP=     1 NCelD=      1
         NCelK=      1 NCelE2=     1 NClLst=     1 CellRange=     0.0.
 One-electron integrals computed using PRISM.
 One-electron integral symmetry used in STVInt
 NBasis=   274 RedAO= T EigKep=  8.42D-06  NBF=   274
 NBsUse=   274 1.00D-06 EigRej= -1.00D+00 NBFU=   274
 Precomputing XC quadrature grid using
 IXCGrd= 4 IRadAn=           5 IRanWt=          -1 IRanGd=           0 AccXCQ= 0.00D+00.
 Generated NRdTot=       0 NPtTot=           0 NUsed=           0 NTot=          32
 NSgBfM=   282   282   282   282   282 MxSgAt=    22 MxSgA2=    22.
 Leave Link  302 at Sun Oct 13 19:38:44 2019, MaxMem= 10737418240 cpu:               4.8 elap:               0.2
 (Enter /apps/cent7/gaussian/g16-A.03/g16-haswell/g16/l303.exe)
 DipDrv:  MaxL=1.
 Leave Link  303 at Sun Oct 13 19:38:44 2019, MaxMem= 10737418240 cpu:               1.4 elap:               0.1
 (Enter /apps/cent7/gaussian/g16-A.03/g16-haswell/g16/l401.exe)
 ExpMin= 3.60D-02 ExpMax= 8.59D+03 ExpMxC= 1.30D+03 IAcc=3 IRadAn=         5 AccDes= 0.00D+00
 Harris functional with IExCor= 1009 and IRadAn=       5 diagonalized for initial guess.
 HarFok:  IExCor= 1009 AccDes= 0.00D+00 IRadAn=         5 IDoV= 1 UseB2=F ITyADJ=14
 ICtDFT=  3500011 ScaDFX=  1.000000  1.000000  1.000000  1.000000
 FoFCou: FMM=F IPFlag=           0 FMFlag=      100000 FMFlg1=           0
         NFxFlg=           0 DoJE=T BraDBF=F KetDBF=T FulRan=T
         wScrn=  0.000000 ICntrl=       500 IOpCl=  0 I1Cent=   200000004 NGrid=           0
         NMat0=    1 NMatS0=      1 NMatT0=    0 NMatD0=    1 NMtDS0=    0 NMtDT0=    0
 Petite list used in FoFCou.
 Harris En= -366.582806709635    
 JPrj=0 DoOrth=F DoCkMO=F.
 Leave Link  401 at Sun Oct 13 19:38:44 2019, MaxMem= 10737418240 cpu:              12.3 elap:               0.5
 (Enter /apps/cent7/gaussian/g16-A.03/g16-haswell/g16/l502.exe)
 Integral symmetry usage will be decided dynamically.
 Closed shell SCF:
 Using DIIS extrapolation, IDIIS=  1040.
 NGot= 10737418240 LenX= 10737249486 LenY= 10737169521
 Requested convergence on RMS density matrix=1.00D-08 within 128 cycles.
 Requested convergence on MAX density matrix=1.00D-06.
 Requested convergence on             energy=1.00D-06.
 No special actions if energy rises.
 Fock matrices will be formed incrementally for  20 cycles.

 Cycle   1  Pass 1  IDiag  1:
 FoFJK:  IHMeth= 1 ICntrl=       0 DoSepK=F KAlg= 0 I1Cent=           0 FoldK=F
 IRaf= 970000000 NMat=       1 IRICut=       1 DoRegI=T DoRafI=F ISym2E= 0 IDoP0=0 IntGTp=1.
 FoFCou: FMM=F IPFlag=           0 FMFlag=      100000 FMFlg1=           0
         NFxFlg=           0 DoJE=F BraDBF=F KetDBF=F FulRan=T
         wScrn=  0.000000 ICntrl=         0 IOpCl=  0 I1Cent=           0 NGrid=           0
         NMat0=    1 NMatS0=      1 NMatT0=    0 NMatD0=    1 NMtDS0=    0 NMtDT0=    0
 Symmetry not used in FoFCou.
 E= -366.401562464649    
 DIIS: error= 3.22D-02 at cycle   1 NSaved=   1.
 NSaved= 1 IEnMin= 1 EnMin= -366.401562464649     IErMin= 1 ErrMin= 3.22D-02
 ErrMax= 3.22D-02  0.00D+00 EMaxC= 1.00D-01 BMatC= 3.06D-01 BMatP= 3.06D-01
 IDIUse=3 WtCom= 6.78D-01 WtEn= 3.22D-01
 Coeff-Com:  0.100D+01
 Coeff-En:   0.100D+01
 Coeff:      0.100D+01
 Gap=     0.466 Goal=   None    Shift=    0.000
 GapD=    0.466 DampG=2.000 DampE=0.500 DampFc=1.0000 IDamp=-1.
 RMSDP=1.19D-02 MaxDP=8.25D-01              OVMax= 1.59D-01

 Cycle   2  Pass 1  IDiag  1:
 RMSU=  1.17D-02    CP:  1.13D+00
 E= -366.434785703146     Delta-E=       -0.033223238497 Rises=F Damp=F
 DIIS: error= 3.37D-02 at cycle   2 NSaved=   2.
 NSaved= 2 IEnMin= 2 EnMin= -366.434785703146     IErMin= 1 ErrMin= 3.22D-02
 ErrMax= 3.37D-02  0.00D+00 EMaxC= 1.00D-01 BMatC= 2.32D-01 BMatP= 3.06D-01
 IDIUse=3 WtCom= 6.63D-01 WtEn= 3.37D-01
 Coeff-Com:  0.462D+00 0.538D+00
 Coeff-En:   0.461D+00 0.539D+00
 Coeff:      0.461D+00 0.539D+00
 Gap=     0.345 Goal=   None    Shift=    0.000
 RMSDP=7.18D-03 MaxDP=5.49D-01 DE=-3.32D-02 OVMax= 9.60D-02

 Cycle   3  Pass 1  IDiag  1:
 RMSU=  3.32D-03    CP:  1.05D+00  4.68D-01
 E= -366.649050736575     Delta-E=       -0.214265033429 Rises=F Damp=F
 DIIS: error= 4.05D-03 at cycle   3 NSaved=   3.
 NSaved= 3 IEnMin= 3 EnMin= -366.649050736575     IErMin= 3 ErrMin= 4.05D-03
 ErrMax= 4.05D-03  0.00D+00 EMaxC= 1.00D-01 BMatC= 6.67D-03 BMatP= 2.32D-01
 IDIUse=3 WtCom= 9.59D-01 WtEn= 4.05D-02
 Coeff-Com:  0.691D-01 0.172D+00 0.759D+00
 Coeff-En:   0.000D+00 0.000D+00 0.100D+01
 Coeff:      0.663D-01 0.165D+00 0.769D+00
 Gap=     0.329 Goal=   None    Shift=    0.000
 RMSDP=1.30D-03 MaxDP=2.04D-01 DE=-2.14D-01 OVMax= 1.36D-02

 Cycle   4  Pass 1  IDiag  1:
 RMSU=  9.36D-04    CP:  1.01D+00  4.87D-01  8.26D-01
 E= -366.654062761014     Delta-E=       -0.005012024439 Rises=F Damp=F
 DIIS: error= 1.10D-03 at cycle   4 NSaved=   4.
 NSaved= 4 IEnMin= 4 EnMin= -366.654062761014     IErMin= 4 ErrMin= 1.10D-03
 ErrMax= 1.10D-03  0.00D+00 EMaxC= 1.00D-01 BMatC= 5.46D-04 BMatP= 6.67D-03
 IDIUse=3 WtCom= 9.89D-01 WtEn= 1.10D-02
 Coeff-Com:  0.182D-02 0.353D-01 0.292D+00 0.671D+00
 Coeff-En:   0.000D+00 0.000D+00 0.000D+00 0.100D+01
 Coeff:      0.180D-02 0.349D-01 0.289D+00 0.674D+00
 Gap=     0.327 Goal=   None    Shift=    0.000
 RMSDP=3.07D-04 MaxDP=3.03D-02 DE=-5.01D-03 OVMax= 4.76D-03

 Cycle   5  Pass 1  IDiag  1:
 RMSU=  1.57D-04    CP:  1.01D+00  4.73D-01  8.72D-01  9.83D-01
 E= -366.654447585665     Delta-E=       -0.000384824651 Rises=F Damp=F
 DIIS: error= 3.59D-04 at cycle   5 NSaved=   5.
 NSaved= 5 IEnMin= 5 EnMin= -366.654447585665     IErMin= 5 ErrMin= 3.59D-04
 ErrMax= 3.59D-04  0.00D+00 EMaxC= 1.00D-01 BMatC= 4.92D-05 BMatP= 5.46D-04
 IDIUse=3 WtCom= 9.96D-01 WtEn= 3.59D-03
 Coeff-Com: -0.335D-02 0.446D-02 0.723D-01 0.289D+00 0.637D+00
 Coeff-En:   0.000D+00 0.000D+00 0.000D+00 0.000D+00 0.100D+01
 Coeff:     -0.334D-02 0.445D-02 0.721D-01 0.288D+00 0.639D+00
 Gap=     0.327 Goal=   None    Shift=    0.000
 RMSDP=1.67D-04 MaxDP=2.62D-02 DE=-3.85D-04 OVMax= 1.20D-03

 Cycle   6  Pass 1  IDiag  1:
 RMSU=  5.32D-05    CP:  1.01D+00  4.77D-01  8.90D-01  9.04D-01  7.26D-01
 E= -366.654486088239     Delta-E=       -0.000038502574 Rises=F Damp=F
 DIIS: error= 8.24D-05 at cycle   6 NSaved=   6.
 NSaved= 6 IEnMin= 6 EnMin= -366.654486088239     IErMin= 6 ErrMin= 8.24D-05
 ErrMax= 8.24D-05  0.00D+00 EMaxC= 1.00D-01 BMatC= 1.54D-06 BMatP= 4.92D-05
 IDIUse=1 WtCom= 1.00D+00 WtEn= 0.00D+00
 Coeff-Com: -0.848D-03-0.131D-02-0.273D-02 0.249D-01 0.158D+00 0.822D+00
 Coeff:     -0.848D-03-0.131D-02-0.273D-02 0.249D-01 0.158D+00 0.822D+00
 Gap=     0.327 Goal=   None    Shift=    0.000
 RMSDP=4.49D-05 MaxDP=5.79D-03 DE=-3.85D-05 OVMax= 3.14D-04

 Cycle   7  Pass 1  IDiag  1:
 RMSU=  1.28D-05    CP:  1.01D+00  4.75D-01  8.90D-01  9.25D-01  8.06D-01
                    CP:  9.77D-01
 E= -366.654487293707     Delta-E=       -0.000001205468 Rises=F Damp=F
 DIIS: error= 3.76D-05 at cycle   7 NSaved=   7.
 NSaved= 7 IEnMin= 7 EnMin= -366.654487293707     IErMin= 7 ErrMin= 3.76D-05
 ErrMax= 3.76D-05  0.00D+00 EMaxC= 1.00D-01 BMatC= 3.44D-07 BMatP= 1.54D-06
 IDIUse=1 WtCom= 1.00D+00 WtEn= 0.00D+00
 Coeff-Com: -0.109D-03-0.113D-02-0.884D-02-0.187D-01 0.878D-02 0.371D+00
 Coeff-Com:  0.649D+00
 Coeff:     -0.109D-03-0.113D-02-0.884D-02-0.187D-01 0.878D-02 0.371D+00
 Coeff:      0.649D+00
 Gap=     0.328 Goal=   None    Shift=    0.000
 RMSDP=5.43D-06 MaxDP=4.51D-04 DE=-1.21D-06 OVMax= 9.38D-05

 Cycle   8  Pass 1  IDiag  1:
 RMSU=  3.43D-06    CP:  1.01D+00  4.75D-01  8.90D-01  9.24D-01  7.96D-01
                    CP:  1.02D+00  9.42D-01
 E= -366.654487560449     Delta-E=       -0.000000266742 Rises=F Damp=F
 DIIS: error= 5.63D-06 at cycle   8 NSaved=   8.
 NSaved= 8 IEnMin= 8 EnMin= -366.654487560449     IErMin= 8 ErrMin= 5.63D-06
 ErrMax= 5.63D-06  0.00D+00 EMaxC= 1.00D-01 BMatC= 6.00D-09 BMatP= 3.44D-07
 IDIUse=1 WtCom= 1.00D+00 WtEn= 0.00D+00
 Coeff-Com:  0.323D-04-0.160D-03-0.161D-02-0.550D-02-0.748D-02 0.205D-01
 Coeff-Com:  0.122D+00 0.872D+00
 Coeff:      0.323D-04-0.160D-03-0.161D-02-0.550D-02-0.748D-02 0.205D-01
 Coeff:      0.122D+00 0.872D+00
 Gap=     0.328 Goal=   None    Shift=    0.000
 RMSDP=2.77D-06 MaxDP=2.39D-04 DE=-2.67D-07 OVMax= 2.26D-05

 Cycle   9  Pass 1  IDiag  1:
 RMSU=  8.33D-07    CP:  1.01D+00  4.74D-01  8.90D-01  9.24D-01  8.02D-01
                    CP:  1.03D+00  9.95D-01  1.02D+00
 E= -366.654487567174     Delta-E=       -0.000000006725 Rises=F Damp=F
 DIIS: error= 9.24D-07 at cycle   9 NSaved=   9.
 NSaved= 9 IEnMin= 9 EnMin= -366.654487567174     IErMin= 9 ErrMin= 9.24D-07
 ErrMax= 9.24D-07  0.00D+00 EMaxC= 1.00D-01 BMatC= 3.12D-10 BMatP= 6.00D-09
 IDIUse=1 WtCom= 1.00D+00 WtEn= 0.00D+00
 Coeff-Com:  0.896D-05 0.176D-04 0.103D-03-0.188D-03-0.162D-02-0.136D-01
 Coeff-Com: -0.113D-01 0.153D+00 0.873D+00
 Coeff:      0.896D-05 0.176D-04 0.103D-03-0.188D-03-0.162D-02-0.136D-01
 Coeff:     -0.113D-01 0.153D+00 0.873D+00
 Gap=     0.328 Goal=   None    Shift=    0.000
 RMSDP=4.50D-07 MaxDP=4.69D-05 DE=-6.73D-09 OVMax= 5.88D-06

 Cycle  10  Pass 1  IDiag  1:
 RMSU=  2.49D-07    CP:  1.01D+00  4.74D-01  8.90D-01  9.24D-01  8.02D-01
                    CP:  1.03D+00  1.01D+00  1.06D+00  1.00D+00
 E= -366.654487567532     Delta-E=       -0.000000000358 Rises=F Damp=F
 DIIS: error= 3.50D-07 at cycle  10 NSaved=  10.
 NSaved=10 IEnMin=10 EnMin= -366.654487567532     IErMin=10 ErrMin= 3.50D-07
 ErrMax= 3.50D-07  0.00D+00 EMaxC= 1.00D-01 BMatC= 6.24D-11 BMatP= 3.12D-10
 IDIUse=1 WtCom= 1.00D+00 WtEn= 0.00D+00
 Coeff-Com:  0.149D-05 0.169D-04 0.142D-03 0.265D-03-0.146D-03-0.655D-02
 Coeff-Com: -0.122D-01 0.436D-02 0.349D+00 0.665D+00
 Coeff:      0.149D-05 0.169D-04 0.142D-03 0.265D-03-0.146D-03-0.655D-02
 Coeff:     -0.122D-01 0.436D-02 0.349D+00 0.665D+00
 Gap=     0.328 Goal=   None    Shift=    0.000
 RMSDP=1.39D-07 MaxDP=1.53D-05 DE=-3.58D-10 OVMax= 1.58D-06

 Cycle  11  Pass 1  IDiag  1:
 RMSU=  6.21D-08    CP:  1.01D+00  4.74D-01  8.90D-01  9.24D-01  8.02D-01
                    CP:  1.03D+00  1.01D+00  1.06D+00  1.06D+00  1.01D+00
 E= -366.654487567597     Delta-E=       -0.000000000066 Rises=F Damp=F
 DIIS: error= 6.96D-08 at cycle  11 NSaved=  11.
 NSaved=11 IEnMin=11 EnMin= -366.654487567597     IErMin=11 ErrMin= 6.96D-08
 ErrMax= 6.96D-08  0.00D+00 EMaxC= 1.00D-01 BMatC= 2.63D-12 BMatP= 6.24D-11
 IDIUse=1 WtCom= 1.00D+00 WtEn= 0.00D+00
 Coeff-Com: -0.406D-06 0.127D-05 0.143D-04 0.582D-04 0.141D-03 0.302D-03
 Coeff-Com: -0.102D-02-0.152D-01-0.213D-01 0.109D+00 0.928D+00
 Coeff:     -0.406D-06 0.127D-05 0.143D-04 0.582D-04 0.141D-03 0.302D-03
 Coeff:     -0.102D-02-0.152D-01-0.213D-01 0.109D+00 0.928D+00
 Gap=     0.328 Goal=   None    Shift=    0.000
 RMSDP=3.90D-08 MaxDP=2.28D-06 DE=-6.57D-11 OVMax= 8.15D-07

 Cycle  12  Pass 1  IDiag  1:
 RMSU=  1.85D-08    CP:  1.01D+00  4.74D-01  8.90D-01  9.24D-01  8.03D-01
                    CP:  1.03D+00  1.01D+00  1.06D+00  1.09D+00  1.06D+00
                    CP:  1.19D+00
 E= -366.654487567604     Delta-E=       -0.000000000007 Rises=F Damp=F
 DIIS: error= 2.67D-08 at cycle  12 NSaved=  12.
 NSaved=12 IEnMin=12 EnMin= -366.654487567604     IErMin=12 ErrMin= 2.67D-08
 ErrMax= 2.67D-08  0.00D+00 EMaxC= 1.00D-01 BMatC= 2.60D-13 BMatP= 2.63D-12
 IDIUse=1 WtCom= 1.00D+00 WtEn= 0.00D+00
 Coeff-Com: -0.206D-06-0.130D-05-0.984D-05-0.132D-04 0.477D-04 0.701D-03
 Coeff-Com:  0.941D-03-0.383D-02-0.381D-01-0.425D-01 0.197D+00 0.886D+00
 Coeff:     -0.206D-06-0.130D-05-0.984D-05-0.132D-04 0.477D-04 0.701D-03
 Coeff:      0.941D-03-0.383D-02-0.381D-01-0.425D-01 0.197D+00 0.886D+00
 Gap=     0.328 Goal=   None    Shift=    0.000
 RMSDP=1.39D-08 MaxDP=1.11D-06 DE=-6.59D-12 OVMax= 2.95D-07

 Cycle  13  Pass 1  IDiag  1:
 RMSU=  6.87D-09    CP:  1.01D+00  4.74D-01  8.90D-01  9.24D-01  8.03D-01
                    CP:  1.03D+00  1.01D+00  1.06D+00  1.09D+00  1.09D+00
                    CP:  1.23D+00  1.01D+00
 E= -366.654487567605     Delta-E=       -0.000000000000 Rises=F Damp=F
 DIIS: error= 8.59D-09 at cycle  13 NSaved=  13.
 NSaved=13 IEnMin=13 EnMin= -366.654487567605     IErMin=13 ErrMin= 8.59D-09
 ErrMax= 8.59D-09  0.00D+00 EMaxC= 1.00D-01 BMatC= 1.86D-14 BMatP= 2.60D-13
 IDIUse=1 WtCom= 1.00D+00 WtEn= 0.00D+00
 Coeff-Com: -0.483D-08-0.329D-06-0.276D-05-0.655D-05-0.242D-05 0.920D-04
 Coeff-Com:  0.216D-03 0.387D-03-0.478D-02-0.149D-01-0.322D-01 0.185D+00
 Coeff-Com:  0.866D+00
 Coeff:     -0.483D-08-0.329D-06-0.276D-05-0.655D-05-0.242D-05 0.920D-04
 Coeff:      0.216D-03 0.387D-03-0.478D-02-0.149D-01-0.322D-01 0.185D+00
 Coeff:      0.866D+00
 Gap=     0.328 Goal=   None    Shift=    0.000
 RMSDP=2.57D-09 MaxDP=1.18D-07 DE=-4.55D-13 OVMax= 6.96D-08

 SCF Done:  E(RM062X) =  -366.654487568     A.U. after   13 cycles
            NFock= 13  Conv=0.26D-08     -V/T= 2.0037
 KE= 3.653181740740D+02 PE=-1.684620862123D+03 EE= 5.311275275267D+02
 Leave Link  502 at Sun Oct 13 19:39:00 2019, MaxMem= 10737418240 cpu:             382.1 elap:              16.0
 (Enter /apps/cent7/gaussian/g16-A.03/g16-haswell/g16/l601.exe)
 Copying SCF densities to generalized density rwf, IOpCl= 0 IROHF=0.

 **********************************************************************

            Population analysis using the SCF density.

 **********************************************************************

 Orbital symmetries:
       Occupied  (A) (A) (A) (A) (A) (A) (A) (A) (A) (A) (A) (A)
                 (A) (A) (A) (A) (A) (A) (A) (A) (A) (A) (A) (A)
                 (A) (A) (A) (A) (A) (A) (A) (A)
       Virtual   (A) (A) (A) (A) (A) (A) (A) (A) (A) (A) (A) (A)
                 (A) (A) (A) (A) (A) (A) (A) (A) (A) (A) (A) (A)
                 (A) (A) (A) (A) (A) (A) (A) (A) (A) (A) (A) (A)
                 (A) (A) (A) (A) (A) (A) (A) (A) (A) (A) (A) (A)
                 (A) (A) (A) (A) (A) (A) (A) (A) (A) (A) (A) (A)
                 (A) (A) (A) (A) (A) (A) (A) (A) (A) (A) (A) (A)
                 (A) (A) (A) (A) (A) (A) (A) (A) (A) (A) (A) (A)
                 (A) (A) (A) (A) (A) (A) (A) (A) (A) (A) (A) (A)
                 (A) (A) (A) (A) (A) (A) (A) (A) (A) (A) (A) (A)
                 (A) (A) (A) (A) (A) (A) (A) (A) (A) (A) (A) (A)
                 (A) (A) (A) (A) (A) (A) (A) (A) (A) (A) (A) (A)
                 (A) (A) (A) (A) (A) (A) (A) (A) (A) (A) (A) (A)
                 (A) (A) (A) (A) (A) (A) (A) (A) (A) (A) (A) (A)
                 (A) (A) (A) (A) (A) (A) (A) (A) (A) (A) (A) (A)
                 (A) (A) (A) (A) (A) (A) (A) (A) (A) (A) (A) (A)
                 (A) (A) (A) (A) (A) (A) (A) (A) (A) (A) (A) (A)
                 (A) (A) (A) (A) (A) (A) (A) (A) (A) (A) (A) (A)
                 (A) (A) (A) (A) (A) (A) (A) (A) (A) (A) (A) (A)
                 (A) (A) (A) (A) (A) (A) (A) (A) (A) (A) (A) (A)
                 (A) (A) (A) (A) (A) (A) (A) (A) (A) (A) (A) (A)
                 (A) (A)
 The electronic state is 1-A.
 Alpha  occ. eigenvalues --  -19.89353 -15.12110 -10.77213 -10.70874 -10.69925
 Alpha  occ. eigenvalues --  -10.67757 -10.67320 -10.66233  -1.49283  -1.23771
 Alpha  occ. eigenvalues --   -1.08959  -1.00296  -0.99917  -0.93614  -0.90166
 Alpha  occ. eigenvalues --   -0.86564  -0.84129  -0.78105  -0.77317  -0.70791
 Alpha  occ. eigenvalues --   -0.68997  -0.68130  -0.67366  -0.64035  -0.60922
 Alpha  occ. eigenvalues --   -0.60098  -0.59238  -0.57976  -0.55215  -0.53006
 Alpha  occ. eigenvalues --   -0.51197  -0.49977
 Alpha virt. eigenvalues --   -0.17225  -0.14079  -0.11951  -0.11175  -0.09385
 Alpha virt. eigenvalues --   -0.08697  -0.08095  -0.07716  -0.07215  -0.05657
 Alpha virt. eigenvalues --   -0.05072  -0.04857  -0.04212  -0.03900  -0.03461
 Alpha virt. eigenvalues --   -0.03135  -0.02425  -0.01880  -0.01280  -0.00626
 Alpha virt. eigenvalues --    0.00386   0.01035   0.01093   0.01881   0.02250
 Alpha virt. eigenvalues --    0.02967   0.03483   0.03849   0.04201   0.04361
 Alpha virt. eigenvalues --    0.04598   0.04901   0.05437   0.05570   0.06050
 Alpha virt. eigenvalues --    0.06356   0.07013   0.07303   0.07716   0.08076
 Alpha virt. eigenvalues --    0.08902   0.09207   0.09375   0.09975   0.11025
 Alpha virt. eigenvalues --    0.11152   0.11786   0.12136   0.13270   0.13572
 Alpha virt. eigenvalues --    0.14494   0.15227   0.15692   0.16100   0.17884
 Alpha virt. eigenvalues --    0.18424   0.18982   0.19606   0.21443   0.22263
 Alpha virt. eigenvalues --    0.22638   0.24270   0.24947   0.25563   0.25702
 Alpha virt. eigenvalues --    0.26848   0.28446   0.30133   0.33267   0.35352
 Alpha virt. eigenvalues --    0.37765   0.38589   0.38745   0.39673   0.40349
 Alpha virt. eigenvalues --    0.42138   0.43737   0.44549   0.47614   0.49365
 Alpha virt. eigenvalues --    0.50247   0.52013   0.52628   0.54269   0.54672
 Alpha virt. eigenvalues --    0.56885   0.58750   0.60672   0.61323   0.62308
 Alpha virt. eigenvalues --    0.63209   0.63652   0.64587   0.65289   0.65512
 Alpha virt. eigenvalues --    0.66846   0.67775   0.68421   0.69158   0.70186
 Alpha virt. eigenvalues --    0.71711   0.77116   0.77234   0.79875   0.81448
 Alpha virt. eigenvalues --    0.86235   0.88386   0.91667   0.92978   0.94556
 Alpha virt. eigenvalues --    0.97286   1.01775   1.04544   1.08230   1.10609
 Alpha virt. eigenvalues --    1.11798   1.14118   1.15249   1.18050   1.18921
 Alpha virt. eigenvalues --    1.26888   1.27340   1.29702   1.33189   1.38102
 Alpha virt. eigenvalues --    1.39690   1.39950   1.42682   1.42979   1.43668
 Alpha virt. eigenvalues --    1.45472   1.45991   1.48324   1.49017   1.49241
 Alpha virt. eigenvalues --    1.51021   1.52761   1.53052   1.53601   1.54653
 Alpha virt. eigenvalues --    1.56367   1.59094   1.61095   1.63041   1.65411
 Alpha virt. eigenvalues --    1.67426   1.69706   1.70436   1.71699   1.72670
 Alpha virt. eigenvalues --    1.72989   1.74242   1.76055   1.77713   1.80953
 Alpha virt. eigenvalues --    1.84836   1.85139   1.89771   1.90961   1.92134
 Alpha virt. eigenvalues --    1.95431   1.98297   1.98985   2.02201   2.03686
 Alpha virt. eigenvalues --    2.06396   2.06908   2.08879   2.12972   2.16827
 Alpha virt. eigenvalues --    2.20312   2.21337   2.24398   2.28289   2.32272
 Alpha virt. eigenvalues --    2.33825   2.36000   2.40632   2.41361   2.44021
 Alpha virt. eigenvalues --    2.44548   2.45896   2.46403   2.50447   2.50668
 Alpha virt. eigenvalues --    2.52774   2.53676   2.55239   2.55823   2.58874
 Alpha virt. eigenvalues --    2.62729   2.63746   2.68468   2.71497   2.72353
 Alpha virt. eigenvalues --    2.73448   2.76056   2.76385   2.78222   2.80322
 Alpha virt. eigenvalues --    2.82062   2.85570   2.87198   2.89836   2.94259
 Alpha virt. eigenvalues --    2.94748   2.95462   2.97774   2.99079   3.07595
 Alpha virt. eigenvalues --    3.15011   3.17695   3.21149   3.25337   3.26323
 Alpha virt. eigenvalues --    3.44544   3.68571   3.70880   3.73330   3.78807
 Alpha virt. eigenvalues --    3.85228   3.85638   3.89773   3.93160   3.95368
 Alpha virt. eigenvalues --    4.07734   4.10113   4.26504   4.31508   4.57672
 Alpha virt. eigenvalues --    4.61233   4.98220   5.30993   5.70356  23.69300
 Alpha virt. eigenvalues --   23.77973  23.84247  23.86221  23.88298  23.88561
 Alpha virt. eigenvalues --   35.36656  49.80588
          Condensed to atoms (all electrons):
               1          2          3          4          5          6
     1  O    7.748006  -0.024884  -0.209875   0.060656   0.049617  -0.001881
     2  N   -0.024884   7.375296  -0.888705  -0.125921  -0.043239  -0.039717
     3  C   -0.209875  -0.888705  10.722967  -1.092281  -0.135689   0.043457
     4  C    0.060656  -0.125921  -1.092281   6.690445   0.096636  -0.013045
     5  C    0.049617  -0.043239  -0.135689   0.096636   5.632343   0.259433
     6  C   -0.001881  -0.039717   0.043457  -0.013045   0.259433   5.466919
     7  C   -0.002399  -0.084545   0.350160   0.141226  -0.154843   0.311061
     8  C    0.152832   0.374196  -2.822196   0.081991   0.095161  -0.241259
     9  H    0.260726   0.048291   0.011641  -0.025413  -0.007390  -0.000929
    10  H    0.003733   0.259350  -0.081706   0.061714   0.007467   0.001946
    11  H   -0.067864   0.120637   0.594301  -0.239376  -0.055984  -0.032410
    12  H   -0.024727   0.024552   0.248896   0.288445  -0.099490  -0.029654
    13  H    0.040917  -0.025159  -0.125084   0.436461  -0.001280   0.006539
    14  H    0.002025   0.002047  -0.056948   0.002658   0.383818  -0.039842
    15  H   -0.004071  -0.009441   0.090919  -0.045281   0.413454  -0.036453
    16  H   -0.000311  -0.009189   0.063444  -0.036283  -0.024833   0.449908
    17  H   -0.000368   0.001927   0.000147  -0.002611  -0.048864   0.418925
    18  H    0.001007   0.005870  -0.058014  -0.014252   0.017952  -0.059101
    19  H    0.001161  -0.011050   0.059233  -0.046774  -0.002332  -0.051980
    20  H   -0.005670   0.036849   0.128956  -0.191268  -0.002604  -0.035993
    21  H    0.002071  -0.023838  -0.120517   0.065064  -0.008670   0.022223
    22  H   -0.036962   0.338176  -0.010698  -0.028712  -0.004092  -0.005102
               7          8          9         10         11         12
     1  O   -0.002399   0.152832   0.260726   0.003733  -0.067864  -0.024727
     2  N   -0.084545   0.374196   0.048291   0.259350   0.120637   0.024552
     3  C    0.350160  -2.822196   0.011641  -0.081706   0.594301   0.248896
     4  C    0.141226   0.081991  -0.025413   0.061714  -0.239376   0.288445
     5  C   -0.154843   0.095161  -0.007390   0.007467  -0.055984  -0.099490
     6  C    0.311061  -0.241259  -0.000929   0.001946  -0.032410  -0.029654
     7  C    5.676975  -0.462698   0.001310   0.008176  -0.051787   0.013883
     8  C   -0.462698   8.366477  -0.011990   0.046292  -0.043728  -0.136885
     9  H    0.001310  -0.011990   0.414358  -0.031734   0.022047   0.002297
    10  H    0.008176   0.046292  -0.031734   0.436487  -0.038870  -0.003750
    11  H   -0.051787  -0.043728   0.022047  -0.038870   0.531453   0.030952
    12  H    0.013883  -0.136885   0.002297  -0.003750   0.030952   0.532023
    13  H   -0.010170   0.051829  -0.004440   0.004573  -0.021737  -0.006560
    14  H    0.011999   0.026716  -0.000163   0.000308  -0.005542  -0.009236
    15  H    0.013533  -0.090034   0.000073  -0.000563   0.005627   0.005851
    16  H   -0.006884  -0.087617   0.000036  -0.000603   0.000843  -0.006097
    17  H   -0.056114   0.007503   0.000026  -0.000217   0.004281   0.001385
    18  H    0.363161   0.067145  -0.000124   0.000063  -0.000224  -0.001686
    19  H    0.435164  -0.047200  -0.000052   0.000264   0.006553   0.000356
    20  H   -0.124822   0.488376   0.001874  -0.011305   0.028264   0.007749
    21  H    0.007701   0.412410  -0.001258   0.015375  -0.042993  -0.011111
    22  H   -0.008299   0.031387   0.007638  -0.036376   0.006291  -0.004879
              13         14         15         16         17         18
     1  O    0.040917   0.002025  -0.004071  -0.000311  -0.000368   0.001007
     2  N   -0.025159   0.002047  -0.009441  -0.009189   0.001927   0.005870
     3  C   -0.125084  -0.056948   0.090919   0.063444   0.000147  -0.058014
     4  C    0.436461   0.002658  -0.045281  -0.036283  -0.002611  -0.014252
     5  C   -0.001280   0.383818   0.413454  -0.024833  -0.048864   0.017952
     6  C    0.006539  -0.039842  -0.036453   0.449908   0.418925  -0.059101
     7  C   -0.010170   0.011999   0.013533  -0.006884  -0.056114   0.363161
     8  C    0.051829   0.026716  -0.090034  -0.087617   0.007503   0.067145
     9  H   -0.004440  -0.000163   0.000073   0.000036   0.000026  -0.000124
    10  H    0.004573   0.000308  -0.000563  -0.000603  -0.000217   0.000063
    11  H   -0.021737  -0.005542   0.005627   0.000843   0.004281  -0.000224
    12  H   -0.006560  -0.009236   0.005851  -0.006097   0.001385  -0.001686
    13  H    0.449003  -0.007495  -0.018753  -0.004276  -0.000644   0.001348
    14  H   -0.007495   0.441775   0.012022  -0.007742  -0.012372   0.000751
    15  H   -0.018753   0.012022   0.489323   0.006790   0.001408  -0.005428
    16  H   -0.004276  -0.007742   0.006790   0.488558   0.023905  -0.009136
    17  H   -0.000644  -0.012372   0.001408   0.023905   0.429946  -0.010423
    18  H    0.001348   0.000751  -0.005428  -0.009136  -0.010423   0.443728
    19  H   -0.001075  -0.003250  -0.004467   0.003043   0.001163   0.016047
    20  H   -0.005292  -0.003144  -0.001420  -0.007158   0.001306   0.001778
    21  H    0.001895   0.002036   0.000320  -0.001763  -0.001481  -0.015011
    22  H    0.000487   0.001256  -0.001179  -0.000220   0.000037   0.001005
              19         20         21         22
     1  O    0.001161  -0.005670   0.002071  -0.036962
     2  N   -0.011050   0.036849  -0.023838   0.338176
     3  C    0.059233   0.128956  -0.120517  -0.010698
     4  C   -0.046774  -0.191268   0.065064  -0.028712
     5  C   -0.002332  -0.002604  -0.008670  -0.004092
     6  C   -0.051980  -0.035993   0.022223  -0.005102
     7  C    0.435164  -0.124822   0.007701  -0.008299
     8  C   -0.047200   0.488376   0.412410   0.031387
     9  H   -0.000052   0.001874  -0.001258   0.007638
    10  H    0.000264  -0.011305   0.015375  -0.036376
    11  H    0.006553   0.028264  -0.042993   0.006291
    12  H    0.000356   0.007749  -0.011111  -0.004879
    13  H   -0.001075  -0.005292   0.001895   0.000487
    14  H   -0.003250  -0.003144   0.002036   0.001256
    15  H   -0.004467  -0.001420   0.000320  -0.001179
    16  H    0.003043  -0.007158  -0.001763  -0.000220
    17  H    0.001163   0.001306  -0.001481   0.000037
    18  H    0.016047   0.001778  -0.015011   0.001005
    19  H    0.477223   0.005612  -0.014751  -0.000224
    20  H    0.005612   0.524760  -0.025006   0.001375
    21  H   -0.014751  -0.025006   0.537543   0.001141
    22  H   -0.000224   0.001375   0.001141   0.333622
 Mulliken charges:
               1
     1  O    0.056259
     2  N   -0.301504
     3  C   -0.712410
     4  C   -0.064078
     5  C   -0.366572
     6  C   -0.393045
     7  C   -0.371788
     8  C   -0.258707
     9  H    0.313176
    10  H    0.359375
    11  H    0.249267
    12  H    0.177687
    13  H    0.238915
    14  H    0.258322
    15  H    0.177773
    16  H    0.165585
    17  H    0.241134
    18  H    0.253546
    19  H    0.177335
    20  H    0.186783
    21  H    0.198619
    22  H    0.414329
 Sum of Mulliken charges =   1.00000
 Mulliken charges with hydrogens summed into heavy atoms:
               1
     1  O    0.369435
     2  N    0.472200
     3  C   -0.463143
     4  C    0.352524
     5  C    0.069523
     6  C    0.013674
     7  C    0.059093
     8  C    0.126694
 Electronic spatial extent (au):  <R**2>=           1139.6528
 Charge=              1.0000 electrons
 Dipole moment (field-independent basis, Debye):
    X=              5.5860    Y=             -2.7884    Z=             -0.2459  Tot=              6.2481
 Quadrupole moment (field-independent basis, Debye-Ang):
   XX=            -26.3966   YY=            -44.8819   ZZ=            -43.0366
   XY=             -7.2451   XZ=             -2.7907   YZ=             -0.4765
 Traceless Quadrupole moment (field-independent basis, Debye-Ang):
   XX=             11.7084   YY=             -6.7769   ZZ=             -4.9316
   XY=             -7.2451   XZ=             -2.7907   YZ=             -0.4765
 Octapole moment (field-independent basis, Debye-Ang**2):
  XXX=             64.4145  YYY=             -3.4918  ZZZ=              1.0577  XYY=              8.4379
  XXY=            -17.6508  XXZ=            -15.1764  XZZ=             17.1947  YZZ=             -1.0271
  YYZ=              0.4563  XYZ=             -1.1726
 Hexadecapole moment (field-independent basis, Debye-Ang**3):
 XXXX=           -769.1117 YYYY=           -357.5565 ZZZZ=           -102.3837 XXXY=            -41.7813
 XXXZ=            -53.7566 YYYX=            -10.6850 YYYZ=              2.8318 ZZZX=             -1.9817
 ZZZY=             -2.9227 XXYY=           -201.8987 XXZZ=           -143.6101 YYZZ=            -80.9527
 XXYZ=             -7.0929 YYXZ=             -7.9226 ZZXY=             -2.3971
 N-N= 4.215206729551D+02 E-N=-1.684620862280D+03  KE= 3.653181740740D+02
 No NMR shielding tensors so no spin-rotation constants.
 Leave Link  601 at Sun Oct 13 19:39:01 2019, MaxMem= 10737418240 cpu:               4.2 elap:               0.2
 (Enter /apps/cent7/gaussian/g16-A.03/g16-haswell/g16/l701.exe)
 ... and contract with generalized density number  0.
 Compute integral first derivatives.
 Leave Link  701 at Sun Oct 13 19:39:01 2019, MaxMem= 10737418240 cpu:               3.0 elap:               0.2
 (Enter /apps/cent7/gaussian/g16-A.03/g16-haswell/g16/l702.exe)
 L702 exits ... SP integral derivatives will be done elsewhere.
 Leave Link  702 at Sun Oct 13 19:39:01 2019, MaxMem= 10737418240 cpu:               0.4 elap:               0.0
 (Enter /apps/cent7/gaussian/g16-A.03/g16-haswell/g16/l703.exe)
 Integral derivatives from FoFJK, PRISM(SPDF).
 Compute integral first derivatives, UseDBF=F ICtDFT=           0.
 Calling FoFJK, ICntrl=      2127 FMM=F ISym2X=0 I1Cent= 0 IOpClX= 0 NMat=1 NMatS=1 NMatT=0.
 FoFJK:  IHMeth= 1 ICntrl=    2127 DoSepK=F KAlg= 0 I1Cent=           0 FoldK=F
 IRaf=         0 NMat=       1 IRICut=       1 DoRegI=T DoRafI=F ISym2E= 0 IDoP0=0 IntGTp=1.
 FoFCou: FMM=F IPFlag=           0 FMFlag=      100000 FMFlg1=         800
         NFxFlg=           0 DoJE=F BraDBF=F KetDBF=F FulRan=T
         wScrn=  0.000000 ICntrl=      2127 IOpCl=  0 I1Cent=           0 NGrid=           0
         NMat0=    1 NMatS0=      1 NMatT0=    0 NMatD0=    1 NMtDS0=    0 NMtDT0=    0
 Symmetry not used in FoFCou.
 Leave Link  703 at Sun Oct 13 19:39:04 2019, MaxMem= 10737418240 cpu:              71.4 elap:               3.0
 (Enter /apps/cent7/gaussian/g16-A.03/g16-haswell/g16/l716.exe)
 Dipole        = 2.19771284D+00-1.09703042D+00-9.67555524D-02
 ***** Axes restored to original set *****
 -------------------------------------------------------------------
 Center     Atomic                   Forces (Hartrees/Bohr)
 Number     Number              X              Y              Z
 -------------------------------------------------------------------
      1        8           0.028621104    0.007600543   -0.020584140
      2        7          -0.003455601   -0.025383252    0.012251610
      3        6          -0.030709313   -0.039751308   -0.013958842
      4        6          -0.006471170   -0.002504331    0.025124580
      5        6          -0.018671408    0.024790487    0.017622223
      6        6           0.024099513    0.015911445    0.016832482
      7        6           0.022846796    0.005754927   -0.024224348
      8        6           0.021652680   -0.016936319   -0.005059924
      9        1           0.001830765   -0.001007723    0.007804657
     10        1          -0.012666830    0.014053629    0.017836729
     11        1           0.000927392    0.001389109    0.004579588
     12        1           0.012179165    0.005129104   -0.009583540
     13        1           0.000290967    0.011092696   -0.015432362
     14        1           0.011353914   -0.012577908    0.005747801
     15        1           0.006620333   -0.012566154   -0.011679441
     16        1          -0.011944287   -0.012093742   -0.006692985
     17        1          -0.011900385    0.004046687   -0.013125003
     18        1           0.000970802   -0.008363161    0.015874569
     19        1          -0.014940760   -0.002771185    0.009726509
     20        1          -0.006118147    0.012632631    0.008705595
     21        1          -0.010913718    0.014927347   -0.002767032
     22        1          -0.003601811    0.016626477   -0.018998725
 -------------------------------------------------------------------
 Cartesian Forces:  Max     0.039751308 RMS     0.014799181
 Leave Link  716 at Sun Oct 13 19:39:04 2019, MaxMem= 10737418240 cpu:               0.9 elap:               0.1
 (Enter /apps/cent7/gaussian/g16-A.03/g16-haswell/g16/l103.exe)

 GradGradGradGradGradGradGradGradGradGradGradGradGradGradGradGradGradGrad
 Berny optimization.
 FormGI is forming the generalized inverse of G from B-inverse, IUseBI=4.
 Internal  Forces:  Max     0.031184103 RMS     0.006637973
 Search for a local minimum.
 Step number   1 out of a maximum of  132
 All quantities printed in internal units (Hartrees-Bohrs-Radians)
 RMS Force = .66380D-02 SwitMx=.10000D-02 MixMth= 1
 Mixed Optimization -- RFO/linear search
 Second derivative matrix not updated -- first step.
 ITU=  0
     Eigenvalues ---    0.00403   0.00408   0.00507   0.00630   0.01838
     Eigenvalues ---    0.01949   0.01984   0.03826   0.04051   0.04280
     Eigenvalues ---    0.04461   0.04819   0.04861   0.05084   0.05138
     Eigenvalues ---    0.05266   0.05629   0.05672   0.05991   0.06095
     Eigenvalues ---    0.06118   0.07666   0.07693   0.07702   0.07719
     Eigenvalues ---    0.07734   0.08138   0.08425   0.11564   0.11740
     Eigenvalues ---    0.11777   0.13898   0.14050   0.15847   0.16000
     Eigenvalues ---    0.17388   0.21121   0.22096   0.26086   0.26231
     Eigenvalues ---    0.26734   0.27378   0.27480   0.27579   0.34541
     Eigenvalues ---    0.34805   0.34806   0.34807   0.34809   0.34812
     Eigenvalues ---    0.34812   0.34812   0.34813   0.34818   0.34819
     Eigenvalues ---    0.34821   0.47688   0.47688   0.53159   0.55482
 RFO step:  Lambda=-3.25342593D-02 EMin= 4.02983165D-03
 Linear search not attempted -- first point.
 Maximum step size (   0.300) exceeded in Quadratic search.
    -- Step size scaled by   0.875
 Iteration  1 RMS(Cart)=  0.03493243 RMS(Int)=  0.00098066
 Iteration  2 RMS(Cart)=  0.00109250 RMS(Int)=  0.00030301
 Iteration  3 RMS(Cart)=  0.00000073 RMS(Int)=  0.00030301
 ITry= 1 IFail=0 DXMaxC= 1.01D-01 DCOld= 1.00D+10 DXMaxT= 3.00D-01 DXLimC= 3.00D+00 Rises=F
 Variable       Old X    -DE/DX   Delta X   Delta X   Delta X     New X
                                 (Linear)    (Quad)   (Total)
    R1        2.56806   0.03118   0.00000   0.04837   0.04837   2.61643
    R2        1.81406   0.00788   0.00000   0.01174   0.01174   1.82580
    R3        2.79727   0.01512   0.00000   0.03500   0.03500   2.83227
    R4        1.88973   0.02455   0.00000   0.04217   0.04217   1.93190
    R5        1.88973   0.02467   0.00000   0.04238   0.04238   1.93211
    R6        2.94417  -0.01352   0.00000  -0.03886  -0.03874   2.90542
    R7        2.94000  -0.01058   0.00000  -0.03055  -0.03049   2.90951
    R8        2.05980   0.00285   0.00000   0.00655   0.00655   2.06635
    R9        2.93010  -0.00294   0.00000  -0.00864  -0.00867   2.92143
   R10        2.05981   0.00381   0.00000   0.00875   0.00875   2.06856
   R11        2.05990  -0.00041   0.00000  -0.00094  -0.00094   2.05896
   R12        2.92831  -0.00229   0.00000  -0.00635  -0.00641   2.92190
   R13        2.05981  -0.00159   0.00000  -0.00365  -0.00365   2.05616
   R14        2.05986   0.00180   0.00000   0.00415   0.00415   2.06401
   R15        2.92988  -0.00267   0.00000  -0.00781  -0.00792   2.92195
   R16        2.05967   0.00222   0.00000   0.00511   0.00511   2.06478
   R17        2.05991  -0.00124   0.00000  -0.00286  -0.00286   2.05705
   R18        2.93127  -0.00343   0.00000  -0.00946  -0.00942   2.92185
   R19        2.05993  -0.00157   0.00000  -0.00361  -0.00361   2.05632
   R20        2.05971   0.00167   0.00000   0.00383   0.00383   2.06355
   R21        2.05970   0.00364   0.00000   0.00837   0.00837   2.06807
   R22        2.05982   0.00199   0.00000   0.00458   0.00458   2.06439
    A1        1.91072  -0.00284   0.00000  -0.01290  -0.01290   1.89782
    A2        1.93813   0.01134   0.00000   0.04370   0.04305   1.98119
    A3        1.90506   0.00189   0.00000   0.03417   0.03311   1.93818
    A4        1.90506  -0.01018   0.00000  -0.05908  -0.05876   1.84630
    A5        1.90506  -0.00299   0.00000   0.00074  -0.00050   1.90456
    A6        1.90506   0.00150   0.00000   0.00261   0.00305   1.90811
    A7        1.90519  -0.00173   0.00000  -0.02318  -0.02297   1.88222
    A8        1.94704  -0.00838   0.00000  -0.03619  -0.03586   1.91119
    A9        1.90478  -0.00481   0.00000  -0.02087  -0.02045   1.88433
   A10        1.84712   0.00249   0.00000  -0.00435  -0.00423   1.84289
   A11        1.93123   0.01112   0.00000   0.03843   0.03774   1.96897
   A12        1.89580   0.00095   0.00000   0.02097   0.02051   1.91630
   A13        1.93645  -0.00188   0.00000  -0.00012  -0.00095   1.93550
   A14        1.95371  -0.00857   0.00000  -0.03761  -0.03693   1.91678
   A15        1.85598   0.00328   0.00000   0.02417   0.02441   1.88040
   A16        1.85599   0.00545   0.00000   0.03586   0.03616   1.89216
   A17        1.85284   0.00597   0.00000   0.03400   0.03420   1.88705
   A18        1.85287   0.00370   0.00000   0.03371   0.03395   1.88682
   A19        2.09430  -0.01090   0.00000  -0.09436  -0.09430   2.00000
   A20        1.95479   0.00106   0.00000  -0.00341  -0.00379   1.95100
   A21        1.85444  -0.00117   0.00000   0.00437   0.00425   1.85869
   A22        1.85435   0.00384   0.00000   0.03210   0.03164   1.88599
   A23        1.85394   0.00397   0.00000   0.03172   0.03179   1.88573
   A24        1.85391   0.00244   0.00000   0.03466   0.03420   1.88811
   A25        2.09442  -0.00990   0.00000  -0.09904  -0.09875   1.99566
   A26        1.95069  -0.00222   0.00000  -0.00505  -0.00579   1.94490
   A27        1.85480   0.00424   0.00000   0.03270   0.03250   1.88730
   A28        1.85485   0.00224   0.00000   0.02195   0.02196   1.87681
   A29        1.85531   0.00448   0.00000   0.03263   0.03238   1.88769
   A30        1.85521   0.00153   0.00000   0.01820   0.01823   1.87344
   A31        2.09442  -0.01045   0.00000  -0.09990  -0.09960   1.99482
   A32        1.95659  -0.00064   0.00000  -0.00897  -0.00912   1.94747
   A33        1.85359   0.00410   0.00000   0.03243   0.03255   1.88614
   A34        1.85370   0.00308   0.00000   0.03553   0.03513   1.88883
   A35        1.85389  -0.00036   0.00000   0.00727   0.00716   1.86105
   A36        1.85394   0.00387   0.00000   0.03135   0.03107   1.88501
   A37        2.09438  -0.01006   0.00000  -0.09811  -0.09786   1.99652
   A38        1.95833  -0.00738   0.00000  -0.03363  -0.03310   1.92522
   A39        1.85441   0.00356   0.00000   0.02749   0.02759   1.88200
   A40        1.85443   0.00580   0.00000   0.04063   0.04091   1.89534
   A41        1.85238   0.00512   0.00000   0.03024   0.03055   1.88293
   A42        1.85232   0.00263   0.00000   0.02520   0.02535   1.87766
   A43        2.09447  -0.01066   0.00000  -0.09396  -0.09388   2.00059
    D1       -1.64504  -0.00023   0.00000  -0.01031  -0.01133  -1.65637
    D2        0.45603   0.00441   0.00000   0.04026   0.04108   0.49711
    D3        2.53708  -0.00259   0.00000  -0.00262  -0.00243   2.53466
    D4       -1.13780   0.00650   0.00000   0.04373   0.04401  -1.09379
    D5        3.00597   0.00133   0.00000   0.03361   0.03354   3.03951
    D6        0.92103   0.00468   0.00000   0.04707   0.04734   0.96837
    D7        3.04431  -0.00103   0.00000  -0.02664  -0.02669   3.01763
    D8        0.90490  -0.00620   0.00000  -0.03676  -0.03715   0.86775
    D9       -1.18004  -0.00285   0.00000  -0.02331  -0.02336  -1.20340
   D10        0.96326   0.00195   0.00000  -0.00051  -0.00039   0.96288
   D11       -1.17615  -0.00321   0.00000  -0.01063  -0.01085  -1.18700
   D12        3.02209   0.00013   0.00000   0.00283   0.00294   3.02504
   D13       -3.07603  -0.00066   0.00000  -0.00685  -0.00678  -3.08281
   D14       -1.05988   0.00397   0.00000   0.02853   0.02858  -1.03130
   D15        1.19098  -0.00385   0.00000  -0.04874  -0.04864   1.14234
   D16       -0.95185  -0.00480   0.00000  -0.03155  -0.03200  -0.98385
   D17        1.06430  -0.00017   0.00000   0.00383   0.00336   1.06766
   D18       -2.96803  -0.00799   0.00000  -0.07344  -0.07386  -3.04189
   D19        1.17780   0.00053   0.00000   0.00638   0.00673   1.18454
   D20       -3.08924   0.00516   0.00000   0.04176   0.04210  -3.04714
   D21       -0.83838  -0.00267   0.00000  -0.03551  -0.03512  -0.87350
   D22        3.09461  -0.00052   0.00000   0.00095   0.00089   3.09551
   D23        1.07756  -0.00493   0.00000  -0.03411  -0.03422   1.04335
   D24       -1.17158   0.00224   0.00000   0.03776   0.03758  -1.13400
   D25        0.94575   0.00592   0.00000   0.03516   0.03546   0.98121
   D26       -1.07130   0.00151   0.00000   0.00010   0.00035  -1.07095
   D27        2.96274   0.00867   0.00000   0.07197   0.07215   3.03489
   D28       -1.15987  -0.00146   0.00000  -0.01688  -0.01673  -1.17660
   D29        3.10626  -0.00587   0.00000  -0.05195  -0.05184   3.05442
   D30        0.85711   0.00130   0.00000   0.01993   0.01996   0.87708
   D31        0.95191   0.00003   0.00000   0.01015   0.01012   0.96203
   D32        2.96902   0.00463   0.00000   0.04890   0.04884   3.01787
   D33       -1.06511  -0.00569   0.00000  -0.04839  -0.04858  -1.11368
   D34       -1.06614  -0.00298   0.00000  -0.01929  -0.01919  -1.08533
   D35        0.95097   0.00163   0.00000   0.01946   0.01954   0.97050
   D36       -3.08316  -0.00870   0.00000  -0.07782  -0.07788   3.12214
   D37        2.96999   0.00430   0.00000   0.05339   0.05339   3.02338
   D38       -1.29608   0.00890   0.00000   0.09213   0.09211  -1.20397
   D39        0.95298  -0.00142   0.00000  -0.00515  -0.00531   0.94767
   D40       -0.92920  -0.00428   0.00000  -0.02950  -0.02965  -0.95885
   D41        1.08765   0.00240   0.00000   0.02587   0.02593   1.11357
   D42       -2.94595  -0.00626   0.00000  -0.06140  -0.06149  -3.00745
   D43       -2.94661  -0.00575   0.00000  -0.05160  -0.05180  -2.99841
   D44       -0.92977   0.00092   0.00000   0.00377   0.00378  -0.92599
   D45        1.31982  -0.00774   0.00000  -0.08350  -0.08364   1.23617
   D46        1.08809   0.00230   0.00000   0.02748   0.02752   1.11561
   D47        3.10493   0.00897   0.00000   0.08285   0.08310  -3.09516
   D48       -0.92867   0.00031   0.00000  -0.00442  -0.00432  -0.93299
   D49        0.92156   0.00377   0.00000   0.02772   0.02791   0.94948
   D50        2.93904   0.00542   0.00000   0.05090   0.05111   2.99015
   D51       -1.09604  -0.00234   0.00000  -0.02612  -0.02608  -1.12213
   D52       -1.09497  -0.00276   0.00000  -0.02770  -0.02773  -1.12270
   D53        0.92251  -0.00111   0.00000  -0.00452  -0.00454   0.91797
   D54       -3.11258  -0.00887   0.00000  -0.08154  -0.08173   3.08888
   D55        2.93810   0.00619   0.00000   0.06191   0.06201   3.00011
   D56       -1.32761   0.00784   0.00000   0.08509   0.08521  -1.24239
   D57        0.92049   0.00008   0.00000   0.00807   0.00802   0.92851
   D58       -0.93859  -0.00027   0.00000  -0.01114  -0.01097  -0.94956
   D59        1.07970   0.00320   0.00000   0.02229   0.02233   1.10203
   D60       -2.95686  -0.00496   0.00000  -0.05732  -0.05725  -3.01411
   D61       -2.95588  -0.00463   0.00000  -0.04959  -0.04950  -3.00538
   D62       -0.93760  -0.00116   0.00000  -0.01617  -0.01620  -0.95379
   D63        1.30904  -0.00932   0.00000  -0.09578  -0.09578   1.21326
   D64        1.07888   0.00536   0.00000   0.04524   0.04545   1.12433
   D65        3.09716   0.00884   0.00000   0.07866   0.07875  -3.10727
   D66       -0.93939   0.00068   0.00000  -0.00095  -0.00083  -0.94022
         Item               Value     Threshold  Converged?
 Maximum Force            0.031184     0.000450     NO 
 RMS     Force            0.006638     0.000300     NO 
 Maximum Displacement     0.101063     0.001800     NO 
 RMS     Displacement     0.034886     0.001200     NO 
 Predicted change in Energy=-1.957340D-02
 Lowest energy point so far.  Saving SCF results.
 GradGradGradGradGradGradGradGradGradGradGradGradGradGradGradGradGradGrad

 Leave Link  103 at Sun Oct 13 19:39:04 2019, MaxMem= 10737418240 cpu:               1.5 elap:               0.1
 (Enter /apps/cent7/gaussian/g16-A.03/g16-haswell/g16/l202.exe)
                          Input orientation:                          
 ---------------------------------------------------------------------
 Center     Atomic      Atomic             Coordinates (Angstroms)
 Number     Number       Type             X           Y           Z
 ---------------------------------------------------------------------
      1          8           0        1.487534    0.129669    0.044242
      2          7           0        0.112713    0.129512    0.208130
      3          6           0       -0.495798   -1.239098    0.153872
      4          6           0       -0.252977   -1.854151   -1.234150
      5          6           0       -0.950134   -3.230872   -1.326787
      6          6           0       -2.456800   -3.134723   -0.992936
      7          6           0       -2.688641   -2.483716    0.390273
      8          6           0       -1.991351   -1.107700    0.495279
      9          1           0        1.904016    0.124056    0.916020
     10          1           0       -0.152345    0.579285    1.087094
     11          1           0        0.028044   -1.823996    0.914894
     12          1           0       -0.708220   -1.191357   -1.976908
     13          1           0        0.818325   -2.007952   -1.359785
     14          1           0       -0.854092   -3.556876   -2.360419
     15          1           0       -0.481693   -3.897264   -0.599154
     16          1           0       -2.933264   -2.506293   -1.749180
     17          1           0       -2.847122   -4.149668   -0.943349
     18          1           0       -3.755515   -2.301626    0.503007
     19          1           0       -2.259921   -3.138320    1.151928
     20          1           0       -2.446890   -0.442739   -0.244970
     21          1           0       -2.084067   -0.768852    1.529681
     22          1           0       -0.258778    0.695612   -0.557952
 ---------------------------------------------------------------------
                    Distance matrix (angstroms):
                    1          2          3          4          5
     1  O    0.000000
     2  N    1.384554   0.000000
     3  C    2.412291   1.498774   0.000000
     4  C    2.932440   2.479682   1.537484   0.000000
     5  C    4.372091   3.844190   2.523080   1.545953   0.000000
     6  C    5.223960   4.324371   2.958732   2.560251   1.546203
     7  C    4.938619   3.835326   2.532493   2.994589   2.555179
     8  C    3.719833   2.457689   1.539644   2.563212   2.985283
     9  H    0.966171   1.926111   2.863244   3.631688   4.942863
    10  H    1.994718   1.022316   2.072530   3.364508   4.580457
    11  H    2.589392   2.079153   1.093467   2.167550   2.821571
    12  H    3.263662   2.681980   2.141874   1.094637   2.154252
    13  H    2.643587   2.743173   2.146908   1.089553   2.150365
    14  H    4.985601   4.595826   3.438332   2.128167   1.088071
    15  H    4.528576   4.149693   2.762805   2.151707   1.092229
    16  H    5.450515   4.478450   3.341951   2.806152   2.153192
    17  H    6.170681   5.328969   3.899236   3.476140   2.142376
    18  H    5.797519   4.578272   3.446247   3.935191   3.475889
    19  H    5.094127   4.147152   2.777641   3.371985   2.805019
    20  H    3.986350   2.661643   2.144767   2.789950   3.344292
    21  H    3.971171   2.716505   2.153272   3.488485   3.937861
    22  H    1.931977   1.022427   2.075084   2.637910   4.060339
                    6          7          8          9         10
     6  C    0.000000
     7  C    1.546230   0.000000
     8  C    2.557391   1.546176   0.000000
     9  H    5.768923   5.307484   4.107083   0.000000
    10  H    4.840547   4.037367   2.564782   2.113083   0.000000
    11  H    3.395920   2.844439   2.183372   2.704474   2.416186
    12  H    2.793278   3.346013   2.786598   4.113772   3.582217
    13  H    3.482906   3.948147   3.485110   3.302041   3.690964
    14  H    2.148696   3.476140   3.930245   5.647254   5.430067
    15  H    2.153504   2.801375   3.355371   4.915118   4.794934
    16  H    1.092633   2.153511   2.807287   6.117296   5.029787
    17  H    1.088542   2.139874   3.472112   6.655471   5.809262
    18  H    2.149083   1.088157   2.130210   6.171289   4.650123
    19  H    2.153883   1.091981   2.150984   5.295009   4.273952
    20  H    2.793981   2.151178   1.094375   4.538672   2.843214
    21  H    3.478487   2.145814   1.092430   4.132635   2.396853
    22  H    4.437564   4.112358   2.713491   2.678983   1.652584
                   11         12         13         14         15
    11  H    0.000000
    12  H    3.050382   0.000000
    13  H    2.415067   1.837935   0.000000
    14  H    3.809030   2.400841   2.489461   0.000000
    15  H    2.617368   3.044906   2.416218   1.832103   0.000000
    16  H    4.041308   2.594560   3.804523   2.408380   3.044267
    17  H    4.138647   3.794041   4.265662   2.516278   2.403629
    18  H    3.835766   4.082730   4.947348   4.265339   3.805092
    19  H    2.649229   3.998506   4.130621   3.806327   2.608520
    20  H    3.062426   2.565738   3.788712   4.087784   3.990137
    21  H    2.439735   3.790466   4.278816   4.941537   4.109319
    22  H    2.932569   2.403349   3.018666   4.656924   4.598467
                   16         17         18         19         20
    16  H    0.000000
    17  H    1.832338   0.000000
    18  H    2.406311   2.516423   0.000000
    19  H    3.044548   2.399545   1.832472   0.000000
    20  H    2.599512   3.793316   2.393205   3.041781   0.000000
    21  H    3.806674   4.257705   2.489416   2.405826   1.840483
    22  H    4.338674   5.506795   4.726123   4.650515   2.486289
                   21         22
    21  H    0.000000
    22  H    3.136008   0.000000
 Stoichiometry    C6H14NO(1+)
 Framework group  C1[X(C6H14NO)]
 Deg. of freedom    60
 Full point group                 C1      NOp   1
[...]
 5533,0.19071316,0.00004971,-0.00209641,-0.00161392,-0.00110379,0.00036
 672,0.00085563,-0.00223896,0.00063650,0.00021199,-0.31103597,0.0235417
 1,0.04465431,-0.01177229,0.00099732,0.00141863,0.00056783,-0.00327886,
 -0.00047240,0.00022475,-0.00001639,-0.00029851,0.00086950,-0.00008694,
 0.00067854,0.00009646,0.00018299,0.00006795,0.00001824,0.00011777,0.00
 003191,0.00050712,0.00027834,0.00044516,-0.01084703,0.00060353,0.00190
 558,0.33432398,-0.00089657,-0.00049350,-0.00000777,0.00163129,0.000696
 13,0.00033388,0.01375079,-0.00319766,-0.00177061,0.02146734,-0.0474984
 5,-0.00251148,-0.03099736,0.00324213,0.00565240,-0.00101129,-0.0063375
 6,-0.00068186,-0.00000296,-0.00034355,-0.00033048,-0.00023301,-0.00082
 219,-0.00303538,-0.00019820,-0.00014268,-0.00057849,-0.00006438,0.0001
 4373,-0.00014242,-0.00064973,0.00026985,0.00016112,0.01845537,-0.00199
 169,-0.00395312,-0.02133042,0.05366164,-0.00098513,0.00012899,0.000079
 30,0.00089303,0.00053509,0.00096959,0.03252169,-0.00226806,-0.00585969
 ,0.04166370,-0.00297909,-0.05869396,-0.00295376,0.00152605,0.00009904,
 -0.00052343,-0.00117454,0.00034797,-0.00046402,-0.00036097,0.00008788,
 -0.00128386,-0.00288733,-0.00515147,-0.00019065,-0.00061559,-0.0006486
 7,0.00004782,0.00016728,-0.00008561,-0.00020144,0.00060857,0.00104594,
 -0.02238478,0.00134407,0.00457406,-0.04821420,0.00655050,0.06286767,0.
 00009625,0.00015741,-0.00001589,0.00050789,-0.00153006,-0.00124320,-0.
 00134735,-0.00213825,0.00077883,0.00129171,-0.00585365,-0.01459499,-0.
 05310783,0.01555192,0.03722466,-0.00395441,0.01264760,0.03104422,-0.00
 728850,-0.00020560,-0.00015567,-0.00026904,-0.00036548,-0.00006760,0.0
 0007810,0.00002601,0.00003901,-0.00025717,-0.00037768,0.00005316,-0.00
 014778,0.00010675,0.00034731,0.00040260,0.00047122,0.00037247,0.000239
 52,0.00054652,-0.00044672,0.05983628,0.00001882,0.00015047,0.00002835,
 0.00047852,-0.00151355,-0.00229877,-0.00311103,-0.00384326,0.00243425,
 0.00346787,-0.01399406,-0.02823420,0.01543125,-0.08434367,-0.09188552,
 0.00096478,-0.00085392,-0.00031682,-0.00014320,0.00046960,0.00030124,-
 0.00022765,0.00020781,0.00041672,0.00009678,-0.00003925,0.00005792,-0.
 00034334,-0.00058728,0.00004580,-0.00013729,0.00000884,-0.00011183,0.0
 0081008,0.00094301,-0.00006306,0.00013378,0.00118501,0.00011937,-0.014
 19061,0.09342557,-0.00005240,-0.00003565,-0.00001474,0.00017076,0.0001
 0462,0.00028757,0.00000185,0.00073042,0.00103883,-0.00054622,0.0006885
 6,0.00059595,0.03729172,-0.09438586,-0.27950320,0.00021191,-0.00061178
 ,-0.00351149,0.00147854,0.00031421,0.00099056,-0.00006580,0.00024552,0
 .00016592,0.00003987,0.00001145,-0.00000043,0.00001939,0.00012807,0.00
 005046,0.00001729,0.00011323,0.00027415,-0.00013005,-0.00021742,0.0004
 7568,-0.00033064,-0.00032882,0.00005882,-0.04129214,0.10108277,0.29729
 330,-0.00005214,0.00005555,-0.00003819,0.00004532,0.00017225,0.0000838
 9,0.00023023,0.00018048,0.00048964,0.00630648,-0.01084732,0.01104437,-
 0.09679429,0.07054612,-0.07462806,-0.01693687,0.02072476,-0.02251016,0
 .00149568,-0.00012688,-0.00155335,-0.00008796,-0.00002804,0.00016787,0
 .00004154,-0.00005458,-0.00001427,-0.00004218,0.00004682,-0.00001883,0
 .00007199,0.00031170,-0.00013756,-0.00066177,-0.00364560,-0.00054043,0
 .00057082,0.00057378,0.00043977,0.00163526,-0.00331626,0.00296677,0.10
 879081,-0.00002258,0.00003726,-0.00006858,-0.00033705,0.00049436,-0.00
 035342,0.00090838,0.00006576,0.00200601,0.01169714,-0.02113169,0.01920
 341,0.06996133,-0.14676724,0.10389534,0.00077231,-0.00020042,0.0001376
 7,-0.00019996,-0.00026651,0.00031014,0.00001410,-0.00015305,-0.0001863
 6,-0.00000576,-0.00015473,0.00001154,-0.00008065,-0.00000318,-0.000093
 00,-0.00007884,-0.00037068,-0.00098877,-0.00267517,-0.00469020,-0.0010
 3667,-0.00000809,0.00101432,-0.00001954,-0.00571438,0.00816329,-0.0075
 9422,-0.07411215,0.16182483,0.00007672,0.00000640,0.00002709,-0.000016
 41,0.00000016,0.00025061,0.00032413,-0.00070657,0.00073089,0.00190536,
 -0.00240713,0.00109252,-0.07415704,0.10423576,-0.16121172,0.00287762,-
 0.00493004,0.00367487,0.00031472,-0.00050167,0.00124049,-0.00002482,-0
 .00003145,0.00003538,-0.00006535,0.00004356,-0.00000818,0.00002094,0.0
 0004580,-0.00003699,-0.00015973,0.00017239,0.00031702,0.00003159,-0.00
 091968,0.00092122,0.00026239,0.00052862,0.00003965,-0.01309412,0.01901
 594,-0.01879160,0.08100895,-0.11446910,0.17075628,0.00006086,0.0000114
 8,0.00002940,-0.00000123,-0.00014007,-0.00009069,-0.00018897,0.0000791
 6,0.00014639,0.00144906,0.00113000,-0.00090881,-0.01745403,0.01919203,
 -0.02316299,-0.09959560,0.06297077,-0.08206625,0.00280202,-0.00424671,
 0.00516703,-0.00013532,0.00001552,-0.00034119,-0.00002317,0.00002721,-
 0.00002212,-0.00001994,-0.00004353,-0.00000981,0.00002138,0.00011482,0
 .00017454,-0.00015504,-0.00105020,0.00030716,0.00038168,0.00001887,0.0
 0050881,0.00116552,0.00001377,0.00017093,-0.00607104,-0.00030683,0.001
 59312,0.11062068,0.00003606,0.00003289,0.00003508,0.00000650,0.0000445
 7,0.00006274,-0.00005296,-0.00002812,-0.00021434,-0.00052322,0.0009108
 4,-0.00047654,0.00082733,-0.00259316,0.00108554,0.06309296,-0.12814487
 ,0.10076346,-0.00721583,0.00692344,-0.01124324,-0.00018990,0.00151077,
 -0.00043200,-0.00002413,-0.00001833,-0.00003450,-0.00001108,-0.0000048
 3,-0.00000409,0.00007430,-0.00009730,0.00003985,0.00003495,0.00044769,
 0.00019196,0.00002248,0.00007022,-0.00007024,0.00036779,-0.00008081,-0
 .00002037,0.00032438,0.00110993,-0.00056497,-0.07111482,0.13539450,-0.
 00004006,-0.00003343,0.00002559,-0.00012484,-0.00006574,0.00003141,0.0
 0019254,-0.00007965,-0.00012937,-0.00017776,-0.00038141,0.00009042,0.0
 0398940,-0.00456402,0.00594803,-0.08208833,0.10053923,-0.17590475,-0.0
 1274419,0.01672805,-0.02395478,-0.00030291,0.00133054,0.00099155,0.000
 00466,-0.00000375,-0.00001965,0.00000020,0.00001787,-0.00000297,0.0001
 8897,0.00007900,-0.00002800,-0.00039667,-0.00014279,-0.00000065,-0.000
 03299,-0.00017854,0.00005062,-0.00047389,-0.00026601,0.00054470,0.0022
 6498,-0.00004985,0.00071601,0.08740799,-0.10816174,0.19406836,0.000107
 69,-0.00014104,-0.00017013,0.00003746,-0.00012100,-0.00011427,-0.00022
 113,0.00060900,0.00076939,-0.00650636,0.00170157,0.00117686,-0.0132260
 2,-0.03015308,-0.00067150,-0.09192914,-0.10014489,-0.00293149,0.002217
 25,0.00629009,-0.00081101,0.00029678,0.00108090,0.00165475,0.00004087,
 0.00006101,0.00009132,-0.00011403,-0.00008143,0.00002994,-0.00000689,-
 0.00005662,-0.00005984,0.00016017,0.00015169,0.00011919,-0.00076871,-0
 .00179182,-0.00032751,0.00111499,0.00003518,0.00028034,0.00109318,0.00
 000665,-0.00072131,0.00612736,0.01389583,0.00085693,0.10100745,-0.0000
 7815,-0.00000858,0.00001524,0.00006590,0.00012651,0.00008320,0.0004153
 2,0.00011408,-0.00010541,0.00117213,0.00119048,0.00004127,0.00197864,0
 .00436767,0.00057643,-0.10154349,-0.27699141,-0.00566876,-0.00413000,-
 0.01114055,0.00020250,0.00105087,0.00037414,-0.00269678,0.00003709,-0.
 00001074,0.00001059,0.00005326,0.00008052,0.00002570,-0.00003619,-0.00
 002471,0.00000117,0.00009324,0.00018727,-0.00009250,0.00018647,0.00020
 298,-0.00010700,-0.00052555,0.00017135,0.00015723,-0.00040299,0.000438
 80,0.00005229,-0.00668969,-0.01552708,-0.00043584,0.10867716,0.2960335
 0,-0.00020815,0.00000527,0.00007950,-0.00010592,0.00011652,0.00015080,
 0.00072535,-0.00005016,-0.00038503,0.00197838,-0.00031947,-0.00000662,
 0.00183968,0.00677033,-0.00067924,-0.00234491,-0.00413724,-0.04791399,
 -0.01268046,-0.02848679,-0.00102684,0.00103283,-0.00213117,-0.00583774
 ,0.00002264,-0.00005050,-0.00001449,0.00019901,0.00011660,-0.00002805,
 -0.00006031,-0.00001651,0.00001290,-0.00015818,-0.00048021,0.00008984,
 0.00043523,0.00045182,0.00042731,-0.00013922,0.00036113,-0.00008213,-0
 .00026406,-0.00039253,0.00023066,0.00980624,0.02100101,0.00060959,0.00
 104073,0.00801300,0.05238291,-0.00019349,-0.00020689,-0.00003456,-0.00
 067713,-0.00002317,0.00030789,0.00124860,-0.00203610,-0.00057591,0.000
 40030,0.00007595,-0.00023477,0.00115390,0.00040586,0.00087375,-0.00186
 868,0.00063528,0.00025864,-0.31225712,0.02674892,0.04533462,-0.0123093
 0,0.00026617,0.00145785,0.00007087,0.00000346,0.00005783,-0.00003562,0
 .00007855,0.00007742,0.00025760,-0.00001556,-0.00004542,-0.00003559,-0
 .00000728,0.00003664,-0.00001001,0.00004395,-0.00002418,-0.00022287,-0
 .00013713,-0.00005494,0.00020688,-0.00009948,-0.00007119,0.00034141,-0
 .00008920,0.00024772,0.00014934,0.00026310,0.00022259,0.33405237,-0.00
 123270,-0.00086427,0.00007259,-0.00202835,0.00040781,0.00042394,-0.000
 43563,-0.00602668,-0.00093071,0.00014395,-0.00023647,-0.00017588,-0.00
 026965,-0.00117016,-0.00340188,0.01407441,-0.00159345,-0.00087672,0.02
 924997,-0.04986830,-0.00425714,-0.03241207,0.00052096,0.00527919,0.000
 16080,-0.00011722,0.00010576,-0.00004908,0.00020462,0.00012047,0.00000
 777,-0.00007327,-0.00017298,-0.00001686,0.00007331,0.00006968,0.000036
 30,0.00009419,0.00008204,0.00101004,0.00033211,-0.00039189,-0.00050535
 ,0.00014611,0.00005885,-0.00051930,0.00046861,0.00026428,0.00022219,-0
 .00005856,0.00041147,-0.02724705,0.05681052,-0.00016859,-0.00009329,0.
 00001151,-0.00036599,-0.00037360,0.00048300,-0.00023591,-0.00035883,0.
 00008996,-0.00035293,-0.00033533,-0.00001897,-0.00065962,-0.00279606,-
 0.00578493,0.03036563,-0.00244339,-0.00477473,0.04446940,-0.00397441,-
 0.05511876,-0.00232047,0.00085389,-0.00052785,0.00002624,-0.00000228,-
 0.00000031,-0.00000696,0.00007754,0.00003703,0.00039263,-0.00010889,-0
 .00002802,-0.00000041,0.00008802,-0.00000369,-0.00000167,0.00007798,0.
 00006191,0.00184340,-0.00008040,-0.00021942,0.00006417,-0.00017760,0.0
 0012874,-0.00005742,0.00084084,0.00083171,-0.00042649,0.00008897,0.001
 14088,-0.04939023,0.00694334,0.05972069,-0.00001739,0.00016230,-0.0000
 7615,0.00025223,0.00006553,-0.00000153,0.00120381,-0.00080023,0.000970
 05,-0.00008132,-0.00009869,-0.00001213,0.00086655,-0.00080907,0.000637
 87,0.00093195,-0.00310707,0.00363802,-0.08747941,0.05870260,-0.0701086
 0,0.00412088,-0.01034517,0.01130649,-0.00007110,-0.00004465,-0.0000160
 7,0.00008872,-0.00002926,-0.00000548,-0.00012663,0.00001121,-0.0002014
 9,-0.00007756,0.00009636,-0.00011465,-0.00002007,0.00004260,0.00000213
 ,0.00007698,0.00001019,-0.00011063,0.00019918,0.00027760,-0.00001419,0
 .00069031,0.00009726,0.00109953,0.00010373,-0.00009070,-0.00063519,-0.
 01086002,0.01905547,-0.02319393,0.09058054,-0.00023040,0.00006886,-0.0
 0013397,0.00004292,0.00051039,-0.00038437,0.00162830,0.00003388,0.0006
 3992,-0.00013933,-0.00003382,0.00001097,-0.00079448,0.00037760,0.00021
 429,-0.00577512,0.00935726,-0.01155879,0.05795016,-0.13773648,0.109631
 36,0.01025158,-0.02099473,0.02082275,-0.00004057,-0.00008730,0.0000733
 6,0.00016952,-0.00005342,0.00009156,-0.00101712,0.00018834,-0.00001621
 ,0.00001414,-0.00006245,-0.00016077,-0.00000151,0.00003424,0.00009234,
 -0.00019124,-0.00000540,0.00003798,0.00003651,-0.00001688,0.00034163,0
 .00090106,-0.00046914,-0.00340898,-0.00036149,0.00063437,0.00051228,0.
 00118298,-0.00180505,0.00165829,-0.06109647,0.15376695,0.00003143,0.00
 005227,-0.00003133,0.00023832,-0.00013341,0.00020346,-0.00010671,0.000
 13941,-0.00014506,0.00023877,-0.00010436,-0.00008051,-0.00125128,0.001
 03823,0.00126070,-0.01193446,0.01692269,-0.02358856,-0.07008057,0.1107
 0893,-0.18053335,0.00173692,-0.00251985,0.00251732,0.00001116,0.000036
 16,-0.00000065,-0.00001587,-0.00000896,0.00002107,0.00043485,0.0002929
 8,-0.00005630,-0.00015230,-0.00015441,0.00002820,0.00005809,0.00008439
 ,0.00001614,-0.00006837,-0.00038630,0.00041093,0.00112137,-0.00037021,
 0.00015986,0.00168062,-0.00309465,-0.00447131,-0.00022181,-0.00004588,
 0.00102916,0.00169186,-0.00373707,0.00388343,0.07678682,-0.11769373,0.
 19789902,0.00036409,-0.00059501,0.00063724,0.00103733,0.00157627,-0.00
 098776,-0.01859940,0.02057573,-0.02325724,0.00136872,-0.00033267,-0.00
 171184,-0.00017396,-0.00004246,0.00017520,0.00025186,0.00077494,0.0005
 0120,0.00703778,-0.01046575,0.01088187,-0.09493736,0.06790478,-0.07189
 057,0.00038797,0.00038399,-0.00002642,-0.00022283,0.00001006,-0.000160
 86,-0.00552146,-0.00034350,0.00183924,0.00016887,-0.00014159,0.0010101
 2,0.00025082,-0.00049918,0.00022497,0.00006752,0.00009569,-0.00000604,
 -0.00011419,-0.00015568,-0.00001140,0.00005560,0.00025678,-0.00027747,
 -0.00010344,0.00010997,0.00015328,0.00050062,0.00036326,0.00041631,-0.
 00077670,-0.00335619,-0.00063828,0.10818901,0.00008645,0.00017222,-0.0
 0017182,-0.00053409,0.00123272,-0.00044014,-0.00044269,-0.00283097,0.0
 0106619,0.00004361,-0.00007813,0.00031250,-0.00007195,-0.00018776,-0.0
 0030483,0.00102032,0.00149551,0.00135097,0.01183516,-0.02130989,0.0208
 0191,0.06881325,-0.13763997,0.10216214,-0.00009512,-0.00013403,0.00005
 962,0.00021973,0.00009090,-0.00017529,-0.00000005,0.00063991,-0.000025
 87,0.00028301,-0.00001734,-0.00041240,-0.00008895,0.00008322,-0.000212
 86,0.00006780,-0.00002334,-0.00003022,-0.00017514,0.00012299,0.0000495
 7,-0.00019252,-0.00005534,-0.00111817,-0.00036969,0.00044038,-0.000001
 95,0.00008065,0.00133774,-0.00007683,-0.00304226,-0.00468135,-0.001242
 25,-0.07127472,0.15318853,-0.00007917,-0.00035371,0.00016863,0.0000323
 3,-0.00031097,0.00037265,0.00296940,-0.00502905,0.00458904,0.00025878,
 -0.00069474,0.00088868,0.00024183,0.00014304,0.00000842,0.00034012,-0.
 00097342,0.00101333,0.00098853,-0.00022175,0.00018473,-0.07285834,0.10
 307984,-0.16664641,0.00003248,0.00007246,-0.00011627,-0.00021208,0.000
 30797,-0.00041347,0.00187415,-0.00009329,0.00059577,0.00027054,0.00026
 728,0.00021167,-0.00007296,0.00003742,0.00001278,-0.00003976,-0.000030
 77,-0.00001804,-0.00007241,-0.00000461,-0.00013488,-0.00032345,0.00014
 380,0.00026686,0.00006406,0.00001481,0.00007311,0.00016695,0.00036103,
 0.00006514,0.00017159,-0.00055199,0.00101668,0.07985742,-0.11386093,0.
 17566031,0.00034448,-0.00012563,-0.00066090,0.00137750,0.00152693,0.00
 127741,-0.00570919,0.01254801,0.03238533,-0.00659694,-0.00063368,-0.00
 073689,-0.00027617,-0.00054656,-0.00018201,-0.00157707,-0.00340432,0.0
 0079959,0.00258576,-0.00498122,-0.01505305,-0.05460687,0.01524427,0.03
 031147,-0.00008492,0.00020229,0.00011276,-0.00058629,-0.00114119,-0.00
 002088,0.00120024,0.00007954,-0.00041145,-0.00002445,-0.00015719,0.000
 10715,-0.00010113,0.00080850,0.00181604,0.00014098,0.00006934,-0.00003
 482,0.00009316,0.00006941,-0.00001529,-0.00001426,0.00019081,0.0004652
 6,0.00049003,-0.00064574,-0.00090112,0.00012516,0.00043172,-0.00039869
 ,0.00038337,0.00046356,0.00049341,0.00199705,-0.00646779,-0.01256889,0
 .06097325,0.00013534,0.00002194,0.00003298,-0.00034202,0.00106741,0.00
 122899,-0.00024155,-0.00335101,-0.00162150,0.00021142,0.00074390,0.000
 63724,-0.00044298,0.00018371,0.00024472,-0.00345261,-0.00512508,0.0020
 6818,0.00424221,-0.01178575,-0.02816396,0.01595273,-0.08266045,-0.0890
 3350,0.00001617,0.00000255,-0.00009506,-0.00005909,0.00034862,-0.00020
 646,0.00002573,-0.00006505,-0.00026886,-0.00001478,0.00000044,-0.00037
 631,-0.00018909,0.00020679,-0.00024072,0.00006997,0.00003818,0.0000270
 0,0.00008824,-0.00003881,0.00003402,-0.00013187,0.00015908,-0.00005211
 ,0.00042288,-0.00062213,-0.00166752,0.00004541,0.00127260,0.00025946,0
 .00086912,0.00073434,0.00024060,-0.00382224,0.00777268,0.01769275,-0.0
 1349142,0.09104121,-0.00001899,0.00040969,0.00041491,-0.00049140,0.000
 13737,0.00028505,0.00000424,-0.00120357,-0.00417697,0.00136759,-0.0001
 0321,0.00099340,-0.00011485,0.00019684,0.00006928,-0.00057664,-0.00051
 589,0.00121516,-0.00051263,0.00010977,-0.00053779,0.03210133,-0.090045
 61,-0.27011014,0.00002809,-0.00017155,-0.00006254,0.00165573,0.0007975
 9,-0.00047335,0.00049852,0.00020752,0.00063900,-0.00012238,0.00009521,
 0.00047715,-0.00008736,-0.00042973,-0.00013060,-0.00000688,-0.00001082
 ,-0.00002843,0.00002578,-0.00002778,-0.00001778,0.00004556,0.00014345,
 0.00038607,0.00031913,-0.00011205,-0.00016776,-0.00025850,-0.00016334,
 0.00007210,-0.00004794,-0.00016098,0.00053571,0.00307530,-0.00802682,-
 0.01791632,-0.03681574,0.09908738,0.28885161,-0.03404237,0.02711354,-0
 .03235003,-0.09367426,0.06312196,-0.08317082,0.00762595,-0.00680083,0.
 01101259,-0.00004263,-0.00011764,0.00085691,-0.00001412,0.00007472,-0.
 00002362,0.00017328,-0.00003973,-0.00001053,-0.00074867,-0.00015820,-0
 .00036191,0.00267764,-0.00055573,0.00129856,-0.00746707,-0.00237499,0.
 00245258,0.00600709,-0.00591820,0.00585493,-0.00140395,-0.00269320,-0.
 00092179,0.00009985,0.00031965,-0.00053927,-0.00020249,0.00033592,-0.0
 0011827,-0.00005862,-0.00001954,-0.00002569,-0.00002010,0.00008970,-0.
 00006470,-0.00005728,-0.00000629,-0.00005909,-0.00007057,0.00003935,0.
 00004155,-0.00003723,-0.00003983,0.00000152,0.00001195,0.00036319,-0.0
 0005398,-0.00122788,0.00030500,-0.00104112,-0.00013370,0.00010844,-0.0
 0006798,0.12260519,-0.00288004,0.00387662,-0.00285227,0.07723331,-0.16
 380134,0.14594685,0.01057429,-0.02062840,0.02440811,0.00143844,0.00180
 999,0.00086132,-0.00069760,-0.00013835,0.00003171,-0.00006521,0.000116
 33,0.00001960,0.00011981,-0.00029746,-0.00039411,0.00047479,0.00129222
 ,-0.00005062,-0.00093593,-0.00014417,-0.00002899,-0.00796174,0.0123013
 7,-0.01412810,-0.00299071,-0.00419939,-0.00129669,-0.00044862,-0.00015
 290,-0.00159767,-0.00000724,-0.00007718,-0.00021836,0.00006945,0.00018
 931,-0.00002483,0.00015372,0.00037574,-0.00005439,-0.00003913,-0.00005
 358,-0.00001695,0.00006691,0.00002170,-0.00002538,0.00003158,0.0001448
 7,-0.00006740,0.00007333,0.00023979,-0.00002457,-0.00102246,0.00038131
 ,0.00000485,-0.00003966,0.00005485,-0.00021348,-0.07314728,0.16868867,
 0.00633306,-0.00733188,0.01056488,-0.09959961,0.13970113,-0.25709798,0
 .00403623,0.00233773,0.00430145,0.00109928,-0.00201580,0.00359512,-0.0
 0012962,-0.00011594,-0.00105161,-0.00002703,0.00001999,0.00020337,0.00
 001397,0.00020844,0.00017866,0.00059977,-0.00085622,0.00013496,0.00280
 086,-0.00008220,0.00012322,-0.01155957,0.01895217,-0.02156876,-0.00007
 558,-0.00180825,0.00067618,-0.00102236,0.00079084,-0.00080552,0.000099
 23,0.00007056,-0.00016869,-0.00006463,-0.00017896,-0.00001740,0.000099
 76,0.00026813,-0.00012016,-0.00005506,0.00000894,-0.00004944,0.0000527
 2,-0.00001820,-0.00008477,-0.00004405,-0.00008505,-0.00004940,-0.00007
 454,-0.00005694,-0.00007461,0.00019570,0.00029745,0.00011759,0.0000312
 9,0.00017269,-0.00031775,0.09729017,-0.15027862,0.26151067\\0.00000892
 ,0.00000754,-0.00000116,-0.00002212,0.00001038,0.00001175,-0.00000301,
 -0.00000172,-0.00000564,0.00000417,0.00000959,0.00000595,-0.00000011,-
 0.00000457,-0.00000384,0.00000677,-0.00000711,0.00000298,-0.00000654,-
 0.00000358,-0.00000390,0.00000205,0.00000113,-0.00000216,-0.00000868,0
 .00000591,0.00000327,-0.00000180,-0.00000341,-0.00000493,-0.00000192,0
 .00000274,0.00000374,0.00000173,-0.00000232,0.00000006,0.00000265,0.00
 000209,0.00000268,0.00000766,0.00000100,0.00000049,0.00000343,0.000002
 28,0.00000283,0.00000535,-0.00000280,-0.00000160,0.00000380,-0.0000054
 0,-0.00000309,-0.00000085,-0.00000358,-0.00000389,0.00000173,-0.000000
 99,-0.00000322,-0.00000290,-0.00000477,-0.00000185,-0.00000380,-0.0000
 0018,-0.00000085,0.00000348,-0.00000223,0.00000239\\\@


 IT IS THE GODS' CUSTOM TO BRING LOW ALL THINGS OF SURPASSING GREATNESS.
     -- HERODOTUS
 IT IS THE LOFTY PINE THAT BY THE STORM IS OFTENER TOSSED;
 TOWERS FALL WITH HEAVIER CRASH WHICH HIGHER SOAR.
     -- HORACE
 THE BIGGER THEY COME, THE HARDER THEY FALL.
     -- BOB FITZSIMONS HEAVYWEIGHT CHAMPION, 1897-1899
 Job cpu time:       0 days  0 hours 58 minutes 59.6 seconds.
 Elapsed time:       0 days  0 hours  2 minutes 28.4 seconds.
 File lengths (MBytes):  RWF=    146 Int=      0 D2E=      0 Chk=      8 Scr=      1
 Normal termination of Gaussian 16 at Sun Oct 13 19:44:41 2019.
real 357.94
user 8317.95
sys 36.91
Machine:
brown-a220
brown-a220
brown-a220
brown-a220
brown-a220
brown-a220
brown-a220
brown-a220
brown-a220
brown-a220
brown-a220
brown-a220
brown-a220
brown-a220
brown-a220
brown-a220
brown-a220
brown-a220
brown-a220
brown-a220
brown-a220
brown-a220
brown-a220
brown-a220
