Title Card Required                                                     
Freq      RM062X                                                      6-311++G(d,p)       
Number of atoms                            I               22
Info1-9                                    I   N=           9
          54          54        1002           0           0         100
           6          18        -502
Full Title                                 C   N=           2
Title Card Required     
Route                                      C   N=           6
#P opt freq m062x/6-311++g(d,p) geom=connectivity temperatur
e=0.001     
Charge                                     I                1
Multiplicity                               I                1
Number of electrons                        I               64
Number of alpha electrons                  I               32
Number of beta electrons                   I               32
Number of basis functions                  I              274
Number of independent functions            I              274
Number of point charges in /Mol/           I                0
Number of translation vectors              I                0
Atomic numbers                             I   N=          22
           8           7           6           6           6           6
           6           6           1           1           1           1
           1           1           1           1           1           1
           1           1           1           1
Nuclear charges                            R   N=          22
  8.00000000E+00  7.00000000E+00  6.00000000E+00  6.00000000E+00  6.00000000E+00
  6.00000000E+00  6.00000000E+00  6.00000000E+00  1.00000000E+00  1.00000000E+00
  1.00000000E+00  1.00000000E+00  1.00000000E+00  1.00000000E+00  1.00000000E+00
  1.00000000E+00  1.00000000E+00  1.00000000E+00  1.00000000E+00  1.00000000E+00
  1.00000000E+00  1.00000000E+00
Current cartesian coordinates              R   N=          66
  5.48764357E+00  7.90003369E-01 -2.31522491E-01  3.63671060E+00 -9.56501190E-01
  4.44359070E-01  9.93292759E-01 -3.87365503E-01 -5.04518784E-01  1.19687475E-01
  2.15437180E+00  5.16536764E-01 -2.60183763E+00  2.64697012E+00 -3.56312046E-01
 -4.36226458E+00  4.98356266E-01  4.37886205E-01 -3.42308047E+00 -2.04274551E+00
 -5.66309540E-01 -7.05901463E-01 -2.57131494E+00  3.05112314E-01  5.41969230E+00
  9.56134862E-01 -2.05615804E+00  4.19022655E+00 -2.74127738E+00 -9.20789420E-02
  1.17373174E+00 -3.47158813E-01 -2.56837673E+00  1.74017828E-01  2.09723413E+00
  2.59009509E+00  1.37712040E+00  3.66786720E+00 -1.01633234E-01 -3.23549542E+00
  4.44348626E+00  4.30006532E-01 -2.63276847E+00  2.85437821E+00 -2.41607521E+00
 -4.47922937E+00  4.26199349E-01  2.50396457E+00 -6.27062451E+00  8.59303753E-01
 -2.53643108E-01 -4.63612285E+00 -3.58128348E+00  7.30342440E-02 -3.48594253E+00
 -2.04837908E+00 -2.63517969E+00 -6.77844852E-01 -2.73045141E+00  2.37299122E+00
 -3.38902387E-02 -4.36135273E+00 -4.84885412E-01  3.63963015E+00 -9.08852943E-01
  2.38523568E+00
Number of symbols in /Mol/                 I                0
Force Field                                I                0
Atom Types                                 C   N=          22
                                                            
                                                            
                                                            
                                                            
                        
Int Atom Types                             I   N=          22
           0           0           0           0           0           0
           0           0           0           0           0           0
           0           0           0           0           0           0
           0           0           0           0
MM charges                                 R   N=          22
  0.00000000E+00  0.00000000E+00  0.00000000E+00  0.00000000E+00  0.00000000E+00
  0.00000000E+00  0.00000000E+00  0.00000000E+00  0.00000000E+00  0.00000000E+00
  0.00000000E+00  0.00000000E+00  0.00000000E+00  0.00000000E+00  0.00000000E+00
  0.00000000E+00  0.00000000E+00  0.00000000E+00  0.00000000E+00  0.00000000E+00
  0.00000000E+00  0.00000000E+00
Integer atomic weights                     I   N=          22
          16          14          12          12          12          12
          12          12           1           1           1           1
           1           1           1           1           1           1
           1           1           1           1
Real atomic weights                        R   N=          22
  1.59949146E+01  1.40030740E+01  1.20000000E+01  1.20000000E+01  1.20000000E+01
  1.20000000E+01  1.20000000E+01  1.20000000E+01  1.00782504E+00  1.00782504E+00
  1.00782504E+00  1.00782504E+00  1.00782504E+00  1.00782504E+00  1.00782504E+00
  1.00782504E+00  1.00782504E+00  1.00782504E+00  1.00782504E+00  1.00782504E+00
  1.00782504E+00  1.00782504E+00
Atom fragment info                         I   N=          22
           0           0           0           0           0           0
           0           0           0           0           0           0
           0           0           0           0           0           0
           0           0           0           0
Atom residue num                           I   N=          22
           0           0           0           0           0           0
           0           0           0           0           0           0
           0           0           0           0           0           0
           0           0           0           0
Nuclear spins                              I   N=          22
           0           2           0           0           0           0
           0           0           1           1           1           1
           1           1           1           1           1           1
           1           1           1           1
Nuclear ZEff                               R   N=          22
 -5.60000000E+00 -4.55000000E+00 -3.60000000E+00 -3.60000000E+00 -3.60000000E+00
 -3.60000000E+00 -3.60000000E+00 -3.60000000E+00 -1.00000000E+00 -1.00000000E+00
 -1.00000000E+00 -1.00000000E+00 -1.00000000E+00 -1.00000000E+00 -1.00000000E+00
 -1.00000000E+00 -1.00000000E+00 -1.00000000E+00 -1.00000000E+00 -1.00000000E+00
 -1.00000000E+00 -1.00000000E+00
Nuclear ZNuc                               R   N=          22
  8.00000000E+00  7.00000000E+00  6.00000000E+00  6.00000000E+00  6.00000000E+00
  6.00000000E+00  6.00000000E+00  6.00000000E+00  1.00000000E+00  1.00000000E+00
  1.00000000E+00  1.00000000E+00  1.00000000E+00  1.00000000E+00  1.00000000E+00
  1.00000000E+00  1.00000000E+00  1.00000000E+00  1.00000000E+00  1.00000000E+00
  1.00000000E+00  1.00000000E+00
Nuclear QMom                               R   N=          22
  0.00000000E+00  2.04400000E+00  0.00000000E+00  0.00000000E+00  0.00000000E+00
  0.00000000E+00  0.00000000E+00  0.00000000E+00  0.00000000E+00  0.00000000E+00
  0.00000000E+00  0.00000000E+00  0.00000000E+00  0.00000000E+00  0.00000000E+00
  0.00000000E+00  0.00000000E+00  0.00000000E+00  0.00000000E+00  0.00000000E+00
  0.00000000E+00  0.00000000E+00
Nuclear GFac                               R   N=          22
  0.00000000E+00  4.03761000E-01  0.00000000E+00  0.00000000E+00  0.00000000E+00
  0.00000000E+00  0.00000000E+00  0.00000000E+00  2.79284600E+00  2.79284600E+00
  2.79284600E+00  2.79284600E+00  2.79284600E+00  2.79284600E+00  2.79284600E+00
  2.79284600E+00  2.79284600E+00  2.79284600E+00  2.79284600E+00  2.79284600E+00
  2.79284600E+00  2.79284600E+00
MicOpt                                     I   N=          22
          -1          -1          -1          -1          -1          -1
          -1          -1          -1          -1          -1          -1
          -1          -1          -1          -1          -1          -1
          -1          -1          -1          -1
Number of residues                         I                0
Number of secondary structures             I                0
Redundant internal dimensions              I   N=           4
         131          22          43          66
Redundant internal coordinate indices      I   N=         524
           1           2           0           0           1           9
           0           0           2           3           0           0
           2          10           0           0           2          22
           0           0           3           4           0           0
           3           8           0           0           3          11
           0           0           4           5           0           0
           4          12           0           0           4          13
           0           0           5           6           0           0
           5          14           0           0           5          15
           0           0           6           7           0           0
           6          16           0           0           6          17
           0           0           7           8           0           0
           7          18           0           0           7          19
           0           0           8          20           0           0
           8          21           0           0           2           1
           9           0           1           2           3           0
           1           2          10           0           1           2
          22           0           3           2          10           0
           3           2          22           0          10           2
          22           0           2           3           4           0
           2           3           8           0           2           3
          11           0           4           3           8           0
           4           3          11           0           8           3
          11           0           3           4           5           0
           3           4          12           0           3           4
          13           0           5           4          12           0
           5           4          13           0          12           4
          13           0           4           5           6           0
           4           5          14           0           4           5
          15           0           6           5          14           0
           6           5          15           0          14           5
          15           0           5           6           7           0
           5           6          16           0           5           6
          17           0           7           6          16           0
           7           6          17           0          16           6
          17           0           6           7           8           0
           6           7          18           0           6           7
          19           0           8           7          18           0
           8           7          19           0          18           7
          19           0           3           8           7           0
           3           8          20           0           3           8
          21           0           7           8          20           0
           7           8          21           0          20           8
          21           0           9           1           2           3
           9           1           2          10           9           1
           2          22           1           2           3           4
           1           2           3           8           1           2
           3          11          10           2           3           4
          10           2           3           8          10           2
           3          11          22           2           3           4
          22           2           3           8          22           2
           3          11           2           3           4           5
           2           3           4          12           2           3
           4          13           8           3           4           5
           8           3           4          12           8           3
           4          13          11           3           4           5
          11           3           4          12          11           3
           4          13           2           3           8           7
           2           3           8          20           2           3
           8          21           4           3           8           7
           4           3           8          20           4           3
           8          21          11           3           8           7
          11           3           8          20          11           3
           8          21           3           4           5           6
           3           4           5          14           3           4
           5          15          12           4           5           6
          12           4           5          14          12           4
           5          15          13           4           5           6
          13           4           5          14          13           4
           5          15           4           5           6           7
           4           5           6          16           4           5
           6          17          14           5           6           7
          14           5           6          16          14           5
           6          17          15           5           6           7
          15           5           6          16          15           5
           6          17           5           6           7           8
           5           6           7          18           5           6
           7          19          16           6           7           8
          16           6           7          18          16           6
           7          19          17           6           7           8
          17           6           7          18          17           6
           7          19           6           7           8           3
           6           7           8          20           6           7
           8          21          18           7           8           3
          18           7           8          20          18           7
           8          21          19           7           8           3
          19           7           8          20          19           7
           8          21
Redundant internal coordinates             R   N=         131
  2.63306796E+00  1.83344265E+00  2.86564871E+00  1.94411206E+00  1.94146360E+00
  2.87509463E+00  2.88312307E+00  2.07212076E+00  2.90020983E+00  2.07505677E+00
  2.06250818E+00  2.88901288E+00  2.06089527E+00  2.07041037E+00  2.88923418E+00
  2.07064415E+00  2.06163370E+00  2.90203781E+00  2.06090547E+00  2.06983262E+00
  2.07418291E+00  2.06879936E+00  1.86450715E+00  2.01718648E+00  1.91554901E+00
  1.81241659E+00  1.93221015E+00  1.90448902E+00  1.87333966E+00  1.91587810E+00
  1.87572630E+00  1.82691568E+00  1.97236015E+00  1.94231119E+00  1.92379886E+00
  1.90541102E+00  1.89925357E+00  1.93589488E+00  1.90708885E+00  1.93612835E+00
  1.87941675E+00  1.94201845E+00  1.89837885E+00  1.90757340E+00  1.93485417E+00
  1.91653276E+00  1.86257957E+00  1.93958029E+00  1.91201335E+00  1.91944745E+00
  1.91188316E+00  1.91590193E+00  1.86345795E+00  1.93925878E+00  1.93630921E+00
  1.91763294E+00  1.89861376E+00  1.90506661E+00  1.86520344E+00  1.90659706E+00
  1.90721510E+00  1.93558218E+00  1.90287161E+00  1.92524085E+00  1.88590941E+00
 -9.43602617E-01  1.25625218E+00 -3.02869857E+00 -1.04276696E+00  3.08896761E+00
  1.04346112E+00  3.04907759E+00  8.97626851E-01 -1.14787964E+00  9.91068758E-01
 -1.16038198E+00  3.07729684E+00 -3.09558464E+00 -1.01545962E+00  1.04894814E+00
 -1.00205678E+00  1.07806823E+00 -3.14070930E+00  1.17346541E+00 -3.02959488E+00
 -9.65187113E-01  3.11895826E+00  1.03853322E+00 -1.03862847E+00  1.00255659E+00
 -1.07786845E+00  3.12815517E+00 -1.18300937E+00  3.01975089E+00  9.42589208E-01
  9.75142548E-01  3.11144059E+00 -1.14437224E+00 -1.10011184E+00  1.03618620E+00
  3.06355868E+00  3.11365512E+00 -1.03323215E+00  9.94140334E-01 -9.84976740E-01
  1.13009637E+00 -3.11010851E+00 -3.10007190E+00 -9.84998793E-01  1.05798163E+00
  1.12930245E+00 -3.03880975E+00 -9.95829321E-01  9.83221348E-01  3.09773149E+00
 -1.12683981E+00 -1.13192812E+00  9.82582016E-01  3.04119603E+00  3.11041864E+00
 -1.05825653E+00  1.00035748E+00 -9.72989062E-01  1.11012648E+00 -3.10481787E+00
 -3.10947916E+00 -1.02636362E+00  1.04187734E+00  1.14445136E+00 -3.05561840E+00
 -9.87377447E-01
ZRed-IntVec                                I   N=         131
           0           0           0           0           0           0
           0           0           0           0           0           0
           0           0           0           0           0           0
           0           0           0           0           0           0
           0           0           0           0           0           0
           0           0           0           0           0           0
           0           0           0           0           0           0
           0           0           0           0           0           0
           0           0           0           0           0           0
           0           0           0           0           0           0
           0           0           0           0           0           0
           0           0           0           0           0           0
           0           0           0           0           0           0
           0           0           0           0           0           0
           0           0           0           0           0           0
           0           0           0           0           0           0
           0           0           0           0           0           0
           0           0           0           0           0           0
           0           0           0           0           0           0
           0           0           0           0           0           0
           0           0           0           0           0           0
           0           0           0           0           0
ZRed-FPVec                                 R   N=         131
  0.00000000E+00  0.00000000E+00  0.00000000E+00  0.00000000E+00  0.00000000E+00
  0.00000000E+00  0.00000000E+00  0.00000000E+00  0.00000000E+00  0.00000000E+00
  0.00000000E+00  0.00000000E+00  0.00000000E+00  0.00000000E+00  0.00000000E+00
  0.00000000E+00  0.00000000E+00  0.00000000E+00  0.00000000E+00  0.00000000E+00
  0.00000000E+00  0.00000000E+00  0.00000000E+00  0.00000000E+00  0.00000000E+00
  0.00000000E+00  0.00000000E+00  0.00000000E+00  0.00000000E+00  0.00000000E+00
  0.00000000E+00  0.00000000E+00  0.00000000E+00  0.00000000E+00  0.00000000E+00
  0.00000000E+00  0.00000000E+00  0.00000000E+00  0.00000000E+00  0.00000000E+00
  0.00000000E+00  0.00000000E+00  0.00000000E+00  0.00000000E+00  0.00000000E+00
  0.00000000E+00  0.00000000E+00  0.00000000E+00  0.00000000E+00  0.00000000E+00
  0.00000000E+00  0.00000000E+00  0.00000000E+00  0.00000000E+00  0.00000000E+00
  0.00000000E+00  0.00000000E+00  0.00000000E+00  0.00000000E+00  0.00000000E+00
  0.00000000E+00  0.00000000E+00  0.00000000E+00  0.00000000E+00  0.00000000E+00
  0.00000000E+00  0.00000000E+00  0.00000000E+00  0.00000000E+00  0.00000000E+00
  0.00000000E+00  0.00000000E+00  0.00000000E+00  0.00000000E+00  0.00000000E+00
  0.00000000E+00  0.00000000E+00  0.00000000E+00  0.00000000E+00  0.00000000E+00
  0.00000000E+00  0.00000000E+00  0.00000000E+00  0.00000000E+00  0.00000000E+00
  0.00000000E+00  0.00000000E+00  0.00000000E+00  0.00000000E+00  0.00000000E+00
  0.00000000E+00  0.00000000E+00  0.00000000E+00  0.00000000E+00  0.00000000E+00
  0.00000000E+00  0.00000000E+00  0.00000000E+00  0.00000000E+00  0.00000000E+00
  0.00000000E+00  0.00000000E+00  0.00000000E+00  0.00000000E+00  0.00000000E+00
  0.00000000E+00  0.00000000E+00  0.00000000E+00  0.00000000E+00  0.00000000E+00
  0.00000000E+00  0.00000000E+00  0.00000000E+00  0.00000000E+00  0.00000000E+00
  0.00000000E+00  0.00000000E+00  0.00000000E+00  0.00000000E+00  0.00000000E+00
  0.00000000E+00  0.00000000E+00  0.00000000E+00  0.00000000E+00  0.00000000E+00
  0.00000000E+00  0.00000000E+00  0.00000000E+00  0.00000000E+00  0.00000000E+00
  0.00000000E+00
ZRed-Constraint1                           R   N=         131
  2.63306796E+00  1.83344265E+00  2.86564871E+00  1.94411206E+00  1.94146360E+00
  2.87509463E+00  2.88312307E+00  2.07212076E+00  2.90020983E+00  2.07505677E+00
  2.06250818E+00  2.88901288E+00  2.06089527E+00  2.07041037E+00  2.88923418E+00
  2.07064415E+00  2.06163370E+00  2.90203781E+00  2.06090547E+00  2.06983262E+00
  2.07418291E+00  2.06879936E+00  1.86450715E+00  2.01718648E+00  1.91554901E+00
  1.81241659E+00  1.93221015E+00  1.90448902E+00  1.87333966E+00  1.91587810E+00
  1.87572630E+00  1.82691568E+00  1.97236015E+00  1.94231119E+00  1.92379886E+00
  1.90541102E+00  1.89925357E+00  1.93589488E+00  1.90708885E+00  1.93612835E+00
  1.87941675E+00  1.94201845E+00  1.89837885E+00  1.90757340E+00  1.93485417E+00
  1.91653276E+00  1.86257957E+00  1.93958029E+00  1.91201335E+00  1.91944745E+00
  1.91188316E+00  1.91590193E+00  1.86345795E+00  1.93925878E+00  1.93630921E+00
  1.91763294E+00  1.89861376E+00  1.90506661E+00  1.86520344E+00  1.90659706E+00
  1.90721510E+00  1.93558218E+00  1.90287161E+00  1.92524085E+00  1.88590941E+00
 -9.43602617E-01  1.25625218E+00 -3.02869857E+00 -1.04276696E+00  3.08896761E+00
  1.04346112E+00  3.04907759E+00  8.97626851E-01 -1.14787964E+00  9.91068758E-01
 -1.16038198E+00  3.07729684E+00 -3.09558464E+00 -1.01545962E+00  1.04894814E+00
 -1.00205678E+00  1.07806823E+00 -3.14070930E+00  1.17346541E+00 -3.02959488E+00
 -9.65187113E-01  3.11895826E+00  1.03853322E+00 -1.03862847E+00  1.00255659E+00
 -1.07786845E+00  3.12815517E+00 -1.18300937E+00  3.01975089E+00  9.42589208E-01
  9.75142548E-01  3.11144059E+00 -1.14437224E+00 -1.10011184E+00  1.03618620E+00
  3.06355868E+00  3.11365512E+00 -1.03323215E+00  9.94140334E-01 -9.84976740E-01
  1.13009637E+00 -3.11010851E+00 -3.10007190E+00 -9.84998793E-01  1.05798163E+00
  1.12930245E+00 -3.03880975E+00 -9.95829321E-01  9.83221348E-01  3.09773149E+00
 -1.12683981E+00 -1.13192812E+00  9.82582016E-01  3.04119603E+00  3.11041864E+00
 -1.05825653E+00  1.00035748E+00 -9.72989062E-01  1.11012648E+00 -3.10481787E+00
 -3.10947916E+00 -1.02636362E+00  1.04187734E+00  1.14445136E+00 -3.05561840E+00
 -9.87377447E-01
ZRed-Constraint2                           R   N=         131
  2.56805672E+00  1.81406091E+00  2.79727419E+00  1.88972612E+00  1.88972612E+00
  2.94416753E+00  2.93999926E+00  2.05980109E+00  2.93009901E+00  2.05981092E+00
  2.05990134E+00  2.92831032E+00  2.05981096E+00  2.05986500E+00  2.92987506E+00
  2.05967195E+00  2.05990808E+00  2.93127237E+00  2.05993042E+00  2.05971371E+00
  2.05970439E+00  2.05981729E+00  1.91072455E+00  1.93813464E+00  1.90506246E+00
  1.90506246E+00  1.90506246E+00  1.90506246E+00  1.90519248E+00  1.94704389E+00
  1.90477977E+00  1.84711605E+00  1.93123024E+00  1.89579542E+00  1.93644994E+00
  1.95370947E+00  1.85598219E+00  1.85599162E+00  1.85284357E+00  1.85286980E+00
  2.09429756E+00  1.95479160E+00  1.85444180E+00  1.85435014E+00  1.85393892E+00
  1.85390826E+00  2.09441631E+00  1.95069354E+00  1.85480106E+00  1.85485188E+00
  1.85530831E+00  1.85521039E+00  2.09442033E+00  1.95658991E+00  1.85358512E+00
  1.85370421E+00  1.85389259E+00  1.85394156E+00  2.09437919E+00  1.95832716E+00
  1.85441078E+00  1.85442803E+00  1.85237614E+00  1.85231684E+00  2.09446648E+00
 -1.64503714E+00  4.56029030E-01  2.53708200E+00 -1.13780466E+00  3.00596860E+00
  9.21027121E-01  3.04431448E+00  9.04902435E-01 -1.18003905E+00  9.63261508E-01
 -1.17615054E+00  3.02209329E+00 -3.07602631E+00 -1.05988193E+00  1.19097773E+00
 -9.51847953E-01  1.06429642E+00 -2.96802922E+00  1.17780337E+00 -3.08923756E+00
 -8.38377894E-01  3.09461474E+00  1.07756466E+00 -1.17158133E+00  9.45750155E-01
 -1.07129992E+00  2.96273940E+00 -1.15987493E+00  3.10626030E+00  8.57114306E-01
  9.51911990E-01  2.96902145E+00 -1.06510696E+00 -1.06614423E+00  9.50965226E-01
 -3.08316318E+00  2.96999484E+00 -1.29608101E+00  9.52975891E-01 -9.29197827E-01
  1.08764505E+00 -2.94595344E+00 -2.94661322E+00 -9.29770343E-01  1.31981647E+00
  1.08808997E+00  3.10493285E+00 -9.28665641E-01  9.21564671E-01  2.93904360E+00
 -1.09604307E+00 -1.09496816E+00  9.22510769E-01 -3.11257590E+00  2.93810114E+00
 -1.32760524E+00  9.20493403E-01 -9.38587379E-01  1.07969558E+00 -2.95685590E+00
 -2.95587962E+00 -9.37596665E-01  1.30903717E+00  1.07887626E+00  3.09715921E+00
 -9.39392260E-01
SymInf integers                            I   N=          26
           1           1           1           1           1           0
           0           0           0           0           0           0
           0           0           0           0           0           0
           0           0           0           0           0           0
           0           0
RotTr to input orientation                 R   N=          12
  6.98973667E-01  6.95216758E-01  1.67658797E-01  5.97415789E-01 -4.38764608E-01
 -6.71252556E-01 -3.93103279E-01  5.69349873E-01 -7.22018375E-01 -1.63913585E+00
 -2.88705343E+00 -4.78373547E-01
Number of contracted shells                I              118
Number of primitive shells                 I              202
Pure/Cartesian d shells                    I                0
Pure/Cartesian f shells                    I                0
Highest angular momentum                   I                2
Largest degree of contraction              I                6
Shell types                                I   N=         118
           0          -1          -1          -1          -1          -2
           0          -1          -1          -1          -1          -2
           0          -1          -1          -1          -1          -2
           0          -1          -1          -1          -1          -2
           0          -1          -1          -1          -1          -2
           0          -1          -1          -1          -1          -2
           0          -1          -1          -1          -1          -2
           0          -1          -1          -1          -1          -2
           0           0           0           0           1           0
           0           0           0           1           0           0
           0           0           1           0           0           0
           0           1           0           0           0           0
           1           0           0           0           0           1
           0           0           0           0           1           0
           0           0           0           1           0           0
           0           0           1           0           0           0
           0           1           0           0           0           0
           1           0           0           0           0           1
           0           0           0           0           1           0
           0           0           0           1
Number of primitives per shell             I   N=         118
           6           3           1           1           1           1
           6           3           1           1           1           1
           6           3           1           1           1           1
           6           3           1           1           1           1
           6           3           1           1           1           1
           6           3           1           1           1           1
           6           3           1           1           1           1
           6           3           1           1           1           1
           3           1           1           1           1           3
           1           1           1           1           3           1
           1           1           1           3           1           1
           1           1           3           1           1           1
           1           3           1           1           1           1
           3           1           1           1           1           3
           1           1           1           1           3           1
           1           1           1           3           1           1
           1           1           3           1           1           1
           1           3           1           1           1           1
           3           1           1           1           1           3
           1           1           1           1
Shell to atom map                          I   N=         118
           1           1           1           1           1           1
           2           2           2           2           2           2
           3           3           3           3           3           3
           4           4           4           4           4           4
           5           5           5           5           5           5
           6           6           6           6           6           6
           7           7           7           7           7           7
           8           8           8           8           8           8
           9           9           9           9           9          10
          10          10          10          10          11          11
          11          11          11          12          12          12