 Entering Gaussian System, Link 0=/apps/cent7/gaussian/g16-A.03/g16-haswell/g16/g16
 Initial command:
 /apps/cent7/gaussian/g16-A.03/g16-haswell/g16/l1.exe "/scratch/brown/finej/gaussian/Gau-327615.inp" -scrdir="/scratch/brown/finej/gaussian/"
 Entering Link 1 = /apps/cent7/gaussian/g16-A.03/g16-haswell/g16/l1.exe PID=    327616.
  
 Copyright (c) 1988,1990,1992,1993,1995,1998,2003,2009,2016,
            Gaussian, Inc.  All Rights Reserved.
  
 This is part of the Gaussian(R) 16 program.  It is based on
 the Gaussian(R) 09 system (copyright 2009, Gaussian, Inc.),
 the Gaussian(R) 03 system (copyright 2003, Gaussian, Inc.),
 the Gaussian(R) 98 system (copyright 1998, Gaussian, Inc.),
 the Gaussian(R) 94 system (copyright 1995, Gaussian, Inc.),
 the Gaussian 92(TM) system (copyright 1992, Gaussian, Inc.),
 the Gaussian 90(TM) system (copyright 1990, Gaussian, Inc.),
 the Gaussian 88(TM) system (copyright 1988, Gaussian, Inc.),
 the Gaussian 86(TM) system (copyright 1986, Carnegie Mellon
 University), and the Gaussian 82(TM) system (copyright 1983,
 Carnegie Mellon University). Gaussian is a federally registered
 trademark of Gaussian, Inc.
  
 This software contains proprietary and confidential information,
 including trade secrets, belonging to Gaussian, Inc.
  
 This software is provided under written license and may be
 used, copied, transmitted, or stored only in accord with that
 written license.
  
 The following legend is applicable only to US Government
 contracts under FAR:
  
                    RESTRICTED RIGHTS LEGEND
  
 Use, reproduction and disclosure by the US Government is
 subject to restrictions as set forth in subparagraphs (a)
 and (c) of the Commercial Computer Software - Restricted
 Rights clause in FAR 52.227-19.
  
 Gaussian, Inc.
 340 Quinnipiac St., Bldg. 40, Wallingford CT 06492
  
  
 ---------------------------------------------------------------
 Warning -- This program may not be used in any manner that
 competes with the business of Gaussian, Inc. or will provide
 assistance to any competitor of Gaussian, Inc.  The licensee
 of this program is prohibited from giving any competitor of
 Gaussian, Inc. access to this program.  By using this program,
 the user acknowledges that Gaussian, Inc. is engaged in the
 business of creating and licensing software in the field of
 computational chemistry and represents and warrants to the
 licensee that it is not a competitor of Gaussian, Inc. and that
 it will not use this program in any manner prohibited above.
 ---------------------------------------------------------------
  

 Cite this work as:
 Gaussian 16, Revision A.03,
 M. J. Frisch, G. W. Trucks, H. B. Schlegel, G. E. Scuseria, 
 M. A. Robb, J. R. Cheeseman, G. Scalmani, V. Barone, 
 G. A. Petersson, H. Nakatsuji, X. Li, M. Caricato, A. V. Marenich, 
 J. Bloino, B. G. Janesko, R. Gomperts, B. Mennucci, H. P. Hratchian, 
 J. V. Ortiz, A. F. Izmaylov, J. L. Sonnenberg, D. Williams-Young, 
 F. Ding, F. Lipparini, F. Egidi, J. Goings, B. Peng, A. Petrone, 
 T. Henderson, D. Ranasinghe, V. G. Zakrzewski, J. Gao, N. Rega, 
 G. Zheng, W. Liang, M. Hada, M. Ehara, K. Toyota, R. Fukuda, 
 J. Hasegawa, M. Ishida, T. Nakajima, Y. Honda, O. Kitao, H. Nakai, 
 T. Vreven, K. Throssell, J. A. Montgomery, Jr., J. E. Peralta, 
 F. Ogliaro, M. J. Bearpark, J. J. Heyd, E. N. Brothers, K. N. Kudin, 
 V. N. Staroverov, T. A. Keith, R. Kobayashi, J. Normand, 
 K. Raghavachari, A. P. Rendell, J. C. Burant, S. S. Iyengar, 
 J. Tomasi, M. Cossi, J. M. Millam, M. Klene, C. Adamo, R. Cammi, 
 J. W. Ochterski, R. L. Martin, K. Morokuma, O. Farkas, 
 J. B. Foresman, and D. J. Fox, Gaussian, Inc., Wallingford CT, 2016.
 
 ******************************************
 Gaussian 16:  ES64L-G16RevA.03 25-Dec-2016
                30-Dec-2019 
 ******************************************
 %chk=11_p_b.chk
 %nprocshared=24
 Will use up to   24 processors via shared memory.
 %mem=80GB
 -------------------------------------------------------------------
 #p opt freq m062x/6-311++g(d,p) geom=connectivity temperature=0.001
 -------------------------------------------------------------------
 1/18=20,19=15,26=3,38=1,57=2,112=-1000/1,3;
 2/9=110,12=2,17=6,18=5,40=1/2;
 3/5=4,6=6,7=1111,11=2,25=1,30=1,71=1,74=-55/1,2,3;
 4//1;
 5/5=2,38=5/2;
 6/7=2,8=2,9=2,10=2,28=1/1;
 7//1,2,3,16;
 1/18=20,19=15,26=3/3(2);
 2/9=110/2;
 99//99;
 2/9=110/2;
 3/5=4,6=6,7=1111,11=2,25=1,30=1,71=1,74=-55/1,2,3;
 4/5=5,16=3,69=1/1;
 5/5=2,38=5/2;
 7//1,2,3,16;
 1/18=20,19=15,26=3/3(-5);
 2/9=110/2;
 6/7=2,8=2,9=2,10=2,19=2,28=1/1;
 99/9=1/99;
 Leave Link    1 at Mon Dec 30 16:43:54 2019, MaxMem= 10737418240 cpu:               1.8 elap:               0.1
 (Enter /apps/cent7/gaussian/g16-A.03/g16-haswell/g16/l101.exe)
 -------------------
 Title Card Required
 -------------------
 Symbolic Z-matrix:
 Charge =  1 Multiplicity = 1
 O                     1.4691    0.1099    0.0818 
 N                     0.1166    0.1616    0.2036 
 C                    -0.4743   -1.1945    0.149 
 C                    -0.2616   -1.8559   -1.2455 
 C                    -0.9574   -3.2381   -1.3433 
 C                    -2.4641   -3.1558   -0.9907 
 C                    -2.6964   -2.4816    0.386 
 C                    -1.99     -1.1044    0.4881 
 H                     2.02128   0.08868   0.86682 
 H                    -0.3611    1.0446    0.3143 
 H                     0.0583   -1.7813    0.8974 
 H                    -0.7617   -1.2126   -1.9695 
 H                     0.8078   -2.0476   -1.3341 
 H                    -0.9056   -3.5322   -2.3916 
 H                    -0.4994   -3.8649   -0.5781 
 H                    -2.9161   -2.4985   -1.7334 
 H                    -2.8109   -4.1843   -0.89 
 H                    -3.7659   -2.2807    0.4497 
 H                    -2.2178   -3.1248    1.1244 
 H                    -2.438    -0.4764   -0.2819 
 H                    -2.0512   -0.8096    1.5357 
 H                     1.87236   0.0946   -0.78926 
 
 ITRead=  0  0  0  0  0  0  0  0  0  0  0  0  0  0  0  0  0  0  0  0
 ITRead=  0  0
 MicOpt= -1 -1 -1 -1 -1 -1 -1 -1 -1 -1 -1 -1 -1 -1 -1 -1 -1 -1 -1 -1
 MicOpt= -1 -1
 NAtoms=     22 NQM=       22 NQMF=       0 NMMI=      0 NMMIF=      0
                NMic=       0 NMicF=      0.
                    Isotopes and Nuclear Properties:
 (Nuclear quadrupole moments (NQMom) in fm**2, nuclear magnetic moments (NMagM)
  in nuclear magnetons)

  Atom         1           2           3           4           5           6           7           8           9          10
 IAtWgt=          16          14          12          12          12          12          12          12           1           1
 AtmWgt=  15.9949146  14.0030740  12.0000000  12.0000000  12.0000000  12.0000000  12.0000000  12.0000000   1.0078250   1.0078250
 NucSpn=           0           2           0           0           0           0           0           0           1           1
 AtZEff=  -0.0000000  -0.0000000  -0.0000000  -0.0000000  -0.0000000  -0.0000000  -0.0000000  -0.0000000  -0.0000000  -0.0000000
 NQMom=    0.0000000   2.0440000   0.0000000   0.0000000   0.0000000   0.0000000   0.0000000   0.0000000   0.0000000   0.0000000
 NMagM=    0.0000000   0.4037610   0.0000000   0.0000000   0.0000000   0.0000000   0.0000000   0.0000000   2.7928460   2.7928460
 AtZNuc=   8.0000000   7.0000000   6.0000000   6.0000000   6.0000000   6.0000000   6.0000000   6.0000000   1.0000000   1.0000000

  Atom        11          12          13          14          15          16          17          18          19          20
 IAtWgt=           1           1           1           1           1           1           1           1           1           1
 AtmWgt=   1.0078250   1.0078250   1.0078250   1.0078250   1.0078250   1.0078250   1.0078250   1.0078250   1.0078250   1.0078250
 NucSpn=           1           1           1           1           1           1           1           1           1           1
 AtZEff=  -0.0000000  -0.0000000  -0.0000000  -0.0000000  -0.0000000  -0.0000000  -0.0000000  -0.0000000  -0.0000000  -0.0000000
 NQMom=    0.0000000   0.0000000   0.0000000   0.0000000   0.0000000   0.0000000   0.0000000   0.0000000   0.0000000   0.0000000
 NMagM=    2.7928460   2.7928460   2.7928460   2.7928460   2.7928460   2.7928460   2.7928460   2.7928460   2.7928460   2.7928460
 AtZNuc=   1.0000000   1.0000000   1.0000000   1.0000000   1.0000000   1.0000000   1.0000000   1.0000000   1.0000000   1.0000000

  Atom        21          22
 IAtWgt=           1           1
 AtmWgt=   1.0078250   1.0078250
 NucSpn=           1           1
 AtZEff=  -0.0000000  -0.0000000
 NQMom=    0.0000000   0.0000000
 NMagM=    2.7928460   2.7928460
 AtZNuc=   1.0000000   1.0000000
 Leave Link  101 at Mon Dec 30 16:43:55 2019, MaxMem= 10737418240 cpu:               8.4 elap:               0.4
 (Enter /apps/cent7/gaussian/g16-A.03/g16-haswell/g16/l103.exe)

 GradGradGradGradGradGradGradGradGradGradGradGradGradGradGradGradGradGrad
 Berny optimization.
 Initialization pass.
                           ----------------------------
                           !    Initial Parameters    !
                           ! (Angstroms and Degrees)  !
 --------------------------                            --------------------------
 ! Name  Definition              Value          Derivative Info.                !
 --------------------------------------------------------------------------------
 ! R1    R(1,2)                  1.359          estimate D2E/DX2                !
 ! R2    R(1,9)                  0.96           estimate D2E/DX2                !
 ! R3    R(1,22)                 0.96           estimate D2E/DX2                !
 ! R4    R(2,3)                  1.4803         estimate D2E/DX2                !
 ! R5    R(2,10)                 1.01           estimate D2E/DX2                !
 ! R6    R(3,4)                  1.558          estimate D2E/DX2                !
 ! R7    R(3,8)                  1.5558         estimate D2E/DX2                !
 ! R8    R(3,11)                 1.09           estimate D2E/DX2                !
 ! R9    R(4,5)                  1.5505         estimate D2E/DX2                !
 ! R10   R(4,12)                 1.09           estimate D2E/DX2                !
 ! R11   R(4,13)                 1.0901         estimate D2E/DX2                !
 ! R12   R(5,6)                  1.5496         estimate D2E/DX2                !
 ! R13   R(5,14)                 1.09           estimate D2E/DX2                !
 ! R14   R(5,15)                 1.09           estimate D2E/DX2                !
 ! R15   R(6,7)                  1.5504         estimate D2E/DX2                !
 ! R16   R(6,16)                 1.0899         estimate D2E/DX2                !
 ! R17   R(6,17)                 1.0901         estimate D2E/DX2                !
 ! R18   R(7,8)                  1.5512         estimate D2E/DX2                !
 ! R19   R(7,18)                 1.0901         estimate D2E/DX2                !
 ! R20   R(7,19)                 1.09           estimate D2E/DX2                !
 ! R21   R(8,20)                 1.0899         estimate D2E/DX2                !
 ! R22   R(8,21)                 1.09           estimate D2E/DX2                !
 ! A1    A(2,1,9)              120.0            estimate D2E/DX2                !
 ! A2    A(2,1,22)             120.0            estimate D2E/DX2                !
 ! A3    A(9,1,22)             120.0            estimate D2E/DX2                !
 ! A4    A(1,2,3)              111.0469         estimate D2E/DX2                !
 ! A5    A(1,2,10)             120.917          estimate D2E/DX2                !
 ! A6    A(3,2,10)             128.036          estimate D2E/DX2                !
 ! A7    A(2,3,4)              111.5574         estimate D2E/DX2                !
 ! A8    A(2,3,8)              109.1358         estimate D2E/DX2                !
 ! A9    A(2,3,11)             105.832          estimate D2E/DX2                !
 ! A10   A(4,3,8)              110.6513         estimate D2E/DX2                !
 ! A11   A(4,3,11)             108.6211         estimate D2E/DX2                !
 ! A12   A(8,3,11)             110.9504         estimate D2E/DX2                !
 ! A13   A(3,4,5)              111.9393         estimate D2E/DX2                !
 ! A14   A(3,4,12)             106.3399         estimate D2E/DX2                !
 ! A15   A(3,4,13)             106.3405         estimate D2E/DX2                !
 ! A16   A(5,4,12)             106.1601         estimate D2E/DX2                !
 ! A17   A(5,4,13)             106.1616         estimate D2E/DX2                !
 ! A18   A(12,4,13)            119.9944         estimate D2E/DX2                !
 ! A19   A(4,5,6)              112.0013         estimate D2E/DX2                !
 ! A20   A(4,5,14)             106.2517         estimate D2E/DX2                !
 ! A21   A(4,5,15)             106.2464         estimate D2E/DX2                !
 ! A22   A(6,5,14)             106.2229         estimate D2E/DX2                !
 ! A23   A(6,5,15)             106.2211         estimate D2E/DX2                !
 ! A24   A(14,5,15)            120.0012         estimate D2E/DX2                !
 ! A25   A(5,6,7)              111.7665         estimate D2E/DX2                !
 ! A26   A(5,6,16)             106.2723         estimate D2E/DX2                !
 ! A27   A(5,6,17)             106.2752         estimate D2E/DX2                !
 ! A28   A(7,6,16)             106.3013         estimate D2E/DX2                !
 ! A29   A(7,6,17)             106.2957         estimate D2E/DX2                !
 ! A30   A(16,6,17)            120.0014         estimate D2E/DX2                !
 ! A31   A(6,7,8)              112.1043         estimate D2E/DX2                !
 ! A32   A(6,7,18)             106.2026         estimate D2E/DX2                !
 ! A33   A(6,7,19)             106.2094         estimate D2E/DX2                !
 ! A34   A(8,7,18)             106.2202         estimate D2E/DX2                !
 ! A35   A(8,7,19)             106.223          estimate D2E/DX2                !
 ! A36   A(18,7,19)            119.9991         estimate D2E/DX2                !
 ! A37   A(3,8,7)              112.2039         estimate D2E/DX2                !
 ! A38   A(3,8,20)             106.2499         estimate D2E/DX2                !
 ! A39   A(3,8,21)             106.2509         estimate D2E/DX2                !
 ! A40   A(7,8,20)             106.1333         estimate D2E/DX2                !
 ! A41   A(7,8,21)             106.1299         estimate D2E/DX2                !
 ! A42   A(20,8,21)            120.0041         estimate D2E/DX2                !
 ! D1    D(9,1,2,3)            -94.2537         estimate D2E/DX2                !
 ! D2    D(9,1,2,10)            85.7425         estimate D2E/DX2                !
 ! D3    D(22,1,2,3)            85.7463         estimate D2E/DX2                !
 ! D4    D(22,1,2,10)          -94.2575         estimate D2E/DX2                !
 ! D5    D(1,2,3,4)            -65.1914         estimate D2E/DX2                !
 ! D6    D(1,2,3,8)            172.2293         estimate D2E/DX2                !
 ! D7    D(1,2,3,11)            52.771          estimate D2E/DX2                !
 ! D8    D(10,2,3,4)           114.8127         estimate D2E/DX2                !
 ! D9    D(10,2,3,8)            -7.7666         estimate D2E/DX2                !
 ! D10   D(10,2,3,11)         -127.2249         estimate D2E/DX2                !
 ! D11   D(2,3,4,5)           -176.2433         estimate D2E/DX2                !
 ! D12   D(2,3,4,12)           -60.7268         estimate D2E/DX2                !
 ! D13   D(2,3,4,13)            68.238          estimate D2E/DX2                !
 ! D14   D(8,3,4,5)            -54.5369         estimate D2E/DX2                !
 ! D15   D(8,3,4,12)            60.9797         estimate D2E/DX2                !
 ! D16   D(8,3,4,13)          -170.0555         estimate D2E/DX2                !
 ! D17   D(11,3,4,5)            67.4832         estimate D2E/DX2                !
 ! D18   D(11,3,4,12)         -177.0003         estimate D2E/DX2                !
 ! D19   D(11,3,4,13)          -48.0355         estimate D2E/DX2                !
 ! D20   D(2,3,8,7)            177.3084         estimate D2E/DX2                !
 ! D21   D(2,3,8,20)            61.7399         estimate D2E/DX2                !
 ! D22   D(2,3,8,21)           -67.1267         estimate D2E/DX2                !
 ! D23   D(4,3,8,7)             54.1875         estimate D2E/DX2                !
 ! D24   D(4,3,8,20)           -61.381          estimate D2E/DX2                !
 ! D25   D(4,3,8,21)           169.7525         estimate D2E/DX2                !
 ! D26   D(11,3,8,7)           -66.4559         estimate D2E/DX2                !
 ! D27   D(11,3,8,20)          177.9756         estimate D2E/DX2                !
 ! D28   D(11,3,8,21)           49.109          estimate D2E/DX2                !
 ! D29   D(3,4,5,6)             54.5405         estimate D2E/DX2                !
 ! D30   D(3,4,5,14)           170.1124         estimate D2E/DX2                !
 ! D31   D(3,4,5,15)           -61.0261         estimate D2E/DX2                !
 ! D32   D(12,4,5,6)           -61.0856         estimate D2E/DX2                !
 ! D33   D(12,4,5,14)           54.4863         estimate D2E/DX2                !
 ! D34   D(12,4,5,15)         -176.6522         estimate D2E/DX2                !
 ! D35   D(13,4,5,6)           170.1682         estimate D2E/DX2                !
 ! D36   D(13,4,5,14)          -74.26           estimate D2E/DX2                !
 ! D37   D(13,4,5,15)           54.6015         estimate D2E/DX2                !
 ! D38   D(4,5,6,7)            -53.2391         estimate D2E/DX2                !
 ! D39   D(4,5,6,16)            62.3175         estimate D2E/DX2                !
 ! D40   D(4,5,6,17)          -168.7907         estimate D2E/DX2                !
 ! D41   D(14,5,6,7)          -168.8285         estimate D2E/DX2                !
 ! D42   D(14,5,6,16)          -53.2719         estimate D2E/DX2                !
 ! D43   D(14,5,6,17)           75.6199         estimate D2E/DX2                !
 ! D44   D(15,5,6,7)            62.343          estimate D2E/DX2                !
 ! D45   D(15,5,6,16)          177.8995         estimate D2E/DX2                !
 ! D46   D(15,5,6,17)          -53.2086         estimate D2E/DX2                !
 ! D47   D(5,6,7,8)             52.8018         estimate D2E/DX2                !
 ! D48   D(5,6,7,18)           168.3948         estimate D2E/DX2                !
 ! D49   D(5,6,7,19)           -62.7986         estimate D2E/DX2                !
 ! D50   D(16,6,7,8)           -62.7371         estimate D2E/DX2                !
 ! D51   D(16,6,7,18)           52.856          estimate D2E/DX2                !
 ! D52   D(16,6,7,19)         -178.3375         estimate D2E/DX2                !
 ! D53   D(17,6,7,8)           168.3408         estimate D2E/DX2                !
 ! D54   D(17,6,7,18)          -76.0662         estimate D2E/DX2                !
 ! D55   D(17,6,7,19)           52.7404         estimate D2E/DX2                !
 ! D56   D(6,7,8,3)            -53.7771         estimate D2E/DX2                !
 ! D57   D(6,7,8,20)            61.862          estimate D2E/DX2                !
 ! D58   D(6,7,8,21)          -169.4154         estimate D2E/DX2                !
 ! D59   D(18,7,8,3)          -169.3594         estimate D2E/DX2                !
 ! D60   D(18,7,8,20)          -53.7203         estimate D2E/DX2                !
 ! D61   D(18,7,8,21)           75.0023         estimate D2E/DX2                !
 ! D62   D(19,7,8,3)            61.8151         estimate D2E/DX2                !
 ! D63   D(19,7,8,20)          177.4542         estimate D2E/DX2                !
 ! D64   D(19,7,8,21)          -53.8232         estimate D2E/DX2                !
 --------------------------------------------------------------------------------
 Trust Radius=3.00D-01 FncErr=1.00D-07 GrdErr=1.00D-06 EigMax=2.50D+02 EigMin=1.00D-04
 Number of steps in this run=    132 maximum allowed number of steps=    132.
 GradGradGradGradGradGradGradGradGradGradGradGradGradGradGradGradGradGrad

 Leave Link  103 at Mon Dec 30 16:43:55 2019, MaxMem= 10737418240 cpu:               0.3 elap:               0.0
 (Enter /apps/cent7/gaussian/g16-A.03/g16-haswell/g16/l202.exe)
                          Input orientation:                          
 ---------------------------------------------------------------------
 Center     Atomic      Atomic             Coordinates (Angstroms)
 Number     Number       Type             X           Y           Z
 ---------------------------------------------------------------------
      1          8           0        1.469100    0.109900    0.081800
      2          7           0        0.116600    0.161600    0.203600
      3          6           0       -0.474300   -1.194500    0.149000
      4          6           0       -0.261600   -1.855900   -1.245500
      5          6           0       -0.957400   -3.238100   -1.343300
      6          6           0       -2.464100   -3.155800   -0.990700
      7          6           0       -2.696400   -2.481600    0.386000
      8          6           0       -1.990000   -1.104400    0.488100
      9          1           0        2.021275    0.088678    0.866817
     10          1           0       -0.361100    1.044600    0.314300
     11          1           0        0.058300   -1.781300    0.897400
     12          1           0       -0.761700   -1.212600   -1.969500
     13          1           0        0.807800   -2.047600   -1.334100
     14          1           0       -0.905600   -3.532200   -2.391600
     15          1           0       -0.499400   -3.864900   -0.578100
     16          1           0       -2.916100   -2.498500   -1.733400
     17          1           0       -2.810900   -4.184300   -0.890000
     18          1           0       -3.765900   -2.280700    0.449700
     19          1           0       -2.217800   -3.124800    1.124400
     20          1           0       -2.438000   -0.476400   -0.281900
     21          1           0       -2.051200   -0.809600    1.535700
     22          1           0        1.872363    0.094600   -0.789260
 ---------------------------------------------------------------------
                    Distance matrix (angstroms):
                    1          2          3          4          5
     1  O    0.000000
     2  N    1.358957   0.000000
     3  C    2.341533   1.480254   0.000000
     4  C    2.936225   2.512615   1.557986   0.000000
     5  C    4.373547   3.886430   2.576169   1.550542   0.000000
     6  C    5.223516   4.369383   3.017436   2.570150   1.549595
     7  C    4.915262   3.864291   2.578861   2.996922   2.566494
     8  C    3.688493   2.474158   1.555781   2.560759   2.995491
     9  H    0.960000   2.018158   2.896499   3.668077   4.982427
    10  H    2.068176   1.010020   2.248045   3.294811   4.630846
    11  H    2.496437   2.063884   1.090000   2.167930   2.859134
    12  H    3.306555   2.717020   2.137982   1.090005   2.129102
    13  H    2.664000   2.779000   2.138024   1.090053   2.129156
    14  H    5.002180   4.628619   3.479297   2.130320   1.090005
    15  H    4.484361   4.147676   2.767732   2.130271   1.090034
    16  H    5.415596   4.474972   3.347571   2.774410   2.129716
    17  H    6.140273   5.352856   3.934225   3.470844   2.129844
    18  H    5.766762   4.593387   3.479207   3.915900   3.466863
    19  H    5.014333   4.134939   2.777995   3.324643   2.773263
    20  H    3.967550   2.677449   2.134821   2.751047   3.308434
    21  H    3.918140   2.723431   2.134877   3.468787   3.922072
    22  H    0.960000   2.018158   2.837065   2.926842   4.406973
                    6          7          8          9         10
     6  C    0.000000
     7  C    1.550423   0.000000
     8  C    2.572909   1.551163   0.000000
     9  H    5.839144   5.393883   4.202046   0.000000
    10  H    4.875346   4.229994   2.702170   2.625790   0.000000
    11  H    3.437539   2.887962   2.195735   2.711277   2.915753
    12  H    2.762651   3.301788   2.749586   4.181264   3.235919
    13  H    3.471507   3.927661   3.469542   3.298521   3.693948
    14  H    2.129112   3.467822   3.919542   5.682837   5.344668
    15  H    2.129110   2.769443   3.313462   4.906360   4.991863
    16  H    1.089931   2.130824   2.781409   6.150796   4.824382
    17  H    1.090056   2.130839   3.472581   6.685407   5.898581
    18  H    2.129609   1.090068   2.130488   6.267323   4.761157
    19  H    2.129618   1.089954   2.130443   5.325650   4.635460
    20  H    2.771690   2.129246   1.089949   4.639397   2.642425
    21  H    3.472440   2.129243   1.090008   4.223667   2.790397
    22  H    5.423153   5.375094   4.241120   1.662769   2.666215
                   11         12         13         14         15
    11  H    0.000000
    12  H    3.035611   0.000000
    13  H    2.369021   1.887932   0.000000
    14  H    3.848672   2.362080   2.501616   0.000000
    15  H    2.613335   3.006575   2.362813   1.887980   0.000000
    16  H    4.035163   2.520064   3.772291   2.354543   3.007026
    17  H    4.147471   3.767697   4.225837   2.512012   2.354215
    18  H    3.882569   4.002322   4.914775   4.221440   3.773074
    19  H    2.652763   3.917774   4.044606   3.774930   2.529655
    20  H    3.053691   2.489973   3.756463   4.017088   3.915078
    21  H    2.408655   3.756547   4.235833   4.914126   4.026300
    22  H    3.107193   3.168600   2.453399   4.841307   4.620334
                   16         17         18         19         20
    16  H    0.000000
    17  H    1.887939   0.000000
    18  H    2.352769   2.516051   0.000000
    19  H    3.007806   2.352045   1.887946   0.000000
    20  H    2.534624   3.775892   2.356704   3.006691   0.000000
    21  H    3.779874   4.224898   2.506736   2.357345   1.887937
    22  H    5.526748   6.344453   6.242362   5.545815   4.377520
                   21         22
    21  H    0.000000
    22  H    4.649447   0.000000
 Stoichiometry    C6H14NO(1+)
 Framework group  C1[X(C6H14NO)]
 Deg. of freedom    60
 Full point group                 C1      NOp   1
 Largest Abelian subgroup         C1      NOp   1
 Largest concise Abelian subgroup C1      NOp   1
                         Standard orientation:                         
 ---------------------------------------------------------------------
 Center     Atomic      Atomic             Coordinates (Angstroms)
 Number     Number       Type             X           Y           Z
 ---------------------------------------------------------------------
      1          8           0       -2.841937    0.313819    0.178163
      2          7           0       -1.915860   -0.565288   -0.286935
      3          6           0       -0.569012   -0.245710    0.237490
      4          6           0       -0.060356    1.128914   -0.290713
      5          6           0        1.386790    1.429968    0.177598
      6          6           0        2.367826    0.291437   -0.199971
      7          6           0        1.867573   -1.088094    0.300480
      8          6           0        0.415429   -1.383741   -0.157751
      9          1           0       -3.350944    0.103602    0.964496
     10          1           0       -2.179778   -1.317173   -0.907546
     11          1           0       -0.678493   -0.183636    1.320199
     12          1           0       -0.016171    1.042940   -1.376424
     13          1           0       -0.692572    1.887691    0.170562
     14          1           0        1.711167    2.308764   -0.379724
     15          1           0        1.355567    1.456265    1.266867
     16          1           0        2.370700    0.239285   -1.288651
     17          1           0        3.293576    0.494798    0.338410
     18          1           0        2.497595   -1.834155   -0.183994
     19          1           0        1.836638   -1.024263    1.388123
     20          1           0        0.439354   -1.401602   -1.247290
     21          1           0        0.097501   -2.267748    0.395036
     22          1           0       -2.987132    1.145058   -0.279614
 ---------------------------------------------------------------------
 Rotational constants (GHZ):           3.8752709           1.2813640           1.0355089
 Leave Link  202 at Mon Dec 30 16:43:55 2019, MaxMem= 10737418240 cpu:               0.7 elap:               0.0
 (Enter /apps/cent7/gaussian/g16-A.03/g16-haswell/g16/l301.exe)
 Standard basis: 6-311++G(d,p) (5D, 7F)
 Ernie: Thresh=  0.10000D-02 Tol=  0.10000D-05 Strict=F.
 There are   282 symmetry adapted cartesian basis functions of A   symmetry.
 There are   274 symmetry adapted basis functions of A   symmetry.
   274 basis functions,   414 primitive gaussians,   282 cartesian basis functions
    32 alpha electrons       32 beta electrons
       nuclear repulsion energy       419.5663788267 Hartrees.
 IExCor= 4336 DFT=T Ex+Corr=M062X ExCW=0 ScaHFX=  0.540000
 ScaDFX=  1.000000  1.000000  1.000000  1.000000 ScalE2=  1.000000  1.000000
 IRadAn=      5 IRanWt=     -1 IRanGd=            0 ICorTp=0 IEmpDi=  4
 NAtoms=   22 NActive=   22 NUniq=   22 SFac= 1.00D+00 NAtFMM=   60 NAOKFM=F Big=F
 Integral buffers will be    131072 words long.
 Raffenetti 2 integral format.
 Two-electron integral symmetry is turned on.
 Leave Link  301 at Mon Dec 30 16:43:55 2019, MaxMem= 10737418240 cpu:               1.3 elap:               0.1
 (Enter /apps/cent7/gaussian/g16-A.03/g16-haswell/g16/l302.exe)
 NPDir=0 NMtPBC=     1 NCelOv=     1 NCel=       1 NClECP=     1 NCelD=      1
         NCelK=      1 NCelE2=     1 NClLst=     1 CellRange=     0.0.
 One-electron integrals computed using PRISM.
 One-electron integral symmetry used in STVInt
 NBasis=   274 RedAO= T EigKep=  8.14D-06  NBF=   274
 NBsUse=   274 1.00D-06 EigRej= -1.00D+00 NBFU=   274
 Precomputing XC quadrature grid using
 IXCGrd= 4 IRadAn=           5 IRanWt=          -1 IRanGd=           0 AccXCQ= 0.00D+00.
 Generated NRdTot=       0 NPtTot=           0 NUsed=           0 NTot=          32
 NSgBfM=   282   282   282   282   282 MxSgAt=    22 MxSgA2=    22.
 Leave Link  302 at Mon Dec 30 16:43:55 2019, MaxMem= 10737418240 cpu:               4.7 elap:               0.2
 (Enter /apps/cent7/gaussian/g16-A.03/g16-haswell/g16/l303.exe)
 DipDrv:  MaxL=1.
 Leave Link  303 at Mon Dec 30 16:43:55 2019, MaxMem= 10737418240 cpu:               1.6 elap:               0.1
 (Enter /apps/cent7/gaussian/g16-A.03/g16-haswell/g16/l401.exe)
 ExpMin= 3.60D-02 ExpMax= 8.59D+03 ExpMxC= 1.30D+03 IAcc=3 IRadAn=         5 AccDes= 0.00D+00
 Harris functional with IExCor= 1009 and IRadAn=       5 diagonalized for initial guess.
 HarFok:  IExCor= 1009 AccDes= 0.00D+00 IRadAn=         5 IDoV= 1 UseB2=F ITyADJ=14
 ICtDFT=  3500011 ScaDFX=  1.000000  1.000000  1.000000  1.000000
 FoFCou: FMM=F IPFlag=           0 FMFlag=      100000 FMFlg1=           0
         NFxFlg=           0 DoJE=T BraDBF=F KetDBF=T FulRan=T
         wScrn=  0.000000 ICntrl=       500 IOpCl=  0 I1Cent=   200000004 NGrid=           0
         NMat0=    1 NMatS0=      1 NMatT0=    0 NMatD0=    1 NMtDS0=    0 NMtDT0=    0
 Petite list used in FoFCou.
 Harris En= -366.524599953247    
 JPrj=0 DoOrth=F DoCkMO=F.
 Leave Link  401 at Mon Dec 30 16:43:56 2019, MaxMem= 10737418240 cpu:              12.0 elap:               0.5
 (Enter /apps/cent7/gaussian/g16-A.03/g16-haswell/g16/l502.exe)
 Integral symmetry usage will be decided dynamically.
 Closed shell SCF:
 Using DIIS extrapolation, IDIIS=  1040.
 NGot= 10737418240 LenX= 10737249486 LenY= 10737169521
 Requested convergence on RMS density matrix=1.00D-08 within 128 cycles.
 Requested convergence on MAX density matrix=1.00D-06.
 Requested convergence on             energy=1.00D-06.
 No special actions if energy rises.
 Fock matrices will be formed incrementally for  20 cycles.

 Cycle   1  Pass 1  IDiag  1:
 FoFJK:  IHMeth= 1 ICntrl=       0 DoSepK=F KAlg= 0 I1Cent=           0 FoldK=F
 IRaf= 970000000 NMat=       1 IRICut=       1 DoRegI=T DoRafI=F ISym2E= 0 IDoP0=0 IntGTp=1.
 FoFCou: FMM=F IPFlag=           0 FMFlag=      100000 FMFlg1=           0
         NFxFlg=           0 DoJE=F BraDBF=F KetDBF=F FulRan=T
         wScrn=  0.000000 ICntrl=         0 IOpCl=  0 I1Cent=           0 NGrid=           0
         NMat0=    1 NMatS0=      1 NMatT0=    0 NMatD0=    1 NMtDS0=    0 NMtDT0=    0
 Symmetry not used in FoFCou.
 E= -366.335256878658    
 DIIS: error= 2.96D-02 at cycle   1 NSaved=   1.
 NSaved= 1 IEnMin= 1 EnMin= -366.335256878658     IErMin= 1 ErrMin= 2.96D-02
 ErrMax= 2.96D-02  0.00D+00 EMaxC= 1.00D-01 BMatC= 2.86D-01 BMatP= 2.86D-01
 IDIUse=3 WtCom= 7.04D-01 WtEn= 2.96D-01
 Coeff-Com:  0.100D+01
 Coeff-En:   0.100D+01
 Coeff:      0.100D+01
 Gap=     0.317 Goal=   None    Shift=    0.000
 GapD=    0.317 DampG=1.000 DampE=0.500 DampFc=0.5000 IDamp=-1.
 Damping current iteration by 5.00D-01
 RMSDP=1.03D-02 MaxDP=4.81D-01              OVMax= 1.60D-01

 Cycle   2  Pass 1  IDiag  1:
 RMSU=  4.44D-03    CP:  8.39D-01
 E= -366.458173270870     Delta-E=       -0.122916392212 Rises=F Damp=T
 DIIS: error= 6.22D-03 at cycle   2 NSaved=   2.
 NSaved= 2 IEnMin= 2 EnMin= -366.458173270870     IErMin= 2 ErrMin= 6.22D-03
 ErrMax= 6.22D-03  0.00D+00 EMaxC= 1.00D-01 BMatC= 2.39D-02 BMatP= 2.86D-01
 IDIUse=3 WtCom= 9.38D-01 WtEn= 6.22D-02
 Coeff-Com: -0.109D+00 0.111D+01
 Coeff-En:   0.000D+00 0.100D+01
 Coeff:     -0.102D+00 0.110D+01
 Gap=     0.300 Goal=   None    Shift=    0.000
 RMSDP=3.83D-03 MaxDP=2.18D-01 DE=-1.23D-01 OVMax= 9.54D-02

 Cycle   3  Pass 1  IDiag  1:
 RMSU=  3.81D-03    CP:  8.58D-01  9.68D-01
 E= -366.580953181955     Delta-E=       -0.122779911086 Rises=F Damp=F
 DIIS: error= 5.21D-03 at cycle   3 NSaved=   3.
 NSaved= 3 IEnMin= 3 EnMin= -366.580953181955     IErMin= 3 ErrMin= 5.21D-03
 ErrMax= 5.21D-03  0.00D+00 EMaxC= 1.00D-01 BMatC= 5.78D-03 BMatP= 2.39D-02
 IDIUse=3 WtCom= 9.48D-01 WtEn= 5.21D-02
 Coeff-Com: -0.106D+00 0.359D+00 0.747D+00
 Coeff-En:   0.000D+00 0.000D+00 0.100D+01
 Coeff:     -0.101D+00 0.340D+00 0.760D+00
 Gap=     0.281 Goal=   None    Shift=    0.000
 RMSDP=1.98D-03 MaxDP=3.17D-01 DE=-1.23D-01 OVMax= 1.25D-02

 Cycle   4  Pass 1  IDiag  1:
 RMSU=  1.24D-03    CP:  7.83D-01  1.03D+00  7.59D-01
 E= -366.585885783727     Delta-E=       -0.004932601772 Rises=F Damp=F
 DIIS: error= 1.12D-03 at cycle   4 NSaved=   4.
 NSaved= 4 IEnMin= 4 EnMin= -366.585885783727     IErMin= 4 ErrMin= 1.12D-03
 ErrMax= 1.12D-03  0.00D+00 EMaxC= 1.00D-01 BMatC= 3.86D-04 BMatP= 5.78D-03
 IDIUse=3 WtCom= 9.89D-01 WtEn= 1.12D-02
 Coeff-Com: -0.336D-01 0.740D-01 0.272D+00 0.688D+00
 Coeff-En:   0.000D+00 0.000D+00 0.000D+00 0.100D+01
 Coeff:     -0.333D-01 0.732D-01 0.269D+00 0.691D+00
 Gap=     0.282 Goal=   None    Shift=    0.000
 RMSDP=3.17D-04 MaxDP=4.56D-02 DE=-4.93D-03 OVMax= 3.38D-03

 Cycle   5  Pass 1  IDiag  1:
 RMSU=  1.15D-04    CP:  7.93D-01  1.01D+00  8.07D-01  8.72D-01
 E= -366.586169679302     Delta-E=       -0.000283895575 Rises=F Damp=F
 DIIS: error= 3.80D-04 at cycle   5 NSaved=   5.
 NSaved= 5 IEnMin= 5 EnMin= -366.586169679302     IErMin= 5 ErrMin= 3.80D-04
 ErrMax= 3.80D-04  0.00D+00 EMaxC= 1.00D-01 BMatC= 3.14D-05 BMatP= 3.86D-04
 IDIUse=3 WtCom= 9.96D-01 WtEn= 3.80D-03
 Coeff-Com: -0.775D-02 0.120D-01 0.615D-01 0.280D+00 0.655D+00
 Coeff-En:   0.000D+00 0.000D+00 0.000D+00 0.000D+00 0.100D+01
 Coeff:     -0.772D-02 0.120D-01 0.613D-01 0.278D+00 0.656D+00
 Gap=     0.281 Goal=   None    Shift=    0.000
 RMSDP=6.75D-05 MaxDP=9.07D-03 DE=-2.84D-04 OVMax= 1.12D-03

 Cycle   6  Pass 1  IDiag  1:
 RMSU=  3.87D-05    CP:  7.96D-01  1.01D+00  8.13D-01  8.53D-01  1.04D+00
 E= -366.586195186206     Delta-E=       -0.000025506904 Rises=F Damp=F
 DIIS: error= 4.25D-05 at cycle   6 NSaved=   6.
 NSaved= 6 IEnMin= 6 EnMin= -366.586195186206     IErMin= 6 ErrMin= 4.25D-05
 ErrMax= 4.25D-05  0.00D+00 EMaxC= 1.00D-01 BMatC= 6.43D-07 BMatP= 3.14D-05
 IDIUse=1 WtCom= 1.00D+00 WtEn= 0.00D+00
 Coeff-Com:  0.229D-02-0.539D-02-0.216D-01-0.412D-01 0.423D-01 0.102D+01
 Coeff:      0.229D-02-0.539D-02-0.216D-01-0.412D-01 0.423D-01 0.102D+01
 Gap=     0.282 Goal=   None    Shift=    0.000
 RMSDP=2.18D-05 MaxDP=1.42D-03 DE=-2.55D-05 OVMax= 2.56D-04

 Cycle   7  Pass 1  IDiag  1:
 RMSU=  8.02D-06    CP:  7.96D-01  1.01D+00  8.12D-01  8.63D-01  1.13D+00
                    CP:  1.14D+00
 E= -366.586196090412     Delta-E=       -0.000000904206 Rises=F Damp=F
 DIIS: error= 7.76D-06 at cycle   7 NSaved=   7.
 NSaved= 7 IEnMin= 7 EnMin= -366.586196090412     IErMin= 7 ErrMin= 7.76D-06
 ErrMax= 7.76D-06  0.00D+00 EMaxC= 1.00D-01 BMatC= 2.64D-08 BMatP= 6.43D-07
 IDIUse=1 WtCom= 1.00D+00 WtEn= 0.00D+00
 Coeff-Com:  0.663D-03-0.143D-02-0.604D-02-0.166D-01-0.550D-02 0.223D+00
 Coeff-Com:  0.806D+00
 Coeff:      0.663D-03-0.143D-02-0.604D-02-0.166D-01-0.550D-02 0.223D+00
 Coeff:      0.806D+00
 Gap=     0.282 Goal=   None    Shift=    0.000
 RMSDP=3.35D-06 MaxDP=3.73D-04 DE=-9.04D-07 OVMax= 4.62D-05

 Cycle   8  Pass 1  IDiag  1:
 RMSU=  1.74D-06    CP:  7.96D-01  1.01D+00  8.13D-01  8.62D-01  1.13D+00
                    CP:  1.15D+00  9.54D-01
 E= -366.586196113776     Delta-E=       -0.000000023364 Rises=F Damp=F
 DIIS: error= 4.11D-06 at cycle   8 NSaved=   8.
 NSaved= 8 IEnMin= 8 EnMin= -366.586196113776     IErMin= 8 ErrMin= 4.11D-06
 ErrMax= 4.11D-06  0.00D+00 EMaxC= 1.00D-01 BMatC= 5.32D-09 BMatP= 2.64D-08
 IDIUse=1 WtCom= 1.00D+00 WtEn= 0.00D+00
 Coeff-Com:  0.127D-03-0.250D-03-0.109D-02-0.431D-02-0.460D-02 0.264D-01
 Coeff-Com:  0.324D+00 0.659D+00
 Coeff:      0.127D-03-0.250D-03-0.109D-02-0.431D-02-0.460D-02 0.264D-01
 Coeff:      0.324D+00 0.659D+00
 Gap=     0.282 Goal=   None    Shift=    0.000
 RMSDP=6.60D-07 MaxDP=5.88D-05 DE=-2.34D-08 OVMax= 1.29D-05

 Cycle   9  Pass 1  IDiag  1:
 RMSU=  4.86D-07    CP:  7.96D-01  1.01D+00  8.13D-01  8.62D-01  1.13D+00
                    CP:  1.15D+00  9.73D-01  1.07D+00
 E= -366.586196118688     Delta-E=       -0.000000004912 Rises=F Damp=F
 DIIS: error= 6.81D-07 at cycle   9 NSaved=   9.
 NSaved= 9 IEnMin= 9 EnMin= -366.586196118688     IErMin= 9 ErrMin= 6.81D-07
 ErrMax= 6.81D-07  0.00D+00 EMaxC= 1.00D-01 BMatC= 2.11D-10 BMatP= 5.32D-09
 IDIUse=1 WtCom= 1.00D+00 WtEn= 0.00D+00
 Coeff-Com: -0.239D-04 0.527D-04 0.226D-03 0.302D-03-0.557D-03-0.104D-01
 Coeff-Com:  0.104D-01 0.163D+00 0.837D+00
 Coeff:     -0.239D-04 0.527D-04 0.226D-03 0.302D-03-0.557D-03-0.104D-01
 Coeff:      0.104D-01 0.163D+00 0.837D+00
 Gap=     0.282 Goal=   None    Shift=    0.000
 RMSDP=2.02D-07 MaxDP=7.96D-06 DE=-4.91D-09 OVMax= 3.64D-06

 Cycle  10  Pass 1  IDiag  1:
 RMSU=  1.35D-07    CP:  7.96D-01  1.01D+00  8.13D-01  8.62D-01  1.13D+00
                    CP:  1.15D+00  9.78D-01  1.11D+00  1.17D+00
 E= -366.586196118909     Delta-E=       -0.000000000221 Rises=F Damp=F
 DIIS: error= 2.14D-07 at cycle  10 NSaved=  10.
 NSaved=10 IEnMin=10 EnMin= -366.586196118909     IErMin=10 ErrMin= 2.14D-07
 ErrMax= 2.14D-07  0.00D+00 EMaxC= 1.00D-01 BMatC= 2.07D-11 BMatP= 2.11D-10
 IDIUse=1 WtCom= 1.00D+00 WtEn= 0.00D+00
 Coeff-Com: -0.125D-04 0.269D-04 0.116D-03 0.298D-03 0.280D-04-0.430D-02
 Coeff-Com: -0.163D-01 0.122D-01 0.269D+00 0.739D+00
 Coeff:     -0.125D-04 0.269D-04 0.116D-03 0.298D-03 0.280D-04-0.430D-02
 Coeff:     -0.163D-01 0.122D-01 0.269D+00 0.739D+00
 Gap=     0.282 Goal=   None    Shift=    0.000
 RMSDP=6.17D-08 MaxDP=2.71D-06 DE=-2.21D-10 OVMax= 1.23D-06

 Cycle  11  Pass 1  IDiag  1:
 RMSU=  3.79D-08    CP:  7.96D-01  1.01D+00  8.13D-01  8.62D-01  1.13D+00
                    CP:  1.15D+00  9.78D-01  1.14D+00  1.19D+00  9.65D-01
 E= -366.586196118927     Delta-E=       -0.000000000018 Rises=F Damp=F
 DIIS: error= 8.00D-08 at cycle  11 NSaved=  11.
 NSaved=11 IEnMin=11 EnMin= -366.586196118927     IErMin=11 ErrMin= 8.00D-08
 ErrMax= 8.00D-08  0.00D+00 EMaxC= 1.00D-01 BMatC= 2.64D-12 BMatP= 2.07D-11
 IDIUse=1 WtCom= 1.00D+00 WtEn= 0.00D+00
 Coeff-Com: -0.170D-05 0.362D-05 0.171D-04 0.761D-04 0.723D-04-0.386D-03
 Coeff-Com: -0.773D-02-0.155D-01-0.273D-02 0.250D+00 0.777D+00
 Coeff:     -0.170D-05 0.362D-05 0.171D-04 0.761D-04 0.723D-04-0.386D-03
 Coeff:     -0.773D-02-0.155D-01-0.273D-02 0.250D+00 0.777D+00
 Gap=     0.282 Goal=   None    Shift=    0.000
 RMSDP=1.64D-08 MaxDP=7.63D-07 DE=-1.83D-11 OVMax= 5.44D-07

 Cycle  12  Pass 1  IDiag  1:
 RMSU=  1.19D-08    CP:  7.96D-01  1.01D+00  8.13D-01  8.62D-01  1.13D+00
                    CP:  1.15D+00  9.78D-01  1.14D+00  1.21D+00  9.70D-01
                    CP:  1.13D+00
 E= -366.586196118932     Delta-E=       -0.000000000004 Rises=F Damp=F
 DIIS: error= 2.31D-08 at cycle  12 NSaved=  12.
 NSaved=12 IEnMin=12 EnMin= -366.586196118932     IErMin=12 ErrMin= 2.31D-08
 ErrMax= 2.31D-08  0.00D+00 EMaxC= 1.00D-01 BMatC= 2.77D-13 BMatP= 2.64D-12
 IDIUse=1 WtCom= 1.00D+00 WtEn= 0.00D+00
 Coeff-Com:  0.109D-05-0.225D-05-0.843D-05-0.133D-04 0.174D-04 0.370D-03
 Coeff-Com: -0.574D-03-0.567D-02-0.289D-01-0.119D-01 0.241D+00 0.806D+00
 Coeff:      0.109D-05-0.225D-05-0.843D-05-0.133D-04 0.174D-04 0.370D-03
 Coeff:     -0.574D-03-0.567D-02-0.289D-01-0.119D-01 0.241D+00 0.806D+00
 Gap=     0.282 Goal=   None    Shift=    0.000
 RMSDP=7.18D-09 MaxDP=5.68D-07 DE=-4.43D-12 OVMax= 2.44D-07

 SCF Done:  E(RM062X) =  -366.586196119     A.U. after   12 cycles
            NFock= 12  Conv=0.72D-08     -V/T= 2.0040
 KE= 3.651249381980D+02 PE=-1.681280430510D+03 EE= 5.300029173668D+02
 Leave Link  502 at Mon Dec 30 16:44:11 2019, MaxMem= 10737418240 cpu:             358.4 elap:              15.0
 (Enter /apps/cent7/gaussian/g16-A.03/g16-haswell/g16/l601.exe)
 Copying SCF densities to generalized density rwf, IOpCl= 0 IROHF=0.

 **********************************************************************

            Population analysis using the SCF density.

 **********************************************************************

 Orbital symmetries:
       Occupied  (A) (A) (A) (A) (A) (A) (A) (A) (A) (A) (A) (A)
                 (A) (A) (A) (A) (A) (A) (A) (A) (A) (A) (A) (A)
                 (A) (A) (A) (A) (A) (A) (A) (A)
       Virtual   (A) (A) (A) (A) (A) (A) (A) (A) (A) (A) (A) (A)
                 (A) (A) (A) (A) (A) (A) (A) (A) (A) (A) (A) (A)
                 (A) (A) (A) (A) (A) (A) (A) (A) (A) (A) (A) (A)
                 (A) (A) (A) (A) (A) (A) (A) (A) (A) (A) (A) (A)
                 (A) (A) (A) (A) (A) (A) (A) (A) (A) (A) (A) (A)
                 (A) (A) (A) (A) (A) (A) (A) (A) (A) (A) (A) (A)
                 (A) (A) (A) (A) (A) (A) (A) (A) (A) (A) (A) (A)
                 (A) (A) (A) (A) (A) (A) (A) (A) (A) (A) (A) (A)
                 (A) (A) (A) (A) (A) (A) (A) (A) (A) (A) (A) (A)
                 (A) (A) (A) (A) (A) (A) (A) (A) (A) (A) (A) (A)
                 (A) (A) (A) (A) (A) (A) (A) (A) (A) (A) (A) (A)
                 (A) (A) (A) (A) (A) (A) (A) (A) (A) (A) (A) (A)
                 (A) (A) (A) (A) (A) (A) (A) (A) (A) (A) (A) (A)
                 (A) (A) (A) (A) (A) (A) (A) (A) (A) (A) (A) (A)
                 (A) (A) (A) (A) (A) (A) (A) (A) (A) (A) (A) (A)
                 (A) (A) (A) (A) (A) (A) (A) (A) (A) (A) (A) (A)
                 (A) (A) (A) (A) (A) (A) (A) (A) (A) (A) (A) (A)
                 (A) (A) (A) (A) (A) (A) (A) (A) (A) (A) (A) (A)
                 (A) (A) (A) (A) (A) (A) (A) (A) (A) (A) (A) (A)
                 (A) (A) (A) (A) (A) (A) (A) (A) (A) (A) (A) (A)
                 (A) (A)
 The electronic state is 1-A.
 Alpha  occ. eigenvalues --  -20.01401 -15.00432 -10.74268 -10.67949 -10.67944
 Alpha  occ. eigenvalues --  -10.65759 -10.65632 -10.64634  -1.55514  -1.19932
 Alpha  occ. eigenvalues --   -1.06665  -1.00230  -0.98167  -0.97570  -0.90323
 Alpha  occ. eigenvalues --   -0.86899  -0.82374  -0.77788  -0.76571  -0.69138
 Alpha  occ. eigenvalues --   -0.68185  -0.66157  -0.65750  -0.59941  -0.59410
 Alpha  occ. eigenvalues --   -0.58046  -0.56647  -0.53108  -0.51491  -0.50858
 Alpha  occ. eigenvalues --   -0.49346  -0.47578
 Alpha virt. eigenvalues --   -0.19422  -0.13445  -0.12683  -0.10706  -0.08819
 Alpha virt. eigenvalues --   -0.08562  -0.07761  -0.07069  -0.06556  -0.05719
 Alpha virt. eigenvalues --   -0.04928  -0.04269  -0.04233  -0.03424  -0.02675
 Alpha virt. eigenvalues --   -0.02461  -0.02313  -0.01532  -0.00164   0.00367
 Alpha virt. eigenvalues --    0.00809   0.01377   0.02085   0.02298   0.02780
 Alpha virt. eigenvalues --    0.03228   0.03966   0.04477   0.04774   0.05123
 Alpha virt. eigenvalues --    0.05530   0.05605   0.06013   0.06238   0.06810
 Alpha virt. eigenvalues --    0.07209   0.08014   0.08190   0.08309   0.08405
 Alpha virt. eigenvalues --    0.08628   0.09494   0.10107   0.10691   0.11061
 Alpha virt. eigenvalues --    0.11474   0.13021   0.13401   0.13579   0.14334
 Alpha virt. eigenvalues --    0.14996   0.17038   0.17378   0.17922   0.18760
 Alpha virt. eigenvalues --    0.19465   0.20517   0.20713   0.22173   0.23859
 Alpha virt. eigenvalues --    0.24392   0.24568   0.25489   0.26534   0.26804
 Alpha virt. eigenvalues --    0.27369   0.28352   0.30172   0.35426   0.36205
 Alpha virt. eigenvalues --    0.37566   0.37857   0.38632   0.40285   0.40986
 Alpha virt. eigenvalues --    0.41619   0.43358   0.46221   0.47922   0.50342
 Alpha virt. eigenvalues --    0.52946   0.54111   0.54784   0.56370   0.56797
 Alpha virt. eigenvalues --    0.59632   0.60557   0.61597   0.63579   0.64659
 Alpha virt. eigenvalues --    0.65371   0.66240   0.66509   0.67339   0.68329
 Alpha virt. eigenvalues --    0.68905   0.69349   0.70409   0.71589   0.74391
 Alpha virt. eigenvalues --    0.74718   0.77174   0.78005   0.79875   0.80825
 Alpha virt. eigenvalues --    0.84152   0.84694   0.91287   0.93089   0.95444
 Alpha virt. eigenvalues --    0.96623   1.00648   1.04435   1.07425   1.10171
 Alpha virt. eigenvalues --    1.13056   1.15796   1.17914   1.19728   1.20546
 Alpha virt. eigenvalues --    1.23822   1.31729   1.32470   1.34598   1.39513
 Alpha virt. eigenvalues --    1.40614   1.41669   1.43472   1.44515   1.45708
 Alpha virt. eigenvalues --    1.47129   1.47429   1.49457   1.50176   1.50663
 Alpha virt. eigenvalues --    1.51580   1.54086   1.54859   1.55045   1.55673
 Alpha virt. eigenvalues --    1.56913   1.60534   1.62457   1.63016   1.64247
 Alpha virt. eigenvalues --    1.68882   1.69718   1.70625   1.72038   1.74566
 Alpha virt. eigenvalues --    1.75549   1.76670   1.77455   1.78309   1.80278
 Alpha virt. eigenvalues --    1.85918   1.87789   1.90151   1.93210   1.94147
 Alpha virt. eigenvalues --    1.96423   1.99353   2.03235   2.04370   2.07451
 Alpha virt. eigenvalues --    2.07842   2.10097   2.11727   2.13643   2.15278
 Alpha virt. eigenvalues --    2.17506   2.22995   2.24448   2.25557   2.28581
 Alpha virt. eigenvalues --    2.31401   2.36450   2.38386   2.42414   2.44555
 Alpha virt. eigenvalues --    2.46208   2.46611   2.49027   2.51405   2.52726
 Alpha virt. eigenvalues --    2.53991   2.54642   2.55877   2.57246   2.58464
 Alpha virt. eigenvalues --    2.59490   2.64215   2.67253   2.68732   2.72900
 Alpha virt. eigenvalues --    2.74688   2.75551   2.76542   2.80495   2.81553
 Alpha virt. eigenvalues --    2.82870   2.85653   2.88080   2.89606   2.92175
 Alpha virt. eigenvalues --    2.95335   2.96630   2.98383   2.99516   3.13996
 Alpha virt. eigenvalues --    3.20854   3.23076   3.26411   3.28325   3.46472
 Alpha virt. eigenvalues --    3.51968   3.55038   3.72647   3.74923   3.80425
 Alpha virt. eigenvalues --    3.81952   3.87285   3.87810   3.93745   3.95645
 Alpha virt. eigenvalues --    3.97805   4.10875   4.13453   4.30541   4.39453
 Alpha virt. eigenvalues --    4.68581   4.87088   5.49811   5.68611  23.72035
 Alpha virt. eigenvalues --   23.80228  23.86016  23.88411  23.89975  23.90429
 Alpha virt. eigenvalues --   35.40216  49.71946
          Condensed to atoms (all electrons):
               1          2          3          4          5          6
     1  O    7.347417   0.003996  -0.046174   0.014266   0.032690  -0.007006
     2  N    0.003996   7.442371  -0.428585   0.041699  -0.014821   0.015688
     3  C   -0.046174  -0.428585   8.029969  -0.898740  -0.105981  -0.030876
     4  C    0.014266   0.041699  -0.898740   6.277645   0.108933   0.012473
     5  C    0.032690  -0.014821  -0.105981   0.108933   5.558631   0.211895
     6  C   -0.007006   0.015688  -0.030876   0.012473   0.211895   5.385946
     7  C   -0.019470   0.023070   0.062230  -0.021855  -0.165674   0.271395
     8  C    0.041809   0.056555  -0.811997   0.169436   0.108823  -0.085120
     9  H    0.302993  -0.032032   0.047222  -0.029701  -0.000509  -0.000311
    10  H   -0.007323   0.294664   0.078568  -0.032113  -0.001099  -0.001164
    11  H   -0.019874  -0.061737   0.543013  -0.068358  -0.048124   0.002776
    12  H   -0.009680   0.003177   0.045083   0.441851  -0.074314  -0.020687
    13  H    0.040531  -0.067122   0.070390   0.316036   0.017078   0.000978
    14  H    0.000677   0.000159  -0.014841  -0.018172   0.388566  -0.030766
    15  H   -0.000996  -0.003828   0.052928  -0.048192   0.428960  -0.055956
    16  H   -0.000921  -0.001648   0.046719  -0.047037  -0.011418   0.417888
    17  H   -0.000283   0.000741  -0.015653   0.011318  -0.053670   0.420603
    18  H    0.000419  -0.001891   0.011618  -0.008726   0.019474  -0.050029
    19  H    0.000639  -0.008125   0.054361  -0.036766   0.010480  -0.066971
    20  H   -0.000461  -0.019211   0.085519  -0.089511   0.004549  -0.025150
    21  H   -0.000153   0.019052  -0.096892   0.004811  -0.007222   0.008433
    22  H    0.311199  -0.011385  -0.049590   0.039279  -0.003580   0.000987
               7          8          9         10         11         12
     1  O   -0.019470   0.041809   0.302993  -0.007323  -0.019874  -0.009680
     2  N    0.023070   0.056555  -0.032032   0.294664  -0.061737   0.003177
     3  C    0.062230  -0.811997   0.047222   0.078568   0.543013   0.045083
     4  C   -0.021855   0.169436  -0.029701  -0.032113  -0.068358   0.441851
     5  C   -0.165674   0.108823  -0.000509  -0.001099  -0.048124  -0.074314
     6  C    0.271395  -0.085120  -0.000311  -0.001164   0.002776  -0.020687
     7  C    5.455070   0.064592  -0.000367  -0.000742   0.001645   0.025089
     8  C    0.064592   6.210832  -0.001088  -0.017324  -0.091331  -0.088257
     9  H   -0.000367  -0.001088   0.349945   0.001621   0.001838   0.000512
    10  H   -0.000742  -0.017324   0.001621   0.300133   0.010387   0.003097
    11  H    0.001645  -0.091331   0.001838   0.010387   0.487462   0.013110
    12  H    0.025089  -0.088257   0.000512   0.003097   0.013110   0.460824
    13  H   -0.014581  -0.016422   0.002377  -0.003034  -0.025697  -0.018157
    14  H    0.011137   0.001522  -0.000207  -0.000246  -0.001416  -0.004972
    15  H    0.009443  -0.053571  -0.000325   0.000120   0.005648   0.006358
    16  H   -0.011326  -0.054586  -0.000117   0.000453   0.004109   0.003639
    17  H   -0.051014   0.010217   0.000026   0.000246   0.002039   0.000711
    18  H    0.388227  -0.028423   0.000032   0.000110  -0.001744  -0.001379
    19  H    0.461301  -0.079027   0.000099   0.000285   0.004816   0.001502
    20  H   -0.044906   0.419869   0.000557   0.005119   0.003332  -0.003753
    21  H   -0.044204   0.471463  -0.000648  -0.003401  -0.012791  -0.005259
    22  H    0.001487   0.005166  -0.039440   0.000141  -0.001264  -0.000795
              13         14         15         16         17         18
     1  O    0.040531   0.000677  -0.000996  -0.000921  -0.000283   0.000419
     2  N   -0.067122   0.000159  -0.003828  -0.001648   0.000741  -0.001891
     3  C    0.070390  -0.014841   0.052928   0.046719  -0.015653   0.011618
     4  C    0.316036  -0.018172  -0.048192  -0.047037   0.011318  -0.008726
     5  C    0.017078   0.388566   0.428960  -0.011418  -0.053670   0.019474
     6  C    0.000978  -0.030766  -0.055956   0.417888   0.420603  -0.050029
     7  C   -0.014581   0.011137   0.009443  -0.011326  -0.051014   0.388227
     8  C   -0.016422   0.001522  -0.053571  -0.054586   0.010217  -0.028423
     9  H    0.002377  -0.000207  -0.000325  -0.000117   0.000026   0.000032
    10  H   -0.003034  -0.000246   0.000120   0.000453   0.000246   0.000110
    11  H   -0.025697  -0.001416   0.005648   0.004109   0.002039  -0.001744
    12  H   -0.018157  -0.004972   0.006358   0.003639   0.000711  -0.001379
    13  H    0.592775  -0.016722  -0.009132  -0.001943  -0.001481   0.000726
    14  H   -0.016722   0.450628   0.009931  -0.008723  -0.011025  -0.000361
    15  H   -0.009132   0.009931   0.497726   0.004540  -0.000149  -0.002905
    16  H   -0.001943  -0.008723   0.004540   0.487191   0.022663  -0.004706
    17  H   -0.001481  -0.011025  -0.000149   0.022663   0.442579  -0.010160
    18  H    0.000726  -0.000361  -0.002905  -0.004706  -0.010160   0.444121
    19  H    0.000007  -0.003650  -0.002199   0.003960   0.000765   0.016200
    20  H   -0.004646  -0.001098   0.000131  -0.002786  -0.000390  -0.002194
    21  H    0.000734   0.001012  -0.001496  -0.004025  -0.000562  -0.012903
    22  H   -0.001601   0.000321   0.000677   0.000126  -0.000071  -0.000018
              19         20         21         22
     1  O    0.000639  -0.000461  -0.000153   0.311199
     2  N   -0.008125  -0.019211   0.019052  -0.011385
     3  C    0.054361   0.085519  -0.096892  -0.049590
     4  C   -0.036766  -0.089511   0.004811   0.039279
     5  C    0.010480   0.004549  -0.007222  -0.003580
     6  C   -0.066971  -0.025150   0.008433   0.000987
     7  C    0.461301  -0.044906  -0.044204   0.001487
     8  C   -0.079027   0.419869   0.471463   0.005166
     9  H    0.000099   0.000557  -0.000648  -0.039440
    10  H    0.000285   0.005119  -0.003401   0.000141
    11  H    0.004816   0.003332  -0.012791  -0.001264
    12  H    0.001502  -0.003753  -0.005259  -0.000795
    13  H    0.000007  -0.004646   0.000734  -0.001601
    14  H   -0.003650  -0.001098   0.001012   0.000321
    15  H   -0.002199   0.000131  -0.001496   0.000677
    16  H    0.003960  -0.002786  -0.004025   0.000126
    17  H    0.000765  -0.000390  -0.000562  -0.000071
    18  H    0.016200  -0.002194  -0.012903  -0.000018
    19  H    0.484965   0.003454  -0.013281  -0.000219
    20  H    0.003454   0.471931   0.002556  -0.000747
    21  H   -0.013281   0.002556   0.466390   0.000260
    22  H   -0.000219  -0.000747   0.000260   0.356033
 Mulliken charges:
               1
     1  O    0.015704
     2  N   -0.250783
     3  C   -0.628290
     4  C   -0.138579
     5  C   -0.403669
     6  C   -0.375028
     7  C   -0.400546
     8  C   -0.233137
     9  H    0.397521
    10  H    0.371501
    11  H    0.252160
    12  H    0.222301
    13  H    0.138904
    14  H    0.248246
    15  H    0.162289
    16  H    0.157948
    17  H    0.232549
    18  H    0.244511
    19  H    0.167404
    20  H    0.197837
    21  H    0.228122
    22  H    0.393034
 Sum of Mulliken charges =   1.00000
 Mulliken charges with hydrogens summed into heavy atoms:
               1
     1  O    0.806258
     2  N    0.120718
     3  C   -0.376129
     4  C    0.222627
     5  C    0.006866
     6  C    0.015469
     7  C    0.011369
     8  C    0.192822
 Electronic spatial extent (au):  <R**2>=           1149.9564
 Charge=              1.0000 electrons
 Dipole moment (field-independent basis, Debye):
    X=             -9.5290    Y=              0.7826    Z=              0.6039  Tot=              9.5801
 Quadrupole moment (field-independent basis, Debye-Ang):
   XX=            -10.5472   YY=            -43.9784   ZZ=            -45.4135
   XY=             -4.2913   XZ=             -3.2125   YZ=              0.9828
 Traceless Quadrupole moment (field-independent basis, Debye-Ang):
   XX=             22.7658   YY=            -10.6653   ZZ=            -12.1005
   XY=             -4.2913   XZ=             -3.2125   YZ=              0.9828
 Octapole moment (field-independent basis, Debye-Ang**2):
  XXX=           -133.4070  YYY=              1.0228  ZZZ=              2.7073  XYY=            -17.7883
  XXY=             15.4505  XXZ=             14.0542  XZZ=            -16.0303  YZZ=             -1.2243
  YYZ=             -4.4155  XYZ=             -1.6733
 Hexadecapole moment (field-independent basis, Debye-Ang**3):
 XXXX=           -563.2433 YYYY=           -367.5088 ZZZZ=           -109.0342 XXXY=            -58.1944
 XXXZ=            -49.7929 YYYX=            -11.0035 YYYZ=             -0.0043 ZZZX=            -10.9207
 ZZZY=              3.0876 XXYY=           -182.0850 XXZZ=           -146.3453 YYZZ=            -79.5540
 XXYZ=              7.1401 YYXZ=              2.3309 ZZXY=              1.8392
 N-N= 4.195663788267D+02 E-N=-1.681280431411D+03  KE= 3.651249381980D+02
 No NMR shielding tensors so no spin-rotation constants.
 Leave Link  601 at Mon Dec 30 16:44:11 2019, MaxMem= 10737418240 cpu:               3.3 elap:               0.2
 (Enter /apps/cent7/gaussian/g16-A.03/g16-haswell/g16/l701.exe)
 ... and contract with generalized density number  0.
 Compute integral first derivatives.
 Leave Link  701 at Mon Dec 30 16:44:11 2019, MaxMem= 10737418240 cpu:               3.3 elap:               0.2
 (Enter /apps/cent7/gaussian/g16-A.03/g16-haswell/g16/l702.exe)
 L702 exits ... SP integral derivatives will be done elsewhere.
 Leave Link  702 at Mon Dec 30 16:44:11 2019, MaxMem= 10737418240 cpu:               0.7 elap:               0.0
 (Enter /apps/cent7/gaussian/g16-A.03/g16-haswell/g16/l703.exe)
 Integral derivatives from FoFJK, PRISM(SPDF).
 Compute integral first derivatives, UseDBF=F ICtDFT=           0.
 Calling FoFJK, ICntrl=      2127 FMM=F ISym2X=0 I1Cent= 0 IOpClX= 0 NMat=1 NMatS=1 NMatT=0.
 FoFJK:  IHMeth= 1 ICntrl=    2127 DoSepK=F KAlg= 0 I1Cent=           0 FoldK=F
 IRaf=         0 NMat=       1 IRICut=       1 DoRegI=T DoRafI=F ISym2E= 0 IDoP0=0 IntGTp=1.
 FoFCou: FMM=F IPFlag=           0 FMFlag=      100000 FMFlg1=         800
         NFxFlg=           0 DoJE=F BraDBF=F KetDBF=F FulRan=T
         wScrn=  0.000000 ICntrl=      2127 IOpCl=  0 I1Cent=           0 NGrid=           0
         NMat0=    1 NMatS0=      1 NMatT0=    0 NMatD0=    1 NMtDS0=    0 NMtDT0=    0
 Symmetry not used in FoFCou.
 Leave Link  703 at Mon Dec 30 16:44:14 2019, MaxMem= 10737418240 cpu:              63.2 elap:               2.7
 (Enter /apps/cent7/gaussian/g16-A.03/g16-haswell/g16/l716.exe)
 Dipole        =-3.74900314D+00 3.07883835D-01 2.37582936D-01
 ***** Axes restored to original set *****
 -------------------------------------------------------------------
 Center     Atomic                   Forces (Hartrees/Bohr)
 Number     Number              X              Y              Z
 -------------------------------------------------------------------
      1        8           0.008357450    0.019529584    0.000467869
      2        7          -0.039277858   -0.034276771    0.001509023
      3        6          -0.015686790   -0.007535846   -0.013602660
      4        6          -0.016195338   -0.004117162    0.025657316
      5        6          -0.014918095    0.023563232    0.014804082
      6        6           0.023953556    0.016331196    0.017461834
      7        6           0.023657322    0.006477928   -0.024616031
      8        6           0.021361732   -0.017312596   -0.003909201
      9        1           0.009590609   -0.000786224    0.012618676
     10        1           0.013265739    0.007253793   -0.001651278
     11        1          -0.002090437   -0.004204585    0.005816311
     12        1           0.013203391    0.005622074   -0.008005873
     13        1           0.002639148    0.007559257   -0.015832551
     14        1           0.010767750   -0.013742573    0.005586446
     15        1           0.006224599   -0.012956489   -0.011298285
     16        1          -0.011794695   -0.011920960   -0.006666182
     17        1          -0.011614817    0.003767961   -0.013486598
     18        1           0.000762463   -0.008573093    0.015725772
     19        1          -0.014963177   -0.002985087    0.009641415
     20        1          -0.004605932    0.012617450    0.008867448
     21        1          -0.009343366    0.015143576   -0.004284130
     22        1           0.006706746    0.000545335   -0.014803403
 -------------------------------------------------------------------
 Cartesian Forces:  Max     0.039277858 RMS     0.013857737
 Leave Link  716 at Mon Dec 30 16:44:14 2019, MaxMem= 10737418240 cpu:               0.6 elap:               0.0
 (Enter /apps/cent7/gaussian/g16-A.03/g16-haswell/g16/l103.exe)

 GradGradGradGradGradGradGradGradGradGradGradGradGradGradGradGradGradGrad
 Berny optimization.
 FormGI is forming the generalized inverse of G from B-inverse, IUseBI=4.
 Internal  Forces:  Max     0.027027103 RMS     0.006444404
 Search for a local minimum.
 Step number   1 out of a maximum of  132
 All quantities printed in internal units (Hartrees-Bohrs-Radians)
 RMS Force = .64444D-02 SwitMx=.10000D-02 MixMth= 1
 Mixed Optimization -- RFO/linear search
 Second derivative matrix not updated -- first step.
 ITU=  0
     Eigenvalues ---    0.00403   0.00408   0.00507   0.00630   0.01065
     Eigenvalues ---    0.01838   0.01838   0.01968   0.01985   0.03995
     Eigenvalues ---    0.04083   0.04280   0.04471   0.04862   0.05075
     Eigenvalues ---    0.05140   0.05354   0.05629   0.05672   0.05993
     Eigenvalues ---    0.06355   0.07666   0.07693   0.07702   0.07719
     Eigenvalues ---    0.07734   0.08154   0.08473   0.11740   0.11778
     Eigenvalues ---    0.14056   0.16000   0.16000   0.16000   0.16080
     Eigenvalues ---    0.17391   0.21465   0.22000   0.26100   0.26284
     Eigenvalues ---    0.26734   0.27381   0.27482   0.27579   0.34541
     Eigenvalues ---    0.34805   0.34806   0.34807   0.34809   0.34812
     Eigenvalues ---    0.34812   0.34812   0.34813   0.34818   0.34819
     Eigenvalues ---    0.34821   0.45969   0.53159   0.55473   0.55473
 RFO step:  Lambda=-3.23204874D-02 EMin= 4.02982597D-03
 Linear search not attempted -- first point.
 Maximum step size (   0.300) exceeded in Quadratic search.
    -- Step size scaled by   0.848
 Iteration  1 RMS(Cart)=  0.04653587 RMS(Int)=  0.00139282
 Iteration  2 RMS(Cart)=  0.00218076 RMS(Int)=  0.00018229
 Iteration  3 RMS(Cart)=  0.00000267 RMS(Int)=  0.00018228
 Iteration  4 RMS(Cart)=  0.00000000 RMS(Int)=  0.00018228
 ITry= 1 IFail=0 DXMaxC= 2.20D-01 DCOld= 1.00D+10 DXMaxT= 3.00D-01 DXLimC= 3.00D+00 Rises=F
 Variable       Old X    -DE/DX   Delta X   Delta X   Delta X     New X
                                 (Linear)    (Quad)   (Total)
    R1        2.56806   0.02395   0.00000   0.03601   0.03601   2.60407
    R2        1.81414   0.01585   0.00000   0.02289   0.02289   1.83703
    R3        1.81414   0.01624   0.00000   0.02346   0.02346   1.83759
    R4        2.79727  -0.00769   0.00000  -0.01726  -0.01726   2.78002
    R5        1.90866  -0.00011   0.00000  -0.00019  -0.00019   1.90847
    R6        2.94417  -0.01089   0.00000  -0.02946  -0.02942   2.91475
    R7        2.94000  -0.01422   0.00000  -0.03808  -0.03807   2.90193
    R8        2.05980   0.00523   0.00000   0.01167   0.01167   2.07147
    R9        2.93010  -0.00309   0.00000  -0.00819  -0.00821   2.92189
   R10        2.05981   0.00258   0.00000   0.00574   0.00574   2.06555
   R11        2.05990   0.00255   0.00000   0.00568   0.00568   2.06558
   R12        2.92831  -0.00229   0.00000  -0.00782  -0.00783   2.92048
   R13        2.05981  -0.00115   0.00000  -0.00257  -0.00257   2.05724
   R14        2.05986   0.00214   0.00000   0.00476   0.00476   2.06463
   R15        2.92988  -0.00221   0.00000  -0.00717  -0.00721   2.92266
   R16        2.05967   0.00224   0.00000   0.00499   0.00499   2.06467
   R17        2.05991  -0.00110   0.00000  -0.00246  -0.00246   2.05745
   R18        2.93127  -0.00280   0.00000  -0.00801  -0.00799   2.92328
   R19        2.05993  -0.00141   0.00000  -0.00314  -0.00314   2.05679
   R20        2.05971   0.00172   0.00000   0.00384   0.00384   2.06356
   R21        2.05970   0.00290   0.00000   0.00646   0.00646   2.06617
   R22        2.05982   0.00050   0.00000   0.00112   0.00112   2.06094
    A1        2.09440   0.00082   0.00000   0.00362   0.00362   2.09801
    A2        2.09440  -0.00056   0.00000  -0.00246  -0.00247   2.09193
    A3        2.09440  -0.00026   0.00000  -0.00116  -0.00116   2.09323
    A4        1.93813   0.02510   0.00000   0.08434   0.08429   2.02243
    A5        2.11040  -0.02703   0.00000  -0.10599  -0.10603   2.00437
    A6        2.23465   0.00193   0.00000   0.02166   0.02160   2.25625
    A7        1.94704  -0.00287   0.00000  -0.00878  -0.00855   1.93849
    A8        1.90478  -0.00900   0.00000  -0.04069  -0.04061   1.86417
    A9        1.84712   0.00471   0.00000   0.02230   0.02196   1.86908
   A10        1.93123   0.01006   0.00000   0.02849   0.02819   1.95942
   A11        1.89580  -0.00081   0.00000   0.01244   0.01252   1.90831
   A12        1.93645  -0.00241   0.00000  -0.01432  -0.01449   1.92196
   A13        1.95371  -0.00550   0.00000  -0.02156  -0.02130   1.93241
   A14        1.85598   0.00165   0.00000   0.01678   0.01680   1.87278
   A15        1.85599   0.00598   0.00000   0.03839   0.03849   1.89448
   A16        1.85284   0.00641   0.00000   0.03925   0.03929   1.89213
   A17        1.85287   0.00089   0.00000   0.01359   0.01368   1.86655
   A18        2.09430  -0.01009   0.00000  -0.08856  -0.08834   2.00596
   A19        1.95479  -0.00191   0.00000  -0.01294  -0.01309   1.94170
   A20        1.85444   0.00073   0.00000   0.01345   0.01345   1.86789
   A21        1.85435   0.00443   0.00000   0.03385   0.03372   1.88807
   A22        1.85394   0.00400   0.00000   0.02980   0.02989   1.88383
   A23        1.85391   0.00301   0.00000   0.03189   0.03167   1.88558
   A24        2.09442  -0.01043   0.00000  -0.09696  -0.09669   1.99772
   A25        1.95069  -0.00163   0.00000  -0.00469  -0.00524   1.94545
   A26        1.85480   0.00440   0.00000   0.03153   0.03129   1.88609
   A27        1.85485   0.00147   0.00000   0.01886   0.01884   1.87369
   A28        1.85531   0.00394   0.00000   0.03098   0.03074   1.88605
   A29        1.85521   0.00204   0.00000   0.02036   0.02033   1.87555
   A30        2.09442  -0.01032   0.00000  -0.09651  -0.09621   1.99821
   A31        1.95659   0.00053   0.00000  -0.00398  -0.00420   1.95239
   A32        1.85359   0.00388   0.00000   0.02927   0.02932   1.88291
   A33        1.85370   0.00244   0.00000   0.03269   0.03223   1.88593
   A34        1.85389  -0.00080   0.00000   0.00675   0.00661   1.86050
   A35        1.85394   0.00400   0.00000   0.03102   0.03061   1.88456
   A36        2.09438  -0.00991   0.00000  -0.09560  -0.09530   1.99908
   A37        1.95833  -0.00727   0.00000  -0.02882  -0.02852   1.92981
   A38        1.85441   0.00254   0.00000   0.01968   0.01983   1.87424
   A39        1.85443   0.00504   0.00000   0.03149   0.03175   1.88617
   A40        1.85238   0.00585   0.00000   0.03414   0.03436   1.88674
   A41        1.85232   0.00340   0.00000   0.03006   0.03014   1.88246
   A42        2.09447  -0.01049   0.00000  -0.08992  -0.08983   2.00463
    D1       -1.64504  -0.00011   0.00000  -0.00312  -0.00271  -1.64775
    D2        1.49649   0.00076   0.00000   0.01398   0.01357   1.51006
    D3        1.49656   0.00020   0.00000   0.00198   0.00238   1.49894
    D4       -1.64510   0.00106   0.00000   0.01907   0.01866  -1.62644
    D5       -1.13780   0.00240   0.00000   0.01306   0.01339  -1.12442
    D6        3.00597  -0.00220   0.00000   0.01098   0.01091   3.01687
    D7        0.92103   0.00271   0.00000   0.03665   0.03709   0.95812
    D8        2.00386   0.00145   0.00000  -0.00556  -0.00569   1.99817
    D9       -0.13555  -0.00314   0.00000  -0.00763  -0.00817  -0.14373
   D10       -2.22049   0.00177   0.00000   0.01803   0.01801  -2.20248
   D11       -3.07603   0.00129   0.00000   0.01032   0.01034  -3.06568
   D12       -1.05988   0.00708   0.00000   0.05594   0.05599  -1.00389
   D13        1.19098  -0.00044   0.00000  -0.01729  -0.01729   1.17369
   D14       -0.95185  -0.00516   0.00000  -0.02777  -0.02797  -0.97982
   D15        1.06430   0.00063   0.00000   0.01785   0.01768   1.08198
   D16       -2.96803  -0.00688   0.00000  -0.05538  -0.05560  -3.02363
   D17        1.17780  -0.00231   0.00000  -0.01937  -0.01919   1.15861
   D18       -3.08924   0.00348   0.00000   0.02626   0.02645  -3.06278
   D19       -0.83838  -0.00404   0.00000  -0.04698  -0.04683  -0.88521
   D20        3.09461   0.00069   0.00000   0.00324   0.00305   3.09767
   D21        1.07756  -0.00405   0.00000  -0.03437  -0.03462   1.04294
   D22       -1.17158   0.00398   0.00000   0.04296   0.04270  -1.12888
   D23        0.94575   0.00374   0.00000   0.02299   0.02316   0.96891
   D24       -1.07130  -0.00100   0.00000  -0.01462  -0.01452  -1.08582
   D25        2.96274   0.00703   0.00000   0.06271   0.06281   3.02555
   D26       -1.15987  -0.00035   0.00000  -0.00221  -0.00190  -1.16177
   D27        3.10626  -0.00510   0.00000  -0.03983  -0.03957   3.06669
   D28        0.85711   0.00294   0.00000   0.03750   0.03775   0.89487
   D29        0.95191  -0.00006   0.00000   0.01038   0.01032   0.96223
   D30        2.96902   0.00417   0.00000   0.04724   0.04721   3.01623
   D31       -1.06511  -0.00528   0.00000  -0.04095  -0.04110  -1.10620
   D32       -1.06614  -0.00296   0.00000  -0.02156  -0.02158  -1.08773
   D33        0.95097   0.00127   0.00000   0.01529   0.01530   0.96626
   D34       -3.08316  -0.00817   0.00000  -0.07289  -0.07300   3.12702
   D35        2.96999   0.00478   0.00000   0.05312   0.05316   3.02315
   D36       -1.29608   0.00900   0.00000   0.08997   0.09004  -1.20604
   D37        0.95298  -0.00044   0.00000   0.00178   0.00174   0.95471
   D38       -0.92920  -0.00343   0.00000  -0.02499  -0.02515  -0.95434
   D39        1.08765   0.00299   0.00000   0.02792   0.02798   1.11562
   D40       -2.94595  -0.00588   0.00000  -0.05785  -0.05795  -3.00391
   D41       -2.94661  -0.00567   0.00000  -0.05190  -0.05205  -2.99866
   D42       -0.92977   0.00076   0.00000   0.00102   0.00108  -0.92869
   D43        1.31982  -0.00812   0.00000  -0.08475  -0.08485   1.23496
   D44        1.08809   0.00265   0.00000   0.02753   0.02750   1.11559
   D45        3.10493   0.00907   0.00000   0.08044   0.08062  -3.09763
   D46       -0.92867   0.00020   0.00000  -0.00533  -0.00531  -0.93397
   D47        0.92156   0.00432   0.00000   0.02907   0.02921   0.95077
   D48        2.93904   0.00592   0.00000   0.05235   0.05255   2.99159
   D49       -1.09604  -0.00219   0.00000  -0.02528  -0.02531  -1.12136
   D50       -1.09497  -0.00238   0.00000  -0.02419  -0.02425  -1.11922
   D51        0.92251  -0.00078   0.00000  -0.00091  -0.00091   0.92160
   D52       -3.11258  -0.00889   0.00000  -0.07854  -0.07877   3.09184
   D53        2.93810   0.00642   0.00000   0.06101   0.06111   2.99921
   D54       -1.32761   0.00802   0.00000   0.08429   0.08445  -1.24316
   D55        0.92049  -0.00009   0.00000   0.00667   0.00659   0.92708
   D56       -0.93859   0.00007   0.00000  -0.01097  -0.01088  -0.94947
   D57        1.07970   0.00282   0.00000   0.01790   0.01788   1.09758
   D58       -2.95686  -0.00422   0.00000  -0.05157  -0.05153  -3.00838
   D59       -2.95588  -0.00437   0.00000  -0.04792  -0.04787  -3.00375
   D60       -0.93760  -0.00163   0.00000  -0.01905  -0.01911  -0.95671
   D61        1.30904  -0.00867   0.00000  -0.08851  -0.08852   1.22052
   D62        1.07888   0.00563   0.00000   0.04440   0.04460   1.12348
   D63        3.09716   0.00837   0.00000   0.07327   0.07336  -3.11267
   D64       -0.93939   0.00134   0.00000   0.00380   0.00395  -0.93544
         Item               Value     Threshold  Converged?
 Maximum Force            0.027027     0.000450     NO 
 RMS     Force            0.006444     0.000300     NO 
 Maximum Displacement     0.219625     0.001800     NO 
 RMS     Displacement     0.046965     0.001200     NO 
 Predicted change in Energy=-1.902616D-02
 Lowest energy point so far.  Saving SCF results.
 GradGradGradGradGradGradGradGradGradGradGradGradGradGradGradGradGradGrad

 Leave Link  103 at Mon Dec 30 16:44:14 2019, MaxMem= 10737418240 cpu:               1.6 elap:               0.1
 (Enter /apps/cent7/gaussian/g16-A.03/g16-haswell/g16/l202.exe)
                          Input orientation:                          
 ---------------------------------------------------------------------
 Center     Atomic      Atomic             Coordinates (Angstroms)
 Number     Number       Type             X           Y           Z
 ---------------------------------------------------------------------
      1          8           0        1.472448    0.171807    0.083114
      2          7           0        0.102170    0.101091    0.210636
      3          6           0       -0.479766   -1.248540    0.147058
      4          6           0       -0.257299   -1.883433   -1.240918
      5          6           0       -0.964749   -3.255087   -1.334773
      6          6           0       -2.467587   -3.134659   -0.995081
      7          6           0       -2.684400   -2.474382    0.386592
      8          6           0       -1.969897   -1.106227    0.489748
      9          1           0        2.037144    0.187065    0.874246
     10          1           0       -0.360287    0.992180    0.320315
     11          1           0        0.026103   -1.853661    0.908321
     12          1           0       -0.703740   -1.213438   -1.980203
     13          1           0        0.812250   -2.066984   -1.371870
     14          1           0       -0.880177   -3.587251   -2.368049
     15          1           0       -0.505670   -3.926030   -0.604871
     16          1           0       -2.936018   -2.500014   -1.751068
     17          1           0       -2.870328   -4.144752   -0.941255
     18          1           0       -3.749007   -2.278506    0.500041
     19          1           0       -2.261052   -3.133873    1.147041
     20          1           0       -2.412816   -0.434958   -0.250977
     21          1           0       -2.048384   -0.764989    1.522611
     22          1           0        1.875000    0.210820   -0.801203
 ---------------------------------------------------------------------
                    Distance matrix (angstroms):
                    1          2          3          4          5
     1  O    0.000000
     2  N    1.378014   0.000000
     3  C    2.415081   1.471121   0.000000
     4  C    2.994845   2.484866   1.542420   0.000000
     5  C    4.437785   3.845846   2.541115   1.546198   0.000000
     6  C    5.255388   4.304356   2.968730   2.551740   1.545451
     7  C    4.936982   3.798551   2.533865   2.981414   2.555348
     8  C    3.694383   2.414329   1.535637   2.555826   2.992792
     9  H    0.972113   2.047412   2.987407   3.745044   5.073415
    10  H    2.021928   1.009918   2.250582   3.273714   4.598257
    11  H    2.622098   2.076922   1.096173   2.168048   2.824403
    12  H    3.303328   2.679039   2.139308   1.093044   2.157090
    13  H    2.750459   2.776523   2.155527   1.093057   2.137917
    14  H    5.066909   4.606353   3.457696   2.135743   1.088643
    15  H    4.602015   4.153580   2.781191   2.153706   1.092554
    16  H    5.471510   4.454729   3.346975   2.795704   2.151590
    17  H    6.208198   5.309405   3.909892   3.468614   2.139532
    18  H    5.782859   4.536276   3.445775   3.921613   3.474529
    19  H    5.098870   4.114203   2.779824   3.358716   2.802587
    20  H    3.946525   2.612583   2.134720   2.779266   3.350320
    21  H    3.917397   2.663880   2.141619   3.477930   3.942017
    22  H    0.972413   2.044207   2.928114   3.020918   4.512359
                    6          7          8          9         10
     6  C    0.000000
     7  C    1.546607   0.000000
     8  C    2.562606   1.546933   0.000000
     9  H    5.900919   5.441882   4.228099   0.000000
    10  H    4.816823   4.174080   2.650069   2.588962   0.000000
    11  H    3.388567   2.829191   2.172068   2.865311   2.931528
    12  H    2.787959   3.333874   2.777645   4.197825   3.205479
    13  H    3.469759   3.935063   3.482674   3.409713   3.687385
    14  H    2.147034   3.475881   3.938271   5.767903   5.335614
    15  H    2.151197   2.799491   3.360572   5.056802   5.006585
    16  H    1.092574   2.152570   2.810212   6.232576   4.808371
    17  H    1.088754   2.141935   3.477238   6.792936   5.854907
    18  H    2.147190   1.088405   2.130628   6.300684   4.713079
    19  H    2.152055   1.091986   2.151314   5.438523   4.617434
    20  H    2.800907   2.153950   1.093368   4.631974   2.564366
    21  H    3.482792   2.148738   1.090600   4.244800   2.717137
    22  H    5.485242   5.423033   4.264317   1.683444   2.620082
                   11         12         13         14         15
    11  H    0.000000
    12  H    3.047315   0.000000
    13  H    2.421322   1.843050   0.000000
    14  H    3.815925   2.411752   2.483525   0.000000
    15  H    2.620544   3.047774   2.404424   1.834073   0.000000
    16  H    4.032900   2.586667   3.792204   2.406083   3.042019
    17  H    4.130296   3.790267   4.250169   2.511425   2.398458
    18  H    3.820817   4.069353   4.934962   4.262504   3.801894
    19  H    2.631921   3.986596   4.114407   3.803712   2.603473
    20  H    3.050412   2.552880   3.784304   4.094867   3.993749
    21  H    2.421994   3.778741   4.272755   4.946424   4.110758
    22  H    3.256220   3.173082   2.577497   4.946853   4.776993
                   16         17         18         19         20
    16  H    0.000000
    17  H    1.834469   0.000000
    18  H    2.403645   2.516403   0.000000
    19  H    3.042432   2.398765   1.834195   0.000000
    20  H    2.605469   3.801102   2.397521   3.043292   0.000000
    21  H    3.809879   4.262514   2.495697   2.407881   1.840474
    22  H    5.603281   6.442730   6.286448   5.664764   4.370943
                   21         22
    21  H    0.000000
    22  H    4.663181   0.000000
 Stoichiometry    C6H14NO(1+)
 Framework group  C1[X(C6H14NO)]
 Deg. of freedom    60
 Full point group                 C1      NOp   1
 RotChk:  IX=0 Diff= 9.40D-03
 Largest Abelian subgroup         C1      NOp   1
 Largest concise Abelian subgroup C1      NOp   1
                         Standard orientation:                         
 ---------------------------------------------------------------------
 Center     Atomic      Atomic             Coordinates (Angstroms)
 Number     Number       Type             X           Y           Z
 ---------------------------------------------------------------------
      1          8           0       -2.887097    0.294840    0.148276
      2          7           0       -1.870780   -0.543984   -0.254710
      3          6           0       -0.531045   -0.223594    0.261677
      4          6           0       -0.044551    1.141032   -0.267642
      5          6           0        1.405377    1.420350    0.191074
      6          6           0        2.355014    0.274082   -0.224472
      7          6           0        1.848322   -1.094458    0.287734
      8          6           0        0.394196   -1.374533   -0.159568
      9          1           0       -3.429711    0.068912    0.922570
     10          1           0       -2.155070   -1.285958   -0.878080
     11          1           0       -0.608300   -0.182506    1.354352
     12          1           0       -0.057380    1.089568   -1.359399
[...]
 5,-0.00021335,-0.00148681,-0.00032985,0.00137881,-0.00280872,-0.004448
 38,0.07103375,-0.11755141,0.17964153,0.00096552,-0.00630068,-0.0067371
 3,-0.00421343,0.00038031,0.00257511,-0.00150956,-0.00007459,-0.0003428
 7,-0.27047551,0.03434058,0.04410756,-0.01888150,0.00200001,0.00303376,
 0.00070566,-0.00526836,-0.00107407,0.00047653,-0.00018976,-0.00063864,
 0.00083749,0.00089803,0.00170960,0.00086577,-0.00067276,0.00015361,-0.
 00020031,-0.00012676,-0.00021573,0.00028502,0.00030676,0.00100351,-0.0
 1216880,0.00070503,0.00230438,0.29969231,-0.00190291,-0.00111136,-0.00
 018226,0.00137144,0.00102668,0.00002458,0.01043769,-0.00317993,-0.0003
 5646,0.03924557,-0.04737287,-0.00678382,-0.03178586,0.00214170,0.00581
 862,-0.00088520,-0.00613019,-0.00107263,0.00005787,-0.00025751,-0.0003
 4115,-0.00021963,-0.00048556,-0.00246129,-0.00000100,-0.00014908,-0.00
 013404,0.00017237,-0.00007950,0.00005621,-0.00058445,0.00022550,0.0002
 5775,0.01839632,-0.00234699,-0.00500569,-0.03224413,0.05824792,-0.0031
 3486,0.00034323,0.00186033,0.00269895,0.00202649,-0.00010497,0.0304475
 3,-0.00278834,-0.00364503,0.04719808,-0.00593180,-0.06013475,-0.003803
 70,0.00127124,0.00091444,-0.00048953,-0.00122309,0.00023526,-0.0005200
 6,-0.00034350,0.00010276,-0.00131847,-0.00274673,-0.00550133,-0.000023
 11,-0.00016303,-0.00000948,-0.00004203,-0.00021478,-0.00010489,-0.0004
 8049,0.00052038,0.00095843,-0.02066457,0.00130960,0.00486924,-0.050397
 22,0.01268902,0.06117594,0.00028284,0.00008431,0.00003860,0.00012773,-
 0.00161257,-0.00129854,-0.00130221,-0.00256844,0.00070265,0.00066772,-
 0.00533304,-0.01525010,-0.05195562,0.01284872,0.03525475,-0.00352494,0
 .01113849,0.03174850,-0.00727808,-0.00019013,-0.00030158,-0.00036212,-
 0.00029600,-0.00002074,0.00007621,0.00002074,0.00003142,-0.00008970,0.
 00001982,-0.00002554,-0.00012492,0.00012505,0.00030625,0.00037581,0.00
 046708,0.00041859,0.00043035,0.00053542,-0.00054825,0.05881724,0.00005
 063,0.00004904,0.00017010,0.00000174,-0.00189709,-0.00248336,-0.003098
 37,-0.00399842,0.00227982,0.00261351,-0.01259863,-0.02869758,0.0127017
 4,-0.07596240,-0.08167631,0.00093474,-0.00087980,-0.00067623,-0.000108
 66,0.00041510,0.00025404,-0.00024336,0.00024628,0.00046174,0.00012646,
 0.00001382,0.00007337,-0.00001114,0.00018862,-0.00005508,-0.00007541,0
 .00005443,-0.00023922,0.00082091,0.00090937,0.00001405,0.00038212,0.00
 113487,0.00012013,-0.01093170,0.08405790,-0.00009908,-0.00006976,-0.00
 002553,0.00027237,0.00012463,0.00014638,-0.00019415,0.00033635,0.00107
 993,-0.00036253,0.00026044,-0.00041943,0.03491943,-0.08418932,-0.28834
 550,0.00022386,-0.00062322,-0.00395220,0.00163656,0.00025642,0.0009955
 6,-0.00003116,0.00027736,0.00020920,0.00003392,0.00001438,0.00001960,-
 0.00003856,-0.00002766,-0.00002351,0.00001722,0.00011722,0.00031277,-0
 .00010689,-0.00023702,0.00044157,-0.00042465,-0.00024775,0.00008162,-0
 .03883539,0.09061543,0.30700032,-0.00010986,0.00013177,0.00009831,0.00
 011194,0.00010950,-0.00010833,0.00019577,0.00026964,0.00050215,0.00588
 388,-0.01206689,0.01081468,-0.09549201,0.07434007,-0.07054630,-0.01687
 518,0.02205310,-0.02131233,0.00150142,-0.00008590,-0.00155839,-0.00011
 196,-0.00002244,0.00017352,0.00004403,0.00000361,0.00001098,-0.0000643
 0,0.00013873,0.00006713,0.00004104,0.00027858,-0.00012525,-0.00081290,
 -0.00361763,-0.00075561,0.00084505,0.00054109,0.00048661,0.00142660,-0
 .00325896,0.00264357,0.10794659,0.00004387,0.00007991,-0.00008308,-0.0
 0058394,0.00029798,-0.00065170,0.00089426,0.00038864,0.00194644,0.0110
 1867,-0.02228426,0.01790107,0.07340254,-0.15854547,0.10464507,0.000922
 13,-0.00032914,0.00035337,-0.00016838,-0.00022431,0.00028705,0.0000100
 5,-0.00014608,-0.00020527,0.00005576,-0.00007716,0.00003163,0.00007022
 ,0.00037815,0.00016658,-0.00009199,-0.00028717,-0.00104992,-0.00288855
 ,-0.00438789,-0.00120315,0.00005740,0.00093337,0.00003451,-0.00505611,
 0.00777689,-0.00634811,-0.07777914,0.17471820,0.00017159,0.00004234,-0
 .00001012,-0.00008512,-0.00001554,0.00015322,0.00032582,-0.00067580,0.
 00073223,0.00243130,-0.00334259,0.00199374,-0.07003291,0.10526928,-0.1
 5080935,0.00288263,-0.00526278,0.00369675,0.00036146,-0.00061954,0.001
 23035,-0.00002991,-0.00004023,0.00002920,-0.00005280,0.00001535,-0.000
 02443,-0.00006594,-0.00000651,-0.00010441,-0.00020055,0.00007048,0.000
 27571,-0.00011427,-0.00118680,0.00073147,0.00036914,0.00052556,0.00002
 199,-0.01315615,0.02038439,-0.01803968,0.07643080,-0.11518042,0.159193
 87,0.00015140,0.00001818,-0.00002499,-0.00009294,-0.00017863,-0.000035
 19,-0.00016422,0.00005787,0.00012378,0.00128331,0.00114491,-0.00084417
 ,-0.01745938,0.02050135,-0.02193538,-0.09902856,0.06725218,-0.07762481
 ,0.00265445,-0.00424121,0.00450372,-0.00019307,0.00005539,-0.00029219,
 -0.00002632,0.00000682,-0.00002928,-0.00004336,-0.00003890,-0.00003521
 ,0.00002953,0.00008063,0.00018217,-0.00018200,-0.00104448,0.00020297,0
 .00051558,0.00005066,0.00047606,0.00116686,-0.00002626,0.00017551,-0.0
 0606894,-0.00022292,0.00164530,0.11005600,0.00009728,0.00006045,0.0000
 1097,-0.00003397,0.00005814,0.00013259,-0.00006167,-0.00001054,-0.0001
 6691,-0.00051354,0.00096283,-0.00043219,0.00072064,-0.00258158,0.00086
 693,0.06754846,-0.14070503,0.10317475,-0.00646852,0.00670603,-0.009423
 25,-0.00019497,0.00145646,-0.00040202,-0.00003846,-0.00001535,-0.00002
 675,0.00000360,-0.00005138,-0.00000206,0.00005981,-0.00010069,0.000031
 35,0.00011287,0.00042529,0.00018696,0.00005754,0.00007841,-0.00007855,
 0.00037848,-0.00008999,-0.00007034,0.00025126,0.00114574,-0.00056609,-
 0.07588154,0.14899858,-0.00011279,-0.00004651,0.00001759,-0.00000363,0
 .00000523,0.00006291,0.00012398,-0.00012020,-0.00013016,-0.00020818,-0
 .00031446,0.00007839,0.00421906,-0.00532404,0.00583390,-0.07780446,0.1
 0309719,-0.16389935,-0.01317946,0.01865486,-0.02347383,-0.00023714,0.0
 0142847,0.00110441,-0.00001162,0.00000409,-0.00000841,-0.00005092,-0.0
 0002368,-0.00002232,0.00019392,0.00006651,-0.00001670,-0.00042281,-0.0
 0010834,-0.00003175,-0.00006761,-0.00018339,0.00002331,-0.00050370,-0.
 00028380,0.00053405,0.00235722,-0.00005027,0.00064334,0.08261810,-0.11
 123216,0.18109164,0.00025191,-0.00034079,-0.00046385,-0.00039303,-0.00
 026069,-0.00007313,-0.00003232,0.00056750,0.00073183,-0.00608264,0.001
 40329,0.00117919,-0.01403029,-0.02972753,-0.00212764,-0.09387626,-0.10
 149906,-0.00834188,0.00220749,0.00590200,-0.00059927,0.00030281,0.0010
 1621,0.00169620,0.00011496,-0.00002500,0.00003414,-0.00005524,0.000055
 51,0.00004523,0.00000173,-0.00005010,-0.00007665,0.00010477,0.00015472
 ,0.00012131,-0.00136739,-0.00173068,-0.00034625,0.00112361,-0.00000039
 ,0.00027961,0.00109801,0.00000486,-0.00071237,0.00631954,0.01369669,0.
 00157494,0.10333205,-0.00022854,0.00011329,0.00022989,0.00025315,0.000
 15833,-0.00000623,0.00030769,0.00010204,-0.00008163,0.00122482,0.00125
 403,0.00006204,0.00215846,0.00411463,0.00076421,-0.10301486,-0.2732406
 0,-0.01726011,-0.00359892,-0.00955789,-0.00008026,0.00103150,0.0004879
 0,-0.00257542,0.00001525,0.00002558,0.00003245,0.00004344,0.00001709,-
 0.00000341,-0.00003236,-0.00002078,-0.00000675,0.00011647,0.00020175,-
 0.00008630,0.00019118,0.00015328,-0.00010758,-0.00054113,0.00016785,0.
 00018613,-0.00040494,0.00046695,0.00007337,-0.00749912,-0.01669678,-0.
 00134961,0.11033941,0.29191354,-0.00056375,0.00011935,0.00039703,0.000
 48891,0.00028383,-0.00008089,0.00055891,-0.00005403,-0.00033674,0.0018
 1334,-0.00018711,0.00004430,0.00231749,0.00713707,-0.00031190,-0.00785
 258,-0.01592682,-0.04871102,-0.01339362,-0.02880928,-0.00215131,0.0012
 3257,-0.00172534,-0.00622214,-0.00000191,0.00001665,0.00002783,0.00006
 268,-0.00002446,-0.00006234,-0.00007158,0.00000149,0.00001408,-0.00015
 246,-0.00046860,0.00003949,0.00072501,0.00047692,0.00038898,-0.0001932
 4,0.00037405,-0.00004986,-0.00028825,-0.00037071,0.00021841,0.00962915
 ,0.01981193,0.00151848,0.00692791,0.02045003,0.05336335,-0.00059781,-0
 .00024584,0.00011831,-0.00024300,0.00011677,0.00012018,0.00098935,-0.0
 0221592,-0.00067662,0.00038587,0.00005014,-0.00024695,0.00123161,0.000
 29974,0.00072276,-0.00154060,0.00058280,0.00024562,-0.30997378,0.02742
 447,0.04858750,-0.01302464,0.00047332,0.00171128,0.00005054,0.00003214
 ,0.00011430,-0.00002130,0.00003441,0.00003476,0.00030462,-0.00003447,-
 0.00001974,-0.00003501,-0.00000587,0.00004241,0.00000613,0.00005561,-0
 .00001070,-0.00020293,-0.00012827,-0.00005212,0.00020394,-0.00009739,-
 0.00007336,0.00033433,-0.00008805,0.00027435,0.00015598,0.00025177,0.0
 0026072,0.33204938,-0.00316423,-0.00100150,0.00071189,0.00082906,0.002
 13417,-0.00003752,-0.00207206,-0.00672818,-0.00102669,0.00015974,-0.00
 005979,-0.00014234,-0.00018945,-0.00091337,-0.00319506,0.01252087,-0.0
 0161691,-0.00083991,0.02934057,-0.04982219,-0.00461534,-0.03119223,0.0
 0059259,0.00538736,0.00001618,0.00002350,0.00030854,-0.00004180,0.0001
 5761,0.00007537,0.00007125,-0.00002113,-0.00018175,-0.00001024,0.00006
 823,0.00006621,0.00016635,0.00007784,0.00006178,0.00094456,0.00032753,
 -0.00039671,-0.00051684,0.00015221,0.00006832,-0.00050566,0.00042325,0
 .00023943,0.00025361,-0.00009060,0.00036551,-0.02775019,0.05617556,-0.
 00059766,-0.00016522,0.00021138,0.00006094,0.00005042,0.00025712,-0.00
 068828,-0.00084296,0.00006826,-0.00036698,-0.00026018,0.00004209,-0.00
 064710,-0.00254223,-0.00608878,0.03108925,-0.00274593,-0.00537947,0.04
 759126,-0.00434505,-0.05634416,-0.00372234,0.00094008,-0.00012459,0.00
 000374,0.00002077,0.00005583,0.00003839,-0.00004476,0.00000124,0.00040
 960,-0.00015401,0.00001875,0.00001518,0.00007166,-0.00000041,0.0000637
 6,0.00007281,0.00006511,0.00190084,-0.00006458,-0.00029063,0.00002241,
 -0.00016826,0.00010819,-0.00006859,0.00081832,0.00090368,-0.00038986,0
 .00002812,0.00116326,-0.05276353,0.00753617,0.06136500,0.00004174,0.00
 019267,-0.00015243,0.00028309,-0.00027083,0.00019229,0.00143146,-0.000
 59369,0.00085940,-0.00010974,-0.00009946,-0.00001034,0.00085648,-0.000
 84074,0.00061068,0.00070471,-0.00302384,0.00322610,-0.08677621,0.06277
 180,-0.06620070,0.00398675,-0.01113317,0.01080281,-0.00006759,-0.00002
 902,-0.00001321,-0.00009557,0.00011696,-0.00011482,-0.00016102,-0.0000
 1738,-0.00017542,-0.00007577,0.00008848,-0.00010351,0.00000402,0.00003
 629,0.00000868,0.00007786,0.00001033,-0.00010514,0.00018902,0.00025454
 ,0.00001914,0.00073786,-0.00000718,0.00104135,0.00008105,-0.00004987,-
 0.00060212,-0.01080044,0.02025872,-0.02197089,0.09007638,-0.00051264,0
 .00007395,-0.00005394,0.00062617,0.00046809,-0.00035279,0.00151603,0.0
 0010520,0.00065102,-0.00013747,-0.00000836,-0.00003771,-0.00072062,0.0
 0031867,0.00016748,-0.00517064,0.00907125,-0.00998008,0.06186967,-0.15
 090729,0.11176219,0.01028595,-0.02189920,0.01954144,-0.00002652,-0.000
 01700,0.00011296,0.00027711,0.00032049,-0.00010360,-0.00102191,0.00027
 143,-0.00005457,0.00003952,-0.00005436,-0.00016712,-0.00001148,0.00002
 108,0.00009913,-0.00019342,0.00001351,0.00002787,-0.00003536,-0.000020
 59,0.00035403,0.00076124,-0.00014670,-0.00322387,-0.00034144,0.0006155
 7,0.00052214,0.00117778,-0.00203667,0.00164183,-0.06544047,0.16768082,
 0.00008325,0.00004747,-0.00001633,0.00012683,-0.00030420,0.00013192,0.
 00003574,0.00024190,-0.00007831,0.00017836,-0.00013039,-0.00006532,-0.
 00121156,0.00103472,0.00126682,-0.01219867,0.01885424,-0.02308001,-0.0
 6602833,0.11251824,-0.16801591,0.00209326,-0.00342455,0.00331628,0.000
 01055,0.00003657,0.00000426,-0.00008248,0.00000172,-0.00003161,0.00039
 596,0.00022662,0.00001419,-0.00015115,-0.00015173,0.00001907,0.0000963
 6,0.00009007,0.00002475,-0.00008257,-0.00040479,0.00040798,0.00113172,
 -0.00038691,0.00013055,0.00160537,-0.00284030,-0.00484222,-0.00024044,
 -0.00008813,0.00102351,0.00180363,-0.00425035,0.00400421,0.07271058,-0
 .11986454,0.18445056,0.00127766,-0.00069229,0.00055968,-0.00065163,0.0
 0252465,-0.00090709,-0.01858882,0.02061447,-0.02144549,0.00126903,-0.0
 0019103,-0.00169952,-0.00017820,-0.00004330,0.00018142,0.00025306,0.00
 067963,0.00055251,0.00689078,-0.01123572,0.01034212,-0.09272558,0.0704
 2808,-0.06711087,0.00023856,0.00018429,-0.00025690,-0.00109050,-0.0012
 2437,0.00018717,-0.00548453,-0.00045695,0.00171800,0.00016133,-0.00009
 512,0.00099120,0.00030992,-0.00045350,0.00022183,0.00006730,0.00009636
 ,-0.00000153,-0.00010911,-0.00014072,-0.00001827,0.00004513,0.00027062
 ,-0.00025881,-0.00008907,0.00010543,0.00015614,0.00052233,0.00036953,0
 .00039794,-0.00071909,-0.00335600,-0.00076440,0.10653797,0.00066189,0.
 00005044,-0.00041829,-0.00209306,0.00071579,-0.00036398,0.00077510,-0.
 00274556,0.00076863,0.00000104,-0.00008560,0.00034990,-0.00005188,-0.0
 0016590,-0.00031416,0.00106519,0.00146827,0.00138890,0.01166188,-0.022
 17609,0.01952136,0.07086582,-0.15050822,0.10434384,-0.00001762,0.00000
 113,0.00001595,0.00025041,0.00052595,0.00017630,0.00003014,0.00041642,
 -0.00022349,0.00028402,-0.00007921,-0.00050106,-0.00014822,0.00011120,
 -0.00020768,0.00006508,-0.00002224,-0.00003361,-0.00017641,0.00012136,
 0.00006609,-0.00016820,0.00001577,-0.00112484,-0.00036920,0.00046539,-
 0.00000097,0.00004039,0.00125243,0.00001618,-0.00305518,-0.00455121,-0
 .00142089,-0.07404457,0.16751096,-0.00035308,-0.00036107,0.00010491,0.
 00035907,0.00011572,0.00018169,0.00308870,-0.00547098,0.00385882,0.000
 34064,-0.00075405,0.00095126,0.00018937,0.00011021,-0.00000041,0.00040
 277,-0.00090435,0.00100133,0.00149205,-0.00163575,0.00108049,-0.068259
 93,0.10469339,-0.15590247,-0.00000690,-0.00003574,-0.00007052,-0.00109
 285,-0.00000902,0.00026149,0.00174266,-0.00012379,0.00059749,0.0002048
 2,0.00024570,0.00019120,-0.00015931,0.00003481,0.00002732,-0.00004291,
 -0.00001549,-0.00002039,-0.00006869,0.00001776,-0.00013097,-0.00030062
 ,0.00013462,0.00027331,0.00004031,0.00004088,0.00010452,0.00020595,0.0
 0044529,0.00007570,0.00001075,-0.00083421,0.00091810,0.07484852,-0.115
 57679,0.16354496,0.00132384,-0.00023700,-0.00146880,-0.00047070,0.0004
 1449,0.00224491,-0.00591199,0.01093947,0.03220702,-0.00644364,-0.00056
 162,-0.00052137,-0.00027087,-0.00047610,-0.00023105,-0.00153767,-0.003
 43075,0.00051030,0.00221268,-0.00427156,-0.01518357,-0.05220313,0.0125
 3218,0.02671953,-0.00015475,-0.00004570,0.00002679,-0.00020328,-0.0000
 6662,0.00001668,0.00121925,0.00025942,-0.00020935,-0.00004976,-0.00014
 498,0.00006167,-0.00046470,0.00063392,0.00189290,0.00012951,0.00005334
 ,-0.00003584,0.00008743,0.00006540,-0.00001349,0.00000086,0.00014943,0
 .00046953,0.00044836,-0.00061611,-0.00090734,0.00016236,0.00050075,-0.
 00033373,0.00039269,0.00042718,0.00049604,0.00188429,-0.00565456,-0.01
 272077,0.05939440,0.00063031,-0.00009380,-0.00015314,-0.00147681,0.000
 46807,0.00094614,0.00079389,-0.00236913,-0.00155983,0.00016793,0.00040
 055,0.00036085,-0.00041695,0.00012285,0.00025812,-0.00334738,-0.005086
 25,0.00152234,0.00407826,-0.00996120,-0.02797674,0.01323434,-0.0784413
 5,-0.08550261,0.00000231,0.00005355,-0.00008393,0.00013888,0.00011663,
 0.00030780,-0.00008697,-0.00012296,-0.00034534,-0.00000380,-0.00001554
 ,-0.00038058,-0.00028554,0.00025279,-0.00016722,0.00006306,0.00003882,
 0.00002519,0.00007980,-0.00003414,0.00002248,-0.00013077,0.00014040,-0
 .00009270,0.00035283,-0.00050192,-0.00164517,0.00006202,0.00127886,0.0
 0029143,0.00089777,0.00075488,0.00021950,-0.00364892,0.00758250,0.0197
 9599,-0.01108914,0.08535433,0.00006352,0.00055328,0.00078993,-0.000387
 76,-0.00060981,-0.00104936,0.00119631,-0.00028144,-0.00408470,0.000975
 89,-0.00019657,0.00076484,-0.00008473,0.00021215,0.00013062,-0.0004815
 2,-0.00042770,0.00106053,-0.00051445,0.00019546,-0.00049753,0.02988671
 ,-0.08594733,-0.28597455,0.00012385,-0.00000231,-0.00002318,0.00020573
 ,-0.00030000,-0.00040540,0.00027328,0.00013753,0.00053898,-0.00007620,
 0.00005426,0.00039540,-0.00004173,-0.00027998,-0.00006266,-0.00002799,
 -0.00000192,-0.00002794,0.00001815,-0.00002326,-0.00002302,0.00005070,
 0.00010259,0.00036399,0.00028846,-0.00006662,-0.00011351,-0.00030533,-
 0.00016783,0.00004139,-0.00003046,-0.00018397,0.00046764,0.00249911,-0
 .00661080,-0.01714369,-0.03334955,0.09408159,0.30492517,-0.08464361,0.
 07275511,0.04925490,-0.00829998,0.02351311,0.01394302,0.00063064,0.000
 86925,0.00211893,-0.00188890,0.00323958,0.00067847,0.00106646,-0.00213
 282,-0.00060018,-0.00003706,0.00098592,0.00020097,0.00021446,0.0000138
 6,0.00002303,-0.00012943,-0.00023417,-0.00016572,0.01187425,-0.0203768
 9,-0.01158935,-0.00154827,0.00078692,0.00345680,-0.00005461,-0.0005258
 6,-0.00008939,-0.00031476,-0.00005790,-0.00022150,0.00334185,-0.001726
 89,-0.00165139,0.00007087,0.00009063,0.00008501,0.00006955,0.00022942,
 -0.00008203,-0.00003607,-0.00005877,-0.00001132,0.00038395,-0.00005272
 ,-0.00014597,0.00004306,0.00001150,-0.00004436,-0.00005768,-0.00001266
 ,-0.00000803,0.00017915,0.00007794,0.00007943,0.00045484,-0.00001512,-
 0.00028198,0.07868130,0.06770364,-0.26495184,-0.21867912,0.01140852,0.
 00597681,0.00247971,-0.00378641,0.00443827,0.00313186,-0.00701718,0.00
 500442,0.00343184,0.00309542,-0.00303596,-0.00032802,-0.00032201,0.001
 68933,0.00054673,-0.00048452,0.00075636,0.00048942,0.00012770,-0.00305
 664,-0.00125873,-0.00327538,0.00258369,0.00682037,0.00087972,-0.001236
 80,-0.00028875,-0.00006697,-0.00057541,0.00027572,0.00204822,-0.000113
 36,0.00019640,0.00583696,-0.00329166,-0.00450322,0.00003174,0.00005452
 ,0.00000208,-0.00023264,-0.00012319,0.00000460,0.00000847,-0.00007333,
 -0.00001791,0.00059826,-0.00014864,-0.00034649,-0.00003537,-0.00037344
 ,-0.00015461,-0.00006673,-0.00007357,-0.00000428,0.00030942,0.00009642
 ,0.00008686,0.00061856,0.00006205,-0.00023734,-0.07737942,0.25639198,0
 .02845703,-0.18612175,-0.18526261,0.01997585,-0.00295110,-0.00907279,-
 0.00194181,0.00183344,0.00332907,-0.00404425,0.00580980,0.00275464,0.0
 0198808,-0.00232846,-0.00127137,-0.00026658,0.00127893,0.00044492,-0.0
 0057420,0.00080748,0.00054945,0.00049237,-0.00236914,-0.00163878,0.008
 22328,-0.02142234,-0.01315706,-0.00134657,0.00022102,0.00143612,0.0002
 6607,0.00025037,-0.00114674,-0.00059845,-0.00015571,-0.00053563,0.0039
 5717,-0.00299789,-0.00118639,-0.00011488,-0.00014876,-0.00003433,0.000
 00589,0.00033758,-0.00001704,-0.00002241,-0.00003040,-0.00002427,0.000
 45221,-0.00015506,-0.00026354,-0.00009340,-0.00041237,-0.00015317,-0.0
 0000274,-0.00002372,-0.00005015,-0.00019276,0.00014940,0.00009585,0.00
 032949,0.00007583,-0.00007296,-0.05494936,0.20835286,0.20527677\\-0.00
 001665,0.00001327,0.00000519,0.00001322,-0.00000131,-0.00001338,0.0000
 1700,0.00000029,-0.00000249,-0.00000703,-0.00001639,-0.00000104,0.0000
 1623,0.00000745,0.00000497,-0.00002348,-0.00000288,-0.00000709,0.00000
 083,0.00001051,0.00001233,-0.00001295,0.00000066,0.00000723,0.00002498
 ,-0.00001471,-0.00000401,-0.00000319,-0.00000331,-0.00000895,-0.000001
 14,-0.00000003,-0.00000238,0.00000123,-0.00000043,0.00000101,-0.000000
 93,0.00000216,-0.00000479,-0.00000933,-0.00000494,0.00000322,-0.000010
 96,-0.00000142,-0.00000138,-0.00000010,-0.00000080,0.00001029,-0.00000
 506,0.00000465,0.00000873,-0.00000040,0.00000412,0.00000580,-0.0000030
 9,0.00000749,0.00000127,0.00000364,0.00000442,0.00000256,0.00000610,0.
 00000703,-0.00000249,0.00001107,-0.00001585,-0.00001463\\\@


 "WOULD YOU TELL ME PLEASE, WHICH WAY I OUGHT TO WALK FROM HERE?"
 "THAT DEPENDS A GREAT DEAL ON WHERE YOU WANT TO GO," SAID THE CAT.
 "I DON'T MUCH CARE WHERE -- ", SAID ALICE.
 "THEN IT DOESN'T MATTER WHICH WAY YOU WALK," SAID THE CAT.

                                      -- LEWIS CARROLL
 Job cpu time:       0 days  0 hours 57 minutes  8.7 seconds.
 Elapsed time:       0 days  0 hours  2 minutes 23.9 seconds.
 File lengths (MBytes):  RWF=    146 Int=      0 D2E=      0 Chk=      8 Scr=      1
 Normal termination of Gaussian 16 at Mon Dec 30 16:51:22 2019.
real 447.93
user 10516.37
sys 26.52
Machine:
brown-a090
brown-a090
brown-a090
brown-a090
brown-a090
brown-a090
brown-a090
brown-a090
brown-a090
brown-a090
brown-a090
brown-a090
brown-a090
brown-a090
brown-a090
brown-a090
brown-a090
brown-a090
brown-a090
brown-a090
