 Entering Gaussian System, Link 0=/apps/cent7/gaussian/g16-A.03/g16-haswell/g16/g16
 Initial command:
 /apps/cent7/gaussian/g16-A.03/g16-haswell/g16/l1.exe "/scratch/brown/finej/gaussian/Gau-96462.inp" -scrdir="/scratch/brown/finej/gaussian/"
 Entering Link 1 = /apps/cent7/gaussian/g16-A.03/g16-haswell/g16/l1.exe PID=     96465.
  
 Copyright (c) 1988,1990,1992,1993,1995,1998,2003,2009,2016,
            Gaussian, Inc.  All Rights Reserved.
  
 This is part of the Gaussian(R) 16 program.  It is based on
 the Gaussian(R) 09 system (copyright 2009, Gaussian, Inc.),
 the Gaussian(R) 03 system (copyright 2003, Gaussian, Inc.),
 the Gaussian(R) 98 system (copyright 1998, Gaussian, Inc.),
 the Gaussian(R) 94 system (copyright 1995, Gaussian, Inc.),
 the Gaussian 92(TM) system (copyright 1992, Gaussian, Inc.),
 the Gaussian 90(TM) system (copyright 1990, Gaussian, Inc.),
 the Gaussian 88(TM) system (copyright 1988, Gaussian, Inc.),
 the Gaussian 86(TM) system (copyright 1986, Carnegie Mellon
 University), and the Gaussian 82(TM) system (copyright 1983,
 Carnegie Mellon University). Gaussian is a federally registered
 trademark of Gaussian, Inc.
  
 This software contains proprietary and confidential information,
 including trade secrets, belonging to Gaussian, Inc.
  
 This software is provided under written license and may be
 used, copied, transmitted, or stored only in accord with that
 written license.
  
 The following legend is applicable only to US Government
 contracts under FAR:
  
                    RESTRICTED RIGHTS LEGEND
  
 Use, reproduction and disclosure by the US Government is
 subject to restrictions as set forth in subparagraphs (a)
 and (c) of the Commercial Computer Software - Restricted
 Rights clause in FAR 52.227-19.
  
 Gaussian, Inc.
 340 Quinnipiac St., Bldg. 40, Wallingford CT 06492
  
  
 ---------------------------------------------------------------
 Warning -- This program may not be used in any manner that
 competes with the business of Gaussian, Inc. or will provide
 assistance to any competitor of Gaussian, Inc.  The licensee
 of this program is prohibited from giving any competitor of
 Gaussian, Inc. access to this program.  By using this program,
 the user acknowledges that Gaussian, Inc. is engaged in the
 business of creating and licensing software in the field of
 computational chemistry and represents and warrants to the
 licensee that it is not a competitor of Gaussian, Inc. and that
 it will not use this program in any manner prohibited above.
 ---------------------------------------------------------------
  

 Cite this work as:
 Gaussian 16, Revision A.03,
 M. J. Frisch, G. W. Trucks, H. B. Schlegel, G. E. Scuseria, 
 M. A. Robb, J. R. Cheeseman, G. Scalmani, V. Barone, 
 G. A. Petersson, H. Nakatsuji, X. Li, M. Caricato, A. V. Marenich, 
 J. Bloino, B. G. Janesko, R. Gomperts, B. Mennucci, H. P. Hratchian, 
 J. V. Ortiz, A. F. Izmaylov, J. L. Sonnenberg, D. Williams-Young, 
 F. Ding, F. Lipparini, F. Egidi, J. Goings, B. Peng, A. Petrone, 
 T. Henderson, D. Ranasinghe, V. G. Zakrzewski, J. Gao, N. Rega, 
 G. Zheng, W. Liang, M. Hada, M. Ehara, K. Toyota, R. Fukuda, 
 J. Hasegawa, M. Ishida, T. Nakajima, Y. Honda, O. Kitao, H. Nakai, 
 T. Vreven, K. Throssell, J. A. Montgomery, Jr., J. E. Peralta, 
 F. Ogliaro, M. J. Bearpark, J. J. Heyd, E. N. Brothers, K. N. Kudin, 
 V. N. Staroverov, T. A. Keith, R. Kobayashi, J. Normand, 
 K. Raghavachari, A. P. Rendell, J. C. Burant, S. S. Iyengar, 
 J. Tomasi, M. Cossi, J. M. Millam, M. Klene, C. Adamo, R. Cammi, 
 J. W. Ochterski, R. L. Martin, K. Morokuma, O. Farkas, 
 J. B. Foresman, and D. J. Fox, Gaussian, Inc., Wallingford CT, 2016.
 
 ******************************************
 Gaussian 16:  ES64L-G16RevA.03 25-Dec-2016
                13-Oct-2019 
 ******************************************
 %chk=12.chk
 %nprocshared=24
 Will use up to   24 processors via shared memory.
 %mem=80GB
 -------------------------------------------------------------------
 #P opt freq m062x/6-311++g(d,p) geom=connectivity temperature=0.001
 -------------------------------------------------------------------
 1/18=20,19=15,26=3,38=1,57=2,112=-1000/1,3;
 2/9=110,12=2,17=6,18=5,40=1/2;
 3/5=4,6=6,7=1111,11=2,25=1,30=1,71=1,74=-55/1,2,3;
 4//1;
 5/5=2,38=5/2;
 6/7=2,8=2,9=2,10=2,28=1/1;
 7//1,2,3,16;
 1/18=20,19=15,26=3/3(2);
 2/9=110/2;
 99//99;
 2/9=110/2;
 3/5=4,6=6,7=1111,11=2,25=1,30=1,71=1,74=-55/1,2,3;
 4/5=5,16=3,69=1/1;
 5/5=2,38=5/2;
 7//1,2,3,16;
 1/18=20,19=15,26=3/3(-5);
 2/9=110/2;
 6/7=2,8=2,9=2,10=2,19=2,28=1/1;
 99/9=1/99;
 Leave Link    1 at Sun Oct 13 19:39:37 2019, MaxMem= 10737418240 cpu:               0.8 elap:               0.0
 (Enter /apps/cent7/gaussian/g16-A.03/g16-haswell/g16/l101.exe)
 -------------------
 Title Card Required
 -------------------
 Symbolic Z-matrix:
 Charge =  0 Multiplicity = 1
 O                     1.2833    1.4484   -0.3003 
 C                     0.9265    0.7424    0.6722 
 N                     1.2481    1.0835    1.9357 
 O                     1.9756    2.1309    2.2092 
 O                     0.2047   -0.3985    0.4987 
 C                    -0.2583   -0.9398   -0.7436 
 C                    -1.0036   -2.1923   -0.4724 
 C                    -2.1655   -2.1635    0.3357 
 C                    -2.8856   -3.343     0.6005 
 C                    -2.4534   -4.5677    0.0619 
 C                    -1.2941   -4.6134   -0.732 
 C                    -0.5734   -3.4341   -0.9968 
 H                     0.9282    0.5271    2.7155 
 H                     2.0459    2.232     3.1613 
 H                    -0.9677   -0.2172   -1.147 
 H                     0.6324   -1.2053   -1.3129 
 H                    -2.5103   -1.2204    0.7596 
 H                    -3.7792   -3.308     1.2237 
 H                    -3.0161   -5.4801    0.2595 
 H                    -0.9537   -5.564    -1.1426 
 H                     0.3247   -3.4828   -1.6127 
 
 ITRead=  0  0  0  0  0  0  0  0  0  0  0  0  0  0  0  0  0  0  0  0
 ITRead=  0
 MicOpt= -1 -1 -1 -1 -1 -1 -1 -1 -1 -1 -1 -1 -1 -1 -1 -1 -1 -1 -1 -1
 MicOpt= -1
 NAtoms=     21 NQM=       21 NQMF=       0 NMMI=      0 NMMIF=      0
                NMic=       0 NMicF=      0.
                    Isotopes and Nuclear Properties:
 (Nuclear quadrupole moments (NQMom) in fm**2, nuclear magnetic moments (NMagM)
  in nuclear magnetons)

  Atom         1           2           3           4           5           6           7           8           9          10
 IAtWgt=          16          12          14          16          16          12          12          12          12          12
 AtmWgt=  15.9949146  12.0000000  14.0030740  15.9949146  15.9949146  12.0000000  12.0000000  12.0000000  12.0000000  12.0000000
 NucSpn=           0           0           2           0           0           0           0           0           0           0
 AtZEff=  -0.0000000  -0.0000000  -0.0000000  -0.0000000  -0.0000000  -0.0000000  -0.0000000  -0.0000000  -0.0000000  -0.0000000
 NQMom=    0.0000000   0.0000000   2.0440000   0.0000000   0.0000000   0.0000000   0.0000000   0.0000000   0.0000000   0.0000000
 NMagM=    0.0000000   0.0000000   0.4037610   0.0000000   0.0000000   0.0000000   0.0000000   0.0000000   0.0000000   0.0000000
 AtZNuc=   8.0000000   6.0000000   7.0000000   8.0000000   8.0000000   6.0000000   6.0000000   6.0000000   6.0000000   6.0000000

  Atom        11          12          13          14          15          16          17          18          19          20
 IAtWgt=          12          12           1           1           1           1           1           1           1           1
 AtmWgt=  12.0000000  12.0000000   1.0078250   1.0078250   1.0078250   1.0078250   1.0078250   1.0078250   1.0078250   1.0078250
 NucSpn=           0           0           1           1           1           1           1           1           1           1
 AtZEff=  -0.0000000  -0.0000000  -0.0000000  -0.0000000  -0.0000000  -0.0000000  -0.0000000  -0.0000000  -0.0000000  -0.0000000
 NQMom=    0.0000000   0.0000000   0.0000000   0.0000000   0.0000000   0.0000000   0.0000000   0.0000000   0.0000000   0.0000000
 NMagM=    0.0000000   0.0000000   2.7928460   2.7928460   2.7928460   2.7928460   2.7928460   2.7928460   2.7928460   2.7928460
 AtZNuc=   6.0000000   6.0000000   1.0000000   1.0000000   1.0000000   1.0000000   1.0000000   1.0000000   1.0000000   1.0000000

  Atom        21
 IAtWgt=           1
 AtmWgt=   1.0078250
 NucSpn=           1
 AtZEff=  -0.0000000
 NQMom=    0.0000000
 NMagM=    2.7928460
 AtZNuc=   1.0000000
 Leave Link  101 at Sun Oct 13 19:39:38 2019, MaxMem= 10737418240 cpu:              15.4 elap:               0.7
 (Enter /apps/cent7/gaussian/g16-A.03/g16-haswell/g16/l103.exe)

 GradGradGradGradGradGradGradGradGradGradGradGradGradGradGradGradGradGrad
 Berny optimization.
 Initialization pass.
                           ----------------------------
                           !    Initial Parameters    !
                           ! (Angstroms and Degrees)  !
 --------------------------                            --------------------------
 ! Name  Definition              Value          Derivative Info.                !
 --------------------------------------------------------------------------------
 ! R1    R(1,2)                  1.2536         estimate D2E/DX2                !
 ! R2    R(2,3)                  1.3477         estimate D2E/DX2                !
 ! R3    R(2,5)                  1.3612         estimate D2E/DX2                !
 ! R4    R(3,4)                  1.3043         estimate D2E/DX2                !
 ! R5    R(3,13)                 1.01           estimate D2E/DX2                !
 ! R6    R(4,14)                 0.96           estimate D2E/DX2                !
 ! R7    R(5,6)                  1.432          estimate D2E/DX2                !
 ! R8    R(6,7)                  1.4825         estimate D2E/DX2                !
 ! R9    R(6,15)                 1.09           estimate D2E/DX2                !
 ! R10   R(6,16)                 1.0899         estimate D2E/DX2                !
 ! R11   R(7,8)                  1.4156         estimate D2E/DX2                !
 ! R12   R(7,12)                 1.415          estimate D2E/DX2                !
 ! R13   R(8,9)                  1.4071         estimate D2E/DX2                !
 ! R14   R(8,17)                 1.09           estimate D2E/DX2                !
 ! R15   R(9,10)                 1.406          estimate D2E/DX2                !
 ! R16   R(9,18)                 1.09           estimate D2E/DX2                !
 ! R17   R(10,11)                1.4058         estimate D2E/DX2                !
 ! R18   R(10,19)                1.09           estimate D2E/DX2                !
 ! R19   R(11,12)                1.4072         estimate D2E/DX2                !
 ! R20   R(11,20)                1.09           estimate D2E/DX2                !
 ! R21   R(12,21)                1.0901         estimate D2E/DX2                !
 ! A1    A(1,2,3)              121.1216         estimate D2E/DX2                !
 ! A2    A(1,2,5)              121.6074         estimate D2E/DX2                !
 ! A3    A(3,2,5)              117.2708         estimate D2E/DX2                !
 ! A4    A(2,3,4)              122.206          estimate D2E/DX2                !
 ! A5    A(2,3,13)             120.5884         estimate D2E/DX2                !
 ! A6    A(4,3,13)             117.2056         estimate D2E/DX2                !
 ! A7    A(3,4,14)             109.474          estimate D2E/DX2                !
 ! A8    A(2,5,6)              126.7883         estimate D2E/DX2                !
 ! A9    A(5,6,7)              108.8566         estimate D2E/DX2                !
 ! A10   A(5,6,15)             106.3135         estimate D2E/DX2                !
 ! A11   A(5,6,16)             106.3191         estimate D2E/DX2                !
 ! A12   A(7,6,15)             107.4934         estimate D2E/DX2                !
 ! A13   A(7,6,16)             107.493          estimate D2E/DX2                !
 ! A14   A(15,6,16)            120.0022         estimate D2E/DX2                !
 ! A15   A(6,7,8)              119.9923         estimate D2E/DX2                !
 ! A16   A(6,7,12)             121.3872         estimate D2E/DX2                !
 ! A17   A(8,7,12)             118.6183         estimate D2E/DX2                !
 ! A18   A(7,8,9)              120.6926         estimate D2E/DX2                !
 ! A19   A(7,8,17)             119.9517         estimate D2E/DX2                !
 ! A20   A(9,8,17)             119.3556         estimate D2E/DX2                !
 ! A21   A(8,9,10)             120.0509         estimate D2E/DX2                !
 ! A22   A(8,9,18)             120.0153         estimate D2E/DX2                !
 ! A23   A(10,9,18)            119.9339         estimate D2E/DX2                !
 ! A24   A(9,10,11)            119.8773         estimate D2E/DX2                !
 ! A25   A(9,10,19)            120.0654         estimate D2E/DX2                !
 ! A26   A(11,10,19)           120.0572         estimate D2E/DX2                !
 ! A27   A(10,11,12)           120.0898         estimate D2E/DX2                !
 ! A28   A(10,11,20)           119.908          estimate D2E/DX2                !
 ! A29   A(12,11,20)           120.0022         estimate D2E/DX2                !
 ! A30   A(7,12,11)            120.6655         estimate D2E/DX2                !
 ! A31   A(7,12,21)            119.9399         estimate D2E/DX2                !
 ! A32   A(11,12,21)           119.3947         estimate D2E/DX2                !
 ! D1    D(1,2,3,4)             -2.2155         estimate D2E/DX2                !
 ! D2    D(1,2,3,13)           177.777          estimate D2E/DX2                !
 ! D3    D(5,2,3,4)            177.5837         estimate D2E/DX2                !
 ! D4    D(5,2,3,13)            -2.4239         estimate D2E/DX2                !
 ! D5    D(1,2,5,6)             -1.0173         estimate D2E/DX2                !
 ! D6    D(3,2,5,6)            179.1846         estimate D2E/DX2                !
 ! D7    D(2,3,4,14)           176.5074         estimate D2E/DX2                !
 ! D8    D(13,3,4,14)           -3.4853         estimate D2E/DX2                !
 ! D9    D(2,5,6,7)           -179.9698         estimate D2E/DX2                !
 ! D10   D(2,5,6,15)           -64.4435         estimate D2E/DX2                !
 ! D11   D(2,5,6,16)            64.5013         estimate D2E/DX2                !
 ! D12   D(5,6,7,8)             60.86           estimate D2E/DX2                !
 ! D13   D(5,6,7,12)          -118.5923         estimate D2E/DX2                !
 ! D14   D(15,6,7,8)           -53.9025         estimate D2E/DX2                !
 ! D15   D(15,6,7,12)          126.6452         estimate D2E/DX2                !
 ! D16   D(16,6,7,8)           175.6287         estimate D2E/DX2                !
 ! D17   D(16,6,7,12)           -3.8235         estimate D2E/DX2                !
 ! D18   D(6,7,8,9)            179.8772         estimate D2E/DX2                !
 ! D19   D(6,7,8,17)            -0.1162         estimate D2E/DX2                !
 ! D20   D(12,7,8,9)            -0.6554         estimate D2E/DX2                !
 ! D21   D(12,7,8,17)          179.3511         estimate D2E/DX2                !
 ! D22   D(6,7,12,11)         -179.8679         estimate D2E/DX2                !
 ! D23   D(6,7,12,21)            0.1289         estimate D2E/DX2                !
 ! D24   D(8,7,12,11)            0.6725         estimate D2E/DX2                !
 ! D25   D(8,7,12,21)         -179.3307         estimate D2E/DX2                !
 ! D26   D(7,8,9,10)             0.0498         estimate D2E/DX2                !
 ! D27   D(7,8,9,18)          -179.959          estimate D2E/DX2                !
 ! D28   D(17,8,9,10)         -179.9567         estimate D2E/DX2                !
 ! D29   D(17,8,9,18)            0.0345         estimate D2E/DX2                !
 ! D30   D(8,9,10,11)            0.551          estimate D2E/DX2                !
 ! D31   D(8,9,10,19)         -179.4499         estimate D2E/DX2                !
 ! D32   D(18,9,10,11)        -179.4401         estimate D2E/DX2                !
 ! D33   D(18,9,10,19)           0.5589         estimate D2E/DX2                !
 ! D34   D(9,10,11,12)          -0.534          estimate D2E/DX2                !
 ! D35   D(9,10,11,20)         179.4653         estimate D2E/DX2                !
 ! D36   D(19,10,11,12)        179.4669         estimate D2E/DX2                !
 ! D37   D(19,10,11,20)         -0.5337         estimate D2E/DX2                !
 ! D38   D(10,11,12,7)          -0.0844         estimate D2E/DX2                !
 ! D39   D(10,11,12,21)        179.9188         estimate D2E/DX2                !
 ! D40   D(20,11,12,7)         179.9162         estimate D2E/DX2                !
 ! D41   D(20,11,12,21)         -0.0806         estimate D2E/DX2                !
 --------------------------------------------------------------------------------
 Trust Radius=3.00D-01 FncErr=1.00D-07 GrdErr=1.00D-06 EigMax=2.50D+02 EigMin=1.00D-04
 Number of steps in this run=    104 maximum allowed number of steps=    126.
 GradGradGradGradGradGradGradGradGradGradGradGradGradGradGradGradGradGrad

 Leave Link  103 at Sun Oct 13 19:39:38 2019, MaxMem= 10737418240 cpu:               0.2 elap:               0.0
 (Enter /apps/cent7/gaussian/g16-A.03/g16-haswell/g16/l202.exe)
                          Input orientation:                          
 ---------------------------------------------------------------------
 Center     Atomic      Atomic             Coordinates (Angstroms)
 Number     Number       Type             X           Y           Z
 ---------------------------------------------------------------------
      1          8           0        1.283300    1.448400   -0.300300
      2          6           0        0.926500    0.742400    0.672200
      3          7           0        1.248100    1.083500    1.935700
      4          8           0        1.975600    2.130900    2.209200
      5          8           0        0.204700   -0.398500    0.498700
      6          6           0       -0.258300   -0.939800   -0.743600
      7          6           0       -1.003600   -2.192300   -0.472400
      8          6           0       -2.165500   -2.163500    0.335700
      9          6           0       -2.885600   -3.343000    0.600500
     10          6           0       -2.453400   -4.567700    0.061900
     11          6           0       -1.294100   -4.613400   -0.732000
     12          6           0       -0.573400   -3.434100   -0.996800
     13          1           0        0.928200    0.527100    2.715500
     14          1           0        2.045900    2.232000    3.161300
     15          1           0       -0.967700   -0.217200   -1.147000
     16          1           0        0.632400   -1.205300   -1.312900
     17          1           0       -2.510300   -1.220400    0.759600
     18          1           0       -3.779200   -3.308000    1.223700
     19          1           0       -3.016100   -5.480100    0.259500
     20          1           0       -0.953700   -5.564000   -1.142600
     21          1           0        0.324700   -3.482800   -1.612700
 ---------------------------------------------------------------------
                    Distance matrix (angstroms):
                    1          2          3          4          5
     1  O    0.000000
     2  C    1.253594   0.000000
     3  N    2.265852   1.347668   0.000000
     4  O    2.691222   2.321834   1.304264   0.000000
     5  O    2.283160   1.361158   2.313002   3.529839   0.000000
     6  C    2.876898   2.497606   3.679896   4.810253   1.432021
     7  C    4.302816   3.694301   4.647576   5.895479   2.370811
     8  C    5.034336   4.256519   4.975507   6.253046   2.959669
     9  C    6.414724   5.588179   6.201946   7.495516   4.269707
    10  C    7.091373   6.324030   7.010584   8.312532   4.963720
    11  C    6.601119   5.965521   6.784841   8.051533   4.639656
    12  C    5.269844   4.741141   5.685607   6.909780   3.472294
    13  H    3.173317   2.054612   1.009953   1.981303   2.508862
    14  H    3.630188   3.109274   1.859471   0.960030   4.171209
    15  H    2.925427   2.796125   4.013057   5.043874   2.028724
    16  H    2.913958   2.796543   4.021330   5.033846   2.028731
    17  H    4.757865   3.958765   4.562536   5.784103   2.848651
    18  H    7.111598   6.233258   6.713119   7.979384   4.986208
    19  H    8.173269   7.377935   8.004617   9.308368   6.021082
    20  H    7.408603   6.826370   7.649386   8.889705   5.542395
    21  H    5.192113   4.840996   5.856185   6.988993   3.739695
                    6          7          8          9         10
     6  C    0.000000
     7  C    1.482490   0.000000
     8  C    2.509929   1.415580   0.000000
     9  C    3.805874   2.452988   1.407083   0.000000
    10  C    4.316127   2.833712   2.436807   1.405979   0.000000
    11  C    3.816851   2.452245   2.810931   2.433587   1.405824
    12  C    2.526842   1.414968   2.434084   2.811750   2.437272
    13  H    3.940171   4.614076   4.740649   5.830606   6.665868
    14  H    5.533344   6.486729   6.711209   7.871341   8.722723
    15  H    1.090014   2.087437   2.724189   4.062354   4.753482
    16  H    1.089926   2.087368   3.385893   4.539514   4.766337
    17  H    2.722104   2.175444   1.089961   2.161387   3.419713
    18  H    4.677112   3.438822   2.168514   1.090011   2.166649
    19  H    5.406107   3.923705   3.424786   2.168065   1.090023
    20  H    4.693187   3.438025   3.900927   3.421034   2.166226
    21  H    2.749922   2.174869   3.426063   3.901772   3.420400
                   11         12         13         14         15
    11  C    0.000000
    12  C    1.407223   0.000000
    13  H    6.576368   5.632680   0.000000
    14  H    8.554115   7.500348   2.086786   0.000000
    15  H    4.427791   3.244453   4.366615   5.800156   0.000000
    16  H    3.957776   2.553708   4.395078   5.816483   1.887905
    17  H    3.900828   3.425929   4.324648   6.200499   2.649745
    18  H    3.421192   3.901753   6.252445   8.269080   4.803935
    19  H    2.167839   3.425082   7.594464   9.670614   5.819992
    20  H    1.090002   2.168493   7.451710   9.396743   5.346820
    21  H    2.162037   1.090086   5.931005   7.642810   3.542784
                   16         17         18         19         20
    16  H    0.000000
    17  H    3.764578   0.000000
    18  H    5.506169   2.486678   0.000000
    19  H    5.835915   4.318678   2.496001   0.000000
    20  H    4.641442   4.990814   4.321153   2.495279   0.000000
    21  H    2.317664   4.333992   4.991765   4.319176   2.487307
                   21
    21  H    0.000000
 Stoichiometry    C8H9NO3
 Framework group  C1[X(C8H9NO3)]
 Deg. of freedom    57
 Full point group                 C1      NOp   1
 Largest Abelian subgroup         C1      NOp   1
 Largest concise Abelian subgroup C1      NOp   1
                         Standard orientation:                         
 ---------------------------------------------------------------------
 Center     Atomic      Atomic             Coordinates (Angstroms)
 Number     Number       Type             X           Y           Z
 ---------------------------------------------------------------------
      1          8           0       -2.881619   -1.181701    0.657634
      2          6           0       -2.350804   -0.200476    0.085854
      3          7           0       -3.100937    0.759018   -0.491102
      4          8           0       -4.403383    0.697980   -0.522919
      5          8           0       -0.998596   -0.060525    0.017316
      6          6           0       -0.015945   -0.943326    0.570256
      7          6           0        1.333228   -0.411476    0.262613
      8          6           0        1.717891    0.863222    0.743285
      9          6           0        2.995627    1.381208    0.462277
     10          6           0        3.906007    0.632380   -0.304041
     11          6           0        3.533151   -0.629640   -0.798637
     12          6           0        2.255269   -1.147931   -0.518162
     13          1           0       -2.665745    1.562955   -0.920404
     14          1           0       -4.751474    1.496781   -0.925918
     15          1           0       -0.144298   -0.905298    1.652019
     16          1           0       -0.123102   -1.890460    0.041680
     17          1           0        1.020852    1.453698    1.337836
     18          1           0        3.280510    2.363756    0.838527
     19          1           0        4.899073    1.029561   -0.514321
     20          1           0        4.235432   -1.206812   -1.400118
     21          1           0        1.977542   -2.127108   -0.908507
 ---------------------------------------------------------------------
 Rotational constants (GHZ):           2.7566514           0.3725341           0.3512883
 Leave Link  202 at Sun Oct 13 19:39:38 2019, MaxMem= 10737418240 cpu:               1.2 elap:               0.1
 (Enter /apps/cent7/gaussian/g16-A.03/g16-haswell/g16/l301.exe)
 Standard basis: 6-311++G(d,p) (5D, 7F)
 Ernie: Thresh=  0.10000D-02 Tol=  0.10000D-05 Strict=F.
 There are   339 symmetry adapted cartesian basis functions of A   symmetry.
 There are   327 symmetry adapted basis functions of A   symmetry.
   327 basis functions,   513 primitive gaussians,   339 cartesian basis functions
    44 alpha electrons       44 beta electrons
       nuclear repulsion energy       652.5182446031 Hartrees.
 IExCor= 4336 DFT=T Ex+Corr=M062X ExCW=0 ScaHFX=  0.540000
 ScaDFX=  1.000000  1.000000  1.000000  1.000000 ScalE2=  1.000000  1.000000
 IRadAn=      5 IRanWt=     -1 IRanGd=            0 ICorTp=0 IEmpDi=  4
 NAtoms=   21 NActive=   21 NUniq=   21 SFac= 1.00D+00 NAtFMM=   60 NAOKFM=F Big=F
 Integral buffers will be    131072 words long.
 Raffenetti 2 integral format.
 Two-electron integral symmetry is turned on.
 Leave Link  301 at Sun Oct 13 19:39:38 2019, MaxMem= 10737418240 cpu:               1.3 elap:               0.1
 (Enter /apps/cent7/gaussian/g16-A.03/g16-haswell/g16/l302.exe)
 NPDir=0 NMtPBC=     1 NCelOv=     1 NCel=       1 NClECP=     1 NCelD=      1
         NCelK=      1 NCelE2=     1 NClLst=     1 CellRange=     0.0.
 One-electron integrals computed using PRISM.
 One-electron integral symmetry used in STVInt
 NBasis=   327 RedAO= T EigKep=  3.27D-06  NBF=   327
 NBsUse=   326 1.00D-06 EigRej=  9.81D-07 NBFU=   326
 Precomputing XC quadrature grid using
 IXCGrd= 4 IRadAn=           5 IRanWt=          -1 IRanGd=           0 AccXCQ= 0.00D+00.
 Generated NRdTot=       0 NPtTot=           0 NUsed=           0 NTot=          32
 NSgBfM=   338   338   338   338   338 MxSgAt=    21 MxSgA2=    21.
 Leave Link  302 at Sun Oct 13 19:39:38 2019, MaxMem= 10737418240 cpu:               5.1 elap:               0.2
 (Enter /apps/cent7/gaussian/g16-A.03/g16-haswell/g16/l303.exe)
 DipDrv:  MaxL=1.
 Leave Link  303 at Sun Oct 13 19:39:38 2019, MaxMem= 10737418240 cpu:               1.0 elap:               0.1
 (Enter /apps/cent7/gaussian/g16-A.03/g16-haswell/g16/l401.exe)
 ExpMin= 3.60D-02 ExpMax= 8.59D+03 ExpMxC= 1.30D+03 IAcc=3 IRadAn=         5 AccDes= 0.00D+00
 Harris functional with IExCor= 1009 and IRadAn=       5 diagonalized for initial guess.
 HarFok:  IExCor= 1009 AccDes= 0.00D+00 IRadAn=         5 IDoV= 1 UseB2=F ITyADJ=14
 ICtDFT=  3500011 ScaDFX=  1.000000  1.000000  1.000000  1.000000
 FoFCou: FMM=F IPFlag=           0 FMFlag=      100000 FMFlg1=           0
         NFxFlg=           0 DoJE=T BraDBF=F KetDBF=T FulRan=T
         wScrn=  0.000000 ICntrl=       500 IOpCl=  0 I1Cent=   200000004 NGrid=           0
         NMat0=    1 NMatS0=      1 NMatT0=    0 NMatD0=    1 NMtDS0=    0 NMtDT0=    0
 Petite list used in FoFCou.
 Harris En= -590.266982800548    
 JPrj=0 DoOrth=F DoCkMO=F.
 Leave Link  401 at Sun Oct 13 19:39:39 2019, MaxMem= 10737418240 cpu:              13.3 elap:               0.6
 (Enter /apps/cent7/gaussian/g16-A.03/g16-haswell/g16/l502.exe)
 Integral symmetry usage will be decided dynamically.
 Closed shell SCF:
 Using DIIS extrapolation, IDIIS=  1040.
 NGot= 10737418240 LenX= 10737176961 LenY= 10737061599
 Requested convergence on RMS density matrix=1.00D-08 within 128 cycles.
 Requested convergence on MAX density matrix=1.00D-06.
 Requested convergence on             energy=1.00D-06.
 No special actions if energy rises.
 Fock matrices will be formed incrementally for  20 cycles.

 Cycle   1  Pass 1  IDiag  1:
 FoFJK:  IHMeth= 1 ICntrl=       0 DoSepK=F KAlg= 0 I1Cent=           0 FoldK=F
 IRaf= 880000000 NMat=       1 IRICut=       1 DoRegI=T DoRafI=F ISym2E= 0 IDoP0=0 IntGTp=1.
 FoFCou: FMM=F IPFlag=           0 FMFlag=      100000 FMFlg1=           0
         NFxFlg=           0 DoJE=F BraDBF=F KetDBF=F FulRan=T
         wScrn=  0.000000 ICntrl=         0 IOpCl=  0 I1Cent=           0 NGrid=           0
         NMat0=    1 NMatS0=      1 NMatT0=    0 NMatD0=    1 NMtDS0=    0 NMtDT0=    0
 Symmetry not used in FoFCou.
 E= -590.234612272965    
 DIIS: error= 2.14D-02 at cycle   1 NSaved=   1.
 NSaved= 1 IEnMin= 1 EnMin= -590.234612272965     IErMin= 1 ErrMin= 2.14D-02
 ErrMax= 2.14D-02  0.00D+00 EMaxC= 1.00D-01 BMatC= 4.30D-01 BMatP= 4.30D-01
 IDIUse=3 WtCom= 7.86D-01 WtEn= 2.14D-01
 Coeff-Com:  0.100D+01
 Coeff-En:   0.100D+01
 Coeff:      0.100D+01
 Gap=     0.391 Goal=   None    Shift=    0.000
 GapD=    0.391 DampG=1.000 DampE=0.500 DampFc=0.5000 IDamp=-1.
 Damping current iteration by 5.00D-01
 RMSDP=1.66D-02 MaxDP=2.08D+00              OVMax= 2.34D-01

 Cycle   2  Pass 1  IDiag  1:
 RMSU=  7.19D-03    CP:  9.02D-01
 E= -590.361611612957     Delta-E=       -0.126999339993 Rises=F Damp=T
 DIIS: error= 8.72D-03 at cycle   2 NSaved=   2.
 NSaved= 2 IEnMin= 2 EnMin= -590.361611612957     IErMin= 2 ErrMin= 8.72D-03
 ErrMax= 8.72D-03  0.00D+00 EMaxC= 1.00D-01 BMatC= 4.82D-02 BMatP= 4.30D-01
 IDIUse=3 WtCom= 9.13D-01 WtEn= 8.72D-02
 Coeff-Com:  0.276D-01 0.972D+00
 Coeff-En:   0.109D+00 0.891D+00
 Coeff:      0.348D-01 0.965D+00
 Gap=     0.337 Goal=   None    Shift=    0.000
 RMSDP=4.90D-03 MaxDP=5.08D-01 DE=-1.27D-01 OVMax= 1.40D-01

 Cycle   3  Pass 1  IDiag  1:
 RMSU=  3.61D-03    CP:  8.24D-01  1.00D+00
 E= -590.511703524922     Delta-E=       -0.150091911965 Rises=F Damp=F
 DIIS: error= 1.21D-02 at cycle   3 NSaved=   3.
 NSaved= 3 IEnMin= 3 EnMin= -590.511703524922     IErMin= 2 ErrMin= 8.72D-03
 ErrMax= 1.21D-02  0.00D+00 EMaxC= 1.00D-01 BMatC= 3.71D-02 BMatP= 4.82D-02
 IDIUse=3 WtCom= 8.79D-01 WtEn= 1.21D-01
 Coeff-Com: -0.942D-01 0.497D+00 0.597D+00
 Coeff-En:   0.000D+00 0.000D+00 0.100D+01
 Coeff:     -0.829D-01 0.437D+00 0.646D+00
 Gap=     0.289 Goal=   None    Shift=    0.000
 RMSDP=2.60D-03 MaxDP=2.57D-01 DE=-1.50D-01 OVMax= 5.83D-02

 Cycle   4  Pass 1  IDiag  1:
 RMSU=  1.64D-03    CP:  7.84D-01  9.65D-01  7.01D-01
 E= -590.534427872114     Delta-E=       -0.022724347191 Rises=F Damp=F
 DIIS: error= 3.92D-03 at cycle   4 NSaved=   4.
 NSaved= 4 IEnMin= 4 EnMin= -590.534427872114     IErMin= 4 ErrMin= 3.92D-03
 ErrMax= 3.92D-03  0.00D+00 EMaxC= 1.00D-01 BMatC= 5.45D-03 BMatP= 3.71D-02
 IDIUse=3 WtCom= 9.61D-01 WtEn= 3.92D-02
 Coeff-Com: -0.403D-01 0.112D+00 0.330D+00 0.598D+00
 Coeff-En:   0.000D+00 0.000D+00 0.108D+00 0.892D+00
 Coeff:     -0.387D-01 0.108D+00 0.322D+00 0.609D+00
 Gap=     0.279 Goal=   None    Shift=    0.000
 RMSDP=1.46D-03 MaxDP=1.92D-01 DE=-2.27D-02 OVMax= 1.65D-02

 Cycle   5  Pass 1  IDiag  1:
 RMSU=  5.28D-04    CP:  7.74D-01  1.07D+00  9.13D-01  5.76D-01
 E= -590.538387146519     Delta-E=       -0.003959274406 Rises=F Damp=F
 DIIS: error= 7.42D-04 at cycle   5 NSaved=   5.
 NSaved= 5 IEnMin= 5 EnMin= -590.538387146519     IErMin= 5 ErrMin= 7.42D-04
 ErrMax= 7.42D-04  0.00D+00 EMaxC= 1.00D-01 BMatC= 1.65D-04 BMatP= 5.45D-03
 IDIUse=3 WtCom= 9.93D-01 WtEn= 7.42D-03
 Coeff-Com: -0.118D-01 0.226D-01 0.961D-01 0.252D+00 0.641D+00
 Coeff-En:   0.000D+00 0.000D+00 0.000D+00 0.000D+00 0.100D+01
 Coeff:     -0.117D-01 0.225D-01 0.954D-01 0.250D+00 0.644D+00
 Gap=     0.277 Goal=   None    Shift=    0.000
 RMSDP=1.72D-04 MaxDP=2.00D-02 DE=-3.96D-03 OVMax= 2.90D-03

 Cycle   6  Pass 1  IDiag  1:
 RMSU=  9.13D-05    CP:  7.74D-01  1.06D+00  8.98D-01  6.29D-01  9.12D-01
 E= -590.538504691775     Delta-E=       -0.000117545256 Rises=F Damp=F
 DIIS: error= 1.81D-04 at cycle   6 NSaved=   6.
 NSaved= 6 IEnMin= 6 EnMin= -590.538504691775     IErMin= 6 ErrMin= 1.81D-04
 ErrMax= 1.81D-04  0.00D+00 EMaxC= 1.00D-01 BMatC= 1.48D-05 BMatP= 1.65D-04
 IDIUse=3 WtCom= 9.98D-01 WtEn= 1.81D-03
 Coeff-Com: -0.161D-02 0.337D-03 0.110D-01 0.503D-01 0.279D+00 0.661D+00
 Coeff-En:   0.000D+00 0.000D+00 0.000D+00 0.000D+00 0.000D+00 0.100D+01
 Coeff:     -0.161D-02 0.336D-03 0.110D-01 0.502D-01 0.279D+00 0.661D+00
 Gap=     0.278 Goal=   None    Shift=    0.000
 RMSDP=9.89D-05 MaxDP=1.41D-02 DE=-1.18D-04 OVMax= 1.30D-03

 Cycle   7  Pass 1  IDiag  1:
 RMSU=  3.60D-05    CP:  7.76D-01  1.05D+00  8.95D-01  6.35D-01  8.73D-01
                    CP:  8.96D-01
 E= -590.538517009280     Delta-E=       -0.000012317505 Rises=F Damp=F
 DIIS: error= 5.88D-05 at cycle   7 NSaved=   7.
 NSaved= 7 IEnMin= 7 EnMin= -590.538517009280     IErMin= 7 ErrMin= 5.88D-05
 ErrMax= 5.88D-05  0.00D+00 EMaxC= 1.00D-01 BMatC= 1.22D-06 BMatP= 1.48D-05
 IDIUse=1 WtCom= 1.00D+00 WtEn= 0.00D+00
 Coeff-Com:  0.116D-02-0.308D-02-0.870D-02-0.181D-01 0.102D-01 0.197D+00
 Coeff-Com:  0.821D+00
 Coeff:      0.116D-02-0.308D-02-0.870D-02-0.181D-01 0.102D-01 0.197D+00
 Coeff:      0.821D+00
 Gap=     0.278 Goal=   None    Shift=    0.000
 RMSDP=2.87D-05 MaxDP=2.43D-03 DE=-1.23D-05 OVMax= 4.69D-04

 Cycle   8  Pass 1  IDiag  1:
 RMSU=  1.35D-05    CP:  7.76D-01  1.05D+00  8.99D-01  6.31D-01  8.97D-01
                    CP:  9.98D-01  9.22D-01
 E= -590.538518360024     Delta-E=       -0.000001350744 Rises=F Damp=F
 DIIS: error= 4.97D-05 at cycle   8 NSaved=   8.
 NSaved= 8 IEnMin= 8 EnMin= -590.538518360024     IErMin= 8 ErrMin= 4.97D-05
 ErrMax= 4.97D-05  0.00D+00 EMaxC= 1.00D-01 BMatC= 2.44D-07 BMatP= 1.22D-06
 IDIUse=1 WtCom= 1.00D+00 WtEn= 0.00D+00
 Coeff-Com:  0.725D-03-0.138D-02-0.454D-02-0.138D-01-0.275D-01 0.132D-02
 Coeff-Com:  0.348D+00 0.697D+00
 Coeff:      0.725D-03-0.138D-02-0.454D-02-0.138D-01-0.275D-01 0.132D-02
 Coeff:      0.348D+00 0.697D+00
 Gap=     0.278 Goal=   None    Shift=    0.000
 RMSDP=1.24D-05 MaxDP=1.23D-03 DE=-1.35D-06 OVMax= 2.90D-04

 Cycle   9  Pass 1  IDiag  1:
 RMSU=  8.32D-06    CP:  7.76D-01  1.05D+00  8.99D-01  6.31D-01  8.96D-01
                    CP:  1.00D+00  9.91D-01  8.55D-01
 E= -590.538518648827     Delta-E=       -0.000000288803 Rises=F Damp=F
 DIIS: error= 8.62D-06 at cycle   9 NSaved=   9.
 NSaved= 9 IEnMin= 9 EnMin= -590.538518648827     IErMin= 9 ErrMin= 8.62D-06
 ErrMax= 8.62D-06  0.00D+00 EMaxC= 1.00D-01 BMatC= 2.26D-08 BMatP= 2.44D-07
 IDIUse=1 WtCom= 1.00D+00 WtEn= 0.00D+00
 Coeff-Com:  0.931D-04-0.110D-03-0.185D-03-0.193D-02-0.778D-02-0.164D-01
 Coeff-Com: -0.129D-03 0.202D+00 0.824D+00
 Coeff:      0.931D-04-0.110D-03-0.185D-03-0.193D-02-0.778D-02-0.164D-01
 Coeff:     -0.129D-03 0.202D+00 0.824D+00
 Gap=     0.278 Goal=   None    Shift=    0.000
 RMSDP=4.05D-06 MaxDP=5.92D-04 DE=-2.89D-07 OVMax= 6.45D-05

 Cycle  10  Pass 1  IDiag  1:
 RMSU=  1.58D-06    CP:  7.76D-01  1.05D+00  8.99D-01  6.31D-01  8.94D-01
                    CP:  1.01D+00  9.99D-01  9.27D-01  1.04D+00
 E= -590.538518673438     Delta-E=       -0.000000024611 Rises=F Damp=F
 DIIS: error= 3.75D-06 at cycle  10 NSaved=  10.
 NSaved=10 IEnMin=10 EnMin= -590.538518673438     IErMin=10 ErrMin= 3.75D-06
 ErrMax= 3.75D-06  0.00D+00 EMaxC= 1.00D-01 BMatC= 5.29D-09 BMatP= 2.26D-08
 IDIUse=1 WtCom= 1.00D+00 WtEn= 0.00D+00
 Coeff-Com: -0.626D-04 0.145D-03 0.652D-03 0.125D-02 0.543D-03-0.803D-02
 Coeff-Com: -0.603D-01-0.129D-01 0.404D+00 0.674D+00
 Coeff:     -0.626D-04 0.145D-03 0.652D-03 0.125D-02 0.543D-03-0.803D-02
 Coeff:     -0.603D-01-0.129D-01 0.404D+00 0.674D+00
 Gap=     0.278 Goal=   None    Shift=    0.000
 RMSDP=1.09D-06 MaxDP=5.14D-05 DE=-2.46D-08 OVMax= 2.98D-05

 Cycle  11  Pass 1  IDiag  1:
 RMSU=  5.06D-07    CP:  7.76D-01  1.05D+00  8.99D-01  6.31D-01  8.94D-01
                    CP:  1.01D+00  9.97D-01  9.56D-01  1.12D+00  8.38D-01
 E= -590.538518679292     Delta-E=       -0.000000005854 Rises=F Damp=F
 DIIS: error= 1.08D-06 at cycle  11 NSaved=  11.
 NSaved=11 IEnMin=11 EnMin= -590.538518679292     IErMin=11 ErrMin= 1.08D-06
 ErrMax= 1.08D-06  0.00D+00 EMaxC= 1.00D-01 BMatC= 3.37D-10 BMatP= 5.29D-09
 IDIUse=1 WtCom= 1.00D+00 WtEn= 0.00D+00
 Coeff-Com: -0.264D-04 0.546D-04 0.257D-03 0.600D-03 0.826D-03-0.117D-02
 Coeff-Com: -0.207D-01-0.201D-01 0.817D-01 0.258D+00 0.701D+00
 Coeff:     -0.264D-04 0.546D-04 0.257D-03 0.600D-03 0.826D-03-0.117D-02
 Coeff:     -0.207D-01-0.201D-01 0.817D-01 0.258D+00 0.701D+00
 Gap=     0.278 Goal=   None    Shift=    0.000
 RMSDP=4.55D-07 MaxDP=4.40D-05 DE=-5.85D-09 OVMax= 8.45D-06

 Cycle  12  Pass 1  IDiag  1:
 RMSU=  1.57D-07    CP:  7.76D-01  1.05D+00  8.99D-01  6.31D-01  8.94D-01
                    CP:  1.01D+00  9.97D-01  9.53D-01  1.14D+00  9.17D-01
                    CP:  8.22D-01
 E= -590.538518679623     Delta-E=       -0.000000000332 Rises=F Damp=F
 DIIS: error= 4.00D-07 at cycle  12 NSaved=  12.
 NSaved=12 IEnMin=12 EnMin= -590.538518679623     IErMin=12 ErrMin= 4.00D-07
 ErrMax= 4.00D-07  0.00D+00 EMaxC= 1.00D-01 BMatC= 5.87D-11 BMatP= 3.37D-10
 IDIUse=1 WtCom= 1.00D+00 WtEn= 0.00D+00
 Coeff-Com: -0.178D-05 0.204D-05 0.283D-04 0.866D-04 0.250D-03 0.521D-03
 Coeff-Com: -0.926D-03-0.823D-02-0.229D-01 0.189D-01 0.308D+00 0.704D+00
 Coeff:     -0.178D-05 0.204D-05 0.283D-04 0.866D-04 0.250D-03 0.521D-03
 Coeff:     -0.926D-03-0.823D-02-0.229D-01 0.189D-01 0.308D+00 0.704D+00
 Gap=     0.278 Goal=   None    Shift=    0.000
 RMSDP=1.29D-07 MaxDP=1.23D-05 DE=-3.32D-10 OVMax= 2.65D-06

 Cycle  13  Pass 1  IDiag  1:
 RMSU=  6.18D-08    CP:  7.76D-01  1.05D+00  8.99D-01  6.31D-01  8.94D-01
                    CP:  1.01D+00  9.97D-01  9.52D-01  1.14D+00  9.39D-01
                    CP:  8.78D-01  7.93D-01
 E= -590.538518679693     Delta-E=       -0.000000000070 Rises=F Damp=F
 DIIS: error= 8.76D-08 at cycle  13 NSaved=  13.
 NSaved=13 IEnMin=13 EnMin= -590.538518679693     IErMin=13 ErrMin= 8.76D-08
 ErrMax= 8.76D-08  0.00D+00 EMaxC= 1.00D-01 BMatC= 3.27D-12 BMatP= 5.87D-11
 IDIUse=1 WtCom= 1.00D+00 WtEn= 0.00D+00
 Coeff-Com:  0.181D-05-0.424D-05-0.818D-05-0.224D-04 0.126D-04 0.202D-03
 Coeff-Com:  0.125D-02-0.466D-03-0.109D-01-0.162D-01 0.390D-02 0.151D+00
 Coeff-Com:  0.872D+00
 Coeff:      0.181D-05-0.424D-05-0.818D-05-0.224D-04 0.126D-04 0.202D-03
 Coeff:      0.125D-02-0.466D-03-0.109D-01-0.162D-01 0.390D-02 0.151D+00
 Coeff:      0.872D+00
 Gap=     0.278 Goal=   None    Shift=    0.000
 RMSDP=3.71D-08 MaxDP=3.33D-06 DE=-7.00D-11 OVMax= 7.29D-07

 Cycle  14  Pass 1  IDiag  1:
 RMSU=  1.80D-08    CP:  7.76D-01  1.05D+00  8.99D-01  6.31D-01  8.94D-01
                    CP:  1.01D+00  9.97D-01  9.53D-01  1.14D+00  9.43D-01
                    CP:  8.92D-01  8.14D-01  1.01D+00
 E= -590.538518679697     Delta-E=       -0.000000000004 Rises=F Damp=F
 DIIS: error= 4.73D-08 at cycle  14 NSaved=  14.
 NSaved=14 IEnMin=14 EnMin= -590.538518679697     IErMin=14 ErrMin= 4.73D-08
 ErrMax= 4.73D-08  0.00D+00 EMaxC= 1.00D-01 BMatC= 4.73D-13 BMatP= 3.27D-12
 IDIUse=1 WtCom= 1.00D+00 WtEn= 0.00D+00
 Coeff-Com:  0.913D-06-0.195D-05-0.495D-05-0.159D-04-0.118D-04 0.385D-04
 Coeff-Com:  0.605D-03 0.478D-03-0.247D-02-0.842D-02-0.267D-01 0.613D-02
 Coeff-Com:  0.382D+00 0.649D+00
 Coeff:      0.913D-06-0.195D-05-0.495D-05-0.159D-04-0.118D-04 0.385D-04
 Coeff:      0.605D-03 0.478D-03-0.247D-02-0.842D-02-0.267D-01 0.613D-02
 Coeff:      0.382D+00 0.649D+00
 Gap=     0.278 Goal=   None    Shift=    0.000
 RMSDP=7.16D-09 MaxDP=5.26D-07 DE=-4.09D-12 OVMax= 3.66D-07

 SCF Done:  E(RM062X) =  -590.538518680     A.U. after   14 cycles
            NFock= 14  Conv=0.72D-08     -V/T= 2.0040
 KE= 5.881660493056D+02 PE=-2.685572176981D+03 EE= 8.543493643923D+02
 Leave Link  502 at Sun Oct 13 19:39:58 2019, MaxMem= 10737418240 cpu:             461.5 elap:              19.3
 (Enter /apps/cent7/gaussian/g16-A.03/g16-haswell/g16/l601.exe)
 Copying SCF densities to generalized density rwf, IOpCl= 0 IROHF=0.

 **********************************************************************

            Population analysis using the SCF density.

 **********************************************************************

 Orbital symmetries:
       Occupied  (A) (A) (A) (A) (A) (A) (A) (A) (A) (A) (A) (A)
                 (A) (A) (A) (A) (A) (A) (A) (A) (A) (A) (A) (A)
                 (A) (A) (A) (A) (A) (A) (A) (A) (A) (A) (A) (A)
                 (A) (A) (A) (A) (A) (A) (A) (A)
       Virtual   (A) (A) (A) (A) (A) (A) (A) (A) (A) (A) (A) (A)
                 (A) (A) (A) (A) (A) (A) (A) (A) (A) (A) (A) (A)
                 (A) (A) (A) (A) (A) (A) (A) (A) (A) (A) (A) (A)
                 (A) (A) (A) (A) (A) (A) (A) (A) (A) (A) (A) (A)
                 (A) (A) (A) (A) (A) (A) (A) (A) (A) (A) (A) (A)
                 (A) (A) (A) (A) (A) (A) (A) (A) (A) (A) (A) (A)
                 (A) (A) (A) (A) (A) (A) (A) (A) (A) (A) (A) (A)
                 (A) (A) (A) (A) (A) (A) (A) (A) (A) (A) (A) (A)
                 (A) (A) (A) (A) (A) (A) (A) (A) (A) (A) (A) (A)
                 (A) (A) (A) (A) (A) (A) (A) (A) (A) (A) (A) (A)
                 (A) (A) (A) (A) (A) (A) (A) (A) (A) (A) (A) (A)
                 (A) (A) (A) (A) (A) (A) (A) (A) (A) (A) (A) (A)
                 (A) (A) (A) (A) (A) (A) (A) (A) (A) (A) (A) (A)
                 (A) (A) (A) (A) (A) (A) (A) (A) (A) (A) (A) (A)
                 (A) (A) (A) (A) (A) (A) (A) (A) (A) (A) (A) (A)
                 (A) (A) (A) (A) (A) (A) (A) (A) (A) (A) (A) (A)
                 (A) (A) (A) (A) (A) (A) (A) (A) (A) (A) (A) (A)
                 (A) (A) (A) (A) (A) (A) (A) (A) (A) (A) (A) (A)
                 (A) (A) (A) (A) (A) (A) (A) (A) (A) (A) (A) (A)
                 (A) (A) (A) (A) (A) (A) (A) (A) (A) (A) (A) (A)
                 (A) (A) (A) (A) (A) (A) (A) (A) (A) (A) (A) (A)
                 (A) (A) (A) (A) (A) (A) (A) (A) (A) (A) (A) (A)
                 (A) (A) (A) (A) (A) (A) (A) (A) (A) (A) (A) (A)
                 (A) (A) (A) (A) (A) (A)
 The electronic state is 1-A.
 Alpha  occ. eigenvalues --  -19.69098 -19.66380 -19.58239 -14.84211 -10.70258
 Alpha  occ. eigenvalues --  -10.61093 -10.56502 -10.56003 -10.55837 -10.55798
 Alpha  occ. eigenvalues --  -10.55759 -10.55705  -1.28907  -1.21782  -1.10975
 Alpha  occ. eigenvalues --   -0.98532  -0.96634  -0.88603  -0.84968  -0.80143
 Alpha  occ. eigenvalues --   -0.72048  -0.71207  -0.69943  -0.66914  -0.62651
 Alpha  occ. eigenvalues --   -0.59789  -0.58941  -0.55587  -0.54826  -0.53082
 Alpha  occ. eigenvalues --   -0.50993  -0.50240  -0.49541  -0.48206  -0.46068
 Alpha  occ. eigenvalues --   -0.44063  -0.43559  -0.41185  -0.40436  -0.36609
 Alpha  occ. eigenvalues --   -0.34256  -0.31564  -0.31059  -0.30085
 Alpha virt. eigenvalues --   -0.02320  -0.00448  -0.00103   0.00685   0.00775
 Alpha virt. eigenvalues --    0.01328   0.01979   0.02898   0.03399   0.04607
 Alpha virt. eigenvalues --    0.06169   0.06732   0.07064   0.07627   0.08410
 Alpha virt. eigenvalues --    0.08777   0.09994   0.10042   0.10326   0.11507
 Alpha virt. eigenvalues --    0.11664   0.11779   0.12139   0.12662   0.13077
 Alpha virt. eigenvalues --    0.13368   0.13460   0.13840   0.14261   0.14338
 Alpha virt. eigenvalues --    0.15163   0.16063   0.16158   0.16710   0.17171
 Alpha virt. eigenvalues --    0.17837   0.18313   0.18618   0.18751   0.19395
 Alpha virt. eigenvalues --    0.19897   0.21041   0.21683   0.22335   0.22510
 Alpha virt. eigenvalues --    0.22995   0.23551   0.23997   0.24732   0.25211
 Alpha virt. eigenvalues --    0.26493   0.26876   0.27315   0.28282   0.29533
 Alpha virt. eigenvalues --    0.30049   0.30315   0.30913   0.31425   0.31734
 Alpha virt. eigenvalues --    0.32132   0.32313   0.33217   0.33637   0.34436
 Alpha virt. eigenvalues --    0.35647   0.35836   0.37464   0.38064   0.38686
 Alpha virt. eigenvalues --    0.39723   0.40427   0.40677   0.42171   0.44591
 Alpha virt. eigenvalues --    0.45769   0.45845   0.48154   0.51625   0.53371
 Alpha virt. eigenvalues --    0.54728   0.55605   0.56976   0.57703   0.57976
 Alpha virt. eigenvalues --    0.58590   0.59152   0.60010   0.61044   0.62567
 Alpha virt. eigenvalues --    0.64018   0.64963   0.65100   0.67245   0.67571
 Alpha virt. eigenvalues --    0.68771   0.69862   0.71962   0.72897   0.74175
 Alpha virt. eigenvalues --    0.74871   0.76018   0.76474   0.78401   0.79371
 Alpha virt. eigenvalues --    0.80427   0.80858   0.81429   0.82935   0.85680
 Alpha virt. eigenvalues --    0.86081   0.87834   0.87975   0.89692   0.91558
 Alpha virt. eigenvalues --    0.92999   0.93411   0.95724   0.96365   0.97566
 Alpha virt. eigenvalues --    1.01408   1.04400   1.05390   1.06729   1.08030
 Alpha virt. eigenvalues --    1.08513   1.09223   1.11568   1.12623   1.14995
 Alpha virt. eigenvalues --    1.17784   1.19304   1.20278   1.20671   1.22192
 Alpha virt. eigenvalues --    1.26695   1.26921   1.29411   1.31667   1.33184
 Alpha virt. eigenvalues --    1.33508   1.35166   1.39819   1.41596   1.46061
 Alpha virt. eigenvalues --    1.47887   1.49992   1.52707   1.54702   1.55015
 Alpha virt. eigenvalues --    1.55379   1.56643   1.57152   1.58294   1.59633
 Alpha virt. eigenvalues --    1.60313   1.63960   1.66005   1.67534   1.68769
 Alpha virt. eigenvalues --    1.70577   1.72735   1.73920   1.75799   1.76865
 Alpha virt. eigenvalues --    1.79494   1.80447   1.81303   1.81795   1.84880
 Alpha virt. eigenvalues --    1.85469   1.87426   1.90894   1.92995   1.94223
 Alpha virt. eigenvalues --    1.94556   1.95542   1.97009   1.97462   1.99038
 Alpha virt. eigenvalues --    1.99911   2.02790   2.05171   2.07379   2.07918
 Alpha virt. eigenvalues --    2.10240   2.11153   2.15532   2.17846   2.21389
 Alpha virt. eigenvalues --    2.24612   2.33714   2.34844   2.36708   2.39969
 Alpha virt. eigenvalues --    2.43123   2.48619   2.49467   2.51590   2.52111
 Alpha virt. eigenvalues --    2.58094   2.60440   2.61743   2.62366   2.63065
 Alpha virt. eigenvalues --    2.66570   2.69497   2.71429   2.72527   2.73720
 Alpha virt. eigenvalues --    2.74299   2.75531   2.76088   2.76709   2.78587
 Alpha virt. eigenvalues --    2.84897   2.85563   2.87396   2.89235   2.92640
 Alpha virt. eigenvalues --    2.93888   2.94796   2.96528   2.98741   2.99727
 Alpha virt. eigenvalues --    3.04965   3.05620   3.11354   3.12535   3.14723
 Alpha virt. eigenvalues --    3.15245   3.19340   3.22717   3.28283   3.29789
 Alpha virt. eigenvalues --    3.31482   3.36416   3.38491   3.40596   3.42849
 Alpha virt. eigenvalues --    3.47656   3.51746   3.55436   3.58289   3.60492
 Alpha virt. eigenvalues --    3.66792   3.71318   3.86927   3.93135   3.94143
 Alpha virt. eigenvalues --    3.95690   4.02773   4.06262   4.13433   4.16920
 Alpha virt. eigenvalues --    4.18277   4.24522   4.39453   4.58131   4.83028
 Alpha virt. eigenvalues --    4.89298   5.06371   5.17568   5.19791   5.33478
 Alpha virt. eigenvalues --    5.43765   5.53799   5.72366   5.99423   6.08450
 Alpha virt. eigenvalues --   23.68200  23.87051  23.96772  24.00511  24.01108
 Alpha virt. eigenvalues --   24.10054  24.11783  24.20550  35.62166  50.00082
 Alpha virt. eigenvalues --   50.02548  50.13368
          Condensed to atoms (all electrons):
               1          2          3          4          5          6
     1  O    8.058405   0.543637  -0.159346   0.043361  -0.172089  -0.104753
     2  C    0.543637   5.680621  -0.174513  -0.111824   0.170624  -0.335396
     3  N   -0.159346  -0.174513   7.665424  -0.094207  -0.248673  -0.010047
     4  O    0.043361  -0.111824  -0.094207   7.913329   0.012697   0.028115
     5  O   -0.172089   0.170624  -0.248673   0.012697   8.511511   0.424904
     6  C   -0.104753  -0.335396  -0.010047   0.028115   0.424904  12.365607
     7  C    0.161708  -0.050458   0.119714  -0.008103  -0.518367  -4.618042
     8  C   -0.001328  -0.281068   0.042641   0.003267   0.043384  -1.221453
     9  C   -0.001876  -0.009216   0.007186  -0.000249   0.007460   0.103706
    10  C    0.000666  -0.003529   0.002625   0.000038   0.007065  -0.118844
    11  C   -0.001339   0.023649  -0.003370  -0.000185  -0.000211  -0.175093
    12  C    0.008533   0.313894  -0.038362  -0.002233  -0.033514  -0.791541
    13  H    0.002820  -0.087740   0.341775   0.010366   0.014535   0.033229
    14  H    0.000189   0.052359   0.002288   0.207442  -0.001124  -0.009402
    15  H   -0.008220  -0.012532  -0.003353  -0.000508  -0.048263   0.359067
    16  H   -0.022637  -0.008674  -0.003012  -0.000296  -0.032445   0.457076
    17  H    0.001499  -0.012365   0.005445   0.000553  -0.009565  -0.037365
    18  H   -0.000018   0.001553  -0.000413  -0.000017  -0.000559   0.012195
    19  H    0.000021  -0.000146   0.000093   0.000000  -0.000015  -0.015793
    20  H   -0.000060   0.000186  -0.000060  -0.000006   0.000135   0.008199
    21  H    0.002800   0.001654   0.001721   0.000050  -0.005960  -0.057204
               7          8          9         10         11         12
     1  O    0.161708  -0.001328  -0.001876   0.000666  -0.001339   0.008533
     2  C   -0.050458  -0.281068  -0.009216  -0.003529   0.023649   0.313894
     3  N    0.119714   0.042641   0.007186   0.002625  -0.003370  -0.038362
     4  O   -0.008103   0.003267  -0.000249   0.000038  -0.000185  -0.002233
     5  O   -0.518367   0.043384   0.007460   0.007065  -0.000211  -0.033514
     6  C   -4.618042  -1.221453   0.103706  -0.118844  -0.175093  -0.791541
     7  C   12.341817  -0.499444  -0.530386   0.116219  -0.596042  -0.228166
     8  C   -0.499444  11.973586  -0.583529  -0.394327   1.071603  -4.686609
     9  C   -0.530386  -0.583529   5.968271   0.432597  -0.343962   0.978176
    10  C    0.116219  -0.394327   0.432597   5.765564   0.342923  -0.333455
    11  C   -0.596042   1.071603  -0.343962   0.342923   6.020711  -0.387305
    12  C   -0.228166  -4.686609   0.978176  -0.333455  -0.387305  11.726119
    13  H   -0.026682   0.017177   0.001260  -0.000109  -0.000135  -0.011413
    14  H    0.002066  -0.001979  -0.000162   0.000007   0.000036   0.001079
    15  H    0.084220  -0.162955   0.025102   0.011497  -0.041481   0.104079
    16  H   -0.188687   0.236515  -0.044076  -0.007611   0.087437  -0.264847
    17  H    0.051316   0.417973  -0.114671  -0.003752   0.015905   0.000267
    18  H    0.010635  -0.052118   0.392884  -0.040873   0.013325  -0.004503
    19  H    0.027864  -0.029918  -0.053100   0.441572  -0.067598   0.027557
    20  H    0.027834   0.029247   0.000807  -0.043216   0.421085  -0.115891
    21  H    0.061019  -0.019042   0.012846   0.018952  -0.101679   0.431822
              13         14         15         16         17         18
     1  O    0.002820   0.000189  -0.008220  -0.022637   0.001499  -0.000018
     2  C   -0.087740   0.052359  -0.012532  -0.008674  -0.012365   0.001553
     3  N    0.341775   0.002288  -0.003353  -0.003012   0.005445  -0.000413
     4  O    0.010366   0.207442  -0.000508  -0.000296   0.000553  -0.000017
     5  O    0.014535  -0.001124  -0.048263  -0.032445  -0.009565  -0.000559
     6  C    0.033229  -0.009402   0.359067   0.457076  -0.037365   0.012195
     7  C   -0.026682   0.002066   0.084220  -0.188687   0.051316   0.010635
     8  C    0.017177  -0.001979  -0.162955   0.236515   0.417973  -0.052118
     9  C    0.001260  -0.000162   0.025102  -0.044076  -0.114671   0.392884
    10  C   -0.000109   0.000007   0.011497  -0.007611  -0.003752  -0.040873
    11  C   -0.000135   0.000036  -0.041481   0.087437   0.015905   0.013325
    12  C   -0.011413   0.001079   0.104079  -0.264847   0.000267  -0.004503
    13  H    0.448665  -0.034431   0.000238   0.002839   0.000479  -0.000070
    14  H   -0.034431   0.509757  -0.000132  -0.000226  -0.000166   0.000003
    15  H    0.000238  -0.000132   0.532260  -0.041845  -0.010527   0.000267
    16  H    0.002839  -0.000226  -0.041845   0.614158   0.004691   0.000042
    17  H    0.000479  -0.000166  -0.010527   0.004691   0.493838  -0.012313
    18  H   -0.000070   0.000003   0.000267   0.000042  -0.012313   0.486766
    19  H   -0.000007   0.000001   0.000559  -0.001147   0.000576  -0.010603
    20  H    0.000019  -0.000001  -0.000888   0.003452   0.000244   0.000744
    21  H   -0.000205   0.000003   0.003683  -0.014690  -0.000764  -0.000504
              19         20         21
     1  O    0.000021  -0.000060   0.002800
     2  C   -0.000146   0.000186   0.001654
     3  N    0.000093  -0.000060   0.001721
     4  O    0.000000  -0.000006   0.000050
     5  O   -0.000015   0.000135  -0.005960
     6  C   -0.015793   0.008199  -0.057204
     7  C    0.027864   0.027834   0.061019
     8  C   -0.029918   0.029247  -0.019042
     9  C   -0.053100   0.000807   0.012846
    10  C    0.441572  -0.043216   0.018952
    11  C   -0.067598   0.421085  -0.101679
    12  C    0.027557  -0.115891   0.431822
    13  H   -0.000007   0.000019  -0.000205
    14  H    0.000001  -0.000001   0.000003
    15  H    0.000559  -0.000888   0.003683
    16  H   -0.001147   0.003452  -0.014690
    17  H    0.000576   0.000244  -0.000764
    18  H   -0.010603   0.000744  -0.000504
    19  H    0.496873  -0.012675   0.002588
    20  H   -0.012675   0.485683  -0.015303
    21  H    0.002588  -0.015303   0.504530
 Mulliken charges:
               1
     1  O   -0.351974
     2  C    0.299285
     3  N   -0.453555
     4  O   -0.001590
     5  O   -0.121530
     6  C   -0.297164
     7  C    0.259968
     8  C    0.098375
     9  C   -0.249066
    10  C   -0.194008
    11  C   -0.278275
    12  C   -0.693686
    13  H    0.287389
    14  H    0.272392
    15  H    0.209730
    16  H    0.223984
    17  H    0.208702
    18  H    0.203578
    19  H    0.193297
    20  H    0.210465
    21  H    0.173683
 Sum of Mulliken charges =  -0.00000
 Mulliken charges with hydrogens summed into heavy atoms:
               1
     1  O   -0.351974
     2  C    0.299285
     3  N   -0.166166
     4  O    0.270802
     5  O   -0.121530
     6  C    0.136550
     7  C    0.259968
     8  C    0.307077
     9  C   -0.045488
    10  C   -0.000711
    11  C   -0.067810
    12  C   -0.520003
 Electronic spatial extent (au):  <R**2>=           3024.3097
 Charge=              0.0000 electrons
 Dipole moment (field-independent basis, Debye):
    X=              1.9940    Y=              4.1988    Z=             -2.2134  Tot=              5.1483
 Quadrupole moment (field-independent basis, Debye-Ang):
   XX=            -68.2532   YY=            -63.0134   ZZ=            -69.9381
   XY=            -17.4682   XZ=              7.6246   YZ=              1.1598
 Traceless Quadrupole moment (field-independent basis, Debye-Ang):
   XX=             -1.1850   YY=              4.0548   ZZ=             -2.8698
   XY=            -17.4682   XZ=              7.6246   YZ=              1.1598
 Octapole moment (field-independent basis, Debye-Ang**2):
  XXX=            -16.4642  YYY=             17.2893  ZZZ=             -1.5800  XYY=            -20.2679
  XXY=             81.0706  XXZ=            -54.9532  XZZ=            -22.1978  YZZ=              4.7523
  YYZ=            -10.4504  XYZ=             17.8980
 Hexadecapole moment (field-independent basis, Debye-Ang**3):
 XXXX=          -3063.0947 YYYY=           -403.4501 ZZZZ=           -218.5581 XXXY=           -272.1979
 XXXZ=             99.6850 YYYX=            -64.2557 YYYZ=              2.2570 ZZZX=             17.7237
 ZZZY=             -7.3581 XXYY=           -525.4590 XXZZ=           -582.0545 YYZZ=            -98.5582
 XXYZ=            -25.6406 YYXZ=             39.9247 ZZXY=            -31.7322
 N-N= 6.525182446031D+02 E-N=-2.685572176916D+03  KE= 5.881660493056D+02
 No NMR shielding tensors so no spin-rotation constants.
 Leave Link  601 at Sun Oct 13 19:39:58 2019, MaxMem= 10737418240 cpu:               3.0 elap:               0.2
 (Enter /apps/cent7/gaussian/g16-A.03/g16-haswell/g16/l701.exe)
 ... and contract with generalized density number  0.
 Compute integral first derivatives.
 Leave Link  701 at Sun Oct 13 19:39:59 2019, MaxMem= 10737418240 cpu:               3.4 elap:               0.2
 (Enter /apps/cent7/gaussian/g16-A.03/g16-haswell/g16/l702.exe)
 L702 exits ... SP integral derivatives will be done elsewhere.
 Leave Link  702 at Sun Oct 13 19:39:59 2019, MaxMem= 10737418240 cpu:               0.4 elap:               0.0
 (Enter /apps/cent7/gaussian/g16-A.03/g16-haswell/g16/l703.exe)
 Integral derivatives from FoFJK, PRISM(SPDF).
 Compute integral first derivatives, UseDBF=F ICtDFT=           0.
 Calling FoFJK, ICntrl=      2127 FMM=F ISym2X=0 I1Cent= 0 IOpClX= 0 NMat=1 NMatS=1 NMatT=0.
 FoFJK:  IHMeth= 1 ICntrl=    2127 DoSepK=F KAlg= 0 I1Cent=           0 FoldK=F
 IRaf=         0 NMat=       1 IRICut=       1 DoRegI=T DoRafI=F ISym2E= 0 IDoP0=0 IntGTp=1.
 FoFCou: FMM=F IPFlag=           0 FMFlag=      100000 FMFlg1=         800
         NFxFlg=           0 DoJE=F BraDBF=F KetDBF=F FulRan=T
         wScrn=  0.000000 ICntrl=      2127 IOpCl=  0 I1Cent=           0 NGrid=           0
         NMat0=    1 NMatS0=      1 NMatT0=    0 NMatD0=    1 NMtDS0=    0 NMtDT0=    0
 Symmetry not used in FoFCou.
 Leave Link  703 at Sun Oct 13 19:40:02 2019, MaxMem= 10737418240 cpu:              81.0 elap:               3.4
 (Enter /apps/cent7/gaussian/g16-A.03/g16-haswell/g16/l716.exe)
 Dipole        = 7.84490932D-01 1.65194969D+00-8.70811957D-01
 ***** Axes restored to original set *****
 -------------------------------------------------------------------
 Center     Atomic                   Forces (Hartrees/Bohr)
 Number     Number              X              Y              Z
 -------------------------------------------------------------------
      1        8          -0.016680341   -0.033914257    0.044592583
      2        6           0.018059745    0.042766984   -0.093166930
      3        7          -0.059241190   -0.088364563    0.007291250
      4        8           0.045151385    0.064996592    0.000079462
      5        8           0.006402639    0.003180187    0.057547845
      6        6           0.011863217    0.012896617    0.004452537
      7        6          -0.015536424   -0.029055906    0.014685982
      8        6           0.002335260   -0.012497972   -0.005439908
      9        6           0.009645269    0.002619668   -0.006030510
     10        6           0.006386310    0.006990320   -0.002564667
     11        6          -0.004972280    0.008996760    0.003705520
     12        6          -0.009727364    0.004735886    0.007684196
     13        1          -0.000839201   -0.003499045   -0.004218549
     14        1          -0.003333113   -0.002888043   -0.000801141
     15        1           0.010141650    0.003780715   -0.013510834
     16        1          -0.004493561    0.012031607   -0.012656563
     17        1           0.002465547   -0.002354651   -0.001974964
     18        1           0.003681159    0.000252122   -0.002793625
     19        1           0.002609103    0.003762313   -0.000600733
     20        1          -0.001180986    0.004331905    0.001460769
     21        1          -0.002736823    0.001232760    0.002258280
 -------------------------------------------------------------------
 Cartesian Forces:  Max     0.093166930 RMS     0.024677911
 Leave Link  716 at Sun Oct 13 19:40:02 2019, MaxMem= 10737418240 cpu:               0.6 elap:               0.1
 (Enter /apps/cent7/gaussian/g16-A.03/g16-haswell/g16/l103.exe)

 GradGradGradGradGradGradGradGradGradGradGradGradGradGradGradGradGradGrad
 Berny optimization.
 FormGI is forming the generalized inverse of G from B-inverse, IUseBI=4.
 GSVD:  received Info=                   1 from GESDD.
 Internal  Forces:  Max     0.073050856 RMS     0.013956828
 Search for a local minimum.
 Step number   1 out of a maximum of  104
 All quantities printed in internal units (Hartrees-Bohrs-Radians)
 RMS Force = .13957D-01 SwitMx=.10000D-02 MixMth= 1
 Mixed Optimization -- RFO/linear search
 Second derivative matrix not updated -- first step.
 ITU=  0
     Eigenvalues ---    0.00998   0.01268   0.01530   0.01900   0.01935
     Eigenvalues ---    0.01945   0.01976   0.02001   0.02003   0.02007
     Eigenvalues ---    0.02011   0.02206   0.02324   0.02384   0.02441
     Eigenvalues ---    0.02561   0.07156   0.07773   0.11216   0.13716
     Eigenvalues ---    0.16000   0.16000   0.16000   0.16000   0.16000
     Eigenvalues ---    0.16000   0.16000   0.22000   0.22000   0.22000
     Eigenvalues ---    0.22599   0.23471   0.24999   0.25000   0.25000
     Eigenvalues ---    0.25000   0.34286   0.34803   0.34810   0.34811
     Eigenvalues ---    0.34811   0.34812   0.34817   0.34821   0.40203
     Eigenvalues ---    0.40276   0.40700   0.43469   0.44036   0.44455
     Eigenvalues ---    0.44619   0.45980   0.52714   0.55467   0.55521
     Eigenvalues ---    0.66023   0.81923
 RFO step:  Lambda=-4.22167896D-02 EMin= 9.97565993D-03
 Linear search not attempted -- first point.
 Maximum step size (   0.300) exceeded in Quadratic search.
    -- Step size scaled by   0.878
 Iteration  1 RMS(Cart)=  0.06051605 RMS(Int)=  0.00163239
 Iteration  2 RMS(Cart)=  0.00342630 RMS(Int)=  0.00006388
 Iteration  3 RMS(Cart)=  0.00000247 RMS(Int)=  0.00006387
 Iteration  4 RMS(Cart)=  0.00000000 RMS(Int)=  0.00006387
 ITry= 1 IFail=0 DXMaxC= 1.86D-01 DCOld= 1.00D+10 DXMaxT= 3.00D-01 DXLimC= 3.00D+00 Rises=F
 Variable       Old X    -DE/DX   Delta X   Delta X   Delta X     New X
                                 (Linear)    (Quad)   (Total)
    R1        2.36895  -0.05844   0.00000  -0.05955  -0.05955   2.30940
    R2        2.54672  -0.00968   0.00000  -0.01423  -0.01423   2.53249
    R3        2.57222  -0.03236   0.00000  -0.04990  -0.04990   2.52231
    R4        2.46470   0.07305   0.00000   0.09129   0.09129   2.55599
    R5        1.90853  -0.00106   0.00000  -0.00186  -0.00186   1.90667
    R6        1.81419  -0.00134   0.00000  -0.00197  -0.00197   1.81222
    R7        2.70613  -0.00026   0.00000  -0.00051  -0.00051   2.70561
    R8        2.80150   0.01472   0.00000   0.03355   0.03355   2.83505
    R9        2.05983   0.00091   0.00000   0.00204   0.00204   2.06187
   R10        2.05966   0.00001   0.00000   0.00002   0.00002   2.05968
   R11        2.67506  -0.01781   0.00000  -0.03330  -0.03329   2.64177
   R12        2.67390  -0.02055   0.00000  -0.03831  -0.03830   2.63560
   R13        2.65900  -0.01734   0.00000  -0.03125  -0.03125   2.62775
   R14        2.05973  -0.00359   0.00000  -0.00806  -0.00806   2.05166
   R15        2.65692  -0.01317   0.00000  -0.02338  -0.02339   2.63352
   R16        2.05982  -0.00461   0.00000  -0.01036  -0.01036   2.04946
   R17        2.65662  -0.01557   0.00000  -0.02767  -0.02769   2.62894
   R18        2.05985  -0.00461   0.00000  -0.01036  -0.01036   2.04949
   R19        2.65927  -0.01482   0.00000  -0.02673  -0.02673   2.63253
   R20        2.05981  -0.00470   0.00000  -0.01056  -0.01056   2.04924
   R21        2.05996  -0.00358   0.00000  -0.00806  -0.00806   2.05190
    A1        2.11397   0.02173   0.00000   0.06527   0.06527   2.17924
    A2        2.12245   0.01907   0.00000   0.05728   0.05728   2.17973
    A3        2.04676  -0.04079   0.00000  -0.12255  -0.12255   1.92421
    A4        2.13290  -0.01872   0.00000  -0.06268  -0.06268   2.07022
    A5        2.10466   0.00437   0.00000   0.00968   0.00968   2.11435
    A6        2.04562   0.01435   0.00000   0.05299   0.05299   2.09862
    A7        1.91068  -0.00750   0.00000  -0.03257  -0.03257   1.87811
    A8        2.21287  -0.04962   0.00000  -0.14905  -0.14905   2.06382
    A9        1.89991  -0.01343   0.00000  -0.03300  -0.03271   1.86720
   A10        1.85552   0.00419   0.00000   0.01842   0.01873   1.87425
   A11        1.85562   0.00536   0.00000   0.02643   0.02670   1.88232
   A12        1.87611   0.00929   0.00000   0.04142   0.04157   1.91769
   A13        1.87611   0.00941   0.00000   0.04369   0.04383   1.91994
   A14        2.09443  -0.01611   0.00000  -0.09728  -0.09730   1.99714
   A15        2.09426   0.00119   0.00000   0.00403   0.00400   2.09826
   A16        2.11861  -0.00289   0.00000  -0.00823  -0.00825   2.11035
   A17        2.07028   0.00171   0.00000   0.00427   0.00429   2.07457
   A18        2.10648  -0.00003   0.00000  -0.00055  -0.00053   2.10595
   A19        2.09355  -0.00166   0.00000  -0.00699  -0.00700   2.08655
   A20        2.08315   0.00169   0.00000   0.00754   0.00753   2.09068
   A21        2.09528  -0.00039   0.00000  -0.00070  -0.00071   2.09458
   A22        2.09466  -0.00018   0.00000  -0.00128  -0.00127   2.09339
   A23        2.09324   0.00057   0.00000   0.00197   0.00198   2.09522
   A24        2.09225  -0.00089   0.00000  -0.00182  -0.00185   2.09041
   A25        2.09554   0.00052   0.00000   0.00124   0.00125   2.09679
   A26        2.09539   0.00037   0.00000   0.00058   0.00059   2.09598
   A27        2.09596  -0.00045   0.00000  -0.00089  -0.00090   2.09506
   A28        2.09279   0.00070   0.00000   0.00253   0.00253   2.09532
   A29        2.09443  -0.00026   0.00000  -0.00164  -0.00164   2.09280
   A30        2.10601   0.00005   0.00000  -0.00028  -0.00026   2.10575
   A31        2.09335  -0.00117   0.00000  -0.00483  -0.00484   2.08851
   A32        2.08383   0.00112   0.00000   0.00510   0.00510   2.08893
    D1       -0.03867   0.00054   0.00000   0.00717   0.00718  -0.03149
    D2        3.10279   0.00073   0.00000   0.00964   0.00963   3.11243
    D3        3.09942   0.00058   0.00000   0.00772   0.00773   3.10715
    D4       -0.04230   0.00077   0.00000   0.01019   0.01018  -0.03212
    D5       -0.01776   0.00011   0.00000   0.00148   0.00148  -0.01628
    D6        3.12736   0.00007   0.00000   0.00091   0.00091   3.12828
    D7        3.08063  -0.00084   0.00000  -0.01088  -0.01086   3.06978
    D8       -0.06083  -0.00102   0.00000  -0.01327  -0.01329  -0.07412
    D9       -3.14107   0.00047   0.00000   0.00586   0.00585  -3.13522
   D10       -1.12475   0.00691   0.00000   0.04752   0.04749  -1.07726
   D11        1.12576  -0.00671   0.00000  -0.04259  -0.04256   1.08320
   D12        1.06221  -0.00007   0.00000   0.00287   0.00284   1.06505
   D13       -2.06983  -0.00067   0.00000  -0.00624  -0.00626  -2.07608
   D14       -0.94078  -0.00304   0.00000  -0.02364  -0.02351  -0.96429
   D15        2.21038  -0.00364   0.00000  -0.03276  -0.03261   2.17777
   D16        3.06530   0.00434   0.00000   0.03995   0.03983   3.10513
   D17       -0.06673   0.00374   0.00000   0.03083   0.03073  -0.03601
   D18        3.13945  -0.00033   0.00000  -0.00520  -0.00524   3.13421
   D19       -0.00203  -0.00043   0.00000  -0.00664  -0.00666  -0.00869
   D20       -0.01144   0.00023   0.00000   0.00359   0.00361  -0.00783
   D21        3.13027   0.00013   0.00000   0.00216   0.00218   3.13245
   D22       -3.13929   0.00060   0.00000   0.00883   0.00881  -3.13048
   D23        0.00225   0.00041   0.00000   0.00618   0.00617   0.00842
   D24        0.01174   0.00001   0.00000  -0.00017  -0.00017   0.01157
   D25       -3.12991  -0.00018   0.00000  -0.00282  -0.00281  -3.13272
   D26        0.00087  -0.00017   0.00000  -0.00251  -0.00251  -0.00164
   D27       -3.14088  -0.00005   0.00000  -0.00078  -0.00079   3.14152
   D28       -3.14084  -0.00007   0.00000  -0.00108  -0.00109   3.14126
   D29        0.00060   0.00005   0.00000   0.00064   0.00064   0.00124
   D30        0.00962  -0.00015   0.00000  -0.00212  -0.00211   0.00750
   D31       -3.13199  -0.00006   0.00000  -0.00075  -0.00075  -3.13275
   D32       -3.13182  -0.00027   0.00000  -0.00384  -0.00384  -3.13566
   D33        0.00975  -0.00017   0.00000  -0.00247  -0.00248   0.00728
   D34       -0.00932   0.00039   0.00000   0.00552   0.00552  -0.00380
   D35        3.13226   0.00017   0.00000   0.00241   0.00240   3.13466
   D36        3.13229   0.00029   0.00000   0.00416   0.00416   3.13645
   D37       -0.00932   0.00007   0.00000   0.00104   0.00104  -0.00828
   D38       -0.00147  -0.00031   0.00000  -0.00436  -0.00436  -0.00584
   D39        3.14018  -0.00012   0.00000  -0.00172  -0.00172   3.13845
   D40        3.14013  -0.00009   0.00000  -0.00124  -0.00125   3.13888
   D41       -0.00141   0.00010   0.00000   0.00140   0.00139  -0.00001
         Item               Value     Threshold  Converged?
 Maximum Force            0.073051     0.000450     NO 
 RMS     Force            0.013957     0.000300     NO 
 Maximum Displacement     0.186244     0.001800     NO 
 RMS     Displacement     0.062593     0.001200     NO 
 Predicted change in Energy=-2.288465D-02
 Lowest energy point so far.  Saving SCF results.
 GradGradGradGradGradGradGradGradGradGradGradGradGradGradGradGradGradGrad

 Leave Link  103 at Sun Oct 13 19:40:02 2019, MaxMem= 10737418240 cpu:               2.0 elap:               0.1
 (Enter /apps/cent7/gaussian/g16-A.03/g16-haswell/g16/l202.exe)
                          Input orientation:                          
 ---------------------------------------------------------------------
 Center     Atomic      Atomic             Coordinates (Angstroms)
 Number     Number       Type             X           Y           Z
 ---------------------------------------------------------------------
      1          8           0        1.223538    1.352941   -0.348324
      2          6           0        0.902133    0.698870    0.632680
      3          7           0        1.207514    1.016005    1.898435
      4          8           0        1.955584    2.119386    2.127339
      5          8           0        0.199849   -0.435636    0.597256
      6          6           0       -0.232475   -0.925482   -0.676736
      7          6           0       -0.996755   -2.191299   -0.423130
      8          6           0       -2.154957   -2.169190    0.359422
      9          6           0       -2.875257   -3.335451    0.593130
     10          6           0       -2.445703   -4.541935    0.043584
     11          6           0       -1.290487   -4.575812   -0.730815
     12          6           0       -0.569298   -3.405970   -0.958895
     13          1           0        0.891389    0.447402    2.669651
     14          1           0        2.023023    2.232202    3.077275
     15          1           0       -0.894164   -0.172734   -1.108041
     16          1           0        0.655603   -1.138932   -1.271474
     17          1           0       -2.493055   -1.231204    0.789078
     18          1           0       -3.772157   -3.304903    1.202093
     19          1           0       -3.010452   -5.451308    0.217743
     20          1           0       -0.948536   -5.513268   -1.155313
     21          1           0        0.333163   -3.439484   -1.561758
 ---------------------------------------------------------------------
                    Distance matrix (angstroms):
                    1          2          3          4          5
     1  O    0.000000
     2  C    1.222080   0.000000
     3  N    2.271940   1.340137   0.000000
     4  O    2.692998   2.315520   1.352574   0.000000
     5  O    2.267393   1.334752   2.194474   3.457152   0.000000
     6  C    2.723791   2.374957   3.531918   4.682057   1.431750
     7  C    4.182934   3.615742   4.531585   5.814052   2.356990
     8  C    4.931586   4.200742   4.880598   6.197899   2.933749
     9  C    6.298212   5.526842   6.108028   7.446212   4.226727
    10  C    6.954602   6.246685   6.904865   8.251458   4.916014
    11  C    6.451103   5.872731   6.664937   7.970677   4.596295
    12  C    5.121942   4.641975   5.556551   6.813914   3.440360
    13  H    3.168359   2.052463   1.008969   2.054785   2.356439
    14  H    3.625880   3.095730   1.879855   0.958985   4.073306
    15  H    2.718367   2.648865   3.856040   4.882885   2.043041
    16  H    2.717386   2.657836   3.872555   4.884518   2.048045
    17  H    4.667393   3.908574   4.469321   5.727809   2.814508
    18  H    7.004019   6.180891   6.629650   7.942670   4.937140
    19  H    8.033985   7.301040   7.902032   9.253296   5.967163
    20  H    7.246652   6.724028   7.523652   8.801541   5.492962
    21  H    5.023199   4.718608   5.708661   6.866056   3.701650
                    6          7          8          9         10
     6  C    0.000000
     7  C    1.500245   0.000000
     8  C    2.513239   1.397966   0.000000
     9  C    3.795367   2.422940   1.390546   0.000000
    10  C    4.300695   2.800493   2.411267   1.393600   0.000000
    11  C    3.800951   2.422158   2.779885   2.408905   1.391174
    12  C    2.519104   1.394701   2.404558   2.780504   2.411696
    13  H    3.787635   4.482536   4.632918   5.727961   6.551786
    14  H    5.399151   6.398379   6.649397   7.820670   8.663817
    15  H    1.091094   2.134064   2.780086   4.101401   4.777387
    16  H    1.089934   2.134819   3.408886   4.557238   4.788310
    17  H    2.711513   2.151777   1.085694   2.147633   3.393957
    18  H    4.660579   3.403575   2.148320   1.084527   2.152179
    19  H    5.385198   3.885017   3.394738   2.153148   1.084543
    20  H    4.667929   3.402043   3.864290   3.392963   2.149965
    21  H    2.724595   2.150145   3.390475   3.866306   3.393319
                   11         12         13         14         15
    11  C    0.000000
    12  C    1.393077   0.000000
    13  H    6.446428   5.490758   0.000000
    14  H    8.475255   7.402687   2.152270   0.000000
    15  H    4.436943   3.252937   4.224183   5.640086   0.000000
    16  H    3.986443   2.595679   4.254940   5.669744   1.833583
    17  H    3.865572   3.389079   4.220040   6.134003   2.697382
    18  H    3.392644   3.865022   6.162968   8.231643   4.840459
    19  H    2.150474   3.395161   7.485386   9.620246   5.839497
    20  H    1.084413   2.150141   7.317463   9.313285   5.341020
    21  H    2.148941   1.085819   5.772722   7.519593   3.519069
                   16         17         18         19         20
    16  H    0.000000
    17  H    3.764099   0.000000
    18  H    5.514982   2.471217   0.000000
    19  H    5.852719   4.289919   2.481168   0.000000
    20  H    4.660641   4.949977   4.290347   2.478028   0.000000
    21  H    2.341105   4.288407   4.950822   4.288802   2.471544
                   21
    21  H    0.000000
 Stoichiometry    C8H9NO3
 Framework group  C1[X(C8H9NO3)]
 Deg. of freedom    57
 Full point group                 C1      NOp   1
 RotChk:  IX=0 Diff= 2.81D-02
 Largest Abelian subgroup         C1      NOp   1
 Largest concise Abelian subgroup C1      NOp   1
                         Standard orientation:                         
 ---------------------------------------------------------------------
 Center     Atomic      Atomic             Coordinates (Angstroms)
 Number     Number       Type             X           Y           Z
 ---------------------------------------------------------------------
      1          8           0       -2.781991   -1.174705    0.687009
      2          6           0       -2.307784   -0.214244    0.098688
      3          7           0       -3.023980    0.746760   -0.500898
      4          8           0       -4.372918    0.647761   -0.496126
      5          8           0       -1.002490    0.026427   -0.042188
      6          6           0       -0.076496   -0.890349    0.551077
      7          6           0        1.301085   -0.378718    0.249020
      8          6           0        1.701886    0.878293    0.711175
      9          6           0        2.979500    1.357812    0.444006
     10          6           0        3.875695    0.582608   -0.289490
     11          6           0        3.484198   -0.666714   -0.759903
     12          6           0        2.201861   -1.141570   -0.493846
     13          1           0       -2.573497    1.529759   -0.950338
     14          1           0       -4.723467    1.441148   -0.905155
     15          1           0       -0.249252   -0.876921    1.628324
     16          1           0       -0.223702   -1.863623    0.083075
     17          1           0        1.006724    1.485131    1.283216
     18          1           0        3.278156    2.334742    0.808167
     19          1           0        4.875404    0.951104   -0.492041
     20          1           0        4.175711   -1.270998   -1.336621
     21          1           0        1.901317   -2.116238   -0.866268
 ---------------------------------------------------------------------
 Rotational constants (GHZ):           2.8612501           0.3835175           0.3615507
 Leave Link  202 at Sun Oct 13 19:40:02 2019, MaxMem= 10737418240 cpu:               0.3 elap:               0.0
 (Enter /apps/cent7/gaussian/g16-A.03/g16-haswell/g16/l301.exe)
 Standard basis: 6-311++G(d,p) (5D, 7F)
 Ernie: Thresh=  0.10000D-02 Tol=  0.10000D-05 Strict=F.
 There are   339 symmetry adapted cartesian basis functions of A   symmetry.
 There are   327 symmetry adapted basis functions of A   symmetry.
   327 basis functions,   513 primitive gaussians,   339 cartesian basis functions
    44 alpha electrons       44 beta electrons
       nuclear repulsion energy       659.7611450599 Hartrees.
 IExCor= 4336 DFT=T Ex+Corr=M062X ExCW=0 ScaHFX=  0.540000
 ScaDFX=  1.000000  1.000000  1.000000  1.000000 ScalE2=  1.000000  1.000000
 IRadAn=      5 IRanWt=     -1 IRanGd=            0 ICorTp=0 IEmpDi=  4
 NAtoms=   21 NActive=   21 NUniq=   21 SFac= 1.00D+00 NAtFMM=   60 NAOKFM=F Big=F
 Integral buffers will be    131072 words long.
 Raffenetti 2 integral format.
 Two-electron integral symmetry is turned on.
 Leave Link  301 at Sun Oct 13 19:40:02 2019, MaxMem= 10737418240 cpu:               1.2 elap:               0.1
 (Enter /apps/cent7/gaussian/g16-A.03/g16-haswell/g16/l302.exe)
 NPDir=0 NMtPBC=     1 NCelOv=     1 NCel=       1 NClECP=     1 NCelD=      1
         NCelK=      1 NCelE2=     1 NClLst=     1 CellRange=     0.0.
 One-electron integrals computed using PRISM.
 One-electron integral symmetry used in STVInt
 NBasis=   327 RedAO= T EigKep=  2.94D-06  NBF=   327
 NBsUse=   326 1.00D-06 EigRej=  8.74D-07 NBFU=   326
 Precomputing XC quadrature grid using
 IXCGrd= 4 IRadAn=           5 IRanWt=          -1 IRanGd=           0 AccXCQ= 0.00D+00.
 Generated NRdTot=       0 NPtTot=           0 NUsed=           0 NTot=          32
 NSgBfM=   339   339   339   339   339 MxSgAt=    21 MxSgA2=    21.
 Leave Link  302 at Sun Oct 13 19:40:03 2019, MaxMem= 10737418240 cpu:               4.7 elap:               0.2
 (Enter /apps/cent7/gaussian/g16-A.03/g16-haswell/g16/l303.exe)
 DipDrv:  MaxL=1.
 Leave Link  303 at Sun Oct 13 19:40:03 2019, MaxMem= 10737418240 cpu:               0.9 elap:               0.1
 (Enter /apps/cent7/gaussian/g16-A.03/g16-haswell/g16/l401.exe)
 Initial guess from the checkpoint file:  "12.chk"
 B after Tr=    -0.000000    0.000000    0.000000
         Rot=    0.999955    0.009462   -0.000136    0.001138 Ang=   1.09 deg.
 Guess basis will be translated and rotated to current coordinates.
 JPrj=2 DoOrth=T DoCkMO=T.
 Generating alternative initial guess.
 ExpMin= 3.60D-02 ExpMax= 8.59D+03 ExpMxC= 1.30D+03 IAcc=3 IRadAn=         5 AccDes= 0.00D+00
 Harris functional with IExCor= 1009 and IRadAn=       5 diagonalized for initial guess.
 HarFok:  IExCor= 1009 AccDes= 0.00D+00 IRadAn=         5 IDoV= 1 UseB2=F ITyADJ=14
[...]
 2670,0.00002392,-0.00012459,0.00000319,0.00004550,0.00002481,0.0005476
 3,0.00079499,0.00016281,0.00185094,-0.00070447,0.00355648,0.04777792,-
 0.03470781,-0.04573063,-0.05342227,-0.02816878,0.02489213,0.00682278,0
 .07314158,0.03010175,-0.24283651,-0.03851888,0.12227589,0.49985213,-0.
 00014938,-0.00022584,0.00024991,0.00023216,0.00033183,-0.00034317,-0.0
 0006885,-0.00007626,-0.00000131,-0.00004736,-0.00005787,-0.00003729,-0
 .00101115,-0.00195672,0.00020636,0.00118936,0.00026248,-0.00537704,0.0
 0967489,-0.05331921,-0.03140921,-0.02875954,-0.01868378,0.01645706,0.0
 2877136,0.03636409,-0.01050219,0.01893147,-0.12593137,-0.03992876,0.08
 042130,0.67482653,0.00006663,0.00010126,-0.00016324,-0.00020382,-0.000
 23966,0.00013163,0.00002904,0.00007759,0.00005091,0.00000288,0.0000339
 2,0.00001985,0.00042241,0.00128650,0.00045003,0.00375680,-0.00519542,0
 .00294108,-0.02761907,0.00332169,0.02803636,0.02421964,0.01579196,-0.0
 1780914,0.01222207,-0.04357198,-0.02018787,0.14608521,0.00392655,-0.17
 520663,-0.24427278,0.16185632,0.39275832,-0.00041497,-0.00050953,0.000
 32749,0.00072255,0.00131618,-0.00098019,-0.00009182,-0.00047349,-0.000
 23108,-0.00018997,-0.00028196,-0.00022738,-0.00314418,-0.00535968,-0.0
 0138594,0.00867688,-0.01444962,-0.00746753,-0.12033212,0.05610554,0.06
 498424,0.00714756,0.02864050,0.01257084,-0.00668016,-0.01584978,-0.005
 93933,-0.03165257,-0.01444652,0.02367780,-0.17756681,-0.13840244,0.029
 02617,0.54703926,0.00009060,0.00013338,-0.00006312,0.00048726,0.000730
 94,-0.00089879,-0.00013264,-0.00024187,-0.00002378,-0.00007970,-0.0001
 0379,-0.00013662,-0.00066307,-0.00198221,0.00069129,0.00235064,-0.0242
 1168,-0.01133566,-0.00463331,-0.26510667,-0.08199160,0.07182632,0.0342
 2468,-0.04361697,-0.01461863,-0.07507025,-0.01672244,-0.05847272,0.039
 90291,0.05823887,-0.08137585,-0.26446185,-0.02139848,0.09975606,0.6258
 8483,0.00025922,0.00022987,-0.00004400,-0.00039350,-0.00067442,0.00021
 450,0.00000696,0.00017380,0.00010301,0.00008003,0.00008579,0.00009607,
 0.00104036,0.00174828,-0.00008902,-0.00113821,0.00197559,0.00583006,0.
 03841063,-0.12684251,-0.14728025,0.03093625,-0.01011240,-0.01982603,-0
 .00557224,-0.01754383,-0.00918893,0.00453132,0.02475095,0.01399071,0.0
 5264879,0.02271669,-0.09509369,-0.26849209,0.12687860,0.39296576,0.004
 36359,-0.00159508,-0.00337408,-0.00202770,0.01183252,0.01538138,-0.020
 36749,0.00586838,-0.04865405,-0.01062357,-0.03221241,0.02021963,-0.002
 26374,-0.00390219,-0.00108840,-0.00069368,0.00041376,0.00045234,0.0000
 9027,0.00014737,-0.00006418,0.00009657,-0.00027164,-0.00006576,-0.0000
 4515,0.00002259,0.00007207,-0.00002845,-0.00003635,0.00000231,-0.00001
 818,0.00004285,0.00001728,-0.00007636,-0.00003602,0.00001444,0.0348516
 3,-0.00066207,-0.00009581,-0.00606850,0.00588463,0.01204239,-0.0109516
 7,-0.02034052,-0.24331688,0.21367161,-0.00001623,-0.02237549,0.0062362
 2,-0.00036597,-0.00189364,-0.00142669,-0.00029022,0.00021990,0.0002879
 4,0.00003485,-0.00000737,-0.00003385,-0.00000815,0.00002391,0.00007683
 ,0.00000474,-0.00004437,0.00002886,-0.00000924,-0.00000881,0.00000051,
 0.00001053,-0.00001333,0.00000158,0.00002297,-0.00003056,-0.00000139,0
 .02036489,0.25739689,-0.00082158,-0.00394296,-0.00417078,0.00016981,0.
 02878180,-0.02360436,-0.01488639,0.19647150,-0.24974505,-0.00120022,-0
 .01416059,0.00921716,0.00179437,0.00062782,0.00240219,0.00000361,-0.00
 144068,-0.00094641,-0.00009786,-0.00018589,0.00016986,-0.00001167,0.00
 008900,-0.00003733,-0.00002070,-0.00000269,0.00001819,0.00003089,0.000
 07086,-0.00000954,0.00000054,0.00001341,-0.00001517,0.00011890,0.00004
 390,-0.00005340,0.01674039,-0.20428365,0.26523656,-0.00016248,0.000437
 60,-0.00041005,-0.00076727,-0.00401300,0.00130545,0.00549699,-0.049912
 38,0.00064176,-0.14992041,0.23719784,-0.01254641,-0.00098399,-0.000580
 73,-0.00179500,-0.00019676,0.00004606,0.00021181,0.00001010,0.00000826
 ,-0.00009491,0.00001025,-0.00003918,-0.00002197,-0.00000578,0.00001241
 ,0.00000266,-0.00000743,-0.00001188,-0.00000132,0.00000301,-0.00000337
 ,0.00001061,-0.00003658,-0.00001464,0.00000849,-0.00307098,-0.00470565
 ,-0.00197561,0.14965222,0.00010807,-0.00059692,0.00213470,-0.00042453,
 -0.00433429,-0.00450512,0.00216229,-0.02183880,0.00494824,0.17690370,-
 0.42753067,0.00599489,0.00076959,0.00181613,0.00041766,-0.00048533,-0.
 00025106,-0.00062105,-0.00005903,-0.00009823,0.00007244,0.00003738,0.0
 0003926,-0.00000914,-0.00001081,-0.00000468,0.00002427,0.00001831,0.00
 003729,-0.00000178,0.00000661,0.00000915,-0.00000103,0.00006628,0.0000
 3367,-0.00002805,-0.00073294,-0.00206340,-0.00245692,-0.17835903,0.454
 68249,0.00085449,0.00347659,-0.00115895,-0.00135947,-0.00803008,0.0051
 5792,-0.00129332,-0.00985479,-0.00585016,-0.01272518,0.01775601,-0.002
 84273,-0.00015396,0.00067087,-0.00162351,-0.00038933,-0.00024465,-0.00
 006614,-0.00003168,-0.00007255,-0.00007364,0.00001711,0.00005286,-0.00
 000582,-0.00000441,-0.00000581,0.00000394,0.00000262,0.00002241,-0.000
 00976,0.00001636,-0.00000644,0.00000490,0.00000575,0.00000753,-0.00002
 011,0.00029906,0.00240517,0.00087831,0.01479028,-0.00611615,0.00559497
 ,-0.00021982,-0.00075869,0.00254211,0.00237424,0.00453422,-0.00371924,
 -0.00017905,-0.00050908,0.00015271,-0.00010383,-0.00019019,0.00000564,
 -0.00342073,-0.00171068,-0.00902241,-0.11823022,0.09472095,-0.06084315
 ,0.01094777,-0.01496134,0.01002804,-0.00021098,-0.00078779,-0.00016008
 ,0.00019299,0.00096417,-0.00041044,0.00025829,-0.00078340,-0.00041898,
 -0.00095298,-0.00027403,-0.00032459,-0.00051483,0.00024861,0.00069598,
 -0.00001300,0.00005162,0.00020634,-0.00002534,0.00001206,-0.00005879,0
 .12305880,-0.00060848,-0.00123846,0.00000629,-0.00052937,0.00340527,-0
 .00186929,0.00074430,-0.00078656,-0.00054866,-0.00002188,-0.00010264,0
 .00005146,-0.01169130,0.00985829,-0.01251839,0.10265815,-0.18580055,0.
 09713142,0.01006297,-0.01947707,0.01065813,0.00093225,0.00095236,-0.00
 133197,-0.00069580,-0.00064989,-0.00097068,-0.00031980,-0.00003209,0.0
 0036474,-0.00068321,0.00019499,-0.00099405,-0.00184446,-0.00118584,0.0
 0083382,-0.00004475,0.00001433,0.00023876,-0.00005281,0.00003755,-0.00
 002196,-0.10098218,0.19921925,-0.00052098,-0.00164034,0.00210506,0.002
 69316,0.00750354,-0.00181762,0.00041987,-0.00078727,-0.00073196,-0.000
 02675,-0.00048248,-0.00001798,-0.02400372,0.01132551,-0.03501079,-0.05
 894863,0.08658918,-0.10667235,-0.00109503,0.00397241,0.00110231,0.0003
 2331,-0.00006467,0.00055511,0.00014173,-0.00044322,-0.00023227,-0.0004
 9715,-0.00012991,0.00025458,-0.00002041,0.00065289,-0.00009449,0.00011
 936,-0.00040157,-0.00064852,-0.00016286,0.00005868,0.00047243,-0.00012
 192,0.00003644,-0.00002935,0.07391803,-0.09609597,0.13059509,-0.000241
 84,-0.00057977,-0.00060454,0.00135027,-0.00011586,0.00010014,-0.000359
 86,-0.00000597,-0.00052013,-0.00024290,-0.00001097,-0.00010827,0.01350
 126,-0.00474257,-0.00713058,-0.25359140,0.04866649,0.11018153,-0.01316
 221,0.00405215,0.00708035,-0.00084831,-0.00331516,-0.00010883,-0.00009
 304,0.00086342,0.00086570,0.00044076,-0.00019528,-0.00037936,0.0000008
 6,-0.00068919,0.00007389,0.00061798,0.00193793,0.00074839,0.00000568,0
 .00007352,-0.00004048,0.00000607,0.00003677,0.00002565,-0.01307404,0.0
 0263171,0.00757061,0.26546839,-0.00072087,-0.00050319,0.00258241,0.003
 94824,0.00442652,-0.00388941,-0.00037540,-0.00056614,0.00006908,-0.000
 34211,-0.00011677,-0.00007987,0.00554814,-0.00710210,-0.01289790,0.047
 08872,-0.06142748,-0.02414078,-0.02418120,0.00541362,0.01388294,-0.001
 99516,-0.00450024,-0.00056191,-0.00083235,0.00028821,0.00106625,-0.000
 03055,0.00010047,-0.00004385,0.00010214,0.00005745,-0.00008562,-0.0011
 3609,0.00116709,0.00139824,0.00010383,0.00007853,0.00013423,0.00000672
 ,0.00004253,-0.00003612,0.02036884,-0.00377691,-0.00998900,-0.04782436
 ,0.06722895,-0.00113081,-0.00131357,0.00195526,0.00480940,0.00564912,-
 0.00184971,-0.00049522,-0.00065034,-0.00026515,-0.00057599,-0.00018477
 ,-0.00020709,0.01992897,-0.01712900,-0.03104952,0.10249819,-0.02276883
 ,-0.10562541,0.00548721,0.00089453,-0.00139468,0.00006899,-0.00026882,
 0.00135979,0.00001346,0.00013264,-0.00001471,0.00004825,-0.00008641,-0
 .00002235,-0.00023241,0.00009396,-0.00027814,-0.00127449,-0.00113674,0
 .00009386,0.00027902,0.00005834,0.00014167,-0.00001560,0.00012788,0.00
 001842,-0.01273565,0.00349813,0.01014497,-0.11651297,0.03304451,0.1266
 0545,0.00027015,0.00058685,-0.00046684,-0.00076576,-0.00156515,-0.0001
 2225,-0.00011909,0.00005444,0.00014286,0.00015375,0.00010742,0.0000231
 1,0.00024882,-0.00015482,-0.00045450,-0.00079580,0.00180785,-0.0003925
 9,-0.00037421,0.02110776,0.01213178,-0.06419498,0.04597187,0.03973757,
 0.00796858,-0.01551834,-0.00963276,0.00082544,-0.00437646,0.00353346,-
 0.00104487,-0.00040773,-0.00019505,-0.00155173,-0.00190610,0.00579909,
 -0.00012486,-0.00003062,-0.00007334,0.00000958,-0.00006636,-0.00001886
 ,-0.00004937,0.00010133,0.00000240,0.00009263,-0.00001028,-0.00013618,
 0.06064710,-0.00000711,-0.00013474,0.00010594,-0.00016172,0.00015284,0
 .00010065,0.00006418,0.00004485,0.00001321,0.00003043,-0.00000591,0.00
 002626,-0.00083885,-0.00013937,0.00050683,0.00036409,-0.00047349,0.000
 30530,-0.00076060,0.00340074,-0.00002831,0.04642942,-0.25207878,-0.125
 49682,0.00751252,-0.01522642,-0.01401319,-0.00497012,-0.00180696,-0.00
 031114,-0.00043411,0.00008617,0.00084306,-0.00142719,0.00220540,-0.001
 04648,0.00003166,0.00005789,-0.00002587,-0.00001103,-0.00000313,-0.000
 00607,0.00030586,-0.00013789,-0.00003741,0.00013296,0.00006960,-0.0000
 0562,-0.04760547,0.26456039,-0.00006232,-0.00007025,-0.00006282,0.0004
 0619,0.00053366,0.00032089,0.00004181,-0.00009579,-0.00016352,-0.00002
 728,0.00000084,-0.00006071,-0.00069722,-0.00027426,0.00016328,-0.00217
 155,-0.00015976,-0.00166685,0.00302781,-0.01707222,-0.00542318,0.04092
 127,-0.12622334,-0.12393726,-0.00036458,0.00422534,0.00583704,0.003359
 02,-0.00036414,0.00490726,-0.00002647,0.00085038,-0.00070687,0.0058058
 1,-0.00069164,0.00212862,-0.00011149,-0.00002353,0.00005139,0.00000584
 ,0.00000268,0.00002053,0.00024365,0.00083895,-0.00022388,-0.00025963,0
 .00003412,-0.00017235,-0.04752393,0.13799312,0.12193802,-0.00004631,-0
 .00010082,-0.00006023,0.00013968,0.00031352,0.00019542,0.00003188,-0.0
 0007932,-0.00011737,-0.00002937,-0.00002400,-0.00004315,-0.00014695,-0
 .00030647,-0.00025774,-0.00040299,0.00069393,0.00081981,0.00205708,-0.
 00466183,0.00275221,-0.00930099,0.00260248,0.01114660,-0.22836089,0.00
 020817,0.14729045,-0.00103408,-0.00198449,0.00279231,0.00352144,0.0000
 8355,0.00296973,0.00009513,-0.00013220,-0.00090057,-0.00003587,-0.0000
 0610,0.00003881,-0.00000547,0.00001206,0.00001404,-0.00000649,-0.00001
 827,-0.00001440,-0.00018937,-0.00021478,-0.00005341,-0.00095884,0.0008
 5566,-0.00227652,0.23622230,-0.00002062,-0.00008033,-0.00005599,0.0000
 5294,0.00017120,0.00012410,0.00003006,-0.00005459,-0.00007315,-0.00001
 384,-0.00001739,-0.00002233,0.00003877,-0.00005622,-0.00009654,-0.0008
 8424,0.00053913,0.00085789,-0.00416578,-0.00318681,-0.00122405,-0.0207
 5560,0.00506905,0.01653897,0.00022738,-0.05757474,-0.00819672,0.021383
 11,0.00456151,-0.01622782,-0.00023965,-0.00348090,-0.00435208,-0.00013
 584,-0.00144685,-0.00008180,-0.00003030,0.00000916,0.00001702,-0.00000
 866,0.00000835,0.00000611,0.00001742,-0.00001686,0.00001513,-0.0001881
 6,-0.00033909,0.00006130,0.00133179,0.00030212,0.00088750,0.00161982,0
 .05521034,0.00002666,0.00006119,-0.00002254,-0.00005588,-0.00010521,0.
 00001587,-0.00000966,0.00001539,0.00001519,0.00001528,0.00001908,0.000
 00407,0.00003259,0.00004057,-0.00005677,-0.00000518,-0.00009241,0.0000
 9872,0.00265883,-0.00123758,0.00533411,0.00159744,-0.00151483,0.001870
 48,0.14736635,-0.00803491,-0.15627051,0.01263560,0.00179509,-0.0054049
 7,0.00275044,-0.00463961,0.00328040,-0.00090888,-0.00008115,-0.0003517
 9,-0.00000317,-0.00000868,-0.00000101,0.00000231,-0.00000967,0.0000010
 3,0.00003162,0.00004755,0.00000498,-0.00004962,0.00006500,-0.00007455,
 -0.00205059,0.00143492,-0.00217193,-0.16209955,0.01086506,0.15666377,-
 0.00000860,-0.00002059,-0.00001392,0.00007262,0.00008648,0.00001424,-0
 .00000654,-0.00002322,-0.00002972,-0.00001460,-0.00001241,-0.00001743,
 -0.00002257,-0.00022152,-0.00012232,-0.00034075,0.00031987,-0.00041766
 ,-0.00055485,0.00082140,0.00015709,0.00310149,0.00068007,0.00349260,0.
 00765048,0.00695334,-0.00028580,-0.14570027,-0.13651391,0.02591572,-0.
 00884628,-0.02113478,0.00086212,-0.00066518,-0.00024638,0.00632942,-0.
 00000452,-0.00000337,0.00001068,-0.00000032,0.00000480,0.00000440,0.00
 002846,0.00009292,0.00002609,0.00001379,0.00005377,0.00001454,0.000212
 60,0.00039644,0.00001680,-0.00098036,0.00046217,-0.00215269,0.14748830
 ,-0.00004660,-0.00008830,0.00003286,0.00011855,0.00023163,0.00005267,0
 .00001743,-0.00001627,-0.00003777,-0.00002714,-0.00002191,-0.00001129,
 -0.00015271,-0.00008558,0.00002137,0.00015124,-0.00010371,0.00023195,0
 .00096565,0.00006984,-0.00033994,0.00089884,-0.00229602,-0.00470371,-0
 .01628266,-0.01530622,0.00475106,-0.13661605,-0.24649874,0.01868361,0.
 00225941,0.00447221,-0.00142242,-0.00051504,0.00236324,-0.00179443,0.0
 0000856,0.00000235,0.00001402,0.00000068,0.00001310,0.00000429,0.00001
 992,-0.00003602,-0.00001579,-0.00002359,-0.00003687,-0.00001905,-0.000
 77293,-0.00084643,0.00026071,0.00107382,0.00033236,0.00099447,0.148195
 25,0.25766882,-0.00000593,0.00000142,0.00001161,0.00005244,0.00000101,
 -0.00002786,-0.00001560,0.00000090,0.00000561,-0.00000446,0.00000060,-
 0.00000634,-0.00004324,-0.00006764,0.00002521,-0.00050200,0.00037041,-
 0.00059269,0.00028087,-0.00044427,-0.00116239,0.00378801,-0.00433557,0
 .00249318,-0.01007142,-0.01349844,0.00561210,0.02589609,0.01870596,-0.
 05058204,0.01059766,0.01673773,0.00237472,0.00608017,-0.00214200,0.002
 10301,0.00000560,-0.00000569,0.00000357,0.00000128,-0.00000150,0.00000
 182,0.00000080,0.00017394,0.00003295,-0.00011333,-0.00002530,0.0000588
 0,-0.00047876,-0.00067427,0.00016490,-0.00189051,0.00148384,-0.0019216
 4,-0.03173678,-0.01795082,0.04340983,-0.00003182,-0.00003153,-0.000009
 68,0.00007150,0.00009997,-0.00001475,-0.00000815,-0.00002823,-0.000025
 11,-0.00001316,-0.00001343,-0.00001751,-0.00010662,-0.00025506,-0.0000
 1342,0.00042222,-0.00044862,-0.00042271,0.00075967,-0.00459982,0.00323
 367,-0.00131935,-0.00049796,-0.00010836,-0.00121387,-0.00163322,0.0061
 2225,-0.00025435,0.02166080,0.01207782,-0.06629853,0.04876719,0.041698
 41,0.00807880,-0.01553412,-0.00981380,-0.00000332,-0.00000547,0.000009
 86,-0.00000230,0.00000301,0.00000189,-0.00007989,-0.00006848,0.0000858
 2,-0.00004324,0.00004240,-0.00002269,-0.00029971,0.00026328,-0.0005110
 7,-0.00016006,0.00107178,0.00063195,-0.00084358,0.00055363,-0.00238904
 ,0.06220295,-0.00008411,-0.00013526,0.00004312,0.00019277,0.00036376,-
 0.00002697,0.00000766,-0.00007438,-0.00006843,-0.00004509,-0.00004776,
 -0.00003713,-0.00037717,-0.00065500,-0.00018876,0.00076921,-0.00018400
 ,-0.00053099,-0.00485094,-0.00177450,-0.00007563,-0.00045347,0.0001386
 4,0.00085939,-0.00134904,0.00232572,-0.00111756,-0.00178243,0.00376485
 ,0.00138570,0.04875580,-0.25360234,-0.12640566,0.00795951,-0.01573607,
 -0.01391924,-0.00000667,0.00000216,0.00002362,-0.00000315,0.00001879,0
 .00000469,-0.00008414,-0.00016887,0.00000892,-0.00002034,0.00000174,-0
 .00003045,0.00025971,-0.00014771,0.00018822,-0.00014353,0.00005149,0.0
 0010529,0.00115433,0.00008676,0.00087643,-0.05060371,0.26545125,-0.000
 01702,-0.00000817,-0.00002397,0.00006564,0.00005239,0.00004614,-0.0000
 0279,0.00000063,-0.00001619,-0.00000753,-0.00000249,-0.00000473,0.0000
 5781,0.00008023,0.00004673,0.00000267,0.00011497,0.00020082,0.00320240
 ,-0.00044109,0.00477686,-0.00014338,0.00080784,-0.00069137,0.00627331,
 -0.00072862,0.00252737,0.00266781,-0.01674286,-0.00518377,0.04143699,-
 0.12639986,-0.12233261,-0.00021247,0.00401254,0.00527737,0.00000712,-0
 .00000528,0.00000433,0.00000113,0.00000216,0.00000266,-0.00003233,0.00
 000487,0.00001389,-0.00001514,0.00002068,-0.00000501,-0.00051905,0.000
 22511,-0.00060445,0.00011575,-0.00081738,-0.00038553,-0.00214237,0.001
 37561,-0.00203599,-0.04858109,0.13760452,0.12048905,0.00002788,0.00003
 965,0.00001444,0.00009156,0.00002091,-0.00009509,-0.00002574,-0.000037
 69,-0.00001445,-0.00000439,0.00000387,-0.00001616,0.00005598,-0.000539
 32,-0.00025974,-0.00091977,0.00032575,-0.00235650,-0.00259101,-0.00202
 229,0.00400210,0.00345533,0.00026976,0.00268202,0.00002292,-0.00010990
 ,-0.00087666,0.00175901,-0.00457064,0.00237509,-0.00932540,0.00283369,
 0.01115241,-0.22946089,0.00114797,0.14480104,-0.00001087,-0.00000415,0
 .00000365,-0.00000312,-0.00000291,0.00000334,0.00022000,0.00033717,0.0
 0011150,0.00034851,0.00040035,0.00003737,-0.00014942,-0.00017031,0.000
 20385,-0.00040945,0.00020743,-0.00041385,-0.00057933,0.00017373,0.0005
 4814,-0.00085718,0.00070481,-0.00215745,0.23835537,-0.00000605,0.00009
 633,0.00008967,-0.00011644,-0.00032667,-0.00018991,-0.00002152,0.00008
 491,0.00013066,0.00003998,0.00003454,0.00004758,-0.00010075,0.00065656
 ,0.00065789,0.00269668,0.00008702,-0.00018835,0.01997646,0.00364119,-0
 .01523613,-0.00030452,-0.00359398,-0.00414861,-0.00013012,-0.00129736,
 -0.00001641,-0.00408450,-0.00330729,-0.00130366,-0.02056492,0.00520459
 ,0.01642598,0.00096459,-0.05706847,-0.00874709,0.00003193,0.00000215,-
 0.00002671,0.00000595,-0.00001710,-0.00001190,-0.00020215,-0.00027241,
 -0.00007506,-0.00068374,-0.00050592,0.00003322,0.00108524,0.00012083,-
 0.00084059,0.00020880,-0.00000091,0.00028044,-0.00104463,0.00009578,0.
 00079326,0.00125756,0.00032074,0.00084420,0.00099213,0.05604547,-0.000
 03471,0.00002770,0.00006055,0.00005260,-0.00012456,-0.00022231,-0.0000
 5764,0.00000743,0.00006054,0.00000242,-0.00000031,-0.00000310,-0.00041
 126,-0.00034515,0.00005952,-0.00083466,0.00255665,-0.00237719,0.013352
 15,0.00095659,-0.00566022,0.00281037,-0.00445871,0.00299038,-0.0009101
 5,-0.00025752,-0.00045605,0.00246604,-0.00090433,0.00517823,0.00135988
 ,-0.00118983,0.00183966,0.14440288,-0.00923217,-0.15020722,0.00003334,
 -0.00001681,-0.00001262,0.00000119,-0.00001095,-0.00000435,-0.00009927
 ,0.00050292,0.00019784,-0.00080336,-0.00054771,0.00058047,0.00069441,0
 .00009078,-0.00033811,-0.00042168,0.00029095,-0.00062740,0.00007497,-0
 .00012741,0.00003167,-0.00193245,0.00130094,-0.00210160,-0.15974507,0.
 01148150,0.15101129\\-0.00000205,0.00000124,0.00000166,-0.00000018,0.0
 0000236,-0.00000343,0.00000716,0.00000398,0.00000335,-0.00000684,-0.00
 000383,-0.00000130,-0.00000050,-0.00000256,-0.00000183,-0.00000275,-0.
 00000261,0.00000528,-0.00000289,0.00000424,0.00000149,0.00000219,-0.00
 000039,0.00000067,0.00000040,-0.00000258,0.00000040,0.00000072,-0.0000
 0077,0.00000067,0.00000235,0.00000120,-0.00000077,0.00000101,-0.000001
 41,-0.00000228,-0.00000035,0.00000029,-0.00000030,-0.00000064,0.000000
 49,0.00000054,-0.00000045,0.00000085,-0.00000124,-0.00000031,0.0000022
 5,-0.00000230,0.,-0.00000148,0.00000093,0.00000142,-0.00000203,0.00000
 116,0.00000165,-0.00000115,-0.00000004,0.00000045,0.00000029,-0.000001
 45,-0.00000038,0.00000161,-0.00000119\\\@


 THOSE WHO ASPIRE NOT TO GUESS AND DIVINE,
 BUT TO DISCOVER AND KNOW, WHO PROPOSE NOT TO DEVISE 
 MIMIC AND FABULOUS WORLDS OF THEIR OWN, BUT TO 
 EXAMINE AND DISSECT THE NATURE OF THIS VERY WORLD 
 ITSELF, MUST GO TO THE FACTS THEMSELVES FOR EVERYTHING.

                               -- FRANCIS BACON, 1620
 Job cpu time:       0 days  1 hours  8 minutes 23.7 seconds.
 Elapsed time:       0 days  0 hours  2 minutes 54.0 seconds.
 File lengths (MBytes):  RWF=    214 Int=      0 D2E=      0 Chk=     10 Scr=      1
 Normal termination of Gaussian 16 at Sun Oct 13 19:54:11 2019.
real 874.74
user 20372.90
sys 83.30
Machine:
brown-a121
brown-a121
brown-a121
brown-a121
brown-a121
brown-a121
brown-a121
brown-a121
brown-a121
brown-a121
brown-a121
brown-a121
brown-a121
brown-a121
brown-a121
brown-a121
brown-a121
brown-a121
brown-a121
brown-a121
brown-a121
brown-a121
brown-a121
brown-a121
