 Entering Gaussian System, Link 0=/apps/cent7/gaussian/g16-A.03/g16-haswell/g16/g16
 Initial command:
 /apps/cent7/gaussian/g16-A.03/g16-haswell/g16/l1.exe "/scratch/brown/finej/gaussian/Gau-335367.inp" -scrdir="/scratch/brown/finej/gaussian/"
 Entering Link 1 = /apps/cent7/gaussian/g16-A.03/g16-haswell/g16/l1.exe PID=    335368.
  
 Copyright (c) 1988,1990,1992,1993,1995,1998,2003,2009,2016,
            Gaussian, Inc.  All Rights Reserved.
  
 This is part of the Gaussian(R) 16 program.  It is based on
 the Gaussian(R) 09 system (copyright 2009, Gaussian, Inc.),
 the Gaussian(R) 03 system (copyright 2003, Gaussian, Inc.),
 the Gaussian(R) 98 system (copyright 1998, Gaussian, Inc.),
 the Gaussian(R) 94 system (copyright 1995, Gaussian, Inc.),
 the Gaussian 92(TM) system (copyright 1992, Gaussian, Inc.),
 the Gaussian 90(TM) system (copyright 1990, Gaussian, Inc.),
 the Gaussian 88(TM) system (copyright 1988, Gaussian, Inc.),
 the Gaussian 86(TM) system (copyright 1986, Carnegie Mellon
 University), and the Gaussian 82(TM) system (copyright 1983,
 Carnegie Mellon University). Gaussian is a federally registered
 trademark of Gaussian, Inc.
  
 This software contains proprietary and confidential information,
 including trade secrets, belonging to Gaussian, Inc.
  
 This software is provided under written license and may be
 used, copied, transmitted, or stored only in accord with that
 written license.
  
 The following legend is applicable only to US Government
 contracts under FAR:
  
                    RESTRICTED RIGHTS LEGEND
  
 Use, reproduction and disclosure by the US Government is
 subject to restrictions as set forth in subparagraphs (a)
 and (c) of the Commercial Computer Software - Restricted
 Rights clause in FAR 52.227-19.
  
 Gaussian, Inc.
 340 Quinnipiac St., Bldg. 40, Wallingford CT 06492
  
  
 ---------------------------------------------------------------
 Warning -- This program may not be used in any manner that
 competes with the business of Gaussian, Inc. or will provide
 assistance to any competitor of Gaussian, Inc.  The licensee
 of this program is prohibited from giving any competitor of
 Gaussian, Inc. access to this program.  By using this program,
 the user acknowledges that Gaussian, Inc. is engaged in the
 business of creating and licensing software in the field of
 computational chemistry and represents and warrants to the
 licensee that it is not a competitor of Gaussian, Inc. and that
 it will not use this program in any manner prohibited above.
 ---------------------------------------------------------------
  

 Cite this work as:
 Gaussian 16, Revision A.03,
 M. J. Frisch, G. W. Trucks, H. B. Schlegel, G. E. Scuseria, 
 M. A. Robb, J. R. Cheeseman, G. Scalmani, V. Barone, 
 G. A. Petersson, H. Nakatsuji, X. Li, M. Caricato, A. V. Marenich, 
 J. Bloino, B. G. Janesko, R. Gomperts, B. Mennucci, H. P. Hratchian, 
 J. V. Ortiz, A. F. Izmaylov, J. L. Sonnenberg, D. Williams-Young, 
 F. Ding, F. Lipparini, F. Egidi, J. Goings, B. Peng, A. Petrone, 
 T. Henderson, D. Ranasinghe, V. G. Zakrzewski, J. Gao, N. Rega, 
 G. Zheng, W. Liang, M. Hada, M. Ehara, K. Toyota, R. Fukuda, 
 J. Hasegawa, M. Ishida, T. Nakajima, Y. Honda, O. Kitao, H. Nakai, 
 T. Vreven, K. Throssell, J. A. Montgomery, Jr., J. E. Peralta, 
 F. Ogliaro, M. J. Bearpark, J. J. Heyd, E. N. Brothers, K. N. Kudin, 
 V. N. Staroverov, T. A. Keith, R. Kobayashi, J. Normand, 
 K. Raghavachari, A. P. Rendell, J. C. Burant, S. S. Iyengar, 
 J. Tomasi, M. Cossi, J. M. Millam, M. Klene, C. Adamo, R. Cammi, 
 J. W. Ochterski, R. L. Martin, K. Morokuma, O. Farkas, 
 J. B. Foresman, and D. J. Fox, Gaussian, Inc., Wallingford CT, 2016.
 
 ******************************************
 Gaussian 16:  ES64L-G16RevA.03 25-Dec-2016
                13-Oct-2019 
 ******************************************
 %chk=12_p.chk
 %nprocshared=24
 Will use up to   24 processors via shared memory.
 %mem=80GB
 -------------------------------------------------------------------
 #P opt freq m062x/6-311++g(d,p) geom=connectivity temperature=0.001
 -------------------------------------------------------------------
 1/18=20,19=15,26=3,38=1,57=2,112=-1000/1,3;
 2/9=110,12=2,17=6,18=5,40=1/2;
 3/5=4,6=6,7=1111,11=2,25=1,30=1,71=1,74=-55/1,2,3;
 4//1;
 5/5=2,38=5/2;
 6/7=2,8=2,9=2,10=2,28=1/1;
 7//1,2,3,16;
 1/18=20,19=15,26=3/3(2);
 2/9=110/2;
 99//99;
 2/9=110/2;
 3/5=4,6=6,7=1111,11=2,25=1,30=1,71=1,74=-55/1,2,3;
 4/5=5,16=3,69=1/1;
 5/5=2,38=5/2;
 7//1,2,3,16;
 1/18=20,19=15,26=3/3(-5);
 2/9=110/2;
 6/7=2,8=2,9=2,10=2,19=2,28=1/1;
 99/9=1/99;
 Leave Link    1 at Sun Oct 13 19:50:43 2019, MaxMem= 10737418240 cpu:               0.8 elap:               0.0
 (Enter /apps/cent7/gaussian/g16-A.03/g16-haswell/g16/l101.exe)
 -------------------
 Title Card Required
 -------------------
 Symbolic Z-matrix:
 Charge =  1 Multiplicity = 1
 O                     1.2833    1.4484   -0.3003 
 C                     0.9265    0.7424    0.6722 
 N                     1.2481    1.0835    1.9357 
 O                     1.9756    2.1309    2.2092 
 O                     0.2047   -0.3985    0.4987 
 C                    -0.2583   -0.9398   -0.7436 
 C                    -1.0036   -2.1923   -0.4724 
 C                    -2.1655   -2.1635    0.3357 
 C                    -2.8856   -3.343     0.6005 
 C                    -2.4534   -4.5677    0.0619 
 C                    -1.2941   -4.6134   -0.732 
 C                    -0.5734   -3.4341   -0.9968 
 H                     0.38644   1.19564   2.43064 
 H                     2.0459    2.232     3.1613 
 H                    -0.9677   -0.2172   -1.147 
 H                     0.6324   -1.2053   -1.3129 
 H                    -2.5103   -1.2204    0.7596 
 H                    -3.7792   -3.308     1.2237 
 H                    -3.0161   -5.4801    0.2595 
 H                    -0.9537   -5.564    -1.1426 
 H                     0.3247   -3.4828   -1.6127 
 H                     1.71781   0.29596   2.33464 
 
 ITRead=  0  0  0  0  0  0  0  0  0  0  0  0  0  0  0  0  0  0  0  0
 ITRead=  0  0
 MicOpt= -1 -1 -1 -1 -1 -1 -1 -1 -1 -1 -1 -1 -1 -1 -1 -1 -1 -1 -1 -1
 MicOpt= -1 -1
 NAtoms=     22 NQM=       22 NQMF=       0 NMMI=      0 NMMIF=      0
                NMic=       0 NMicF=      0.
                    Isotopes and Nuclear Properties:
 (Nuclear quadrupole moments (NQMom) in fm**2, nuclear magnetic moments (NMagM)
  in nuclear magnetons)

  Atom         1           2           3           4           5           6           7           8           9          10
 IAtWgt=          16          12          14          16          16          12          12          12          12          12
 AtmWgt=  15.9949146  12.0000000  14.0030740  15.9949146  15.9949146  12.0000000  12.0000000  12.0000000  12.0000000  12.0000000
 NucSpn=           0           0           2           0           0           0           0           0           0           0
 AtZEff=  -0.0000000  -0.0000000  -0.0000000  -0.0000000  -0.0000000  -0.0000000  -0.0000000  -0.0000000  -0.0000000  -0.0000000
 NQMom=    0.0000000   0.0000000   2.0440000   0.0000000   0.0000000   0.0000000   0.0000000   0.0000000   0.0000000   0.0000000
 NMagM=    0.0000000   0.0000000   0.4037610   0.0000000   0.0000000   0.0000000   0.0000000   0.0000000   0.0000000   0.0000000
 AtZNuc=   8.0000000   6.0000000   7.0000000   8.0000000   8.0000000   6.0000000   6.0000000   6.0000000   6.0000000   6.0000000

  Atom        11          12          13          14          15          16          17          18          19          20
 IAtWgt=          12          12           1           1           1           1           1           1           1           1
 AtmWgt=  12.0000000  12.0000000   1.0078250   1.0078250   1.0078250   1.0078250   1.0078250   1.0078250   1.0078250   1.0078250
 NucSpn=           0           0           1           1           1           1           1           1           1           1
 AtZEff=  -0.0000000  -0.0000000  -0.0000000  -0.0000000  -0.0000000  -0.0000000  -0.0000000  -0.0000000  -0.0000000  -0.0000000
 NQMom=    0.0000000   0.0000000   0.0000000   0.0000000   0.0000000   0.0000000   0.0000000   0.0000000   0.0000000   0.0000000
 NMagM=    0.0000000   0.0000000   2.7928460   2.7928460   2.7928460   2.7928460   2.7928460   2.7928460   2.7928460   2.7928460
 AtZNuc=   6.0000000   6.0000000   1.0000000   1.0000000   1.0000000   1.0000000   1.0000000   1.0000000   1.0000000   1.0000000

  Atom        21          22
 IAtWgt=           1           1
 AtmWgt=   1.0078250   1.0078250
 NucSpn=           1           1
 AtZEff=  -0.0000000  -0.0000000
 NQMom=    0.0000000   0.0000000
 NMagM=    2.7928460   2.7928460
 AtZNuc=   1.0000000   1.0000000
 Leave Link  101 at Sun Oct 13 19:50:44 2019, MaxMem= 10737418240 cpu:              15.0 elap:               0.6
 (Enter /apps/cent7/gaussian/g16-A.03/g16-haswell/g16/l103.exe)

 GradGradGradGradGradGradGradGradGradGradGradGradGradGradGradGradGradGrad
 Berny optimization.
 Initialization pass.
                           ----------------------------
                           !    Initial Parameters    !
                           ! (Angstroms and Degrees)  !
 --------------------------                            --------------------------
 ! Name  Definition              Value          Derivative Info.                !
 --------------------------------------------------------------------------------
 ! R1    R(1,2)                  1.2536         estimate D2E/DX2                !
 ! R2    R(2,3)                  1.3477         estimate D2E/DX2                !
 ! R3    R(2,5)                  1.3612         estimate D2E/DX2                !
 ! R4    R(3,4)                  1.3043         estimate D2E/DX2                !
 ! R5    R(3,13)                 1.0            estimate D2E/DX2                !
 ! R6    R(3,22)                 1.0            estimate D2E/DX2                !
 ! R7    R(4,14)                 0.96           estimate D2E/DX2                !
 ! R8    R(5,6)                  1.432          estimate D2E/DX2                !
 ! R9    R(6,7)                  1.4825         estimate D2E/DX2                !
 ! R10   R(6,15)                 1.09           estimate D2E/DX2                !
 ! R11   R(6,16)                 1.0899         estimate D2E/DX2                !
 ! R12   R(7,8)                  1.4156         estimate D2E/DX2                !
 ! R13   R(7,12)                 1.415          estimate D2E/DX2                !
 ! R14   R(8,9)                  1.4071         estimate D2E/DX2                !
 ! R15   R(8,17)                 1.09           estimate D2E/DX2                !
 ! R16   R(9,10)                 1.406          estimate D2E/DX2                !
 ! R17   R(9,18)                 1.09           estimate D2E/DX2                !
 ! R18   R(10,11)                1.4058         estimate D2E/DX2                !
 ! R19   R(10,19)                1.09           estimate D2E/DX2                !
 ! R20   R(11,12)                1.4072         estimate D2E/DX2                !
 ! R21   R(11,20)                1.09           estimate D2E/DX2                !
 ! R22   R(12,21)                1.0901         estimate D2E/DX2                !
 ! A1    A(1,2,3)              121.1216         estimate D2E/DX2                !
 ! A2    A(1,2,5)              121.6074         estimate D2E/DX2                !
 ! A3    A(3,2,5)              117.2708         estimate D2E/DX2                !
 ! A4    A(2,3,4)              122.206          estimate D2E/DX2                !
 ! A5    A(2,3,13)             106.6656         estimate D2E/DX2                !
 ! A6    A(2,3,22)             106.6656         estimate D2E/DX2                !
 ! A7    A(4,3,13)             106.6656         estimate D2E/DX2                !
 ! A8    A(4,3,22)             106.6656         estimate D2E/DX2                !
 ! A9    A(13,3,22)            107.1931         estimate D2E/DX2                !
 ! A10   A(3,4,14)             109.474          estimate D2E/DX2                !
 ! A11   A(2,5,6)              126.7883         estimate D2E/DX2                !
 ! A12   A(5,6,7)              108.8566         estimate D2E/DX2                !
 ! A13   A(5,6,15)             106.3135         estimate D2E/DX2                !
 ! A14   A(5,6,16)             106.3191         estimate D2E/DX2                !
 ! A15   A(7,6,15)             107.4934         estimate D2E/DX2                !
 ! A16   A(7,6,16)             107.493          estimate D2E/DX2                !
 ! A17   A(15,6,16)            120.0022         estimate D2E/DX2                !
 ! A18   A(6,7,8)              119.9923         estimate D2E/DX2                !
 ! A19   A(6,7,12)             121.3872         estimate D2E/DX2                !
 ! A20   A(8,7,12)             118.6183         estimate D2E/DX2                !
 ! A21   A(7,8,9)              120.6926         estimate D2E/DX2                !
 ! A22   A(7,8,17)             119.9517         estimate D2E/DX2                !
 ! A23   A(9,8,17)             119.3556         estimate D2E/DX2                !
 ! A24   A(8,9,10)             120.0509         estimate D2E/DX2                !
 ! A25   A(8,9,18)             120.0153         estimate D2E/DX2                !
 ! A26   A(10,9,18)            119.9339         estimate D2E/DX2                !
 ! A27   A(9,10,11)            119.8773         estimate D2E/DX2                !
 ! A28   A(9,10,19)            120.0654         estimate D2E/DX2                !
 ! A29   A(11,10,19)           120.0572         estimate D2E/DX2                !
 ! A30   A(10,11,12)           120.0898         estimate D2E/DX2                !
 ! A31   A(10,11,20)           119.908          estimate D2E/DX2                !
 ! A32   A(12,11,20)           120.0022         estimate D2E/DX2                !
 ! A33   A(7,12,11)            120.6655         estimate D2E/DX2                !
 ! A34   A(7,12,21)            119.9399         estimate D2E/DX2                !
 ! A35   A(11,12,21)           119.3947         estimate D2E/DX2                !
 ! D1    D(1,2,3,4)             -2.2155         estimate D2E/DX2                !
 ! D2    D(1,2,3,13)           120.6287         estimate D2E/DX2                !
 ! D3    D(1,2,3,22)          -125.0596         estimate D2E/DX2                !
 ! D4    D(5,2,3,4)            177.5837         estimate D2E/DX2                !
 ! D5    D(5,2,3,13)           -59.5721         estimate D2E/DX2                !
 ! D6    D(5,2,3,22)            54.7395         estimate D2E/DX2                !
 ! D7    D(1,2,5,6)             -1.0173         estimate D2E/DX2                !
 ! D8    D(3,2,5,6)            179.1846         estimate D2E/DX2                !
 ! D9    D(2,3,4,14)           176.5074         estimate D2E/DX2                !
 ! D10   D(13,3,4,14)           53.6632         estimate D2E/DX2                !
 ! D11   D(22,3,4,14)          -60.6485         estimate D2E/DX2                !
 ! D12   D(2,5,6,7)           -179.9698         estimate D2E/DX2                !
 ! D13   D(2,5,6,15)           -64.4435         estimate D2E/DX2                !
 ! D14   D(2,5,6,16)            64.5013         estimate D2E/DX2                !
 ! D15   D(5,6,7,8)             60.86           estimate D2E/DX2                !
 ! D16   D(5,6,7,12)          -118.5923         estimate D2E/DX2                !
 ! D17   D(15,6,7,8)           -53.9025         estimate D2E/DX2                !
 ! D18   D(15,6,7,12)          126.6452         estimate D2E/DX2                !
 ! D19   D(16,6,7,8)           175.6287         estimate D2E/DX2                !
 ! D20   D(16,6,7,12)           -3.8235         estimate D2E/DX2                !
 ! D21   D(6,7,8,9)            179.8772         estimate D2E/DX2                !
 ! D22   D(6,7,8,17)            -0.1162         estimate D2E/DX2                !
 ! D23   D(12,7,8,9)            -0.6554         estimate D2E/DX2                !
 ! D24   D(12,7,8,17)          179.3511         estimate D2E/DX2                !
 ! D25   D(6,7,12,11)         -179.8679         estimate D2E/DX2                !
 ! D26   D(6,7,12,21)            0.1289         estimate D2E/DX2                !
 ! D27   D(8,7,12,11)            0.6725         estimate D2E/DX2                !
 ! D28   D(8,7,12,21)         -179.3307         estimate D2E/DX2                !
 ! D29   D(7,8,9,10)             0.0498         estimate D2E/DX2                !
 ! D30   D(7,8,9,18)          -179.959          estimate D2E/DX2                !
 ! D31   D(17,8,9,10)         -179.9567         estimate D2E/DX2                !
 ! D32   D(17,8,9,18)            0.0345         estimate D2E/DX2                !
 ! D33   D(8,9,10,11)            0.551          estimate D2E/DX2                !
 ! D34   D(8,9,10,19)         -179.4499         estimate D2E/DX2                !
 ! D35   D(18,9,10,11)        -179.4401         estimate D2E/DX2                !
 ! D36   D(18,9,10,19)           0.5589         estimate D2E/DX2                !
 ! D37   D(9,10,11,12)          -0.534          estimate D2E/DX2                !
 ! D38   D(9,10,11,20)         179.4653         estimate D2E/DX2                !
 ! D39   D(19,10,11,12)        179.4669         estimate D2E/DX2                !
 ! D40   D(19,10,11,20)         -0.5337         estimate D2E/DX2                !
 ! D41   D(10,11,12,7)          -0.0844         estimate D2E/DX2                !
 ! D42   D(10,11,12,21)        179.9188         estimate D2E/DX2                !
 ! D43   D(20,11,12,7)         179.9162         estimate D2E/DX2                !
 ! D44   D(20,11,12,21)         -0.0806         estimate D2E/DX2                !
 --------------------------------------------------------------------------------
 Trust Radius=3.00D-01 FncErr=1.00D-07 GrdErr=1.00D-06 EigMax=2.50D+02 EigMin=1.00D-04
 Number of steps in this run=    111 maximum allowed number of steps=    132.
 GradGradGradGradGradGradGradGradGradGradGradGradGradGradGradGradGradGrad

 Leave Link  103 at Sun Oct 13 19:50:44 2019, MaxMem= 10737418240 cpu:               0.2 elap:               0.0
 (Enter /apps/cent7/gaussian/g16-A.03/g16-haswell/g16/l202.exe)
                          Input orientation:                          
 ---------------------------------------------------------------------
 Center     Atomic      Atomic             Coordinates (Angstroms)
 Number     Number       Type             X           Y           Z
 ---------------------------------------------------------------------
      1          8           0        1.283300    1.448400   -0.300300
      2          6           0        0.926500    0.742400    0.672200
      3          7           0        1.248100    1.083500    1.935700
      4          8           0        1.975600    2.130900    2.209200
      5          8           0        0.204700   -0.398500    0.498700
      6          6           0       -0.258300   -0.939800   -0.743600
      7          6           0       -1.003600   -2.192300   -0.472400
      8          6           0       -2.165500   -2.163500    0.335700
      9          6           0       -2.885600   -3.343000    0.600500
     10          6           0       -2.453400   -4.567700    0.061900
     11          6           0       -1.294100   -4.613400   -0.732000
     12          6           0       -0.573400   -3.434100   -0.996800
     13          1           0        0.386437    1.195636    2.430637
     14          1           0        2.045900    2.232000    3.161300
     15          1           0       -0.967700   -0.217200   -1.147000
     16          1           0        0.632400   -1.205300   -1.312900
     17          1           0       -2.510300   -1.220400    0.759600
     18          1           0       -3.779200   -3.308000    1.223700
     19          1           0       -3.016100   -5.480100    0.259500
     20          1           0       -0.953700   -5.564000   -1.142600
     21          1           0        0.324700   -3.482800   -1.612700
     22          1           0        1.717811    0.295961    2.334641
 ---------------------------------------------------------------------
                    Distance matrix (angstroms):
                    1          2          3          4          5
     1  O    0.000000
     2  C    1.253594   0.000000
     3  N    2.265852   1.347668   0.000000
     4  O    2.691222   2.321834   1.304264   0.000000
     5  O    2.283160   1.361158   2.313002   3.529839   0.000000
     6  C    2.876898   2.497606   3.679896   4.810253   1.432021
     7  C    4.302816   3.694301   4.647576   5.895479   2.370811
     8  C    5.034336   4.256519   4.975507   6.253046   2.959669
     9  C    6.414724   5.588179   6.201946   7.495516   4.269707
    10  C    7.091373   6.324030   7.010584   8.312532   4.963720
    11  C    6.601119   5.965521   6.784841   8.051533   4.639656
    12  C    5.269844   4.741141   5.685607   6.909780   3.472294
    13  H    2.885527   1.894516   1.000000   1.857200   2.511310
    14  H    3.630188   3.109274   1.859471   0.960030   4.171209
    15  H    2.925427   2.796125   4.013057   5.043874   2.028724
    16  H    2.913958   2.796543   4.021330   5.033846   2.028731
    17  H    4.757865   3.958765   4.562536   5.784103   2.848651
    18  H    7.111598   6.233258   6.713119   7.979384   4.986208
    19  H    8.173269   7.377935   8.004617   9.308368   6.021082
    20  H    7.408603   6.826370   7.649386   8.889705   5.542395
    21  H    5.192113   4.840996   5.856185   6.988993   3.739695
    22  H    2.908579   1.894516   1.000000   1.857200   2.478398
                    6          7          8          9         10
     6  C    0.000000
     7  C    1.482490   0.000000
     8  C    2.509929   1.415580   0.000000
     9  C    3.805874   2.452988   1.407083   0.000000
    10  C    4.316127   2.833712   2.436807   1.405979   0.000000
    11  C    3.816851   2.452245   2.810931   2.433587   1.405824
    12  C    2.526842   1.414968   2.434084   2.811750   2.437272
    13  H    3.879633   4.673107   4.710089   5.886836   6.847746
    14  H    5.533344   6.486729   6.711209   7.871341   8.722723
    15  H    1.090014   2.087437   2.724189   4.062354   4.753482
    16  H    1.089926   2.087368   3.385893   4.539514   4.766337
    17  H    2.722104   2.175444   1.089961   2.161387   3.419713
    18  H    4.677112   3.438822   2.168514   1.090011   2.166649
    19  H    5.406107   3.923705   3.424786   2.168065   1.090023
    20  H    4.693187   3.438025   3.900927   3.421034   2.166226
    21  H    2.749922   2.174869   3.426063   3.901772   3.420400
    22  H    3.861047   4.634328   5.012466   6.118878   6.798496
                   11         12         13         14         15
    11  C    0.000000
    12  C    1.407223   0.000000
    13  H    6.824322   5.839783   0.000000
    14  H    8.554115   7.500348   2.088477   0.000000
    15  H    4.427791   3.244453   4.077901   5.800156   0.000000
    16  H    3.957776   2.553708   4.454106   5.816483   1.887905
    17  H    3.900828   3.425929   4.125612   6.200499   2.649745
    18  H    3.421192   3.901753   6.252356   8.269080   4.803935
    19  H    2.167839   3.425082   7.801060   9.670614   5.819992
    20  H    1.090002   2.168493   7.762516   9.396743   5.346820
    21  H    2.162037   1.090086   6.183862   7.642810   3.542784
    22  H    6.525160   5.501045   1.609716   2.130553   4.426864
                   16         17         18         19         20
    16  H    0.000000
    17  H    3.764578   0.000000
    18  H    5.506169   2.486678   0.000000
    19  H    5.835915   4.318678   2.496001   0.000000
    20  H    4.641442   4.990814   4.321153   2.495279   0.000000
    21  H    2.317664   4.333992   4.991765   4.319176   2.487307
    22  H    4.091021   4.759939   6.666322   7.751064   7.318969
                   21         22
    21  H    0.000000
    22  H    5.639263   0.000000
 Stoichiometry    C8H10NO3(1+)
 Framework group  C1[X(C8H10NO3)]
 Deg. of freedom    60
 Full point group                 C1      NOp   1
 Largest Abelian subgroup         C1      NOp   1
 Largest concise Abelian subgroup C1      NOp   1
                         Standard orientation:                         
 ---------------------------------------------------------------------
 Center     Atomic      Atomic             Coordinates (Angstroms)
 Number     Number       Type             X           Y           Z
 ---------------------------------------------------------------------
      1          8           0       -2.841058   -1.201481    0.675789
      2          6           0       -2.315986   -0.220263    0.098719
      3          7           0       -3.071763    0.733567   -0.480263
      4          8           0       -4.374002    0.666667   -0.508602
      5          8           0       -0.964582   -0.074640    0.026260
      6          6           0        0.023313   -0.950852    0.580338
      7          6           0        1.369365   -0.414324    0.267195
      8          6           0        1.749583    0.863999    0.741737
      9          6           0        3.024325    1.386457    0.455462
     10          6           0        3.936111    0.638533   -0.310067
     11          6           0        3.567609   -0.627117   -0.798614
     12          6           0        2.292720   -1.149883   -0.512871
     13          1           0       -2.838615    1.596101   -0.031178
     14          1           0       -4.726605    1.462283   -0.913973
     15          1           0       -0.102543   -0.908990    1.662252
     16          1           0       -0.080966   -1.900591    0.055876
     17          1           0        1.051412    1.453815    1.335615
     18          1           0        3.305797    2.371772    0.827016
     19          1           0        4.926894    1.039222   -0.524419
     20          1           0        4.270947   -1.203634   -1.399488
     21          1           0        2.018356   -2.131853   -0.898550
     22          1           0       -2.767437    0.803235   -1.430279
 ---------------------------------------------------------------------
 Rotational constants (GHZ):           2.7246940           0.3698399           0.3489760
 Leave Link  202 at Sun Oct 13 19:50:44 2019, MaxMem= 10737418240 cpu:               0.3 elap:               0.0
 (Enter /apps/cent7/gaussian/g16-A.03/g16-haswell/g16/l301.exe)
 Standard basis: 6-311++G(d,p) (5D, 7F)
 Ernie: Thresh=  0.10000D-02 Tol=  0.10000D-05 Strict=F.
 There are   346 symmetry adapted cartesian basis functions of A   symmetry.
 There are   334 symmetry adapted basis functions of A   symmetry.
   334 basis functions,   522 primitive gaussians,   346 cartesian basis functions
    44 alpha electrons       44 beta electrons
       nuclear repulsion energy       669.1814964869 Hartrees.
 IExCor= 4336 DFT=T Ex+Corr=M062X ExCW=0 ScaHFX=  0.540000
 ScaDFX=  1.000000  1.000000  1.000000  1.000000 ScalE2=  1.000000  1.000000
 IRadAn=      5 IRanWt=     -1 IRanGd=            0 ICorTp=0 IEmpDi=  4
 NAtoms=   22 NActive=   22 NUniq=   22 SFac= 1.00D+00 NAtFMM=   60 NAOKFM=F Big=F
 Integral buffers will be    131072 words long.
 Raffenetti 2 integral format.
 Two-electron integral symmetry is turned on.
 Leave Link  301 at Sun Oct 13 19:50:44 2019, MaxMem= 10737418240 cpu:               1.3 elap:               0.1
 (Enter /apps/cent7/gaussian/g16-A.03/g16-haswell/g16/l302.exe)
 NPDir=0 NMtPBC=     1 NCelOv=     1 NCel=       1 NClECP=     1 NCelD=      1
         NCelK=      1 NCelE2=     1 NClLst=     1 CellRange=     0.0.
 One-electron integrals computed using PRISM.
 One-electron integral symmetry used in STVInt
 NBasis=   334 RedAO= T EigKep=  3.19D-06  NBF=   334
 NBsUse=   333 1.00D-06 EigRej=  9.77D-07 NBFU=   333
 Precomputing XC quadrature grid using
 IXCGrd= 4 IRadAn=           5 IRanWt=          -1 IRanGd=           0 AccXCQ= 0.00D+00.
 Generated NRdTot=       0 NPtTot=           0 NUsed=           0 NTot=          32
 NSgBfM=   345   345   345   345   345 MxSgAt=    22 MxSgA2=    22.
 Leave Link  302 at Sun Oct 13 19:50:45 2019, MaxMem= 10737418240 cpu:               5.4 elap:               0.2
 (Enter /apps/cent7/gaussian/g16-A.03/g16-haswell/g16/l303.exe)
 DipDrv:  MaxL=1.
 Leave Link  303 at Sun Oct 13 19:50:45 2019, MaxMem= 10737418240 cpu:               0.9 elap:               0.1
 (Enter /apps/cent7/gaussian/g16-A.03/g16-haswell/g16/l401.exe)
 ExpMin= 3.60D-02 ExpMax= 8.59D+03 ExpMxC= 1.30D+03 IAcc=3 IRadAn=         5 AccDes= 0.00D+00
 Harris functional with IExCor= 1009 and IRadAn=       5 diagonalized for initial guess.
 HarFok:  IExCor= 1009 AccDes= 0.00D+00 IRadAn=         5 IDoV= 1 UseB2=F ITyADJ=14
 ICtDFT=  3500011 ScaDFX=  1.000000  1.000000  1.000000  1.000000
 FoFCou: FMM=F IPFlag=           0 FMFlag=      100000 FMFlg1=           0
         NFxFlg=           0 DoJE=T BraDBF=F KetDBF=T FulRan=T
         wScrn=  0.000000 ICntrl=       500 IOpCl=  0 I1Cent=   200000004 NGrid=           0
         NMat0=    1 NMatS0=      1 NMatT0=    0 NMatD0=    1 NMtDS0=    0 NMtDT0=    0
 Petite list used in FoFCou.
 Harris En= -590.621789415831    
 JPrj=0 DoOrth=F DoCkMO=F.
 Leave Link  401 at Sun Oct 13 19:50:45 2019, MaxMem= 10737418240 cpu:              12.7 elap:               0.6
 (Enter /apps/cent7/gaussian/g16-A.03/g16-haswell/g16/l502.exe)
 Integral symmetry usage will be decided dynamically.
 Closed shell SCF:
 Using DIIS extrapolation, IDIIS=  1040.
 NGot= 10737418240 LenX= 10737167118 LenY= 10737046961
 Requested convergence on RMS density matrix=1.00D-08 within 128 cycles.
 Requested convergence on MAX density matrix=1.00D-06.
 Requested convergence on             energy=1.00D-06.
 No special actions if energy rises.
 Fock matrices will be formed incrementally for  20 cycles.

 Cycle   1  Pass 1  IDiag  1:
 FoFJK:  IHMeth= 1 ICntrl=       0 DoSepK=F KAlg= 0 I1Cent=           0 FoldK=F
 IRaf= 880000000 NMat=       1 IRICut=       1 DoRegI=T DoRafI=F ISym2E= 0 IDoP0=0 IntGTp=1.
 FoFCou: FMM=F IPFlag=           0 FMFlag=      100000 FMFlg1=           0
         NFxFlg=           0 DoJE=F BraDBF=F KetDBF=F FulRan=T
         wScrn=  0.000000 ICntrl=         0 IOpCl=  0 I1Cent=           0 NGrid=           0
         NMat0=    1 NMatS0=      1 NMatT0=    0 NMatD0=    1 NMtDS0=    0 NMtDT0=    0
 Symmetry not used in FoFCou.
 E= -590.494198830935    
 DIIS: error= 2.50D-02 at cycle   1 NSaved=   1.
 NSaved= 1 IEnMin= 1 EnMin= -590.494198830935     IErMin= 1 ErrMin= 2.50D-02
 ErrMax= 2.50D-02  0.00D+00 EMaxC= 1.00D-01 BMatC= 4.42D-01 BMatP= 4.42D-01
 IDIUse=3 WtCom= 7.50D-01 WtEn= 2.50D-01
 Coeff-Com:  0.100D+01
 Coeff-En:   0.100D+01
 Coeff:      0.100D+01
 Gap=     0.343 Goal=   None    Shift=    0.000
 GapD=    0.343 DampG=1.000 DampE=0.500 DampFc=0.5000 IDamp=-1.
 Damping current iteration by 5.00D-01
 RMSDP=2.28D-02 MaxDP=2.85D+00              OVMax= 2.78D-01

 Cycle   2  Pass 1  IDiag  1:
 RMSU=  1.04D-02    CP:  8.83D-01
 E= -590.610346266798     Delta-E=       -0.116147435863 Rises=F Damp=T
 DIIS: error= 9.90D-03 at cycle   2 NSaved=   2.
 NSaved= 2 IEnMin= 2 EnMin= -590.610346266798     IErMin= 2 ErrMin= 9.90D-03
 ErrMax= 9.90D-03  0.00D+00 EMaxC= 1.00D-01 BMatC= 6.47D-02 BMatP= 4.42D-01
 IDIUse=3 WtCom= 9.01D-01 WtEn= 9.90D-02
 Coeff-Com:  0.104D+00 0.896D+00
 Coeff-En:   0.225D+00 0.775D+00
 Coeff:      0.116D+00 0.884D+00
 Gap=     0.194 Goal=   None    Shift=    0.000
 RMSDP=4.18D-03 MaxDP=3.86D-01 DE=-1.16D-01 OVMax= 1.92D-01

 Cycle   3  Pass 1  IDiag  1:
 RMSU=  3.49D-03    CP:  8.29D-01  1.07D+00
 E= -590.785161493674     Delta-E=       -0.174815226876 Rises=F Damp=F
 DIIS: error= 1.05D-02 at cycle   3 NSaved=   3.
 NSaved= 3 IEnMin= 3 EnMin= -590.785161493674     IErMin= 2 ErrMin= 9.90D-03
 ErrMax= 1.05D-02  0.00D+00 EMaxC= 1.00D-01 BMatC= 4.66D-02 BMatP= 6.47D-02
 IDIUse=3 WtCom= 8.95D-01 WtEn= 1.05D-01
 Coeff-Com: -0.668D-01 0.470D+00 0.597D+00
 Coeff-En:   0.000D+00 0.000D+00 0.100D+01
 Coeff:     -0.598D-01 0.421D+00 0.639D+00
 Gap=     0.227 Goal=   None    Shift=    0.000
 RMSDP=2.51D-03 MaxDP=2.69D-01 DE=-1.75D-01 OVMax= 7.20D-02

 Cycle   4  Pass 1  IDiag  1:
 RMSU=  1.68D-03    CP:  7.99D-01  9.65D-01  7.50D-01
 E= -590.813842958786     Delta-E=       -0.028681465113 Rises=F Damp=F
 DIIS: error= 4.15D-03 at cycle   4 NSaved=   4.
 NSaved= 4 IEnMin= 4 EnMin= -590.813842958786     IErMin= 4 ErrMin= 4.15D-03
 ErrMax= 4.15D-03  0.00D+00 EMaxC= 1.00D-01 BMatC= 8.13D-03 BMatP= 4.66D-02
 IDIUse=3 WtCom= 9.59D-01 WtEn= 4.15D-02
 Coeff-Com: -0.392D-01 0.122D+00 0.348D+00 0.570D+00
 Coeff-En:   0.000D+00 0.000D+00 0.138D+00 0.862D+00
 Coeff:     -0.376D-01 0.117D+00 0.339D+00 0.582D+00
 Gap=     0.216 Goal=   None    Shift=    0.000
 RMSDP=1.44D-03 MaxDP=2.11D-01 DE=-2.87D-02 OVMax= 2.38D-02

 Cycle   5  Pass 1  IDiag  1:
 RMSU=  4.97D-04    CP:  7.80D-01  1.05D+00  8.58D-01  6.54D-01
 E= -590.819633688513     Delta-E=       -0.005790729726 Rises=F Damp=F
 DIIS: error= 1.12D-03 at cycle   5 NSaved=   5.
 NSaved= 5 IEnMin= 5 EnMin= -590.819633688513     IErMin= 5 ErrMin= 1.12D-03
 ErrMax= 1.12D-03  0.00D+00 EMaxC= 1.00D-01 BMatC= 3.37D-04 BMatP= 8.13D-03
 IDIUse=3 WtCom= 9.89D-01 WtEn= 1.12D-02
 Coeff-Com: -0.134D-01 0.252D-01 0.112D+00 0.268D+00 0.608D+00
 Coeff-En:   0.000D+00 0.000D+00 0.000D+00 0.000D+00 0.100D+01
 Coeff:     -0.132D-01 0.250D-01 0.111D+00 0.265D+00 0.612D+00
 Gap=     0.215 Goal=   None    Shift=    0.000
 RMSDP=1.95D-04 MaxDP=1.83D-02 DE=-5.79D-03 OVMax= 4.89D-03

 Cycle   6  Pass 1  IDiag  1:
 RMSU=  1.34D-04    CP:  7.81D-01  1.06D+00  8.47D-01  6.27D-01  9.84D-01
 E= -590.819869854925     Delta-E=       -0.000236166413 Rises=F Damp=F
 DIIS: error= 2.45D-04 at cycle   6 NSaved=   6.
 NSaved= 6 IEnMin= 6 EnMin= -590.819869854925     IErMin= 6 ErrMin= 2.45D-04
 ErrMax= 2.45D-04  0.00D+00 EMaxC= 1.00D-01 BMatC= 2.58D-05 BMatP= 3.37D-04
 IDIUse=3 WtCom= 9.98D-01 WtEn= 2.45D-03
 Coeff-Com: -0.183D-02-0.883D-03 0.133D-01 0.520D-01 0.262D+00 0.676D+00
 Coeff-En:   0.000D+00 0.000D+00 0.000D+00 0.000D+00 0.000D+00 0.100D+01
 Coeff:     -0.183D-02-0.881D-03 0.133D-01 0.519D-01 0.261D+00 0.676D+00
 Gap=     0.216 Goal=   None    Shift=    0.000
 RMSDP=1.77D-04 MaxDP=2.53D-02 DE=-2.36D-04 OVMax= 9.77D-04

 Cycle   7  Pass 1  IDiag  1:
 RMSU=  4.79D-05    CP:  7.83D-01  1.05D+00  8.46D-01  6.54D-01  9.13D-01
                    CP:  7.40D-01
 E= -590.819891370271     Delta-E=       -0.000021515346 Rises=F Damp=F
 DIIS: error= 5.86D-05 at cycle   7 NSaved=   7.
 NSaved= 7 IEnMin= 7 EnMin= -590.819891370271     IErMin= 7 ErrMin= 5.86D-05
 ErrMax= 5.86D-05  0.00D+00 EMaxC= 1.00D-01 BMatC= 1.73D-06 BMatP= 2.58D-05
 IDIUse=1 WtCom= 1.00D+00 WtEn= 0.00D+00
 Coeff-Com:  0.122D-02-0.333D-02-0.719D-02-0.156D-01 0.106D-01 0.174D+00
 Coeff-Com:  0.840D+00
 Coeff:      0.122D-02-0.333D-02-0.719D-02-0.156D-01 0.106D-01 0.174D+00
 Coeff:      0.840D+00
 Gap=     0.216 Goal=   None    Shift=    0.000
 RMSDP=2.26D-05 MaxDP=1.42D-03 DE=-2.15D-05 OVMax= 6.17D-04

 Cycle   8  Pass 1  IDiag  1:
 RMSU=  1.35D-05    CP:  7.83D-01  1.05D+00  8.47D-01  6.49D-01  9.33D-01
                    CP:  8.10D-01  1.01D+00
 E= -590.819893076416     Delta-E=       -0.000001706145 Rises=F Damp=F
 DIIS: error= 4.08D-05 at cycle   8 NSaved=   8.
 NSaved= 8 IEnMin= 8 EnMin= -590.819893076416     IErMin= 8 ErrMin= 4.08D-05
 ErrMax= 4.08D-05  0.00D+00 EMaxC= 1.00D-01 BMatC= 4.81D-07 BMatP= 1.73D-06
 IDIUse=1 WtCom= 1.00D+00 WtEn= 0.00D+00
 Coeff-Com:  0.906D-03-0.180D-02-0.460D-02-0.138D-01-0.232D-01 0.286D-02
 Coeff-Com:  0.389D+00 0.651D+00
 Coeff:      0.906D-03-0.180D-02-0.460D-02-0.138D-01-0.232D-01 0.286D-02
 Coeff:      0.389D+00 0.651D+00
 Gap=     0.216 Goal=   None    Shift=    0.000
 RMSDP=1.07D-05 MaxDP=1.02D-03 DE=-1.71D-06 OVMax= 2.49D-04

 Cycle   9  Pass 1  IDiag  1:
 RMSU=  5.45D-06    CP:  7.83D-01  1.05D+00  8.48D-01  6.47D-01  9.40D-01
                    CP:  7.98D-01  1.05D+00  8.17D-01
 E= -590.819893552925     Delta-E=       -0.000000476509 Rises=F Damp=F
 DIIS: error= 1.11D-05 at cycle   9 NSaved=   9.
 NSaved= 9 IEnMin= 9 EnMin= -590.819893552925     IErMin= 9 ErrMin= 1.11D-05
 ErrMax= 1.11D-05  0.00D+00 EMaxC= 1.00D-01 BMatC= 5.36D-08 BMatP= 4.81D-07
 IDIUse=1 WtCom= 1.00D+00 WtEn= 0.00D+00
 Coeff-Com:  0.265D-03-0.436D-03-0.710D-03-0.360D-02-0.915D-02-0.160D-01
 Coeff-Com:  0.615D-01 0.257D+00 0.711D+00
 Coeff:      0.265D-03-0.436D-03-0.710D-03-0.360D-02-0.915D-02-0.160D-01
 Coeff:      0.615D-01 0.257D+00 0.711D+00
 Gap=     0.216 Goal=   None    Shift=    0.000
 RMSDP=4.08D-06 MaxDP=4.77D-04 DE=-4.77D-07 OVMax= 9.99D-05

 Cycle  10  Pass 1  IDiag  1:
 RMSU=  1.75D-06    CP:  7.83D-01  1.05D+00  8.48D-01  6.48D-01  9.39D-01
                    CP:  8.00D-01  1.07D+00  9.48D-01  8.99D-01
 E= -590.819893606412     Delta-E=       -0.000000053486 Rises=F Damp=F
 DIIS: error= 6.03D-06 at cycle  10 NSaved=  10.
 NSaved=10 IEnMin=10 EnMin= -590.819893606412     IErMin=10 ErrMin= 6.03D-06
 ErrMax= 6.03D-06  0.00D+00 EMaxC= 1.00D-01 BMatC= 7.84D-09 BMatP= 5.36D-08
 IDIUse=1 WtCom= 1.00D+00 WtEn= 0.00D+00
 Coeff-Com: -0.388D-04 0.103D-03 0.615D-03 0.107D-02 0.740D-03-0.724D-02
 Coeff-Com: -0.504D-01-0.248D-01 0.271D+00 0.809D+00
 Coeff:     -0.388D-04 0.103D-03 0.615D-03 0.107D-02 0.740D-03-0.724D-02
 Coeff:     -0.504D-01-0.248D-01 0.271D+00 0.809D+00
 Gap=     0.216 Goal=   None    Shift=    0.000
 RMSDP=1.60D-06 MaxDP=1.46D-04 DE=-5.35D-08 OVMax= 3.80D-05

 Cycle  11  Pass 1  IDiag  1:
 RMSU=  6.10D-07    CP:  7.83D-01  1.05D+00  8.49D-01  6.47D-01  9.39D-01
                    CP:  7.99D-01  1.07D+00  9.68D-01  1.01D+00  1.07D+00
 E= -590.819893615786     Delta-E=       -0.000000009375 Rises=F Damp=F
 DIIS: error= 1.66D-06 at cycle  11 NSaved=  11.
 NSaved=11 IEnMin=11 EnMin= -590.819893615786     IErMin=11 ErrMin= 1.66D-06
 ErrMax= 1.66D-06  0.00D+00 EMaxC= 1.00D-01 BMatC= 7.19D-10 BMatP= 7.84D-09
 IDIUse=1 WtCom= 1.00D+00 WtEn= 0.00D+00
 Coeff-Com: -0.269D-04 0.573D-04 0.270D-03 0.604D-03 0.969D-03-0.156D-02
 Coeff-Com: -0.222D-01-0.286D-01 0.366D-01 0.313D+00 0.701D+00
 Coeff:     -0.269D-04 0.573D-04 0.270D-03 0.604D-03 0.969D-03-0.156D-02
 Coeff:     -0.222D-01-0.286D-01 0.366D-01 0.313D+00 0.701D+00
 Gap=     0.216 Goal=   None    Shift=    0.000
 RMSDP=3.52D-07 MaxDP=1.75D-05 DE=-9.37D-09 OVMax= 8.67D-06

 Cycle  12  Pass 1  IDiag  1:
 RMSU=  1.72D-07    CP:  7.83D-01  1.05D+00  8.49D-01  6.47D-01  9.39D-01
                    CP:  7.98D-01  1.07D+00  9.82D-01  1.03D+00  1.12D+00
                    CP:  9.14D-01
 E= -590.819893616515     Delta-E=       -0.000000000729 Rises=F Damp=F
 DIIS: error= 4.72D-07 at cycle  12 NSaved=  12.
 NSaved=12 IEnMin=12 EnMin= -590.819893616515     IErMin=12 ErrMin= 4.72D-07
 ErrMax= 4.72D-07  0.00D+00 EMaxC= 1.00D-01 BMatC= 8.14D-11 BMatP= 7.19D-10
 IDIUse=1 WtCom= 1.00D+00 WtEn= 0.00D+00
 Coeff-Com: -0.217D-05 0.193D-05 0.589D-05 0.350D-04 0.256D-03 0.451D-03
 Coeff-Com:  0.254D-03-0.593D-02-0.315D-01-0.188D-01 0.218D+00 0.837D+00
 Coeff:     -0.217D-05 0.193D-05 0.589D-05 0.350D-04 0.256D-03 0.451D-03
 Coeff:      0.254D-03-0.593D-02-0.315D-01-0.188D-01 0.218D+00 0.837D+00
 Gap=     0.216 Goal=   None    Shift=    0.000
 RMSDP=1.39D-07 MaxDP=7.99D-06 DE=-7.29D-10 OVMax= 3.84D-06

 Cycle  13  Pass 1  IDiag  1:
 RMSU=  6.89D-08    CP:  7.83D-01  1.05D+00  8.49D-01  6.47D-01  9.39D-01
                    CP:  7.98D-01  1.07D+00  9.83D-01  1.03D+00  1.15D+00
                    CP:  9.78D-01  9.79D-01
 E= -590.819893616615     Delta-E=       -0.000000000100 Rises=F Damp=F
 DIIS: error= 1.28D-07 at cycle  13 NSaved=  13.
 NSaved=13 IEnMin=13 EnMin= -590.819893616615     IErMin=13 ErrMin= 1.28D-07
 ErrMax= 1.28D-07  0.00D+00 EMaxC= 1.00D-01 BMatC= 6.16D-12 BMatP= 8.14D-11
 IDIUse=1 WtCom= 1.00D+00 WtEn= 0.00D+00
 Coeff-Com:  0.111D-05-0.335D-05-0.140D-04-0.317D-04 0.282D-04 0.221D-03
 Coeff-Com:  0.148D-02 0.416D-03-0.113D-01-0.282D-01 0.823D-03 0.233D+00
 Coeff-Com:  0.804D+00
 Coeff:      0.111D-05-0.335D-05-0.140D-04-0.317D-04 0.282D-04 0.221D-03
 Coeff:      0.148D-02 0.416D-03-0.113D-01-0.282D-01 0.823D-03 0.233D+00
 Coeff:      0.804D+00
 Gap=     0.216 Goal=   None    Shift=    0.000
 RMSDP=4.63D-08 MaxDP=3.54D-06 DE=-1.00D-10 OVMax= 1.09D-06

 Cycle  14  Pass 1  IDiag  1:
 RMSU=  2.12D-08    CP:  7.83D-01  1.05D+00  8.49D-01  6.47D-01  9.39D-01
                    CP:  7.98D-01  1.07D+00  9.83D-01  1.03D+00  1.15D+00
                    CP:  9.86D-01  1.07D+00  1.04D+00
 E= -590.819893616618     Delta-E=       -0.000000000003 Rises=F Damp=F
 DIIS: error= 8.62D-08 at cycle  14 NSaved=  14.
 NSaved=14 IEnMin=14 EnMin= -590.819893616618     IErMin=14 ErrMin= 8.62D-08
 ErrMax= 8.62D-08  0.00D+00 EMaxC= 1.00D-01 BMatC= 1.09D-12 BMatP= 6.16D-12
 IDIUse=1 WtCom= 1.00D+00 WtEn= 0.00D+00
 Coeff-Com:  0.704D-06-0.148D-05-0.644D-05-0.191D-04-0.178D-04 0.245D-04
 Coeff-Com:  0.582D-03 0.103D-02-0.572D-03-0.964D-02-0.304D-01-0.605D-02
 Coeff-Com:  0.352D+00 0.693D+00
 Coeff:      0.704D-06-0.148D-05-0.644D-05-0.191D-04-0.178D-04 0.245D-04
 Coeff:      0.582D-03 0.103D-02-0.572D-03-0.964D-02-0.304D-01-0.605D-02
 Coeff:      0.352D+00 0.693D+00
 Gap=     0.216 Goal=   None    Shift=    0.000
 RMSDP=1.96D-08 MaxDP=1.72D-06 DE=-2.73D-12 OVMax= 6.19D-07

 Cycle  15  Pass 1  IDiag  1:
 RMSU=  1.01D-08    CP:  7.83D-01  1.05D+00  8.49D-01  6.47D-01  9.39D-01
                    CP:  7.98D-01  1.07D+00  9.83D-01  1.03D+00  1.15D+00
                    CP:  9.88D-01  1.08D+00  1.09D+00  9.43D-01
 E= -590.819893616621     Delta-E=       -0.000000000003 Rises=F Damp=F
 DIIS: error= 2.46D-08 at cycle  15 NSaved=  15.
 NSaved=15 IEnMin=15 EnMin= -590.819893616621     IErMin=15 ErrMin= 2.46D-08
 ErrMax= 2.46D-08  0.00D+00 EMaxC= 1.00D-01 BMatC= 1.24D-13 BMatP= 1.09D-12
 IDIUse=1 WtCom= 1.00D+00 WtEn= 0.00D+00
 Coeff-Com:  0.139D-06-0.194D-06-0.132D-05-0.481D-05-0.100D-04-0.143D-04
 Coeff-Com:  0.946D-04 0.410D-03 0.107D-02-0.856D-03-0.133D-01-0.278D-01
 Coeff-Com:  0.588D-01 0.291D+00 0.691D+00
 Coeff:      0.139D-06-0.194D-06-0.132D-05-0.481D-05-0.100D-04-0.143D-04
 Coeff:      0.946D-04 0.410D-03 0.107D-02-0.856D-03-0.133D-01-0.278D-01
 Coeff:      0.588D-01 0.291D+00 0.691D+00
 Gap=     0.216 Goal=   None    Shift=    0.000
 RMSDP=4.84D-09 MaxDP=3.09D-07 DE=-3.18D-12 OVMax= 2.17D-07

 SCF Done:  E(RM062X) =  -590.819893617     A.U. after   15 cycles
            NFock= 15  Conv=0.48D-08     -V/T= 2.0035
 KE= 5.887685930197D+02 PE=-2.704568527997D+03 EE= 8.557985448734D+02
 Leave Link  502 at Sun Oct 13 19:51:08 2019, MaxMem= 10737418240 cpu:             533.6 elap:              22.4
 (Enter /apps/cent7/gaussian/g16-A.03/g16-haswell/g16/l601.exe)
 Copying SCF densities to generalized density rwf, IOpCl= 0 IROHF=0.

 **********************************************************************

            Population analysis using the SCF density.

 **********************************************************************

 Orbital symmetries:
       Occupied  (A) (A) (A) (A) (A) (A) (A) (A) (A) (A) (A) (A)
                 (A) (A) (A) (A) (A) (A) (A) (A) (A) (A) (A) (A)
                 (A) (A) (A) (A) (A) (A) (A) (A) (A) (A) (A) (A)
                 (A) (A) (A) (A) (A) (A) (A) (A)
       Virtual   (A) (A) (A) (A) (A) (A) (A) (A) (A) (A) (A) (A)
                 (A) (A) (A) (A) (A) (A) (A) (A) (A) (A) (A) (A)
                 (A) (A) (A) (A) (A) (A) (A) (A) (A) (A) (A) (A)
                 (A) (A) (A) (A) (A) (A) (A) (A) (A) (A) (A) (A)
                 (A) (A) (A) (A) (A) (A) (A) (A) (A) (A) (A) (A)
                 (A) (A) (A) (A) (A) (A) (A) (A) (A) (A) (A) (A)
                 (A) (A) (A) (A) (A) (A) (A) (A) (A) (A) (A) (A)
                 (A) (A) (A) (A) (A) (A) (A) (A) (A) (A) (A) (A)
                 (A) (A) (A) (A) (A) (A) (A) (A) (A) (A) (A) (A)
                 (A) (A) (A) (A) (A) (A) (A) (A) (A) (A) (A) (A)
                 (A) (A) (A) (A) (A) (A) (A) (A) (A) (A) (A) (A)
                 (A) (A) (A) (A) (A) (A) (A) (A) (A) (A) (A) (A)
                 (A) (A) (A) (A) (A) (A) (A) (A) (A) (A) (A) (A)
                 (A) (A) (A) (A) (A) (A) (A) (A) (A) (A) (A) (A)
                 (A) (A) (A) (A) (A) (A) (A) (A) (A) (A) (A) (A)
                 (A) (A) (A) (A) (A) (A) (A) (A) (A) (A) (A) (A)
                 (A) (A) (A) (A) (A) (A) (A) (A) (A) (A) (A) (A)
                 (A) (A) (A) (A) (A) (A) (A) (A) (A) (A) (A) (A)
                 (A) (A) (A) (A) (A) (A) (A) (A) (A) (A) (A) (A)
                 (A) (A) (A) (A) (A) (A) (A) (A) (A) (A) (A) (A)
                 (A) (A) (A) (A) (A) (A) (A) (A) (A) (A) (A) (A)
                 (A) (A) (A) (A) (A) (A) (A) (A) (A) (A) (A) (A)
                 (A) (A) (A) (A) (A) (A) (A) (A) (A) (A) (A) (A)
                 (A) (A) (A) (A) (A) (A) (A) (A) (A) (A) (A) (A)
                 (A)
 The electronic state is 1-A.
 Alpha  occ. eigenvalues --  -19.92961 -19.86739 -19.82720 -15.17897 -10.93322
 Alpha  occ. eigenvalues --  -10.75650 -10.67732 -10.66611 -10.66569 -10.65796
 Alpha  occ. eigenvalues --  -10.65657 -10.65585  -1.57885  -1.43047  -1.33287
 Alpha  occ. eigenvalues --   -1.28931  -1.08127  -1.03118  -0.99758  -0.98321
 Alpha  occ. eigenvalues --   -0.96492  -0.95244  -0.91402  -0.82332  -0.80247
 Alpha  occ. eigenvalues --   -0.78738  -0.75187  -0.74459  -0.72421  -0.70363
 Alpha  occ. eigenvalues --   -0.67363  -0.66535  -0.64725  -0.63138  -0.61231
 Alpha  occ. eigenvalues --   -0.59723  -0.58912  -0.56217  -0.55905  -0.54111
 Alpha  occ. eigenvalues --   -0.51896  -0.51262  -0.41892  -0.41661
 Alpha virt. eigenvalues --   -0.20092  -0.18732  -0.14725  -0.13680  -0.11566
 Alpha virt. eigenvalues --   -0.11132  -0.09425  -0.08538  -0.07829  -0.07022
 Alpha virt. eigenvalues --   -0.06756  -0.05767  -0.05192  -0.04312  -0.04004
 Alpha virt. eigenvalues --   -0.03602  -0.03122  -0.02887  -0.02478  -0.01706
 Alpha virt. eigenvalues --   -0.00814  -0.00457   0.00022   0.00725   0.01275
 Alpha virt. eigenvalues --    0.02347   0.02725   0.03023   0.03644   0.03730
 Alpha virt. eigenvalues --    0.04262   0.04683   0.05073   0.05216   0.05630
 Alpha virt. eigenvalues --    0.06123   0.06273   0.06622   0.06943   0.07332
 Alpha virt. eigenvalues --    0.08293   0.08398   0.08838   0.09165   0.10298
 Alpha virt. eigenvalues --    0.10543   0.10956   0.11327   0.11865   0.12511
 Alpha virt. eigenvalues --    0.12919   0.13724   0.14362   0.14781   0.15100
 Alpha virt. eigenvalues --    0.15563   0.16045   0.17044   0.18027   0.18465
 Alpha virt. eigenvalues --    0.18703   0.19307   0.19685   0.19920   0.20505
 Alpha virt. eigenvalues --    0.21509   0.21580   0.21903   0.22645   0.23250
 Alpha virt. eigenvalues --    0.23466   0.24239   0.26026   0.27636   0.28296
 Alpha virt. eigenvalues --    0.28834   0.30085   0.30787   0.30901   0.32044
 Alpha virt. eigenvalues --    0.35486   0.37413   0.37756   0.40445   0.42355
 Alpha virt. eigenvalues --    0.42727   0.45451   0.47467   0.47713   0.48317
 Alpha virt. eigenvalues --    0.48763   0.49694   0.50238   0.50362   0.51702
 Alpha virt. eigenvalues --    0.52738   0.53509   0.54733   0.56101   0.56511
 Alpha virt. eigenvalues --    0.57193   0.58426   0.59379   0.60316   0.61036
 Alpha virt. eigenvalues --    0.62372   0.62979   0.63713   0.65003   0.66726
 Alpha virt. eigenvalues --    0.67580   0.68197   0.69349   0.70605   0.75278
 Alpha virt. eigenvalues --    0.76720   0.78019   0.79145   0.79775   0.80653
 Alpha virt. eigenvalues --    0.82234   0.83028   0.84028   0.85131   0.86279
 Alpha virt. eigenvalues --    0.88307   0.90737   0.93964   0.94770   0.96015
 Alpha virt. eigenvalues --    0.97235   0.98113   0.99246   1.00862   1.01403
 Alpha virt. eigenvalues --    1.02914   1.06199   1.06671   1.07995   1.08995
 Alpha virt. eigenvalues --    1.10155   1.13933   1.18708   1.20063   1.20920
 Alpha virt. eigenvalues --    1.22309   1.23178   1.27804   1.32465   1.34541
 Alpha virt. eigenvalues --    1.35704   1.38220   1.40044   1.41466   1.43847
 Alpha virt. eigenvalues --    1.44518   1.45241   1.46219   1.46561   1.48457
 Alpha virt. eigenvalues --    1.49244   1.50900   1.52383   1.54081   1.55104
 Alpha virt. eigenvalues --    1.57789   1.58445   1.59828   1.60938   1.62234
 Alpha virt. eigenvalues --    1.65500   1.66455   1.68067   1.69562   1.70679
 Alpha virt. eigenvalues --    1.72184   1.74537   1.75909   1.78454   1.80051
 Alpha virt. eigenvalues --    1.82657   1.83732   1.84156   1.85364   1.86966
 Alpha virt. eigenvalues --    1.87434   1.89448   1.91860   1.93714   1.95732
 Alpha virt. eigenvalues --    1.96904   1.99730   2.03998   2.05501   2.08805
 Alpha virt. eigenvalues --    2.11135   2.11946   2.22353   2.23838   2.26471
 Alpha virt. eigenvalues --    2.27835   2.30604   2.32989   2.36623   2.38257
 Alpha virt. eigenvalues --    2.39454   2.40833   2.43143   2.49123   2.49693
 Alpha virt. eigenvalues --    2.51526   2.53612   2.55189   2.59071   2.59617
 Alpha virt. eigenvalues --    2.62088   2.62520   2.64034   2.65518   2.66448
 Alpha virt. eigenvalues --    2.66652   2.70325   2.71923   2.74303   2.74592
 Alpha virt. eigenvalues --    2.76642   2.77271   2.78857   2.80325   2.82346
 Alpha virt. eigenvalues --    2.85193   2.86550   2.87533   2.88806   2.93844
 Alpha virt. eigenvalues --    2.94693   2.97413   2.99083   3.02795   3.06145
 Alpha virt. eigenvalues --    3.10529   3.11408   3.12159   3.15969   3.20423
 Alpha virt. eigenvalues --    3.23286   3.27801   3.30061   3.32620   3.41482
 Alpha virt. eigenvalues --    3.45416   3.45934   3.50112   3.57957   3.68473
 Alpha virt. eigenvalues --    3.68778   3.81335   3.92313   3.95043   3.97781
 Alpha virt. eigenvalues --    4.01573   4.07643   4.08583   4.25907   4.32477
 Alpha virt. eigenvalues --    4.50193   4.60401   4.72720   4.88383   4.96778
 Alpha virt. eigenvalues --    4.98623   5.10312   5.23807   5.30486   5.51818
 Alpha virt. eigenvalues --    5.77868   5.88598  23.57603  23.66080  23.82603
 Alpha virt. eigenvalues --   23.89939  23.90724  23.99489  24.01531  24.10380
 Alpha virt. eigenvalues --   35.35860  49.76696  49.81715  49.88652
          Condensed to atoms (all electrons):
               1          2          3          4          5          6
     1  O    7.807610   0.563370  -0.107764   0.023509  -0.160302  -0.098075
     2  C    0.563370   6.693765  -0.934299  -0.042412   0.047855  -0.425271
     3  N   -0.107764  -0.934299   7.803456  -0.082299  -0.222314   0.114774
     4  O    0.023509  -0.042412  -0.082299   7.881971   0.025598   0.027733
     5  O   -0.160302   0.047855  -0.222314   0.025598   8.531847   0.253371
     6  C   -0.098075  -0.425271   0.114774   0.027733   0.253371  12.258274
     7  C    0.137441  -0.001155   0.039132  -0.007983  -0.395188  -4.560684
     8  C   -0.007296  -0.356665   0.074137   0.003920   0.001609  -1.223698
     9  C   -0.001333   0.014719   0.000994  -0.000245   0.018703   0.113783
    10  C    0.000800  -0.000824   0.000941   0.000045   0.005994  -0.111573
    11  C   -0.001314   0.013842  -0.003807   0.000040   0.007271  -0.147220
    12  C    0.008560   0.366638  -0.055250  -0.002129  -0.023815  -0.643857
    13  H   -0.007430  -0.046989   0.355564  -0.038446   0.010296   0.000286
    14  H    0.002716   0.065845  -0.015339   0.203872  -0.000263  -0.009361
    15  H   -0.003914  -0.007759  -0.009809  -0.000114  -0.042610   0.432585
    16  H   -0.019920  -0.024371  -0.009770   0.000846  -0.017362   0.441287
    17  H    0.000524  -0.022071   0.008230   0.000756  -0.005094  -0.021169
    18  H   -0.000018   0.002183  -0.000427  -0.000028  -0.000564   0.014315
    19  H    0.000021  -0.000047   0.000049  -0.000001  -0.000049  -0.015081
    20  H   -0.000052   0.000125  -0.000139  -0.000000   0.000329   0.006141
    21  H    0.002205   0.001108   0.003148  -0.000081  -0.007490  -0.035033
    22  H   -0.006194  -0.041749   0.352939  -0.039661   0.011342   0.009217
               7          8          9         10         11         12
     1  O    0.137441  -0.007296  -0.001333   0.000800  -0.001314   0.008560
     2  C   -0.001155  -0.356665   0.014719  -0.000824   0.013842   0.366638
     3  N    0.039132   0.074137   0.000994   0.000941  -0.003807  -0.055250
     4  O   -0.007983   0.003920  -0.000245   0.000045   0.000040  -0.002129
     5  O   -0.395188   0.001609   0.018703   0.005994   0.007271  -0.023815
     6  C   -4.560684  -1.223698   0.113783  -0.111573  -0.147220  -0.643857
     7  C   12.600506   0.181259  -0.729213   0.104363  -0.669174  -1.000111
     8  C    0.181259  11.751608  -0.756356  -0.280105   0.635402  -4.497353
     9  C   -0.729213  -0.756356   6.071973   0.372353  -0.235290   1.113257
    10  C    0.104363  -0.280105   0.372353   5.717166   0.371013  -0.352414
    11  C   -0.669174   0.635402  -0.235290   0.371013   5.681532   0.310468
    12  C   -1.000111  -4.497353   1.113257  -0.352414   0.310468  11.242226
    13  H    0.000857  -0.003447   0.001966   0.000288  -0.001101  -0.000897
    14  H    0.001892  -0.001505  -0.000147   0.000020   0.000019   0.000765
    15  H   -0.061200   0.025914   0.005950   0.006496  -0.008498  -0.024785
    16  H   -0.076789   0.104575  -0.036501  -0.000668   0.012868  -0.123751
    17  H    0.026219   0.409378  -0.087367  -0.010550   0.014214   0.002053
    18  H    0.010947  -0.079016   0.404681  -0.035087   0.009096   0.008346
    19  H    0.033059  -0.009160  -0.061368   0.439124  -0.055222   0.005150
    20  H    0.027439   0.018816   0.001930  -0.037548   0.403210  -0.087924
    21  H    0.025999  -0.000850   0.015706   0.010097  -0.050545   0.379091
    22  H   -0.017900  -0.002576   0.000338  -0.000484   0.001758   0.003935
              13         14         15         16         17         18
     1  O   -0.007430   0.002716  -0.003914  -0.019920   0.000524  -0.000018
     2  C   -0.046989   0.065845  -0.007759  -0.024371  -0.022071   0.002183
     3  N    0.355564  -0.015339  -0.009809  -0.009770   0.008230  -0.000427
     4  O   -0.038446   0.203872  -0.000114   0.000846   0.000756  -0.000028
     5  O    0.010296  -0.000263  -0.042610  -0.017362  -0.005094  -0.000564
     6  C    0.000286  -0.009361   0.432585   0.441287  -0.021169   0.014315
     7  C    0.000857   0.001892  -0.061200  -0.076789   0.026219   0.010947
     8  C   -0.003447  -0.001505   0.025914   0.104575   0.409378  -0.079016
     9  C    0.001966  -0.000147   0.005950  -0.036501  -0.087367   0.404681
    10  C    0.000288   0.000020   0.006496  -0.000668  -0.010550  -0.035087
    11  C   -0.001101   0.000019  -0.008498   0.012868   0.014214   0.009096
    12  C   -0.000897   0.000765  -0.024785  -0.123751   0.002053   0.008346
    13  H    0.390218  -0.005241   0.001324   0.000360  -0.002168   0.000006
    14  H   -0.005241   0.439734   0.000025   0.000042  -0.000272   0.000003
    15  H    0.001324   0.000025   0.425210   0.009798  -0.002924  -0.000057
    16  H    0.000360   0.000042   0.009798   0.476845  -0.000592  -0.000091
    17  H   -0.002168  -0.000272  -0.002924  -0.000592   0.518025  -0.012349
    18  H    0.000006   0.000003  -0.000057  -0.000091  -0.012349   0.459608
    19  H    0.000021   0.000001   0.000117  -0.000350   0.000288  -0.009439
    20  H   -0.000017   0.000000  -0.000144   0.001719   0.000247   0.000569
    21  H    0.000112  -0.000021  -0.001240  -0.004072  -0.000429  -0.000123
    22  H   -0.047478  -0.004973  -0.000882   0.001189   0.001089  -0.000002
              19         20         21         22
     1  O    0.000021  -0.000052   0.002205  -0.006194
     2  C   -0.000047   0.000125   0.001108  -0.041749
     3  N    0.000049  -0.000139   0.003148   0.352939
     4  O   -0.000001  -0.000000  -0.000081  -0.039661
     5  O   -0.000049   0.000329  -0.007490   0.011342
     6  C   -0.015081   0.006141  -0.035033   0.009217
     7  C    0.033059   0.027439   0.025999  -0.017900
     8  C   -0.009160   0.018816  -0.000850  -0.002576
     9  C   -0.061368   0.001930   0.015706   0.000338
    10  C    0.439124  -0.037548   0.010097  -0.000484
    11  C   -0.055222   0.403210  -0.050545   0.001758
    12  C    0.005150  -0.087924   0.379091   0.003935
    13  H    0.000021  -0.000017   0.000112  -0.047478
    14  H    0.000001   0.000000  -0.000021  -0.004973
    15  H    0.000117  -0.000144  -0.001240  -0.000882
    16  H   -0.000350   0.001719  -0.004072   0.001189
    17  H    0.000288   0.000247  -0.000429   0.001089
    18  H   -0.009439   0.000569  -0.000123  -0.000002
    19  H    0.459045  -0.009997   0.001422  -0.000018
    20  H   -0.009997   0.450041  -0.012098   0.000020
    21  H    0.001422  -0.012098   0.487573  -0.000146
    22  H   -0.000018   0.000020  -0.000146   0.383430
 Mulliken charges:
               1
     1  O   -0.133145
     2  C    0.134164
     3  N   -0.312148
     4  O    0.045110
     5  O   -0.039165
     6  C   -0.380744
     7  C    0.330283
     8  C    0.011410
     9  C   -0.228535
    10  C   -0.199448
    11  C   -0.288564
    12  C   -0.628201
    13  H    0.391914
    14  H    0.322189
    15  H    0.256519
    16  H    0.264709
    17  H    0.183964
    18  H    0.227448
    19  H    0.222433
    20  H    0.237334
    21  H    0.185666
    22  H    0.396805
 Sum of Mulliken charges =   1.00000
 Mulliken charges with hydrogens summed into heavy atoms:
               1
     1  O   -0.133145
     2  C    0.134164
     3  N    0.476570
     4  O    0.367299
     5  O   -0.039165
     6  C    0.140484
     7  C    0.330283
     8  C    0.195375
     9  C   -0.001087
    10  C    0.022985
    11  C   -0.051229
    12  C   -0.442535
 Electronic spatial extent (au):  <R**2>=           3013.5710
 Charge=              1.0000 electrons
 Dipole moment (field-independent basis, Debye):
    X=             -8.8341    Y=              5.8010    Z=             -3.4758  Tot=             11.1254
 Quadrupole moment (field-independent basis, Debye-Ang):
   XX=            -15.6155   YY=            -55.2952   ZZ=            -63.5329
   XY=            -23.4583   XZ=             11.4131   YZ=              0.3822
 Traceless Quadrupole moment (field-independent basis, Debye-Ang):
   XX=             29.1990   YY=            -10.4807   ZZ=            -18.7183
   XY=            -23.4583   XZ=             11.4131   YZ=              0.3822
 Octapole moment (field-independent basis, Debye-Ang**2):
  XXX=           -135.9182  YYY=             18.7725  ZZZ=             -7.4539  XYY=            -34.5742
  XXY=            107.4344  XXZ=            -74.2136  XZZ=            -36.6623  YZZ=              5.3854
  YYZ=             -7.3323  XYZ=             22.1001
 Hexadecapole moment (field-independent basis, Debye-Ang**3):
 XXXX=          -2273.2684 YYYY=           -373.0923 ZZZZ=           -198.7733 XXXY=           -349.8270
 XXXZ=            143.4340 YYYX=            -71.4300 YYYZ=              5.6032 ZZZX=             34.7166
 ZZZY=            -13.3132 XXYY=           -444.0050 XXZZ=           -519.5183 YYZZ=            -93.7131
 XXYZ=            -33.6745 YYXZ=             32.5464 ZZXY=            -35.9225
 N-N= 6.691814964869D+02 E-N=-2.704568528913D+03  KE= 5.887685930197D+02
 No NMR shielding tensors so no spin-rotation constants.
 Leave Link  601 at Sun Oct 13 19:51:08 2019, MaxMem= 10737418240 cpu:               2.9 elap:               0.2
 (Enter /apps/cent7/gaussian/g16-A.03/g16-haswell/g16/l701.exe)
 ... and contract with generalized density number  0.
 Compute integral first derivatives.
 Leave Link  701 at Sun Oct 13 19:51:08 2019, MaxMem= 10737418240 cpu:               3.6 elap:               0.2
 (Enter /apps/cent7/gaussian/g16-A.03/g16-haswell/g16/l702.exe)
 L702 exits ... SP integral derivatives will be done elsewhere.
 Leave Link  702 at Sun Oct 13 19:51:08 2019, MaxMem= 10737418240 cpu:               0.5 elap:               0.0
 (Enter /apps/cent7/gaussian/g16-A.03/g16-haswell/g16/l703.exe)
 Integral derivatives from FoFJK, PRISM(SPDF).
 Compute integral first derivatives, UseDBF=F ICtDFT=           0.
 Calling FoFJK, ICntrl=      2127 FMM=F ISym2X=0 I1Cent= 0 IOpClX= 0 NMat=1 NMatS=1 NMatT=0.
 FoFJK:  IHMeth= 1 ICntrl=    2127 DoSepK=F KAlg= 0 I1Cent=           0 FoldK=F
 IRaf=         0 NMat=       1 IRICut=       1 DoRegI=T DoRafI=F ISym2E= 0 IDoP0=0 IntGTp=1.
 FoFCou: FMM=F IPFlag=           0 FMFlag=      100000 FMFlg1=         800
         NFxFlg=           0 DoJE=F BraDBF=F KetDBF=F FulRan=T
         wScrn=  0.000000 ICntrl=      2127 IOpCl=  0 I1Cent=           0 NGrid=           0
         NMat0=    1 NMatS0=      1 NMatT0=    0 NMatD0=    1 NMtDS0=    0 NMtDT0=    0
 Symmetry not used in FoFCou.
 Leave Link  703 at Sun Oct 13 19:51:12 2019, MaxMem= 10737418240 cpu:              86.8 elap:               3.7
 (Enter /apps/cent7/gaussian/g16-A.03/g16-haswell/g16/l716.exe)
 Dipole        =-3.47561231D+00 2.28228577D+00-1.36746564D+00
 ***** Axes restored to original set *****
 -------------------------------------------------------------------
 Center     Atomic                   Forces (Hartrees/Bohr)
 Number     Number              X              Y              Z
 -------------------------------------------------------------------
      1        8          -0.020441264   -0.044062453    0.086521096
      2        6          -0.016715892    0.006932864   -0.260831379
      3        7          -0.020986005   -0.043131436    0.104121114
      4        8           0.049161877    0.074104482   -0.028869647
      5        8           0.035745045    0.044102170    0.091975133
      6        6          -0.001869328   -0.004343979   -0.018949133
      7        6          -0.015547000   -0.029334998    0.016322723
      8        6           0.002439527   -0.011577579   -0.005230687
      9        6           0.009224964    0.003297414   -0.005122480
     10        6           0.006845082    0.007815651   -0.002775002
     11        6          -0.004515345    0.009266089    0.003386346
     12        6          -0.007007350    0.004695681    0.007048738
     13        1          -0.033338382   -0.008465710    0.014281251
     14        1          -0.000283843   -0.000314197    0.010097147
     15        1           0.011051178    0.005585055   -0.010724783
     16        1          -0.003302068    0.012905922   -0.010557724
     17        1           0.000710576   -0.002286800   -0.001965184
     18        1           0.003891956    0.000378336   -0.003114282
     19        1           0.002692014    0.004090537   -0.000713701
     20        1          -0.001181600    0.004845908    0.001363100
     21        1          -0.002815429    0.000592679    0.001766393
     22        1           0.006241288   -0.035095637    0.011970959
 -------------------------------------------------------------------
 Cartesian Forces:  Max     0.260831379 RMS     0.042233685
 Leave Link  716 at Sun Oct 13 19:51:12 2019, MaxMem= 10737418240 cpu:               0.7 elap:               0.0
 (Enter /apps/cent7/gaussian/g16-A.03/g16-haswell/g16/l103.exe)

 GradGradGradGradGradGradGradGradGradGradGradGradGradGradGradGradGradGrad
 Berny optimization.
 FormGI is forming the generalized inverse of G from B-inverse, IUseBI=4.
 GSVD:  received Info=                   1 from GESDD.
 Internal  Forces:  Max     0.101556191 RMS     0.021969153
 Search for a local minimum.
 Step number   1 out of a maximum of  111
 All quantities printed in internal units (Hartrees-Bohrs-Radians)
 RMS Force = .21969D-01 SwitMx=.10000D-02 MixMth= 1
 Mixed Optimization -- RFO/linear search
 Second derivative matrix not updated -- first step.
 ITU=  0
     Eigenvalues ---    0.00998   0.01268   0.01530   0.01900   0.01935
     Eigenvalues ---    0.01945   0.01976   0.02001   0.02003   0.02007
     Eigenvalues ---    0.02011   0.02206   0.02339   0.02384   0.02561
     Eigenvalues ---    0.06035   0.07156   0.07773   0.08244   0.11216
     Eigenvalues ---    0.13081   0.13716   0.14828   0.16000   0.16000
     Eigenvalues ---    0.16000   0.16000   0.16000   0.16000   0.22000
     Eigenvalues ---    0.22000   0.22258   0.22599   0.23471   0.24999
     Eigenvalues ---    0.25000   0.25000   0.25000   0.34286   0.34803
     Eigenvalues ---    0.34810   0.34811   0.34811   0.34812   0.34817
     Eigenvalues ---    0.34821   0.40203   0.40276   0.40700   0.43469
     Eigenvalues ---    0.44036   0.44455   0.44619   0.47688   0.47688
     Eigenvalues ---    0.52714   0.55467   0.55521   0.66023   0.81923
 RFO step:  Lambda=-9.12978984D-02 EMin= 9.97565993D-03
 Linear search not attempted -- first point.
 Maximum step size (   0.300) exceeded in Quadratic search.
    -- Step size scaled by   0.676
 Iteration  1 RMS(Cart)=  0.04451067 RMS(Int)=  0.00132095
 Iteration  2 RMS(Cart)=  0.00290782 RMS(Int)=  0.00042617
 Iteration  3 RMS(Cart)=  0.00000390 RMS(Int)=  0.00042617
 Iteration  4 RMS(Cart)=  0.00000001 RMS(Int)=  0.00042617
 ITry= 1 IFail=0 DXMaxC= 1.75D-01 DCOld= 1.00D+10 DXMaxT= 3.00D-01 DXLimC= 3.00D+00 Rises=F
 Variable       Old X    -DE/DX   Delta X   Delta X   Delta X     New X
                                 (Linear)    (Quad)   (Total)
    R1        2.36895  -0.09775   0.00000  -0.07260  -0.07260   2.29635
    R2        2.54672   0.10156   0.00000   0.10622   0.10622   2.65295
    R3        2.57222  -0.06921   0.00000  -0.07568  -0.07568   2.49654
    R4        2.46470   0.08258   0.00000   0.07431   0.07431   2.53901
    R5        1.88973   0.03485   0.00000   0.04147   0.04147   1.93120
    R6        1.88973   0.03535   0.00000   0.04207   0.04207   1.93179
    R7        1.81419   0.00996   0.00000   0.01043   0.01043   1.82462
    R8        2.70613   0.02295   0.00000   0.03114   0.03114   2.73727
    R9        2.80150   0.01159   0.00000   0.01806   0.01806   2.81956
   R10        2.05983   0.00048   0.00000   0.00074   0.00074   2.06057
   R11        2.05966  -0.00033   0.00000  -0.00051  -0.00051   2.05916
   R12        2.67506  -0.01692   0.00000  -0.02201  -0.02200   2.65306
   R13        2.67390  -0.02014   0.00000  -0.02614  -0.02613   2.64777
   R14        2.65900  -0.01862   0.00000  -0.02349  -0.02348   2.63552
   R15        2.05973  -0.00297   0.00000  -0.00457  -0.00457   2.05516
   R16        2.65692  -0.01288   0.00000  -0.01606  -0.01607   2.64084
   R17        2.05982  -0.00496   0.00000  -0.00763  -0.00763   2.05219
   R18        2.65662  -0.01503   0.00000  -0.01878  -0.01879   2.63784
   R19        2.05985  -0.00494   0.00000  -0.00761  -0.00761   2.05224
   R20        2.65927  -0.01626   0.00000  -0.02053  -0.02053   2.63873
   R21        2.05981  -0.00511   0.00000  -0.00786  -0.00786   2.05195
   R22        2.05996  -0.00334   0.00000  -0.00515  -0.00515   2.05482
    A1        2.11397   0.00603   0.00000   0.01195   0.01195   2.12592
    A2        2.12245   0.04633   0.00000   0.09179   0.09179   2.21424
    A3        2.04676  -0.05236   0.00000  -0.10374  -0.10374   1.94302
    A4        2.13290  -0.05618   0.00000  -0.12095  -0.12055   2.01235
    A5        1.86167   0.00741   0.00000   0.00834   0.00916   1.87082
    A6        1.86167   0.00788   0.00000   0.00966   0.01047   1.87213
    A7        1.86167   0.02589   0.00000   0.06299   0.06194   1.92360
    A8        1.86167   0.02546   0.00000   0.06175   0.06073   1.92240
    A9        1.87087  -0.00702   0.00000  -0.01423  -0.01574   1.85513
   A10        1.91068  -0.00311   0.00000  -0.00836  -0.00836   1.90232
   A11        2.21287  -0.04142   0.00000  -0.08208  -0.08208   2.13080
   A12        1.89991  -0.01231   0.00000  -0.02177  -0.02161   1.87830
   A13        1.85552   0.00205   0.00000   0.00395   0.00411   1.85963
   A14        1.85562   0.00281   0.00000   0.00610   0.00625   1.86186
   A15        1.87611   0.01134   0.00000   0.03289   0.03286   1.90897
   A16        1.87611   0.01013   0.00000   0.02925   0.02922   1.90533
   A17        2.09443  -0.01528   0.00000  -0.05165  -0.05190   2.04253
   A18        2.09426   0.00154   0.00000   0.00320   0.00319   2.09745
   A19        2.11861  -0.00556   0.00000  -0.01085  -0.01086   2.10774
   A20        2.07028   0.00402   0.00000   0.00769   0.00771   2.07798
   A21        2.10648  -0.00133   0.00000  -0.00295  -0.00294   2.10354
   A22        2.09355   0.00035   0.00000   0.00062   0.00061   2.09416
   A23        2.08315   0.00098   0.00000   0.00234   0.00233   2.08548
   A24        2.09528  -0.00097   0.00000  -0.00174  -0.00174   2.09354
   A25        2.09466  -0.00000   0.00000  -0.00045  -0.00045   2.09421
   A26        2.09324   0.00098   0.00000   0.00219   0.00219   2.09543
   A27        2.09225   0.00043   0.00000   0.00149   0.00147   2.09373
   A28        2.09554  -0.00019   0.00000  -0.00069  -0.00068   2.09485
   A29        2.09539  -0.00023   0.00000  -0.00080  -0.00079   2.09460
   A30        2.09596  -0.00050   0.00000  -0.00076  -0.00077   2.09519
   A31        2.09279   0.00102   0.00000   0.00245   0.00246   2.09524
   A32        2.09443  -0.00052   0.00000  -0.00169  -0.00168   2.09275
   A33        2.10601  -0.00165   0.00000  -0.00371  -0.00370   2.10231
   A34        2.09335   0.00039   0.00000   0.00069   0.00069   2.09403
   A35        2.08383   0.00126   0.00000   0.00301   0.00301   2.08684
    D1       -0.03867  -0.00014   0.00000  -0.00060  -0.00063  -0.03929
    D2        2.10537   0.00041   0.00000   0.00360   0.00407   2.10944
    D3       -2.18270  -0.00052   0.00000  -0.00431  -0.00476  -2.18746
    D4        3.09942  -0.00006   0.00000  -0.00026  -0.00028   3.09914
    D5       -1.03973   0.00049   0.00000   0.00394   0.00441  -1.03532
    D6        0.95538  -0.00045   0.00000  -0.00396  -0.00441   0.95097
    D7       -0.01776   0.00029   0.00000   0.00188   0.00187  -0.01588
    D8        3.12736   0.00031   0.00000   0.00170   0.00171   3.12907
    D9        3.08063  -0.00012   0.00000  -0.00041  -0.00045   3.08019
   D10        0.93660   0.00791   0.00000   0.02073   0.02312   0.95972
   D11       -1.05852  -0.00788   0.00000  -0.02087  -0.02323  -1.08175
   D12       -3.14107  -0.00039   0.00000  -0.00136  -0.00136   3.14075
   D13       -1.12475   0.00787   0.00000   0.02835   0.02830  -1.09645
   D14        1.12576  -0.00763   0.00000  -0.02794  -0.02789   1.09787
   D15        1.06221   0.00105   0.00000   0.00721   0.00720   1.06940
   D16       -2.06983   0.00024   0.00000   0.00212   0.00212  -2.06771
   D17       -0.94078  -0.00105   0.00000  -0.00357  -0.00343  -0.94420
   D18        2.21038  -0.00186   0.00000  -0.00867  -0.00850   2.20187
   D19        3.06530   0.00341   0.00000   0.01862   0.01846   3.08376
   D20       -0.06673   0.00259   0.00000   0.01352   0.01338  -0.05335
   D21        3.13945  -0.00042   0.00000  -0.00279  -0.00281   3.13664
   D22       -0.00203  -0.00006   0.00000  -0.00053  -0.00056  -0.00258
   D23       -0.01144   0.00032   0.00000   0.00207   0.00208  -0.00936
   D24        3.13027   0.00068   0.00000   0.00432   0.00434   3.13460
   D25       -3.13929   0.00079   0.00000   0.00489   0.00488  -3.13441
   D26        0.00225   0.00034   0.00000   0.00216   0.00216   0.00441
   D27        0.01174   0.00000   0.00000  -0.00012  -0.00012   0.01161
   D28       -3.12991  -0.00045   0.00000  -0.00285  -0.00284  -3.13275
   D29        0.00087  -0.00027   0.00000  -0.00164  -0.00165  -0.00078
   D30       -3.14088   0.00014   0.00000   0.00083   0.00083  -3.14004
   D31       -3.14084  -0.00063   0.00000  -0.00389  -0.00389   3.13846
   D32        0.00060  -0.00023   0.00000  -0.00141  -0.00141  -0.00081
   D33        0.00962  -0.00014   0.00000  -0.00083  -0.00083   0.00879
   D34       -3.13199   0.00013   0.00000   0.00079   0.00079  -3.13120
   D35       -3.13182  -0.00054   0.00000  -0.00331  -0.00331  -3.13513
   D36        0.00975  -0.00028   0.00000  -0.00169  -0.00169   0.00807
   D37       -0.00932   0.00045   0.00000   0.00277   0.00278  -0.00655
   D38        3.13226   0.00035   0.00000   0.00212   0.00212   3.13438
   D39        3.13229   0.00019   0.00000   0.00115   0.00115   3.13344
   D40       -0.00932   0.00008   0.00000   0.00050   0.00050  -0.00882
   D41       -0.00147  -0.00037   0.00000  -0.00227  -0.00227  -0.00374
   D42        3.14018   0.00008   0.00000   0.00044   0.00044   3.14061
   D43        3.14013  -0.00027   0.00000  -0.00162  -0.00162   3.13851
   D44       -0.00141   0.00018   0.00000   0.00109   0.00109  -0.00032
         Item               Value     Threshold  Converged?
 Maximum Force            0.101556     0.000450     NO 
 RMS     Force            0.021969     0.000300     NO 
 Maximum Displacement     0.175460     0.001800     NO 
 RMS     Displacement     0.046072     0.001200     NO 
 Predicted change in Energy=-4.512983D-02
 Lowest energy point so far.  Saving SCF results.
 GradGradGradGradGradGradGradGradGradGradGradGradGradGradGradGradGradGrad

 Leave Link  103 at Sun Oct 13 19:51:12 2019, MaxMem= 10737418240 cpu:               1.9 elap:               0.1
 (Enter /apps/cent7/gaussian/g16-A.03/g16-haswell/g16/l202.exe)
                          Input orientation:                          
 ---------------------------------------------------------------------
 Center     Atomic      Atomic             Coordinates (Angstroms)
 Number     Number       Type             X           Y           Z
 ---------------------------------------------------------------------
      1          8           0        1.266339    1.418686   -0.296962
      2          6           0        0.904450    0.712730    0.623536
      3          7           0        1.213295    1.020723    1.957939
      4          8           0        1.970893    2.116326    2.133790
      5          8           0        0.202885   -0.403438    0.538046
      6          6           0       -0.254114   -0.929635   -0.731766
      7          6           0       -1.005619   -2.188498   -0.454805
      8          6           0       -2.162495   -2.159392    0.340072
      9          6           0       -2.873856   -3.330768    0.598739
     10          6           0       -2.436112   -4.545391    0.063943
     11          6           0       -1.281676   -4.586389   -0.719693
     12          6           0       -0.568585   -3.413502   -0.975918
     13          1           0        0.327486    1.119974    2.457806
     14          1           0        2.080712    2.273916    3.080039
     15          1           0       -0.934338   -0.186619   -1.149145
     16          1           0        0.637734   -1.165596   -1.311668
     17          1           0       -2.511538   -1.217817    0.757634
     18          1           0       -3.768416   -3.298024    1.213576
     19          1           0       -2.994508   -5.456693    0.256591
     20          1           0       -0.936543   -5.530461   -1.130382
     21          1           0        0.330161   -3.454549   -1.586598
     22          1           0        1.678392    0.203111    2.358205
 ---------------------------------------------------------------------
                    Distance matrix (angstroms):
                    1          2          3          4          5
     1  O    0.000000
     2  C    1.215177   0.000000
     3  N    2.290364   1.403879   0.000000
     4  O    2.625196   2.321261   1.343587   0.000000
     5  O    2.268988   1.321110   2.250613   3.467198   0.000000
     6  C    2.831156   2.424145   3.632038   4.737083   1.448501
     7  C    4.265967   3.637073   4.587374   5.838831   2.373325
     8  C    4.996534   4.211364   4.911881   6.211609   2.952557
     9  C    6.364024   5.534083   6.122719   7.449752   4.247267
    10  C    7.029125   6.254625   6.920044   8.251329   4.934050
    11  C    6.536972   5.887620   6.695841   7.977967   4.613340
    12  C    5.213249   4.664105   5.607581   6.833611   3.456550
    13  H    2.925649   1.965523   1.021946   1.948972   2.453934
    14  H    3.577536   3.139316   1.892622   0.965548   4.142003
    15  H    2.854155   2.707834   3.965346   4.951927   2.046192
    16  H    2.846626   2.710029   3.975121   4.941609   2.047295
    17  H    4.726063   3.926062   4.508455   5.753477   2.842451
    18  H    7.062424   6.186273   6.634990   7.943655   4.960464
    19  H    8.107532   7.307414   7.909305   9.248227   5.986479
    20  H    7.337433   6.741136   7.554967   8.808028   5.510745
    21  H    5.127183   4.751916   5.776826   6.896951   3.720159
    22  H    2.949122   1.966666   1.022261   1.948412   2.420331
                    6          7          8          9         10
     6  C    0.000000
     7  C    1.492046   0.000000
     8  C    2.510589   1.403937   0.000000
     9  C    3.794565   2.430030   1.394656   0.000000
    10  C    4.297436   2.805416   2.417458   1.397475   0.000000
    11  C    3.798404   2.428220   2.790925   2.418653   1.395883
    12  C    2.515571   1.401140   2.417679   2.792967   2.418706
    13  H    3.835692   4.605047   4.630232   5.789112   6.742731
    14  H    5.499456   6.475624   6.720599   7.881439   8.717883
    15  H    1.090405   2.120073   2.760067   4.086869   4.767158
    16  H    1.089659   2.116873   3.399582   4.546305   4.771148
    17  H    2.719802   2.163336   1.087544   2.149671   3.399948
    18  H    4.663040   3.412857   2.153712   1.085972   2.156992
    19  H    5.383387   3.891384   3.401678   2.156660   1.085998
    20  H    4.668212   3.410263   3.876764   3.403188   2.155339
    21  H    2.728974   2.160589   3.406291   3.880302   3.400954
    22  H    3.816493   4.564727   4.940314   6.025527   6.688875
                   11         12         13         14         15
    11  C    0.000000
    12  C    1.396357   0.000000
    13  H    6.726699   5.757240   0.000000
    14  H    8.532725   7.471030   2.189191   0.000000
    15  H    4.434304   3.252162   4.038500   5.747239   0.000000
    16  H    3.966912   2.573134   4.419165   5.761902   1.859091
    17  H    3.878445   3.406069   4.051655   6.218885   2.680808
    18  H    3.403130   3.878935   6.151685   8.291110   4.826519
    19  H    2.155076   3.402765   7.689834   9.669128   5.830444
    20  H    1.085843   2.154244   7.661668   9.366951   5.343876
    21  H    2.151883   1.087363   6.106019   7.593236   3.531245
    22  H    6.416757   5.407881   1.635697   2.229606   4.390872
                   16         17         18         19         20
    16  H    0.000000
    17  H    3.768640   0.000000
    18  H    5.508018   2.472830   0.000000
    19  H    5.836620   4.295623   2.484876   0.000000
    20  H    4.643626   4.964284   4.300863   2.482812   0.000000
    21  H    2.325832   4.309715   4.966267   4.296434   2.474284
    22  H    4.052690   4.704931   6.575397   7.634537   7.202914
                   21         22
    21  H    0.000000
    22  H    5.545960   0.000000
 Stoichiometry    C8H10NO3(1+)
 Framework group  C1[X(C8H10NO3)]
 Deg. of freedom    60
 Full point group                 C1      NOp   1
 RotChk:  IX=0 Diff= 7.93D-03
 Largest Abelian subgroup         C1      NOp   1
 Largest concise Abelian subgroup C1      NOp   1
                         Standard orientation:                         
 ---------------------------------------------------------------------
 Center     Atomic      Atomic             Coordinates (Angstroms)
 Number     Number       Type             X           Y           Z
 ---------------------------------------------------------------------
      1          8           0       -2.818827   -1.179009    0.671616
      2          6           0       -2.274148   -0.244598    0.117672
      3          7           0       -3.008897    0.775754   -0.506748
      4          8           0       -4.342962    0.617332   -0.486757
      5          8           0       -0.974117   -0.037013    0.007390
      6          6           0        0.000885   -0.940925    0.582255
      7          6           0        1.356412   -0.403279    0.266530
[...]
 05875,-0.08086427,-0.20870203,-0.01458368,0.22118640,-0.00294917,0.002
 50099,-0.00545511,0.01839305,0.00125005,0.00213707,-0.25191636,0.01605
 326,0.15927531,-0.01328028,-0.01162728,0.00697342,-0.00386924,-0.00231
 862,-0.00150980,0.00051169,0.00040621,0.00071890,-0.00001892,-0.000024
 60,-0.00007127,0.00013093,-0.00012946,0.00005257,-0.00004016,-0.000019
 03,0.00005778,-0.00000126,-0.00003487,-0.00000198,-0.00005624,-0.00000
 104,0.00003126,-0.00006487,0.00003671,-0.00001391,0.26692542,-0.000101
 26,-0.00113239,0.00026581,0.00289592,0.00349431,0.00159672,0.01782687,
 -0.06336420,-0.01604121,-0.03364923,-0.01043509,0.02228957,-0.00159523
 ,-0.00109633,-0.00005101,-0.00013066,-0.00025319,-0.00022291,0.0000289
 3,-0.00000006,-0.00001450,-0.00003334,0.00003577,0.00005281,-0.0000168
 4,-0.00003365,0.00003437,-0.00001679,-0.00001463,0.00000445,0.00001535
 ,-0.00001093,0.00001295,0.00003611,-0.00003797,-0.00000466,-0.00647368
 ,0.06755339,-0.00343276,0.00130043,-0.00221439,0.02070874,-0.00089812,
 -0.01712447,0.18091325,-0.01232997,-0.19926760,-0.00865347,-0.00099199
 ,0.00600280,-0.00071684,0.00132279,0.00286878,-0.00201335,-0.00079161,
 -0.00108590,0.00007552,0.00012307,0.00002905,-0.00011530,0.00002366,0.
 00003586,-0.00002005,0.00008757,-0.00001452,0.00003621,0.00002950,-0.0
 0002411,0.00003532,0.00001241,-0.00003326,0.00010809,-0.00004539,-0.00
 003497,-0.17717890,0.01168624,0.20056109,0.00038254,0.00056829,0.00100
 976,-0.00226959,-0.00315664,0.00103466,-0.01406831,-0.00365555,-0.0228
 6825,-0.06609252,-0.03762377,-0.13885109,-0.00004328,0.00001133,-0.000
 91670,0.00004368,-0.00030198,-0.00012147,-0.00003249,-0.00000535,-0.00
 001650,-0.00000164,0.00000348,0.00001906,-0.00001154,0.00001418,0.0000
 1823,0.00000711,0.00000112,-0.00000524,0.00000343,-0.00000012,0.000011
 21,0.00002836,0.00000837,-0.00003329,-0.00123556,-0.00087673,-0.002014
 55,0.08079068,0.00133665,0.00151046,0.00052004,-0.00188978,-0.00644440
 ,0.00447600,-0.02081871,-0.01592196,-0.04310483,-0.01979259,-0.0344549
 4,0.00850793,-0.00139650,-0.00051563,-0.00254033,0.00001707,0.00006887
 ,0.00036159,-0.00005233,-0.00009103,-0.00004430,0.00002171,0.00001807,
 -0.00002220,0.00000898,-0.00002157,0.00001917,-0.00000822,-0.00000692,
 0.00000321,0.00000270,-0.00001420,0.00002255,-0.00001478,0.00002515,0.
 00001624,-0.00048638,0.00167810,-0.00007708,0.04413453,0.05505588,-0.0
 0036925,-0.00185490,0.00182655,-0.00078778,0.00210634,-0.00638372,0.01
 129232,0.01059813,0.00977922,-0.17475798,-0.04822246,-0.45738035,0.001
 80906,0.00160416,0.00270444,-0.00075008,-0.00057329,-0.00092450,0.0001
 1032,0.00012931,0.00007800,-0.00010000,0.00005831,0.00003079,-0.000018
 89,0.00005329,-0.00000506,0.00001112,0.00002951,-0.00000788,0.00005367
 ,0.00001393,-0.00003036,0.00009213,-0.00005878,-0.00002715,0.00044353,
 0.00157721,0.00243421,0.16186359,0.03456123,0.44696289,0.00008124,-0.0
 0124512,0.00205035,0.00084393,0.00566642,-0.00342786,0.00000042,-0.000
 47173,0.00002050,-0.00003710,-0.00011084,-0.00020202,-0.01285058,0.001
 93379,-0.01063342,-0.16860636,0.13284943,-0.02945430,0.01190557,-0.011
 15780,0.00411523,0.00091287,-0.00136822,-0.00042943,0.00022236,0.00021
 415,0.00016014,0.00021452,-0.00019101,0.00004442,-0.00001580,-0.000692
 27,-0.00057077,-0.00135589,-0.00160193,0.00110590,-0.00003105,0.000050
 55,0.00003205,-0.00002300,-0.00003556,0.00003055,0.18008068,0.00040916
 ,-0.00102523,0.00120042,-0.00014325,0.00548266,-0.00203523,0.00045208,
 -0.00055447,-0.00054219,-0.00008209,-0.00010186,-0.00022934,-0.0137349
 7,0.00534053,-0.00753574,0.13829819,-0.20465764,0.04217194,0.01781994,
 -0.01933696,0.00330405,0.00182794,0.00143926,-0.00167731,-0.00023818,-
 0.00034997,-0.00010343,-0.00014691,0.00014178,0.00014393,0.00064633,-0
 .00059564,-0.00102165,-0.00316365,-0.00303357,0.00254162,-0.00008868,0
 .00001957,-0.00004464,0.00001566,-0.00001631,0.00007453,-0.13991684,0.
 21601970,-0.00045690,-0.00157848,0.00100176,0.00163609,0.00704649,-0.0
 0057390,0.00004553,-0.00083465,-0.00081348,-0.00013905,-0.00020860,-0.
 00046562,-0.03071416,0.01094329,-0.02173828,-0.02213235,0.03546005,-0.
 05629084,-0.00319219,0.00302219,0.00192404,-0.00072405,-0.00011233,-0.
 00019872,0.00013037,-0.00010122,0.00006724,0.00013207,-0.00027264,-0.0
 0004286,-0.00087069,-0.00006844,-0.00007397,0.00099608,0.00048038,0.00
 076586,-0.00018375,0.00009708,0.00000767,0.00001350,-0.00005616,0.0001
 2358,0.04109288,-0.03790211,0.06754922,-0.00059711,-0.00075499,0.00088
 798,0.00406162,0.00353929,-0.00194142,-0.00105392,0.00015265,-0.000281
 82,-0.00023569,-0.00008823,-0.00031708,0.00843458,-0.00799837,-0.02364
 699,-0.20152110,0.01404444,0.14767970,-0.00927673,0.00036521,0.0082756
 8,0.00035783,-0.00255096,0.00129214,-0.00053055,0.00009959,-0.00039659
 ,0.00012032,-0.00009542,-0.00001728,-0.00029084,-0.00035570,-0.0000742
 2,0.00031799,0.00178710,-0.00109821,-0.00008410,0.00000921,0.00031959,
 0.00000943,-0.00001857,0.00011419,-0.01120646,-0.00088796,0.01389321,0
 .21039167,-0.00003533,-0.00088995,0.00216032,0.00247367,0.00419336,-0.
 00456407,-0.00044061,-0.00005634,0.00022102,-0.00013566,-0.00002491,-0
 .00013310,0.00116475,-0.00445945,-0.01000103,0.01086873,-0.05331674,-0
 .00515652,-0.02113649,0.00310236,0.01956390,-0.00020062,-0.00468858,0.
 00099442,-0.00137681,0.00027111,-0.00026336,0.00005017,0.00000449,0.00
 012429,0.00002812,-0.00000807,0.00004983,-0.00152213,0.00171893,0.0000
 5343,0.00002424,-0.00002019,0.00015818,-0.00000101,-0.00003170,0.00002
 713,0.01608782,0.00104451,-0.01604055,-0.00654975,0.05395703,-0.000378
 17,-0.00164004,0.00150619,0.00410623,0.00569324,-0.00245590,-0.0008094
 2,-0.00036116,-0.00018917,-0.00030851,-0.00007487,-0.00036228,0.006372
 77,-0.01089832,-0.03341463,0.13677351,-0.00475759,-0.17450022,0.003847
 46,-0.00075498,0.00067996,0.00019257,0.00091727,0.00076823,0.00012148,
 -0.00082226,-0.00043237,-0.00040541,0.00001701,0.00018966,0.00007430,0
 .00024392,0.00023883,-0.00063276,-0.00118570,0.00008950,0.00000956,0.0
 0008869,0.00034935,-0.00000840,-0.00005958,0.00009683,-0.00411097,0.00
 040779,0.00828293,-0.14486406,0.01284514,0.19916390,0.00010474,0.00015
 940,-0.00004140,-0.00051019,-0.00055332,-0.00017815,-0.00005389,-0.000
 05177,0.00004528,0.00004698,0.00001685,0.00003269,-0.00003086,-0.00025
 493,-0.00025573,0.00039203,0.00178223,-0.00162552,-0.00933076,0.025391
 46,0.00369976,-0.12983645,0.12176497,0.02915548,0.01129876,-0.01280052
 ,-0.00208735,0.00025444,-0.00305836,0.00272148,-0.00060396,-0.00076673
 ,-0.00018687,-0.00396810,-0.00167334,0.00399483,-0.00006214,-0.0000206
 3,-0.00004386,-0.00002988,-0.00001487,-0.00003003,-0.00025527,-0.00091
 437,0.00037058,0.00044899,-0.00006489,0.00015193,0.13229400,0.00002544
 ,-0.00000445,0.00003879,-0.00002190,0.00000147,-0.00009213,0.00003206,
 0.00000835,0.00003698,0.00000143,0.00000446,0.00001700,0.00019696,0.00
 023179,0.00016209,-0.00098440,0.00093372,-0.00014436,-0.00244935,0.002
 93815,0.00102369,0.12140785,-0.26117124,-0.03578960,0.01619177,-0.0174
 2919,-0.00538734,-0.00346296,-0.00347412,0.00171826,-0.00089250,-0.000
 02811,0.00028073,-0.00092223,0.00181052,0.00068266,0.00002849,0.000018
 37,-0.00001341,0.00000421,-0.00000170,-0.00000687,0.00026936,0.0003577
 2,0.00002860,-0.00002266,0.00005979,-0.00006209,-0.13002437,0.27561750
 ,-0.00002461,0.00004981,-0.00005576,0.00004840,0.00003244,0.00005412,-
 0.00008743,-0.00008496,-0.00010491,0.00000694,-0.00000847,-0.00004785,
 -0.00068318,-0.00064344,-0.00050328,-0.00093100,-0.00107726,-0.0024595
 8,0.00549821,-0.00901554,0.00136214,0.02831550,-0.03511620,-0.04690472
 ,-0.00309582,0.00521091,0.00540039,0.00283116,0.00142722,0.00661715,-0
 .00019598,0.00029991,-0.00111357,0.00420435,0.00060040,0.00505373,-0.0
 0008758,-0.00002854,0.00001403,-0.00002145,-0.00000989,0.00000844,-0.0
 0001193,0.00067400,-0.00005401,0.00005501,0.00026544,0.00012069,-0.034
 01053,0.03796935,0.03682249,-0.00002220,-0.00003977,-0.00002170,0.0000
 7876,0.00014218,0.00009249,-0.00002186,-0.00001584,-0.00004552,-0.0000
 0555,-0.00000720,-0.00002607,-0.00014692,-0.00015139,-0.00012564,-0.00
 023617,0.00024647,0.00041727,0.00205438,-0.00214860,0.00205676,-0.0073
 2241,0.00194022,0.00399365,-0.31171609,-0.00885955,0.10025273,-0.00896
 194,-0.00304049,0.00489382,0.00107393,0.00278091,0.00227465,0.00053594
 ,0.00030108,-0.00060032,-0.00001947,-0.00000806,0.00001761,-0.00000286
 ,-0.00000085,0.00001138,-0.00002410,0.00000942,-0.00002209,-0.00010115
 ,-0.00016107,-0.00003847,0.00003419,-0.00018910,-0.00153965,0.32546288
 ,-0.00003298,-0.00007200,-0.00001864,0.00012256,0.00018756,0.00008674,
 -0.00003143,-0.00001441,-0.00004646,-0.00001137,-0.00001109,-0.0000328
 8,-0.00010875,-0.00020927,-0.00010932,-0.00127748,0.00024247,0.0007125
 9,-0.00186144,-0.00443472,0.00091890,-0.02715978,0.00354117,0.00995730
 ,-0.00874124,-0.05997366,0.00396128,0.02597120,0.00583224,-0.00958099,
 0.00272872,-0.00443115,-0.00075427,0.00008736,-0.00141982,0.00001167,-
 0.00002451,0.00000213,0.00001719,-0.00000205,0.00000112,0.00001140,0.0
 0002065,0.00002224,-0.00001807,-0.00018557,-0.00034105,0.00005073,0.00
 034509,0.00081940,-0.00027798,0.00941331,0.05919926,0.00001420,0.00003
 824,-0.00003297,-0.00005035,-0.00005011,0.00005990,0.00000644,0.000005
 14,0.00000105,0.00001307,0.00000600,0.00001171,0.00004009,0.00012326,0
 .00000954,0.00021951,-0.00032215,0.00016083,0.00252095,0.00127813,0.00
 681447,0.00465941,-0.00074485,0.00197410,0.09985021,0.00417715,-0.0766
 1090,0.00435888,0.00091654,0.00255101,0.00234883,-0.00078653,0.0067497
 0,-0.00061421,0.00000465,-0.00089512,-0.00000914,-0.00001000,0.0000058
 6,-0.00000596,-0.00000203,-0.00000081,-0.00003215,0.00002609,0.0000166
 5,-0.00003889,-0.00002614,-0.00008432,-0.00153218,-0.00013434,-0.00365
 016,-0.10995234,-0.00442514,0.06753718,-0.00000241,-0.00000437,-0.0000
 0521,0.00001255,0.00003101,0.00001612,-0.00001207,-0.00000283,-0.00001
 252,-0.00000116,-0.00000203,-0.00000867,-0.00000893,-0.00010610,-0.000
 04827,-0.00013419,-0.00017258,-0.00033266,-0.00096815,0.00103532,0.000
 01422,-0.00013840,0.00349551,0.00280238,0.01122231,0.01564938,-0.00271
 737,-0.11239007,-0.11056837,0.02870970,-0.00704357,-0.02657005,0.00491
 916,-0.00396399,0.00038643,0.00446609,-0.00000762,-0.00000409,0.000004
 59,-0.00000091,-0.00000070,0.00000333,-0.00002364,-0.00004893,0.000024
 13,0.00008569,0.00007106,-0.00002162,0.00036735,0.00087272,-0.00023812
 ,0.00006219,-0.00047733,-0.00152608,0.11319315,-0.00000862,-0.00000897
 ,-0.00000733,0.00004324,0.00004208,0.00003775,0.00000514,0.00000601,-0
 .00000748,-0.00000402,-0.00000144,-0.00000335,0.00000033,0.00004215,0.
 00004353,-0.00015036,-0.00018790,0.00001214,0.00096796,0.00041386,-0.0
 0044663,0.00328935,-0.00297864,-0.00098699,-0.01322003,-0.01692933,0.0
 0537388,-0.11049494,-0.28400728,0.04643952,0.00218812,0.00418628,-0.00
 079659,0.00058898,0.00157849,-0.00015019,0.00000384,-0.00000112,0.0000
 0677,0.00000317,0.00000163,0.00000373,0.00002975,0.00005729,-0.0000177
 1,-0.00003382,-0.00001041,0.00000893,-0.00065889,-0.00091076,0.0002741
 3,0.00004572,0.00078515,-0.00012830,0.11747390,0.29731514,0.00000129,0
 .00000281,-0.00000032,-0.00000104,0.00000626,-0.00002589,-0.00002418,-
 0.00002713,-0.00002894,-0.00000600,0.00000199,-0.00001573,-0.00021638,
 -0.00025055,-0.00013215,-0.00036568,-0.00004334,-0.00084141,0.00012651
 ,-0.00024077,-0.00082652,0.00279427,-0.00105619,0.00669633,-0.00229330
 ,-0.00523074,0.00568482,0.02861444,0.04625339,-0.05346228,0.00464047,0
 .01008125,0.00280047,0.00447923,-0.00009829,0.00598067,-0.00000498,-0.
 00000602,0.00000726,-0.00000287,-0.00000730,0.00000201,-0.00003817,0.0
 0009956,0.00005475,0.00008132,-0.00003676,0.00001324,-0.00018495,-0.00
 026856,-0.00010085,-0.00150370,0.00005718,-0.00352399,-0.03456150,-0.0
 4959357,0.04139961,-0.00002487,-0.00001362,-0.00001706,0.00007037,0.00
 005172,0.00005192,-0.00000600,-0.00000654,-0.00002070,-0.00000707,0.00
 000108,-0.00000787,-0.00004818,-0.00002126,-0.00001922,0.00048869,-0.0
 0079898,0.00001067,0.00046513,-0.00284079,0.00285016,-0.00089663,-0.00
 095243,-0.00005083,-0.00392160,-0.00100372,0.00445256,-0.00884357,0.02
 585245,0.00464253,-0.12802597,0.12193276,0.03229276,0.01096669,-0.0137
 5097,-0.00263428,-0.00000253,-0.00000226,0.00000310,0.00000321,-0.0000
 0386,0.00000193,-0.00011906,-0.00022543,0.00000959,0.00001887,0.000021
 79,-0.00000158,-0.00006653,0.00005790,-0.00038648,-0.00052536,0.001242
 68,0.00009226,0.00026148,-0.00027348,-0.00168643,0.13024645,-0.0000595
 3,-0.00007187,-0.00000981,0.00018326,0.00021225,0.00008966,-0.00003328
 ,-0.00002355,-0.00006263,-0.00002577,-0.00000703,-0.00003885,-0.000226
 21,-0.00024889,-0.00014895,0.00102313,-0.00070957,-0.00004502,-0.00337
 730,-0.00267030,0.00135323,-0.00077748,0.00025693,0.00031247,-0.000951
 84,0.00144624,0.00039359,-0.00295174,0.00576155,0.00111845,0.12183414,
 -0.26794040,-0.04343836,0.01518755,-0.01752245,-0.00556460,-0.00000491
 ,-0.00000248,0.00001558,0.00000789,-0.00000512,0.00001239,-0.00016610,
 -0.00031235,0.00002114,-0.00000766,0.00001763,-0.00002950,0.00007082,-
 0.00002515,-0.00003984,-0.00022982,0.00016567,0.00007111,0.00024651,0.
 00049380,-0.00014721,-0.12962997,0.28042224,0.00000577,0.00003413,-0.0
 0003088,0.00002861,-0.00006086,0.00004548,-0.00000508,0.00000564,-0.00
 000462,0.00000166,0.00001053,0.00000904,0.00005987,0.00004649,-0.00004
 798,-0.00025451,0.00017311,0.00038570,0.00278980,0.00170731,0.00663871
 ,0.00001945,0.00040251,-0.00114197,0.00438539,0.00047299,0.00587715,0.
 00486211,-0.00994952,0.00244037,0.03265419,-0.04371232,-0.05192975,-0.
 00305488,0.00556081,0.00477412,0.00000622,-0.00000876,0.00000380,0.000
 00176,-0.00000707,-0.00000070,-0.00004447,0.00000345,-0.00009730,0.000
 03595,-0.00002526,-0.00002155,-0.00035822,-0.00007070,-0.00091776,0.00
 016330,-0.00050682,-0.00017152,-0.00166454,0.00002260,-0.00342904,-0.0
 3794058,0.04615846,0.04115763,-0.00000866,-0.00005077,0.00000828,0.000
 11114,0.00027244,0.00005208,-0.00003263,0.00000271,-0.00002931,-0.0000
 1309,-0.00000785,-0.00002378,0.00000894,-0.00016117,-0.00010234,-0.000
 23190,-0.00111744,-0.00116596,-0.01063913,-0.00313254,0.00558089,0.001
 55096,0.00308319,0.00207448,0.00040222,-0.00014463,-0.00062597,0.00167
 465,-0.00258841,0.00253222,-0.00780154,0.00211665,0.00465549,-0.298487
 78,-0.00771638,0.10428832,-0.00001860,-0.00000321,0.00001493,0.0000028
 6,-0.00000028,0.00001051,0.00019814,0.00000421,-0.00017518,0.00056327,
 0.00080105,-0.00024037,-0.00045944,-0.00012237,0.00036248,-0.00019741,
 -0.00002404,-0.00035461,-0.00050976,0.00020290,0.00015063,-0.00004423,
 -0.00013043,-0.00169011,0.31392078,0.00004860,0.00013748,0.00002779,-0
 .00029038,-0.00051389,-0.00025842,0.00002756,-0.00002767,0.00007709,0.
 00002610,0.00002352,0.00005226,-0.00000271,0.00027830,0.00014115,0.001
 40312,0.00144301,-0.00114840,0.02411291,0.00448202,-0.00950300,0.00245
 858,-0.00461161,-0.00060601,-0.00004429,-0.00119849,0.00001428,-0.0021
 4776,-0.00493632,0.00104971,-0.02659525,0.00459075,0.01040306,-0.00750
 662,-0.05976177,0.00372711,0.00002827,0.00000439,-0.00003118,-0.000016
 26,-0.00000899,-0.00002934,-0.00016837,0.00018604,0.00022893,-0.000374
 33,-0.00052511,0.00043242,0.00128699,0.00024499,-0.00049054,-0.0000205
 4,0.00011722,-0.00001634,-0.00130325,0.00011866,0.00051748,0.00037896,
 0.00079149,-0.00023791,0.00871481,0.05915671,0.00004649,0.00010573,-0.
 00008402,-0.00012407,-0.00029843,-0.00004955,-0.00007723,-0.00011645,-
 0.00008224,-0.00002241,0.00003114,-0.00000991,-0.00062522,-0.00070700,
 -0.00058354,-0.00149625,0.00043763,-0.00235541,0.00468093,0.00210160,0
 .00113866,0.00166644,-0.00084601,0.00595334,-0.00057708,0.00007793,-0.
 00094372,0.00236667,0.00122615,0.00666661,0.00521453,-0.00098095,0.002
 45113,0.10540177,0.00350715,-0.07996970,0.00002103,-0.00001003,-0.0000
 1156,-0.00000347,-0.00003298,-0.00001654,0.00012553,0.00025828,0.00024
 839,0.00013785,-0.00021860,-0.00000088,0.00037326,0.00001814,0.0004488
 3,-0.00031143,-0.00002065,-0.00092721,0.00016830,-0.00008906,-0.000254
 91,-0.00164268,-0.00002799,-0.00354417,-0.11533366,-0.00430629,0.07197
 843,-0.00016270,-0.00148521,0.00060968,-0.00359734,0.00829966,-0.00374
 802,-0.18192366,0.16258103,-0.03007744,0.01315120,-0.03084120,0.004525
 23,0.00131459,-0.00047102,0.00132962,-0.00064041,-0.00111341,-0.001157
 21,0.00004667,0.00007776,0.00002991,-0.00009765,0.00004836,0.00006342,
 -0.00003022,0.00004230,0.00001385,0.00000766,0.00001256,-0.00000911,0.
 00001821,0.00000645,-0.00000978,0.00013678,-0.00006565,-0.00006321,-0.
 01230348,0.02206909,-0.00807990,0.00254027,-0.00098763,0.00096637,0.00
 008857,0.00010835,0.00026637,0.00008742,0.00003295,0.00016992,-0.00003
 401,0.00000363,-0.00000828,0.00000123,0.00000639,-0.00000793,0.0000001
 6,0.00000177,0.00000102,0.00001072,0.00001876,-0.00000169,0.00001120,-
 0.00001612,0.00001072,0.18137479,-0.00042216,0.00049334,-0.00428645,0.
 00259077,0.00808814,0.01053186,0.15376282,-0.26698421,0.03996948,0.002
 48463,-0.03146918,0.00496819,-0.00204398,-0.00400020,-0.00287297,0.000
 35013,0.00077719,0.00100851,-0.00007602,-0.00002786,-0.00005705,0.0000
 3868,-0.00003579,-0.00003413,0.00002874,-0.00005587,0.00001411,-0.0000
 2335,-0.00004509,0.00000942,0.00000096,-0.00008291,0.00006043,-0.00007
 747,0.00002637,0.00013450,0.00090100,0.00359620,0.00044001,0.00086723,
 -0.00082481,-0.00011496,0.00000386,-0.00012732,-0.00011720,-0.00007348
 ,0.00000329,-0.00005905,0.00003918,-0.00000151,-0.00001097,-0.00000703
 ,-0.00000845,-0.00000039,-0.00000121,-0.00000471,-0.00001348,-0.000016
 03,-0.00002864,-0.00001880,0.00000157,0.00000926,-0.00010933,-0.158328
 83,0.29070278,0.00108910,-0.00068364,-0.00679276,-0.01525079,0.0243358
 1,0.00047618,-0.03793455,0.05750588,-0.06506561,-0.00065833,-0.0050767
 8,0.00077171,0.00186489,-0.00186966,0.00067692,-0.00013841,-0.00124187
 ,-0.00107259,0.00005257,0.00009891,-0.00000114,-0.00005191,0.00004375,
 0.00000350,0.00000304,0.00001545,-0.00001830,-0.00001287,0.00004049,-0
 .00000744,0.00007506,0.00001279,-0.00002825,-0.00000589,-0.00006157,0.
 00003269,0.01478977,-0.02130828,0.00749102,0.00089746,-0.00252420,0.00
 073011,0.00017794,0.00018596,0.00030689,-0.00009607,0.00000228,-0.0000
 3799,-0.00001050,-0.00000689,0.00001047,0.00001328,0.00000623,0.000005
 00,0.00000855,0.00000422,0.00000288,0.00000022,0.00000668,0.00000523,0
 .00001099,-0.00004384,-0.00005201,0.03517647,-0.04944172,0.06256350\\-
 0.00000303,0.00001564,0.00000770,0.00000612,-0.00000341,0.00002007,0.0
 0000582,0.00002340,-0.00002072,0.00002987,-0.00005193,-0.00001822,0.00
 000415,0.00000807,0.00001571,-0.00000007,-0.00000524,-0.00001385,0.000
 01352,0.00000770,-0.00000711,-0.00003528,-0.00003905,0.00001989,0.0000
 1974,0.00003888,-0.00000964,0.00000456,-0.00001523,-0.00001059,0.00004
 549,0.00004065,-0.00003464,-0.00002251,-0.00003474,0.00002844,-0.00000
 547,-0.00000273,0.00000166,-0.00003234,0.00001847,0.00001106,-0.000013
 35,-0.00001483,0.00000474,-0.00000448,0.00000033,0.00000524,-0.0000074
 5,0.00000273,-0.00001294,0.00000140,0.00000714,0.00000785,-0.00001291,
 0.00000792,0.00000867,0.00000804,0.00000395,0.00001400,-0.00000223,0.0
 0000050,-0.00001264,0.00000041,-0.00000824,-0.00000468\\\@


 BETTER TO HUNT IN FIELDS, FOR HEALTH UNBOUGHT
 THAN FEE THE DOCTOR FOR A NAUSEOUS DRAUGHT.
 THE WISE, FOR CURE, ON EXERCISE DEPEND;
 GOD NEVER MADE HIS WORK FOR MAN TO MEND.
     -- JOHN DRYDEN (1631-1700)
 Job cpu time:       0 days  1 hours 13 minutes 39.2 seconds.
 Elapsed time:       0 days  0 hours  3 minutes  7.7 seconds.
 File lengths (MBytes):  RWF=    229 Int=      0 D2E=      0 Chk=     10 Scr=      1
 Normal termination of Gaussian 16 at Sun Oct 13 20:03:54 2019.
real 790.42
user 18350.29
sys 81.15
Machine:
brown-a220
brown-a220
brown-a220
brown-a220
brown-a220
brown-a220
brown-a220
brown-a220
brown-a220
brown-a220
brown-a220
brown-a220
brown-a220
brown-a220
brown-a220
brown-a220
brown-a220
brown-a220
brown-a220
brown-a220
brown-a220
brown-a220
brown-a220
brown-a220
