 Entering Gaussian System, Link 0=/apps/cent7/gaussian/g16-A.03/g16-haswell/g16/g16
 Initial command:
 /apps/cent7/gaussian/g16-A.03/g16-haswell/g16/l1.exe "/scratch/brown/finej/gaussian/Gau-9754.inp" -scrdir="/scratch/brown/finej/gaussian/"
 Entering Link 1 = /apps/cent7/gaussian/g16-A.03/g16-haswell/g16/l1.exe PID=      9756.
  
 Copyright (c) 1988,1990,1992,1993,1995,1998,2003,2009,2016,
            Gaussian, Inc.  All Rights Reserved.
  
 This is part of the Gaussian(R) 16 program.  It is based on
 the Gaussian(R) 09 system (copyright 2009, Gaussian, Inc.),
 the Gaussian(R) 03 system (copyright 2003, Gaussian, Inc.),
 the Gaussian(R) 98 system (copyright 1998, Gaussian, Inc.),
 the Gaussian(R) 94 system (copyright 1995, Gaussian, Inc.),
 the Gaussian 92(TM) system (copyright 1992, Gaussian, Inc.),
 the Gaussian 90(TM) system (copyright 1990, Gaussian, Inc.),
 the Gaussian 88(TM) system (copyright 1988, Gaussian, Inc.),
 the Gaussian 86(TM) system (copyright 1986, Carnegie Mellon
 University), and the Gaussian 82(TM) system (copyright 1983,
 Carnegie Mellon University). Gaussian is a federally registered
 trademark of Gaussian, Inc.
  
 This software contains proprietary and confidential information,
 including trade secrets, belonging to Gaussian, Inc.
  
 This software is provided under written license and may be
 used, copied, transmitted, or stored only in accord with that
 written license.
  
 The following legend is applicable only to US Government
 contracts under FAR:
  
                    RESTRICTED RIGHTS LEGEND
  
 Use, reproduction and disclosure by the US Government is
 subject to restrictions as set forth in subparagraphs (a)
 and (c) of the Commercial Computer Software - Restricted
 Rights clause in FAR 52.227-19.
  
 Gaussian, Inc.
 340 Quinnipiac St., Bldg. 40, Wallingford CT 06492
  
  
 ---------------------------------------------------------------
 Warning -- This program may not be used in any manner that
 competes with the business of Gaussian, Inc. or will provide
 assistance to any competitor of Gaussian, Inc.  The licensee
 of this program is prohibited from giving any competitor of
 Gaussian, Inc. access to this program.  By using this program,
 the user acknowledges that Gaussian, Inc. is engaged in the
 business of creating and licensing software in the field of
 computational chemistry and represents and warrants to the
 licensee that it is not a competitor of Gaussian, Inc. and that
 it will not use this program in any manner prohibited above.
 ---------------------------------------------------------------
  

 Cite this work as:
 Gaussian 16, Revision A.03,
 M. J. Frisch, G. W. Trucks, H. B. Schlegel, G. E. Scuseria, 
 M. A. Robb, J. R. Cheeseman, G. Scalmani, V. Barone, 
 G. A. Petersson, H. Nakatsuji, X. Li, M. Caricato, A. V. Marenich, 
 J. Bloino, B. G. Janesko, R. Gomperts, B. Mennucci, H. P. Hratchian, 
 J. V. Ortiz, A. F. Izmaylov, J. L. Sonnenberg, D. Williams-Young, 
 F. Ding, F. Lipparini, F. Egidi, J. Goings, B. Peng, A. Petrone, 
 T. Henderson, D. Ranasinghe, V. G. Zakrzewski, J. Gao, N. Rega, 
 G. Zheng, W. Liang, M. Hada, M. Ehara, K. Toyota, R. Fukuda, 
 J. Hasegawa, M. Ishida, T. Nakajima, Y. Honda, O. Kitao, H. Nakai, 
 T. Vreven, K. Throssell, J. A. Montgomery, Jr., J. E. Peralta, 
 F. Ogliaro, M. J. Bearpark, J. J. Heyd, E. N. Brothers, K. N. Kudin, 
 V. N. Staroverov, T. A. Keith, R. Kobayashi, J. Normand, 
 K. Raghavachari, A. P. Rendell, J. C. Burant, S. S. Iyengar, 
 J. Tomasi, M. Cossi, J. M. Millam, M. Klene, C. Adamo, R. Cammi, 
 J. W. Ochterski, R. L. Martin, K. Morokuma, O. Farkas, 
 J. B. Foresman, and D. J. Fox, Gaussian, Inc., Wallingford CT, 2016.
 
 ******************************************
 Gaussian 16:  ES64L-G16RevA.03 25-Dec-2016
                30-Dec-2019 
 ******************************************
 %chk=12_p_c.chk
 %nprocshared=24
 Will use up to   24 processors via shared memory.
 %mem=80GB
 -------------------------------------------------------------------
 #p opt freq m062x/6-311++g(d,p) geom=connectivity temperature=0.001
 -------------------------------------------------------------------
 1/18=20,19=15,26=3,38=1,57=2,112=-1000/1,3;
 2/9=110,12=2,17=6,18=5,40=1/2;
 3/5=4,6=6,7=1111,11=2,25=1,30=1,71=1,74=-55/1,2,3;
 4//1;
 5/5=2,38=5/2;
 6/7=2,8=2,9=2,10=2,28=1/1;
 7//1,2,3,16;
 1/18=20,19=15,26=3/3(2);
 2/9=110/2;
 99//99;
 2/9=110/2;
 3/5=4,6=6,7=1111,11=2,25=1,30=1,71=1,74=-55/1,2,3;
 4/5=5,16=3,69=1/1;
 5/5=2,38=5/2;
 7//1,2,3,16;
 1/18=20,19=15,26=3/3(-5);
 2/9=110/2;
 6/7=2,8=2,9=2,10=2,19=2,28=1/1;
 99/9=1/99;
 Leave Link    1 at Mon Dec 30 16:44:38 2019, MaxMem= 10737418240 cpu:               1.5 elap:               0.1
 (Enter /apps/cent7/gaussian/g16-A.03/g16-haswell/g16/l101.exe)
 -------------------
 Title Card Required
 -------------------
 Symbolic Z-matrix:
 Charge =  1 Multiplicity = 1
 O                     1.2833    1.4484   -0.3003 
 C                     0.9265    0.7424    0.6722 
 N                     1.2481    1.0835    1.9357 
 O                     1.9756    2.1309    2.2092 
 O                     0.2047   -0.3985    0.4987 
 C                    -0.2583   -0.9398   -0.7436 
 C                    -1.0036   -2.1923   -0.4724 
 C                    -2.1655   -2.1635    0.3357 
 C                    -2.8856   -3.343     0.6005 
 C                    -2.4534   -4.5677    0.0619 
 C                    -1.2941   -4.6134   -0.732 
 C                    -0.5734   -3.4341   -0.9968 
 H                     0.9282    0.5271    2.7155 
 H                     2.42821   1.99673   3.04511 
 H                    -0.9677   -0.2172   -1.147 
 H                     0.6324   -1.2053   -1.3129 
 H                    -2.5103   -1.2204    0.7596 
 H                    -3.7792   -3.308     1.2237 
 H                    -3.0161   -5.4801    0.2595 
 H                    -0.9537   -5.564    -1.1426 
 H                     0.3247   -3.4828   -1.6127 
 H                     2.21692   1.57971  -0.48118 
 
 ITRead=  0  0  0  0  0  0  0  0  0  0  0  0  0  0  0  0  0  0  0  0
 ITRead=  0  0
 MicOpt= -1 -1 -1 -1 -1 -1 -1 -1 -1 -1 -1 -1 -1 -1 -1 -1 -1 -1 -1 -1
 MicOpt= -1 -1
 NAtoms=     22 NQM=       22 NQMF=       0 NMMI=      0 NMMIF=      0
                NMic=       0 NMicF=      0.
                    Isotopes and Nuclear Properties:
 (Nuclear quadrupole moments (NQMom) in fm**2, nuclear magnetic moments (NMagM)
  in nuclear magnetons)

  Atom         1           2           3           4           5           6           7           8           9          10
 IAtWgt=          16          12          14          16          16          12          12          12          12          12
 AtmWgt=  15.9949146  12.0000000  14.0030740  15.9949146  15.9949146  12.0000000  12.0000000  12.0000000  12.0000000  12.0000000
 NucSpn=           0           0           2           0           0           0           0           0           0           0
 AtZEff=  -0.0000000  -0.0000000  -0.0000000  -0.0000000  -0.0000000  -0.0000000  -0.0000000  -0.0000000  -0.0000000  -0.0000000
 NQMom=    0.0000000   0.0000000   2.0440000   0.0000000   0.0000000   0.0000000   0.0000000   0.0000000   0.0000000   0.0000000
 NMagM=    0.0000000   0.0000000   0.4037610   0.0000000   0.0000000   0.0000000   0.0000000   0.0000000   0.0000000   0.0000000
 AtZNuc=   8.0000000   6.0000000   7.0000000   8.0000000   8.0000000   6.0000000   6.0000000   6.0000000   6.0000000   6.0000000

  Atom        11          12          13          14          15          16          17          18          19          20
 IAtWgt=          12          12           1           1           1           1           1           1           1           1
 AtmWgt=  12.0000000  12.0000000   1.0078250   1.0078250   1.0078250   1.0078250   1.0078250   1.0078250   1.0078250   1.0078250
 NucSpn=           0           0           1           1           1           1           1           1           1           1
 AtZEff=  -0.0000000  -0.0000000  -0.0000000  -0.0000000  -0.0000000  -0.0000000  -0.0000000  -0.0000000  -0.0000000  -0.0000000
 NQMom=    0.0000000   0.0000000   0.0000000   0.0000000   0.0000000   0.0000000   0.0000000   0.0000000   0.0000000   0.0000000
 NMagM=    0.0000000   0.0000000   2.7928460   2.7928460   2.7928460   2.7928460   2.7928460   2.7928460   2.7928460   2.7928460
 AtZNuc=   6.0000000   6.0000000   1.0000000   1.0000000   1.0000000   1.0000000   1.0000000   1.0000000   1.0000000   1.0000000

  Atom        21          22
 IAtWgt=           1           1
 AtmWgt=   1.0078250   1.0078250
 NucSpn=           1           1
 AtZEff=  -0.0000000  -0.0000000
 NQMom=    0.0000000   0.0000000
 NMagM=    2.7928460   2.7928460
 AtZNuc=   1.0000000   1.0000000
 Leave Link  101 at Mon Dec 30 16:44:39 2019, MaxMem= 10737418240 cpu:               8.3 elap:               0.4
 (Enter /apps/cent7/gaussian/g16-A.03/g16-haswell/g16/l103.exe)

 GradGradGradGradGradGradGradGradGradGradGradGradGradGradGradGradGradGrad
 Berny optimization.
 Initialization pass.
                           ----------------------------
                           !    Initial Parameters    !
                           ! (Angstroms and Degrees)  !
 --------------------------                            --------------------------
 ! Name  Definition              Value          Derivative Info.                !
 --------------------------------------------------------------------------------
 ! R1    R(1,2)                  1.2536         estimate D2E/DX2                !
 ! R2    R(1,22)                 0.96           estimate D2E/DX2                !
 ! R3    R(2,3)                  1.3477         estimate D2E/DX2                !
 ! R4    R(2,5)                  1.3612         estimate D2E/DX2                !
 ! R5    R(3,4)                  1.3043         estimate D2E/DX2                !
 ! R6    R(3,13)                 1.01           estimate D2E/DX2                !
 ! R7    R(4,14)                 0.96           estimate D2E/DX2                !
 ! R8    R(5,6)                  1.432          estimate D2E/DX2                !
 ! R9    R(6,7)                  1.4825         estimate D2E/DX2                !
 ! R10   R(6,15)                 1.09           estimate D2E/DX2                !
 ! R11   R(6,16)                 1.0899         estimate D2E/DX2                !
 ! R12   R(7,8)                  1.4156         estimate D2E/DX2                !
 ! R13   R(7,12)                 1.415          estimate D2E/DX2                !
 ! R14   R(8,9)                  1.4071         estimate D2E/DX2                !
 ! R15   R(8,17)                 1.09           estimate D2E/DX2                !
 ! R16   R(9,10)                 1.406          estimate D2E/DX2                !
 ! R17   R(9,18)                 1.09           estimate D2E/DX2                !
 ! R18   R(10,11)                1.4058         estimate D2E/DX2                !
 ! R19   R(10,19)                1.09           estimate D2E/DX2                !
 ! R20   R(11,12)                1.4072         estimate D2E/DX2                !
 ! R21   R(11,20)                1.09           estimate D2E/DX2                !
 ! R22   R(12,21)                1.0901         estimate D2E/DX2                !
 ! A1    A(2,1,22)             120.0            estimate D2E/DX2                !
 ! A2    A(1,2,3)              121.1216         estimate D2E/DX2                !
 ! A3    A(1,2,5)              121.6074         estimate D2E/DX2                !
 ! A4    A(3,2,5)              117.2708         estimate D2E/DX2                !
 ! A5    A(2,3,4)              122.206          estimate D2E/DX2                !
 ! A6    A(2,3,13)             120.5884         estimate D2E/DX2                !
 ! A7    A(4,3,13)             117.2056         estimate D2E/DX2                !
 ! A8    A(3,4,14)             109.4712         estimate D2E/DX2                !
 ! A9    A(2,5,6)              126.7883         estimate D2E/DX2                !
 ! A10   A(5,6,7)              108.8566         estimate D2E/DX2                !
 ! A11   A(5,6,15)             106.3135         estimate D2E/DX2                !
 ! A12   A(5,6,16)             106.3191         estimate D2E/DX2                !
 ! A13   A(7,6,15)             107.4934         estimate D2E/DX2                !
 ! A14   A(7,6,16)             107.493          estimate D2E/DX2                !
 ! A15   A(15,6,16)            120.0022         estimate D2E/DX2                !
 ! A16   A(6,7,8)              119.9923         estimate D2E/DX2                !
 ! A17   A(6,7,12)             121.3872         estimate D2E/DX2                !
 ! A18   A(8,7,12)             118.6183         estimate D2E/DX2                !
 ! A19   A(7,8,9)              120.6926         estimate D2E/DX2                !
 ! A20   A(7,8,17)             119.9517         estimate D2E/DX2                !
 ! A21   A(9,8,17)             119.3556         estimate D2E/DX2                !
 ! A22   A(8,9,10)             120.0509         estimate D2E/DX2                !
 ! A23   A(8,9,18)             120.0153         estimate D2E/DX2                !
 ! A24   A(10,9,18)            119.9339         estimate D2E/DX2                !
 ! A25   A(9,10,11)            119.8773         estimate D2E/DX2                !
 ! A26   A(9,10,19)            120.0654         estimate D2E/DX2                !
 ! A27   A(11,10,19)           120.0572         estimate D2E/DX2                !
 ! A28   A(10,11,12)           120.0898         estimate D2E/DX2                !
 ! A29   A(10,11,20)           119.908          estimate D2E/DX2                !
 ! A30   A(12,11,20)           120.0022         estimate D2E/DX2                !
 ! A31   A(7,12,11)            120.6655         estimate D2E/DX2                !
 ! A32   A(7,12,21)            119.9399         estimate D2E/DX2                !
 ! A33   A(11,12,21)           119.3947         estimate D2E/DX2                !
 ! D1    D(22,1,2,3)            61.9633         estimate D2E/DX2                !
 ! D2    D(22,1,2,5)          -117.827          estimate D2E/DX2                !
 ! D3    D(1,2,3,4)             -2.2155         estimate D2E/DX2                !
 ! D4    D(1,2,3,13)           177.777          estimate D2E/DX2                !
 ! D5    D(5,2,3,4)            177.5837         estimate D2E/DX2                !
 ! D6    D(5,2,3,13)            -2.4239         estimate D2E/DX2                !
 ! D7    D(1,2,5,6)             -1.0173         estimate D2E/DX2                !
 ! D8    D(3,2,5,6)            179.1846         estimate D2E/DX2                !
 ! D9    D(2,3,4,14)          -153.8081         estimate D2E/DX2                !
 ! D10   D(13,3,4,14)           26.1992         estimate D2E/DX2                !
 ! D11   D(2,5,6,7)           -179.9698         estimate D2E/DX2                !
 ! D12   D(2,5,6,15)           -64.4435         estimate D2E/DX2                !
 ! D13   D(2,5,6,16)            64.5013         estimate D2E/DX2                !
 ! D14   D(5,6,7,8)             60.86           estimate D2E/DX2                !
 ! D15   D(5,6,7,12)          -118.5923         estimate D2E/DX2                !
 ! D16   D(15,6,7,8)           -53.9025         estimate D2E/DX2                !
 ! D17   D(15,6,7,12)          126.6452         estimate D2E/DX2                !
 ! D18   D(16,6,7,8)           175.6287         estimate D2E/DX2                !
 ! D19   D(16,6,7,12)           -3.8235         estimate D2E/DX2                !
 ! D20   D(6,7,8,9)            179.8772         estimate D2E/DX2                !
 ! D21   D(6,7,8,17)            -0.1162         estimate D2E/DX2                !
 ! D22   D(12,7,8,9)            -0.6554         estimate D2E/DX2                !
 ! D23   D(12,7,8,17)          179.3511         estimate D2E/DX2                !
 ! D24   D(6,7,12,11)         -179.8679         estimate D2E/DX2                !
 ! D25   D(6,7,12,21)            0.1289         estimate D2E/DX2                !
 ! D26   D(8,7,12,11)            0.6725         estimate D2E/DX2                !
 ! D27   D(8,7,12,21)         -179.3307         estimate D2E/DX2                !
 ! D28   D(7,8,9,10)             0.0498         estimate D2E/DX2                !
 ! D29   D(7,8,9,18)          -179.959          estimate D2E/DX2                !
 ! D30   D(17,8,9,10)         -179.9567         estimate D2E/DX2                !
 ! D31   D(17,8,9,18)            0.0345         estimate D2E/DX2                !
 ! D32   D(8,9,10,11)            0.551          estimate D2E/DX2                !
 ! D33   D(8,9,10,19)         -179.4499         estimate D2E/DX2                !
 ! D34   D(18,9,10,11)        -179.4401         estimate D2E/DX2                !
 ! D35   D(18,9,10,19)           0.5589         estimate D2E/DX2                !
 ! D36   D(9,10,11,12)          -0.534          estimate D2E/DX2                !
 ! D37   D(9,10,11,20)         179.4653         estimate D2E/DX2                !
 ! D38   D(19,10,11,12)        179.4669         estimate D2E/DX2                !
 ! D39   D(19,10,11,20)         -0.5337         estimate D2E/DX2                !
 ! D40   D(10,11,12,7)          -0.0844         estimate D2E/DX2                !
 ! D41   D(10,11,12,21)        179.9188         estimate D2E/DX2                !
 ! D42   D(20,11,12,7)         179.9162         estimate D2E/DX2                !
 ! D43   D(20,11,12,21)         -0.0806         estimate D2E/DX2                !
 --------------------------------------------------------------------------------
 Trust Radius=3.00D-01 FncErr=1.00D-07 GrdErr=1.00D-06 EigMax=2.50D+02 EigMin=1.00D-04
 Number of steps in this run=    108 maximum allowed number of steps=    132.
 GradGradGradGradGradGradGradGradGradGradGradGradGradGradGradGradGradGrad

 Leave Link  103 at Mon Dec 30 16:44:39 2019, MaxMem= 10737418240 cpu:               1.0 elap:               0.1
 (Enter /apps/cent7/gaussian/g16-A.03/g16-haswell/g16/l202.exe)
                          Input orientation:                          
 ---------------------------------------------------------------------
 Center     Atomic      Atomic             Coordinates (Angstroms)
 Number     Number       Type             X           Y           Z
 ---------------------------------------------------------------------
      1          8           0        1.283300    1.448400   -0.300300
      2          6           0        0.926500    0.742400    0.672200
      3          7           0        1.248100    1.083500    1.935700
      4          8           0        1.975600    2.130900    2.209200
      5          8           0        0.204700   -0.398500    0.498700
      6          6           0       -0.258300   -0.939800   -0.743600
      7          6           0       -1.003600   -2.192300   -0.472400
      8          6           0       -2.165500   -2.163500    0.335700
      9          6           0       -2.885600   -3.343000    0.600500
     10          6           0       -2.453400   -4.567700    0.061900
     11          6           0       -1.294100   -4.613400   -0.732000
     12          6           0       -0.573400   -3.434100   -0.996800
     13          1           0        0.928200    0.527100    2.715500
     14          1           0        2.428213    1.996728    3.045106
     15          1           0       -0.967700   -0.217200   -1.147000
     16          1           0        0.632400   -1.205300   -1.312900
     17          1           0       -2.510300   -1.220400    0.759600
     18          1           0       -3.779200   -3.308000    1.223700
     19          1           0       -3.016100   -5.480100    0.259500
     20          1           0       -0.953700   -5.564000   -1.142600
     21          1           0        0.324700   -3.482800   -1.612700
     22          1           0        2.216917    1.579712   -0.481179
 ---------------------------------------------------------------------
                    Distance matrix (angstroms):
                    1          2          3          4          5
     1  O    0.000000
     2  C    1.253594   0.000000
     3  N    2.265852   1.347668   0.000000
     4  O    2.691222   2.321834   1.304264   0.000000
     5  O    2.283160   1.361158   2.313002   3.529839   0.000000
     6  C    2.876898   2.497606   3.679896   4.810253   1.432021
     7  C    4.302816   3.694301   4.647576   5.895479   2.370811
     8  C    5.034336   4.256519   4.975507   6.253046   2.959669
     9  C    6.414724   5.588179   6.201946   7.495516   4.269707
    10  C    7.091373   6.324030   7.010584   8.312532   4.963720
    11  C    6.601119   5.965521   6.784841   8.051533   4.639656
    12  C    5.269844   4.741141   5.685607   6.909780   3.472294
    13  H    3.173317   2.054612   1.009953   1.981303   2.508862
    14  H    3.578160   3.075575   1.859418   0.960000   4.143104
    15  H    2.925427   2.796125   4.013057   5.043874   2.028724
    16  H    2.913958   2.796543   4.021330   5.033846   2.028731
    17  H    4.757865   3.958765   4.562536   5.784103   2.848651
    18  H    7.111598   6.233258   6.713119   7.979384   4.986208
    19  H    8.173269   7.377935   8.004617   9.308368   6.021082
    20  H    7.408603   6.826370   7.649386   8.889705   5.542395
    21  H    5.192113   4.840996   5.856185   6.988993   3.739695
    22  H    0.960000   1.922641   2.650686   2.756843   2.987055
                    6          7          8          9         10
     6  C    0.000000
     7  C    1.482490   0.000000
     8  C    2.509929   1.415580   0.000000
     9  C    3.805874   2.452988   1.407083   0.000000
    10  C    4.316127   2.833712   2.436807   1.405979   0.000000
    11  C    3.816851   2.452245   2.810931   2.433587   1.405824
    12  C    2.526842   1.414968   2.434084   2.811750   2.437272
    13  H    3.940171   4.614076   4.740649   5.830606   6.665868
    14  H    5.494983   6.457410   6.763917   7.919937   8.707547
    15  H    1.090014   2.087437   2.724189   4.062354   4.753482
    16  H    1.089926   2.087368   3.385893   4.539514   4.766337
    17  H    2.722104   2.175444   1.089961   2.161387   3.419713
    18  H    4.677112   3.438822   2.168514   1.090011   2.166649
    19  H    5.406107   3.923705   3.424786   2.168065   1.090023
    20  H    4.693187   3.438025   3.900927   3.421034   2.166226
    21  H    2.749922   2.174869   3.426063   3.901772   3.420400
    22  H    3.541681   4.959826   5.821039   7.172084   7.739345
                   11         12         13         14         15
    11  C    0.000000
    12  C    1.407223   0.000000
    13  H    6.576368   5.632680   0.000000
    14  H    8.474428   7.405442   2.125673   0.000000
    15  H    4.427791   3.244453   4.366615   5.831591   0.000000
    16  H    3.957776   2.553708   4.395078   5.698258   1.887905
    17  H    3.900828   3.425929   4.324648   6.321579   2.649745
    18  H    3.421192   3.901753   6.252445   8.365981   4.803935
    19  H    2.167839   3.425082   7.594464   9.659353   5.819992
    20  H    1.090002   2.168493   7.451710   9.281100   5.346820
    21  H    2.162037   1.090086   5.931005   7.493007   3.542784
    22  H    7.123537   5.761080   3.603823   3.557139   3.716718
                   16         17         18         19         20
    16  H    0.000000
    17  H    3.764578   0.000000
    18  H    5.506169   2.486678   0.000000
    19  H    5.835915   4.318678   2.496001   0.000000
    20  H    4.641442   4.990814   4.321153   2.495279   0.000000
    21  H    2.317664   4.333992   4.991765   4.319176   2.487307
    22  H    3.310399   5.632649   7.921474   8.818957   7.843654
                   21         22
    21  H    0.000000
    22  H    5.521761   0.000000
 Stoichiometry    C8H10NO3(1+)
 Framework group  C1[X(C8H10NO3)]
 Deg. of freedom    60
 Full point group                 C1      NOp   1
 Largest Abelian subgroup         C1      NOp   1
 Largest concise Abelian subgroup C1      NOp   1
                         Standard orientation:                         
 ---------------------------------------------------------------------
 Center     Atomic      Atomic             Coordinates (Angstroms)
 Number     Number       Type             X           Y           Z
 ---------------------------------------------------------------------
      1          8           0       -2.855946   -1.129907    0.654385
      2          6           0       -2.314331   -0.150057    0.090430
      3          7           0       -3.053839    0.823443   -0.476698
      4          8           0       -4.356973    0.778283   -0.506822
      5          8           0       -0.960655   -0.025695    0.020818
      6          6           0        0.012235   -0.925079    0.564212
      7          6           0        1.367188   -0.406699    0.258989
      8          6           0        1.767871    0.858976    0.750299
      9          6           0        3.051269    1.364112    0.471709
     10          6           0        3.951376    0.611291   -0.302787
     11          6           0        3.562628   -0.641725   -0.807928
     12          6           0        2.279080   -1.147160   -0.529874
     13          1           0       -2.609736    1.625901   -0.899591
     14          1           0       -4.677517    1.285742   -1.256046
     15          1           0       -0.113913   -0.895145    1.646488
     16          1           0       -0.107115   -1.866122    0.027433
     17          1           0        1.078916    1.452439    1.351263
     18          1           0        3.348511    2.339794    0.856178
     19          1           0        4.948791    0.998413   -0.511236
     20          1           0        4.256974   -1.221886   -1.415713
     21          1           0        1.989012   -2.119431   -0.928420
     22          1           0       -3.412357   -1.727218    0.149186
 ---------------------------------------------------------------------
 Rotational constants (GHZ):           2.7118984           0.3692249           0.3479921
 Leave Link  202 at Mon Dec 30 16:44:39 2019, MaxMem= 10737418240 cpu:               0.6 elap:               0.0
 (Enter /apps/cent7/gaussian/g16-A.03/g16-haswell/g16/l301.exe)
 Standard basis: 6-311++G(d,p) (5D, 7F)
 Ernie: Thresh=  0.10000D-02 Tol=  0.10000D-05 Strict=F.
 There are   346 symmetry adapted cartesian basis functions of A   symmetry.
 There are   334 symmetry adapted basis functions of A   symmetry.
   334 basis functions,   522 primitive gaussians,   346 cartesian basis functions
    44 alpha electrons       44 beta electrons
       nuclear repulsion energy       667.8849173531 Hartrees.
 IExCor= 4336 DFT=T Ex+Corr=M062X ExCW=0 ScaHFX=  0.540000
 ScaDFX=  1.000000  1.000000  1.000000  1.000000 ScalE2=  1.000000  1.000000
 IRadAn=      5 IRanWt=     -1 IRanGd=            0 ICorTp=0 IEmpDi=  4
 NAtoms=   22 NActive=   22 NUniq=   22 SFac= 1.00D+00 NAtFMM=   60 NAOKFM=F Big=F
 Integral buffers will be    131072 words long.
 Raffenetti 2 integral format.
 Two-electron integral symmetry is turned on.
 Leave Link  301 at Mon Dec 30 16:44:39 2019, MaxMem= 10737418240 cpu:               1.3 elap:               0.1
 (Enter /apps/cent7/gaussian/g16-A.03/g16-haswell/g16/l302.exe)
 NPDir=0 NMtPBC=     1 NCelOv=     1 NCel=       1 NClECP=     1 NCelD=      1
         NCelK=      1 NCelE2=     1 NClLst=     1 CellRange=     0.0.
 One-electron integrals computed using PRISM.
 One-electron integral symmetry used in STVInt
 NBasis=   334 RedAO= T EigKep=  2.92D-06  NBF=   334
 NBsUse=   333 1.00D-06 EigRej=  9.79D-07 NBFU=   333
 Precomputing XC quadrature grid using
 IXCGrd= 4 IRadAn=           5 IRanWt=          -1 IRanGd=           0 AccXCQ= 0.00D+00.
 Generated NRdTot=       0 NPtTot=           0 NUsed=           0 NTot=          32
 NSgBfM=   345   345   345   345   345 MxSgAt=    22 MxSgA2=    22.
 Leave Link  302 at Mon Dec 30 16:44:39 2019, MaxMem= 10737418240 cpu:               5.3 elap:               0.2
 (Enter /apps/cent7/gaussian/g16-A.03/g16-haswell/g16/l303.exe)
 DipDrv:  MaxL=1.
 Leave Link  303 at Mon Dec 30 16:44:39 2019, MaxMem= 10737418240 cpu:               1.0 elap:               0.1
 (Enter /apps/cent7/gaussian/g16-A.03/g16-haswell/g16/l401.exe)
 ExpMin= 3.60D-02 ExpMax= 8.59D+03 ExpMxC= 1.30D+03 IAcc=3 IRadAn=         5 AccDes= 0.00D+00
 Harris functional with IExCor= 1009 and IRadAn=       5 diagonalized for initial guess.
 HarFok:  IExCor= 1009 AccDes= 0.00D+00 IRadAn=         5 IDoV= 1 UseB2=F ITyADJ=14
 ICtDFT=  3500011 ScaDFX=  1.000000  1.000000  1.000000  1.000000
 FoFCou: FMM=F IPFlag=           0 FMFlag=      100000 FMFlg1=           0
         NFxFlg=           0 DoJE=T BraDBF=F KetDBF=T FulRan=T
         wScrn=  0.000000 ICntrl=       500 IOpCl=  0 I1Cent=   200000004 NGrid=           0
         NMat0=    1 NMatS0=      1 NMatT0=    0 NMatD0=    1 NMtDS0=    0 NMtDT0=    0
 Petite list used in FoFCou.
 Harris En= -590.630044486067    
 JPrj=0 DoOrth=F DoCkMO=F.
 Leave Link  401 at Mon Dec 30 16:44:40 2019, MaxMem= 10737418240 cpu:              13.3 elap:               0.6
 (Enter /apps/cent7/gaussian/g16-A.03/g16-haswell/g16/l502.exe)
 Integral symmetry usage will be decided dynamically.
 Closed shell SCF:
 Using DIIS extrapolation, IDIIS=  1040.
 NGot= 10737418240 LenX= 10737167118 LenY= 10737046961
 Requested convergence on RMS density matrix=1.00D-08 within 128 cycles.
 Requested convergence on MAX density matrix=1.00D-06.
 Requested convergence on             energy=1.00D-06.
 No special actions if energy rises.
 Fock matrices will be formed incrementally for  20 cycles.

 Cycle   1  Pass 1  IDiag  1:
 FoFJK:  IHMeth= 1 ICntrl=       0 DoSepK=F KAlg= 0 I1Cent=           0 FoldK=F
 IRaf= 880000000 NMat=       1 IRICut=       1 DoRegI=T DoRafI=F ISym2E= 0 IDoP0=0 IntGTp=1.
 FoFCou: FMM=F IPFlag=           0 FMFlag=      100000 FMFlg1=           0
         NFxFlg=           0 DoJE=F BraDBF=F KetDBF=F FulRan=T
         wScrn=  0.000000 ICntrl=         0 IOpCl=  0 I1Cent=           0 NGrid=           0
         NMat0=    1 NMatS0=      1 NMatT0=    0 NMatD0=    1 NMtDS0=    0 NMtDT0=    0
 Symmetry not used in FoFCou.
 E= -590.621710405175    
 DIIS: error= 3.13D-02 at cycle   1 NSaved=   1.
 NSaved= 1 IEnMin= 1 EnMin= -590.621710405175     IErMin= 1 ErrMin= 3.13D-02
 ErrMax= 3.13D-02  0.00D+00 EMaxC= 1.00D-01 BMatC= 3.64D-01 BMatP= 3.64D-01
 IDIUse=3 WtCom= 6.87D-01 WtEn= 3.13D-01
 Coeff-Com:  0.100D+01
 Coeff-En:   0.100D+01
 Coeff:      0.100D+01
 Gap=     0.551 Goal=   None    Shift=    0.000
 GapD=    0.551 DampG=2.000 DampE=0.500 DampFc=1.0000 IDamp=-1.
 RMSDP=2.27D-02 MaxDP=2.34D+00              OVMax= 1.61D-01

 Cycle   2  Pass 1  IDiag  1:
 RMSU=  2.26D-02    CP:  9.83D-01
 E= -590.675771173082     Delta-E=       -0.054060767907 Rises=F Damp=F
 DIIS: error= 2.31D-02 at cycle   2 NSaved=   2.
 NSaved= 2 IEnMin= 2 EnMin= -590.675771173082     IErMin= 2 ErrMin= 2.31D-02
 ErrMax= 2.31D-02  0.00D+00 EMaxC= 1.00D-01 BMatC= 2.40D-01 BMatP= 3.64D-01
 IDIUse=3 WtCom= 7.69D-01 WtEn= 2.31D-01
 Coeff-Com:  0.442D+00 0.558D+00
 Coeff-En:   0.430D+00 0.570D+00
 Coeff:      0.439D+00 0.561D+00
 Gap=     0.242 Goal=   None    Shift=    0.000
 RMSDP=1.23D-02 MaxDP=1.16D+00 DE=-5.41D-02 OVMax= 7.82D-02

 Cycle   3  Pass 1  IDiag  1:
 RMSU=  2.52D-03    CP:  9.49D-01  4.70D-01
 E= -590.865160309172     Delta-E=       -0.189389136089 Rises=F Damp=F
 DIIS: error= 4.61D-03 at cycle   3 NSaved=   3.
 NSaved= 3 IEnMin= 3 EnMin= -590.865160309172     IErMin= 3 ErrMin= 4.61D-03
 ErrMax= 4.61D-03  0.00D+00 EMaxC= 1.00D-01 BMatC= 1.15D-02 BMatP= 2.40D-01
 IDIUse=3 WtCom= 9.54D-01 WtEn= 4.61D-02
 Coeff-Com:  0.631D-01 0.203D+00 0.734D+00
 Coeff-En:   0.000D+00 0.000D+00 0.100D+01
 Coeff:      0.602D-01 0.194D+00 0.746D+00
 Gap=     0.237 Goal=   None    Shift=    0.000
 RMSDP=2.70D-03 MaxDP=4.26D-01 DE=-1.89D-01 OVMax= 1.69D-02

 Cycle   4  Pass 1  IDiag  1:
 RMSU=  8.95D-04    CP:  9.09D-01  5.52D-01  8.42D-01
 E= -590.872555838714     Delta-E=       -0.007395529543 Rises=F Damp=F
 DIIS: error= 1.31D-03 at cycle   4 NSaved=   4.
 NSaved= 4 IEnMin= 4 EnMin= -590.872555838714     IErMin= 4 ErrMin= 1.31D-03
 ErrMax= 1.31D-03  0.00D+00 EMaxC= 1.00D-01 BMatC= 1.02D-03 BMatP= 1.15D-02
 IDIUse=3 WtCom= 9.87D-01 WtEn= 1.31D-02
 Coeff-Com:  0.472D-02 0.565D-01 0.326D+00 0.613D+00
 Coeff-En:   0.000D+00 0.000D+00 0.000D+00 0.100D+01
 Coeff:      0.466D-02 0.558D-01 0.322D+00 0.618D+00
 Gap=     0.232 Goal=   None    Shift=    0.000
 RMSDP=5.56D-04 MaxDP=6.86D-02 DE=-7.40D-03 OVMax= 5.37D-03

 Cycle   5  Pass 1  IDiag  1:
 RMSU=  2.86D-04    CP:  9.04D-01  5.71D-01  8.21D-01  9.80D-01
 E= -590.873316637468     Delta-E=       -0.000760798753 Rises=F Damp=F
 DIIS: error= 3.91D-04 at cycle   5 NSaved=   5.
 NSaved= 5 IEnMin= 5 EnMin= -590.873316637468     IErMin= 5 ErrMin= 3.91D-04
 ErrMax= 3.91D-04  0.00D+00 EMaxC= 1.00D-01 BMatC= 6.25D-05 BMatP= 1.02D-03
 IDIUse=3 WtCom= 9.96D-01 WtEn= 3.91D-03
 Coeff-Com: -0.234D-02 0.103D-01 0.825D-01 0.256D+00 0.653D+00
 Coeff-En:   0.000D+00 0.000D+00 0.000D+00 0.000D+00 0.100D+01
 Coeff:     -0.233D-02 0.102D-01 0.821D-01 0.255D+00 0.655D+00
 Gap=     0.234 Goal=   None    Shift=    0.000
 RMSDP=2.06D-04 MaxDP=3.13D-02 DE=-7.61D-04 OVMax= 2.51D-03

 Cycle   6  Pass 1  IDiag  1:
 RMSU=  6.66D-05    CP:  9.07D-01  5.66D-01  8.28D-01  9.48D-01  8.25D-01
 E= -590.873362615452     Delta-E=       -0.000045977984 Rises=F Damp=F
 DIIS: error= 1.43D-04 at cycle   6 NSaved=   6.
 NSaved= 6 IEnMin= 6 EnMin= -590.873362615452     IErMin= 6 ErrMin= 1.43D-04
 ErrMax= 1.43D-04  0.00D+00 EMaxC= 1.00D-01 BMatC= 7.00D-06 BMatP= 6.25D-05
 IDIUse=3 WtCom= 9.99D-01 WtEn= 1.43D-03
 Coeff-Com: -0.139D-02 0.591D-03 0.130D-01 0.703D-01 0.309D+00 0.609D+00
 Coeff-En:   0.000D+00 0.000D+00 0.000D+00 0.000D+00 0.000D+00 0.100D+01
 Coeff:     -0.139D-02 0.590D-03 0.130D-01 0.702D-01 0.308D+00 0.609D+00
 Gap=     0.234 Goal=   None    Shift=    0.000
 RMSDP=3.34D-05 MaxDP=4.05D-03 DE=-4.60D-05 OVMax= 4.94D-04

 Cycle   7  Pass 1  IDiag  1:
 RMSU=  2.32D-05    CP:  9.08D-01  5.65D-01  8.27D-01  9.46D-01  8.29D-01
                    CP:  9.51D-01
 E= -590.873368137031     Delta-E=       -0.000005521580 Rises=F Damp=F
 DIIS: error= 3.83D-05 at cycle   7 NSaved=   7.
 NSaved= 7 IEnMin= 7 EnMin= -590.873368137031     IErMin= 7 ErrMin= 3.83D-05
 ErrMax= 3.83D-05  0.00D+00 EMaxC= 1.00D-01 BMatC= 5.62D-07 BMatP= 7.00D-06
 IDIUse=1 WtCom= 1.00D+00 WtEn= 0.00D+00
 Coeff-Com: -0.141D-03-0.154D-02-0.931D-02-0.158D-01 0.168D-01 0.219D+00
 Coeff-Com:  0.791D+00
 Coeff:     -0.141D-03-0.154D-02-0.931D-02-0.158D-01 0.168D-01 0.219D+00
 Coeff:      0.791D+00
 Gap=     0.234 Goal=   None    Shift=    0.000
 RMSDP=2.33D-05 MaxDP=3.25D-03 DE=-5.52D-06 OVMax= 3.51D-04

 Cycle   8  Pass 1  IDiag  1:
 RMSU=  7.17D-06    CP:  9.07D-01  5.66D-01  8.26D-01  9.54D-01  8.49D-01
                    CP:  1.02D+00  8.62D-01
 E= -590.873368718335     Delta-E=       -0.000000581304 Rises=F Damp=F
 DIIS: error= 1.57D-05 at cycle   8 NSaved=   8.
 NSaved= 8 IEnMin= 8 EnMin= -590.873368718335     IErMin= 8 ErrMin= 1.57D-05
 ErrMax= 1.57D-05  0.00D+00 EMaxC= 1.00D-01 BMatC= 9.76D-08 BMatP= 5.62D-07
 IDIUse=1 WtCom= 1.00D+00 WtEn= 0.00D+00
 Coeff-Com:  0.577D-04-0.715D-03-0.518D-02-0.130D-01-0.169D-01 0.337D-01
 Coeff-Com:  0.351D+00 0.650D+00
 Coeff:      0.577D-04-0.715D-03-0.518D-02-0.130D-01-0.169D-01 0.337D-01
 Coeff:      0.351D+00 0.650D+00
 Gap=     0.234 Goal=   None    Shift=    0.000
 RMSDP=5.25D-06 MaxDP=5.06D-04 DE=-5.81D-07 OVMax= 1.17D-04

 Cycle   9  Pass 1  IDiag  1:
 RMSU=  2.56D-06    CP:  9.07D-01  5.65D-01  8.26D-01  9.54D-01  8.50D-01
                    CP:  1.02D+00  9.43D-01  8.56D-01
 E= -590.873368804606     Delta-E=       -0.000000086271 Rises=F Damp=F
 DIIS: error= 7.61D-06 at cycle   9 NSaved=   9.
 NSaved= 9 IEnMin= 9 EnMin= -590.873368804606     IErMin= 9 ErrMin= 7.61D-06
 ErrMax= 7.61D-06  0.00D+00 EMaxC= 1.00D-01 BMatC= 8.56D-09 BMatP= 9.76D-08
 IDIUse=1 WtCom= 1.00D+00 WtEn= 0.00D+00
 Coeff-Com:  0.320D-04-0.586D-04-0.621D-03-0.258D-02-0.692D-02-0.222D-01
 Coeff-Com:  0.266D-01 0.214D+00 0.792D+00
 Coeff:      0.320D-04-0.586D-04-0.621D-03-0.258D-02-0.692D-02-0.222D-01
 Coeff:      0.266D-01 0.214D+00 0.792D+00
 Gap=     0.234 Goal=   None    Shift=    0.000
 RMSDP=1.84D-06 MaxDP=1.87D-04 DE=-8.63D-08 OVMax= 4.83D-05

 Cycle  10  Pass 1  IDiag  1:
 RMSU=  8.42D-07    CP:  9.07D-01  5.65D-01  8.25D-01  9.54D-01  8.50D-01
                    CP:  1.03D+00  9.41D-01  9.67D-01  9.10D-01
 E= -590.873368813403     Delta-E=       -0.000000008797 Rises=F Damp=F
 DIIS: error= 2.74D-06 at cycle  10 NSaved=  10.
 NSaved=10 IEnMin=10 EnMin= -590.873368813403     IErMin=10 ErrMin= 2.74D-06
 ErrMax= 2.74D-06  0.00D+00 EMaxC= 1.00D-01 BMatC= 1.90D-09 BMatP= 8.56D-09
 IDIUse=1 WtCom= 1.00D+00 WtEn= 0.00D+00
 Coeff-Com:  0.873D-05 0.722D-04 0.432D-03 0.608D-03-0.312D-03-0.165D-01
 Coeff-Com: -0.319D-01 0.745D-02 0.383D+00 0.657D+00
 Coeff:      0.873D-05 0.722D-04 0.432D-03 0.608D-03-0.312D-03-0.165D-01
 Coeff:     -0.319D-01 0.745D-02 0.383D+00 0.657D+00
 Gap=     0.234 Goal=   None    Shift=    0.000
 RMSDP=6.40D-07 MaxDP=4.94D-05 DE=-8.80D-09 OVMax= 2.62D-05

 Cycle  11  Pass 1  IDiag  1:
 RMSU=  3.17D-07    CP:  9.07D-01  5.65D-01  8.25D-01  9.54D-01  8.51D-01
                    CP:  1.03D+00  9.58D-01  9.77D-01  9.71D-01  8.37D-01
 E= -590.873368815595     Delta-E=       -0.000000002192 Rises=F Damp=F
 DIIS: error= 1.02D-06 at cycle  11 NSaved=  11.
 NSaved=11 IEnMin=11 EnMin= -590.873368815595     IErMin=11 ErrMin= 1.02D-06
 ErrMax= 1.02D-06  0.00D+00 EMaxC= 1.00D-01 BMatC= 1.35D-10 BMatP= 1.90D-09
 IDIUse=1 WtCom= 1.00D+00 WtEn= 0.00D+00
 Coeff-Com: -0.349D-07 0.272D-04 0.196D-03 0.417D-03 0.578D-03-0.353D-02
 Coeff-Com: -0.111D-01-0.236D-01 0.262D-01 0.204D+00 0.807D+00
 Coeff:     -0.349D-07 0.272D-04 0.196D-03 0.417D-03 0.578D-03-0.353D-02
 Coeff:     -0.111D-01-0.236D-01 0.262D-01 0.204D+00 0.807D+00
 Gap=     0.234 Goal=   None    Shift=    0.000
 RMSDP=1.74D-07 MaxDP=1.09D-05 DE=-2.19D-09 OVMax= 6.56D-06

 Cycle  12  Pass 1  IDiag  1:
 RMSU=  9.08D-08    CP:  9.07D-01  5.65D-01  8.25D-01  9.54D-01  8.51D-01
                    CP:  1.03D+00  9.58D-01  9.83D-01  9.86D-01  9.36D-01
                    CP:  9.97D-01
 E= -590.873368815756     Delta-E=       -0.000000000161 Rises=F Damp=F
 DIIS: error= 2.35D-07 at cycle  12 NSaved=  12.
 NSaved=12 IEnMin=12 EnMin= -590.873368815756     IErMin=12 ErrMin= 2.35D-07
 ErrMax= 2.35D-07  0.00D+00 EMaxC= 1.00D-01 BMatC= 2.54D-11 BMatP= 1.35D-10
 IDIUse=1 WtCom= 1.00D+00 WtEn= 0.00D+00
 Coeff-Com: -0.142D-05 0.309D-05 0.387D-04 0.117D-03 0.373D-03 0.549D-03
 Coeff-Com: -0.186D-03-0.126D-01-0.396D-01 0.730D-02 0.367D+00 0.677D+00
 Coeff:     -0.142D-05 0.309D-05 0.387D-04 0.117D-03 0.373D-03 0.549D-03
 Coeff:     -0.186D-03-0.126D-01-0.396D-01 0.730D-02 0.367D+00 0.677D+00
 Gap=     0.234 Goal=   None    Shift=    0.000
 RMSDP=6.98D-08 MaxDP=5.43D-06 DE=-1.61D-10 OVMax= 2.58D-06

 Cycle  13  Pass 1  IDiag  1:
 RMSU=  3.05D-08    CP:  9.07D-01  5.65D-01  8.25D-01  9.54D-01  8.51D-01
                    CP:  1.03D+00  9.59D-01  9.82D-01  9.91D-01  9.39D-01
                    CP:  1.08D+00  8.73D-01
 E= -590.873368815786     Delta-E=       -0.000000000030 Rises=F Damp=F
 DIIS: error= 9.34D-08 at cycle  13 NSaved=  13.
 NSaved=13 IEnMin=13 EnMin= -590.873368815786     IErMin=13 ErrMin= 9.34D-08
 ErrMax= 9.34D-08  0.00D+00 EMaxC= 1.00D-01 BMatC= 1.35D-12 BMatP= 2.54D-11
 IDIUse=1 WtCom= 1.00D+00 WtEn= 0.00D+00
 Coeff-Com: -0.358D-06-0.213D-05-0.985D-05-0.152D-04 0.484D-04 0.506D-03
 Coeff-Com:  0.124D-02-0.935D-03-0.136D-01-0.210D-01 0.936D-02 0.191D+00
 Coeff-Com:  0.833D+00
 Coeff:     -0.358D-06-0.213D-05-0.985D-05-0.152D-04 0.484D-04 0.506D-03
 Coeff:      0.124D-02-0.935D-03-0.136D-01-0.210D-01 0.936D-02 0.191D+00
 Coeff:      0.833D+00
 Gap=     0.234 Goal=   None    Shift=    0.000
 RMSDP=1.78D-08 MaxDP=1.03D-06 DE=-3.02D-11 OVMax= 8.64D-07

 Cycle  14  Pass 1  IDiag  1:
 RMSU=  1.09D-08    CP:  9.07D-01  5.65D-01  8.25D-01  9.54D-01  8.51D-01
                    CP:  1.03D+00  9.60D-01  9.82D-01  9.90D-01  9.48D-01
                    CP:  1.09D+00  9.24D-01  1.13D+00
 E= -590.873368815785     Delta-E=        0.000000000001 Rises=F Damp=F
 DIIS: error= 2.38D-08 at cycle  14 NSaved=  14.
 NSaved=14 IEnMin=13 EnMin= -590.873368815786     IErMin=14 ErrMin= 2.38D-08
 ErrMax= 2.38D-08  0.00D+00 EMaxC= 1.00D-01 BMatC= 2.56D-13 BMatP= 1.35D-12
 IDIUse=1 WtCom= 1.00D+00 WtEn= 0.00D+00
 Coeff-Com: -0.257D-07-0.108D-05-0.682D-05-0.151D-04-0.593D-05 0.173D-03
 Coeff-Com:  0.512D-03 0.540D-03-0.279D-02-0.104D-01-0.279D-01 0.283D-01
 Coeff-Com:  0.376D+00 0.635D+00
 Coeff:     -0.257D-07-0.108D-05-0.682D-05-0.151D-04-0.593D-05 0.173D-03
 Coeff:      0.512D-03 0.540D-03-0.279D-02-0.104D-01-0.279D-01 0.283D-01
 Coeff:      0.376D+00 0.635D+00
 Gap=     0.234 Goal=   None    Shift=    0.000
 RMSDP=7.00D-09 MaxDP=5.18D-07 DE= 1.14D-12 OVMax= 2.75D-07

 SCF Done:  E(RM062X) =  -590.873368816     A.U. after   14 cycles
            NFock= 14  Conv=0.70D-08     -V/T= 2.0039
 KE= 5.886035195682D+02 PE=-2.702341428952D+03 EE= 8.549796232146D+02
 Leave Link  502 at Mon Dec 30 16:45:00 2019, MaxMem= 10737418240 cpu:             482.9 elap:              20.2
 (Enter /apps/cent7/gaussian/g16-A.03/g16-haswell/g16/l601.exe)
 Copying SCF densities to generalized density rwf, IOpCl= 0 IROHF=0.

 **********************************************************************

            Population analysis using the SCF density.

 **********************************************************************

 Orbital symmetries:
       Occupied  (A) (A) (A) (A) (A) (A) (A) (A) (A) (A) (A) (A)
                 (A) (A) (A) (A) (A) (A) (A) (A) (A) (A) (A) (A)
                 (A) (A) (A) (A) (A) (A) (A) (A) (A) (A) (A) (A)
                 (A) (A) (A) (A) (A) (A) (A) (A)
       Virtual   (A) (A) (A) (A) (A) (A) (A) (A) (A) (A) (A) (A)
                 (A) (A) (A) (A) (A) (A) (A) (A) (A) (A) (A) (A)
                 (A) (A) (A) (A) (A) (A) (A) (A) (A) (A) (A) (A)
                 (A) (A) (A) (A) (A) (A) (A) (A) (A) (A) (A) (A)
                 (A) (A) (A) (A) (A) (A) (A) (A) (A) (A) (A) (A)
                 (A) (A) (A) (A) (A) (A) (A) (A) (A) (A) (A) (A)
                 (A) (A) (A) (A) (A) (A) (A) (A) (A) (A) (A) (A)
                 (A) (A) (A) (A) (A) (A) (A) (A) (A) (A) (A) (A)
                 (A) (A) (A) (A) (A) (A) (A) (A) (A) (A) (A) (A)
                 (A) (A) (A) (A) (A) (A) (A) (A) (A) (A) (A) (A)
                 (A) (A) (A) (A) (A) (A) (A) (A) (A) (A) (A) (A)
                 (A) (A) (A) (A) (A) (A) (A) (A) (A) (A) (A) (A)
                 (A) (A) (A) (A) (A) (A) (A) (A) (A) (A) (A) (A)
                 (A) (A) (A) (A) (A) (A) (A) (A) (A) (A) (A) (A)
                 (A) (A) (A) (A) (A) (A) (A) (A) (A) (A) (A) (A)
                 (A) (A) (A) (A) (A) (A) (A) (A) (A) (A) (A) (A)
                 (A) (A) (A) (A) (A) (A) (A) (A) (A) (A) (A) (A)
                 (A) (A) (A) (A) (A) (A) (A) (A) (A) (A) (A) (A)
                 (A) (A) (A) (A) (A) (A) (A) (A) (A) (A) (A) (A)
                 (A) (A) (A) (A) (A) (A) (A) (A) (A) (A) (A) (A)
                 (A) (A) (A) (A) (A) (A) (A) (A) (A) (A) (A) (A)
                 (A) (A) (A) (A) (A) (A) (A) (A) (A) (A) (A) (A)
                 (A) (A) (A) (A) (A) (A) (A) (A) (A) (A) (A) (A)
                 (A) (A) (A) (A) (A) (A) (A) (A) (A) (A) (A) (A)
                 (A)
 The electronic state is 1-A.
 Alpha  occ. eigenvalues --  -19.89333 -19.88785 -19.87022 -15.07120 -10.95626
 Alpha  occ. eigenvalues --  -10.76062 -10.67789 -10.66609 -10.66493 -10.65678
 Alpha  occ. eigenvalues --  -10.65603 -10.65525  -1.50931  -1.46515  -1.38628
 Alpha  occ. eigenvalues --   -1.20208  -1.08022  -1.02610  -0.98022  -0.95191
 Alpha  occ. eigenvalues --   -0.93574  -0.91662  -0.88787  -0.82106  -0.80670
 Alpha  occ. eigenvalues --   -0.79830  -0.78171  -0.73301  -0.71500  -0.71354
 Alpha  occ. eigenvalues --   -0.68656  -0.67042  -0.65854  -0.62848  -0.62590
 Alpha  occ. eigenvalues --   -0.59790  -0.59404  -0.58001  -0.54340  -0.52265
 Alpha  occ. eigenvalues --   -0.51811  -0.51119  -0.41870  -0.41576
 Alpha virt. eigenvalues --   -0.18153  -0.15973  -0.13442  -0.11875  -0.10573
 Alpha virt. eigenvalues --   -0.09583  -0.09360  -0.08584  -0.07569  -0.06931
 Alpha virt. eigenvalues --   -0.05926  -0.05482  -0.04682  -0.03594  -0.03379
 Alpha virt. eigenvalues --   -0.02622  -0.02381  -0.01615  -0.01229  -0.00692
 Alpha virt. eigenvalues --   -0.00272   0.00452   0.00764   0.00864   0.01580
 Alpha virt. eigenvalues --    0.02529   0.02929   0.03018   0.04030   0.04218
 Alpha virt. eigenvalues --    0.04343   0.04675   0.05363   0.05384   0.06043
 Alpha virt. eigenvalues --    0.06232   0.06627   0.06878   0.07120   0.07910
 Alpha virt. eigenvalues --    0.08382   0.08700   0.09378   0.09931   0.10290
 Alpha virt. eigenvalues --    0.10459   0.10790   0.11541   0.11820   0.12139
 Alpha virt. eigenvalues --    0.13237   0.13401   0.14235   0.14366   0.15270
 Alpha virt. eigenvalues --    0.15644   0.15963   0.17285   0.17615   0.17647
 Alpha virt. eigenvalues --    0.18162   0.18908   0.19569   0.20164   0.21336
 Alpha virt. eigenvalues --    0.21493   0.22458   0.22650   0.23231   0.23752
 Alpha virt. eigenvalues --    0.23966   0.24818   0.26219   0.26919   0.28489
 Alpha virt. eigenvalues --    0.29127   0.30158   0.30395   0.31146   0.31749
 Alpha virt. eigenvalues --    0.34727   0.37113   0.40494   0.41772   0.43278
 Alpha virt. eigenvalues --    0.45484   0.47272   0.47428   0.48556   0.48799
 Alpha virt. eigenvalues --    0.49593   0.49697   0.50254   0.51423   0.51639
 Alpha virt. eigenvalues --    0.52392   0.53225   0.55051   0.56127   0.56806
 Alpha virt. eigenvalues --    0.59389   0.60332   0.61561   0.61845   0.62923
 Alpha virt. eigenvalues --    0.63413   0.64487   0.66504   0.66639   0.67382
 Alpha virt. eigenvalues --    0.68400   0.69321   0.69892   0.74942   0.76259
 Alpha virt. eigenvalues --    0.78087   0.78713   0.79939   0.81346   0.82560
 Alpha virt. eigenvalues --    0.83320   0.84240   0.85326   0.87008   0.90061
 Alpha virt. eigenvalues --    0.90927   0.91497   0.92790   0.93777   0.94551
 Alpha virt. eigenvalues --    0.96923   0.98031   0.98734   0.99201   1.00129
 Alpha virt. eigenvalues --    1.01701   1.02823   1.04031   1.06722   1.08018
 Alpha virt. eigenvalues --    1.08766   1.11384   1.14874   1.18911   1.19530
 Alpha virt. eigenvalues --    1.22765   1.26089   1.28155   1.30256   1.34188
 Alpha virt. eigenvalues --    1.36049   1.37695   1.38325   1.39875   1.40807
 Alpha virt. eigenvalues --    1.44545   1.45174   1.45686   1.47027   1.49145
 Alpha virt. eigenvalues --    1.50626   1.50989   1.52813   1.53910   1.54683
 Alpha virt. eigenvalues --    1.57914   1.58091   1.59571   1.61904   1.63158
 Alpha virt. eigenvalues --    1.65177   1.66999   1.67834   1.69861   1.70860
 Alpha virt. eigenvalues --    1.71565   1.75192   1.76106   1.78531   1.80255
 Alpha virt. eigenvalues --    1.82528   1.83956   1.84458   1.85328   1.86010
 Alpha virt. eigenvalues --    1.86998   1.87514   1.89551   1.91894   1.94334
 Alpha virt. eigenvalues --    1.96146   1.97014   1.99631   2.00066   2.05405
 Alpha virt. eigenvalues --    2.09256   2.11452   2.15890   2.22623   2.23848
 Alpha virt. eigenvalues --    2.28207   2.31236   2.33102   2.37832   2.38078
 Alpha virt. eigenvalues --    2.39467   2.40375   2.40752   2.43141   2.48650
 Alpha virt. eigenvalues --    2.49241   2.51681   2.55046   2.55793   2.57923
 Alpha virt. eigenvalues --    2.59939   2.62331   2.62626   2.64314   2.65558
 Alpha virt. eigenvalues --    2.66705   2.66900   2.72921   2.74553   2.75901
 Alpha virt. eigenvalues --    2.77705   2.78614   2.80788   2.84043   2.85727
 Alpha virt. eigenvalues --    2.86027   2.87141   2.89179   2.93380   2.95923
 Alpha virt. eigenvalues --    2.97301   3.01014   3.02736   3.06713   3.10609
 Alpha virt. eigenvalues --    3.12020   3.14958   3.15357   3.19978   3.25184
 Alpha virt. eigenvalues --    3.27857   3.30488   3.38176   3.41600   3.42515
 Alpha virt. eigenvalues --    3.46093   3.50146   3.57006   3.62697   3.66147
 Alpha virt. eigenvalues --    3.72477   3.74750   3.80826   3.91687   3.93388
 Alpha virt. eigenvalues --    3.97304   4.02729   4.07732   4.08668   4.25859
 Alpha virt. eigenvalues --    4.37967   4.66452   4.72796   4.88937   4.97677
 Alpha virt. eigenvalues --    4.98386   5.22161   5.24732   5.33041   5.54673
 Alpha virt. eigenvalues --    5.83062   5.87980  23.57659  23.62309  23.82314
 Alpha virt. eigenvalues --   23.89930  23.90785  23.99501  24.01591  24.10440
 Alpha virt. eigenvalues --   35.39231  49.79637  49.81566  49.87276
          Condensed to atoms (all electrons):
               1          2          3          4          5          6
     1  O    7.692848   0.411815  -0.132812   0.045181  -0.149184  -0.053794
     2  C    0.411815   5.656208   0.096820  -0.130359   0.150166  -0.282102
     3  N   -0.132812   0.096820   7.189970  -0.060989  -0.141081   0.031000
     4  O    0.045181  -0.130359  -0.060989   7.850858   0.020276   0.040641
     5  O   -0.149184   0.150166  -0.141081   0.020276   8.229665   0.164119
     6  C   -0.053794  -0.282102   0.031000   0.040641   0.164119  11.803186
     7  C    0.076952  -0.089062  -0.025109  -0.012438  -0.209093  -4.121487
     8  C   -0.024540  -0.491249   0.057601   0.011195   0.097141  -1.187655
     9  C    0.001301   0.015458   0.009565  -0.000078  -0.008212   0.188221
    10  C    0.000921  -0.007501   0.001705   0.000003   0.011174  -0.037848
    11  C   -0.003125   0.026594  -0.003760  -0.000071   0.003254  -0.352511
    12  C    0.022741   0.505276  -0.045947  -0.008275  -0.076423  -0.346042
    13  H    0.002809  -0.085634   0.357952   0.016193   0.002339   0.014851
    14  H   -0.002529   0.019235   0.020785   0.232787  -0.002036  -0.005297
    15  H   -0.001263  -0.022480   0.000679  -0.000180  -0.065423   0.444064
    16  H   -0.026102  -0.069977  -0.000520   0.004715  -0.003802   0.272288
    17  H   -0.001516  -0.018955  -0.000140   0.000757   0.004963  -0.005485
    18  H   -0.000006   0.002357  -0.000209  -0.000028  -0.000987   0.009552
    19  H    0.000020  -0.000182   0.000025  -0.000002   0.000156  -0.009675
    20  H   -0.000084  -0.000520  -0.000021   0.000005   0.000288  -0.001695
    21  H    0.002365   0.010131   0.000209  -0.000251  -0.007256  -0.000620
    22  H    0.293890   0.017857  -0.023939   0.006246   0.006437   0.008146
               7          8          9         10         11         12
     1  O    0.076952  -0.024540   0.001301   0.000921  -0.003125   0.022741
     2  C   -0.089062  -0.491249   0.015458  -0.007501   0.026594   0.505276
     3  N   -0.025109   0.057601   0.009565   0.001705  -0.003760  -0.045947
     4  O   -0.012438   0.011195  -0.000078   0.000003  -0.000071  -0.008275
     5  O   -0.209093   0.097141  -0.008212   0.011174   0.003254  -0.076423
     6  C   -4.121487  -1.187655   0.188221  -0.037848  -0.352511  -0.346042
     7  C   12.997860  -0.759946  -0.694995  -0.057164  -0.621745  -1.060254
     8  C   -0.759946  14.097426  -0.675671  -0.183117   0.976439  -6.777927
     9  C   -0.694995  -0.675671   6.000635   0.380362  -0.358923   1.190727
    10  C   -0.057164  -0.183117   0.380362   5.737983   0.443507  -0.471731
    11  C   -0.621745   0.976439  -0.358923   0.443507   5.844695  -0.019658
    12  C   -1.060254  -6.777927   1.190727  -0.471731  -0.019658  13.910500
    13  H   -0.006665   0.009293   0.001599   0.000068  -0.000580  -0.006135
    14  H   -0.000917  -0.001124  -0.000015  -0.000022   0.000058   0.000816
    15  H    0.013781  -0.072065   0.014738   0.004007  -0.031636   0.036019
    16  H    0.018347   0.313937  -0.041057   0.001509   0.044374  -0.333405
    17  H   -0.002929   0.426391  -0.093414  -0.011231   0.020862  -0.022228
    18  H    0.026189  -0.089343   0.399584  -0.037887   0.003033   0.023820
    19  H    0.031009  -0.017526  -0.052870   0.438040  -0.053187   0.001356
    20  H    0.038363   0.036585  -0.004879  -0.035717   0.404030  -0.107336
    21  H   -0.027032  -0.064229   0.017053   0.011859  -0.042882   0.454779
    22  H   -0.004541  -0.002057   0.000271   0.000010  -0.000496   0.001715
              13         14         15         16         17         18
     1  O    0.002809  -0.002529  -0.001263  -0.026102  -0.001516  -0.000006
     2  C   -0.085634   0.019235  -0.022480  -0.069977  -0.018955   0.002357
     3  N    0.357952   0.020785   0.000679  -0.000520  -0.000140  -0.000209
     4  O    0.016193   0.232787  -0.000180   0.004715   0.000757  -0.000028
     5  O    0.002339  -0.002036  -0.065423  -0.003802   0.004963  -0.000987
     6  C    0.014851  -0.005297   0.444064   0.272288  -0.005485   0.009552
     7  C   -0.006665  -0.000917   0.013781   0.018347  -0.002929   0.026189
     8  C    0.009293  -0.001124  -0.072065   0.313937   0.426391  -0.089343
     9  C    0.001599  -0.000015   0.014738  -0.041057  -0.093414   0.399584
    10  C    0.000068  -0.000022   0.004007   0.001509  -0.011231  -0.037887
    11  C   -0.000580   0.000058  -0.031636   0.044374   0.020862   0.003033
    12  C   -0.006135   0.000816   0.036019  -0.333405  -0.022228   0.023820
    13  H    0.343795  -0.015166   0.000083   0.001570   0.000815  -0.000021
    14  H   -0.015166   0.429863   0.000249  -0.000860  -0.000194   0.000004
    15  H    0.000083   0.000249   0.471320  -0.030763  -0.006967   0.000305
    16  H    0.001570  -0.000860  -0.030763   0.589603   0.007514  -0.000756
    17  H    0.000815  -0.000194  -0.006967   0.007514   0.498495  -0.011544
    18  H   -0.000021   0.000004   0.000305  -0.000756  -0.011544   0.457031
    19  H    0.000004  -0.000001   0.000232  -0.000338  -0.000075  -0.008831
    20  H    0.000011  -0.000000  -0.000510   0.003110   0.000677   0.000240
    21  H   -0.000049   0.000015   0.002474  -0.012245  -0.002163   0.000258
    22  H   -0.000528   0.000055   0.001859  -0.005337  -0.000067   0.000007
              19         20         21         22
     1  O    0.000020  -0.000084   0.002365   0.293890
     2  C   -0.000182  -0.000520   0.010131   0.017857
     3  N    0.000025  -0.000021   0.000209  -0.023939
     4  O   -0.000002   0.000005  -0.000251   0.006246
     5  O    0.000156   0.000288  -0.007256   0.006437
     6  C   -0.009675  -0.001695  -0.000620   0.008146
     7  C    0.031009   0.038363  -0.027032  -0.004541
     8  C   -0.017526   0.036585  -0.064229  -0.002057
     9  C   -0.052870  -0.004879   0.017053   0.000271
    10  C    0.438040  -0.035717   0.011859   0.000010
    11  C   -0.053187   0.404030  -0.042882  -0.000496
    12  C    0.001356  -0.107336   0.454779   0.001715
    13  H    0.000004   0.000011  -0.000049  -0.000528
    14  H   -0.000001  -0.000000   0.000015   0.000055
    15  H    0.000232  -0.000510   0.002474   0.001859
    16  H   -0.000338   0.003110  -0.012245  -0.005337
    17  H   -0.000075   0.000677  -0.002163  -0.000067
    18  H   -0.008831   0.000240   0.000258   0.000007
    19  H    0.457473  -0.009579   0.001093   0.000002
    20  H   -0.009579   0.451652  -0.012751  -0.000021
    21  H    0.001093  -0.012751   0.496246   0.000275
    22  H    0.000002  -0.000021   0.000275   0.341205
 Mulliken charges:
               1
     1  O   -0.155889
     2  C    0.286103
     3  N   -0.331782
     4  O   -0.016187
     5  O   -0.026480
     6  C   -0.571857
     7  C    0.490876
     8  C    0.320440
     9  C   -0.289399
    10  C   -0.188929
    11  C   -0.278273
    12  C   -0.872388
    13  H    0.363394
    14  H    0.324294
    15  H    0.241475
    16  H    0.268198
    17  H    0.216433
    18  H    0.227232
    19  H    0.222857
    20  H    0.238153
    21  H    0.172722
    22  H    0.359008
 Sum of Mulliken charges =   1.00000
 Mulliken charges with hydrogens summed into heavy atoms:
               1
     1  O    0.203119
     2  C    0.286103
     3  N    0.031612
     4  O    0.308107
     5  O   -0.026480
     6  C   -0.062184
     7  C    0.490876
     8  C    0.536873
     9  C   -0.062167
    10  C    0.033928
    11  C   -0.040119
    12  C   -0.699666
 Electronic spatial extent (au):  <R**2>=           3022.9939
 Charge=              1.0000 electrons
 Dipole moment (field-independent basis, Debye):
    X=             -9.1543    Y=              0.3655    Z=             -2.7031  Tot=              9.5521
 Quadrupole moment (field-independent basis, Debye-Ang):
   XX=            -12.9486   YY=            -51.9004   ZZ=            -64.6564
   XY=             -2.2236   XZ=             10.1008   YZ=             -0.9766
 Traceless Quadrupole moment (field-independent basis, Debye-Ang):
   XX=             30.2198   YY=             -8.7319   ZZ=            -21.4879
   XY=             -2.2236   XZ=             10.1008   YZ=             -0.9766
 Octapole moment (field-independent basis, Debye-Ang**2):
  XXX=           -144.2377  YYY=              1.1515  ZZZ=             -4.3623  XYY=            -45.8776
  XXY=             30.6529  XXZ=            -74.2480  XZZ=            -35.7846  YZZ=              6.0246
  YYZ=             -9.9617  XYZ=             27.7732
 Hexadecapole moment (field-independent basis, Debye-Ang**3):
 XXXX=          -2264.3487 YYYY=           -361.1895 ZZZZ=           -202.7622 XXXY=            -47.7398
 XXXZ=            166.8807 YYYX=              3.0281 YYYZ=             -2.6618 ZZZX=             31.4199
 ZZZY=            -14.0880 XXYY=           -418.5077 XXZZ=           -508.4358 YYZZ=            -89.8093
 XXYZ=            -51.0834 YYXZ=             38.9425 ZZXY=            -38.3345
 N-N= 6.678849173531D+02 E-N=-2.702341431249D+03  KE= 5.886035195682D+02
 No NMR shielding tensors so no spin-rotation constants.
 Leave Link  601 at Mon Dec 30 16:45:00 2019, MaxMem= 10737418240 cpu:               4.6 elap:               0.2
 (Enter /apps/cent7/gaussian/g16-A.03/g16-haswell/g16/l701.exe)
 ... and contract with generalized density number  0.
 Compute integral first derivatives.
 Leave Link  701 at Mon Dec 30 16:45:00 2019, MaxMem= 10737418240 cpu:               3.4 elap:               0.2
 (Enter /apps/cent7/gaussian/g16-A.03/g16-haswell/g16/l702.exe)
 L702 exits ... SP integral derivatives will be done elsewhere.
 Leave Link  702 at Mon Dec 30 16:45:01 2019, MaxMem= 10737418240 cpu:               0.5 elap:               0.0
 (Enter /apps/cent7/gaussian/g16-A.03/g16-haswell/g16/l703.exe)
 Integral derivatives from FoFJK, PRISM(SPDF).
 Compute integral first derivatives, UseDBF=F ICtDFT=           0.
 Calling FoFJK, ICntrl=      2127 FMM=F ISym2X=0 I1Cent= 0 IOpClX= 0 NMat=1 NMatS=1 NMatT=0.
 FoFJK:  IHMeth= 1 ICntrl=    2127 DoSepK=F KAlg= 0 I1Cent=           0 FoldK=F
 IRaf=         0 NMat=       1 IRICut=       1 DoRegI=T DoRafI=F ISym2E= 0 IDoP0=0 IntGTp=1.
 FoFCou: FMM=F IPFlag=           0 FMFlag=      100000 FMFlg1=         800
         NFxFlg=           0 DoJE=F BraDBF=F KetDBF=F FulRan=T
         wScrn=  0.000000 ICntrl=      2127 IOpCl=  0 I1Cent=           0 NGrid=           0
         NMat0=    1 NMatS0=      1 NMatT0=    0 NMatD0=    1 NMtDS0=    0 NMtDT0=    0
 Symmetry not used in FoFCou.
 Leave Link  703 at Mon Dec 30 16:45:04 2019, MaxMem= 10737418240 cpu:              85.4 elap:               3.6
 (Enter /apps/cent7/gaussian/g16-A.03/g16-haswell/g16/l716.exe)
 Dipole        =-3.60158583D+00 1.43784636D-01-1.06347255D+00
 ***** Axes restored to original set *****
 -------------------------------------------------------------------
 Center     Atomic                   Forces (Hartrees/Bohr)
 Number     Number              X              Y              Z
 -------------------------------------------------------------------
      1        8          -0.001718356    0.018679296   -0.043818118
      2        6          -0.022627726   -0.066559807    0.047200581
      3        7          -0.042298277   -0.067009470   -0.035460442
      4        8           0.024039264    0.052679264   -0.006910195
      5        8           0.036304566    0.062207467    0.060600202
      6        6          -0.003155332   -0.003913065   -0.017810666
      7        6          -0.015572371   -0.029981843    0.015561298
      8        6           0.002230415   -0.010724890   -0.005293691
      9        6           0.009439141    0.003161458   -0.005353783
     10        6           0.006846368    0.007954397   -0.002794185
     11        6          -0.004348491    0.009260385    0.003296504
     12        6          -0.007115101    0.004740563    0.007023237
     13        1          -0.007660434   -0.007198074   -0.000594673
     14        1           0.005387529   -0.003117972    0.004243176
     15        1           0.009940936    0.004410068   -0.011164134
     16        1          -0.003849055    0.010975919   -0.011149777
     17        1           0.000932479   -0.002402431   -0.001728130
     18        1           0.004003153    0.000476273   -0.003075842
     19        1           0.002728495    0.004078379   -0.000699746
     20        1          -0.001154085    0.004859529    0.001391636
     21        1          -0.002740878    0.000444585    0.001780072
     22        1           0.010387761    0.006979968    0.004756676
 -------------------------------------------------------------------
 Cartesian Forces:  Max     0.067009470 RMS     0.022205840
 Leave Link  716 at Mon Dec 30 16:45:04 2019, MaxMem= 10737418240 cpu:               1.4 elap:               0.1
 (Enter /apps/cent7/gaussian/g16-A.03/g16-haswell/g16/l103.exe)

 GradGradGradGradGradGradGradGradGradGradGradGradGradGradGradGradGradGrad
 Berny optimization.
 FormGI is forming the generalized inverse of G from B-inverse, IUseBI=4.
 GSVD:  received Info=                   1 from GESDD.
 Internal  Forces:  Max     0.077126744 RMS     0.014001268
 Search for a local minimum.
 Step number   1 out of a maximum of  108
 All quantities printed in internal units (Hartrees-Bohrs-Radians)
 RMS Force = .14001D-01 SwitMx=.10000D-02 MixMth= 1
 Mixed Optimization -- RFO/linear search
 Second derivative matrix not updated -- first step.
 ITU=  0
     Eigenvalues ---    0.00998   0.01268   0.01530   0.01900   0.01935
     Eigenvalues ---    0.01945   0.01976   0.02001   0.02003   0.02007
     Eigenvalues ---    0.02011   0.02206   0.02384   0.02441   0.02561
     Eigenvalues ---    0.02671   0.03628   0.07156   0.07773   0.11216
     Eigenvalues ---    0.13716   0.16000   0.16000   0.16000   0.16000
     Eigenvalues ---    0.16000   0.16000   0.16000   0.16000   0.22000
     Eigenvalues ---    0.22000   0.22000   0.22599   0.23471   0.24999
     Eigenvalues ---    0.25000   0.25000   0.25000   0.34286   0.34803
     Eigenvalues ---    0.34810   0.34811   0.34811   0.34812   0.34817
     Eigenvalues ---    0.34821   0.40203   0.40276   0.40700   0.43469
     Eigenvalues ---    0.44036   0.44455   0.44619   0.45980   0.52714
     Eigenvalues ---    0.55473   0.55473   0.55521   0.66023   0.81923
 RFO step:  Lambda=-4.09226841D-02 EMin= 9.97565993D-03
 Linear search not attempted -- first point.
 Maximum step size (   0.300) exceeded in Quadratic search.
    -- Step size scaled by   0.990
 Iteration  1 RMS(Cart)=  0.06942089 RMS(Int)=  0.00200526
 Iteration  2 RMS(Cart)=  0.00419321 RMS(Int)=  0.00023740
 Iteration  3 RMS(Cart)=  0.00001003 RMS(Int)=  0.00023733
 Iteration  4 RMS(Cart)=  0.00000000 RMS(Int)=  0.00023733
 ITry= 1 IFail=0 DXMaxC= 2.48D-01 DCOld= 1.00D+10 DXMaxT= 3.00D-01 DXLimC= 3.00D+00 Rises=F
 Variable       Old X    -DE/DX   Delta X   Delta X   Delta X     New X
                                 (Linear)    (Quad)   (Total)
    R1        2.36895   0.04722   0.00000   0.05433   0.05433   2.42328
    R2        1.81414   0.01016   0.00000   0.01688   0.01688   1.83102
    R3        2.54672  -0.04744   0.00000  -0.07876  -0.07876   2.46796
    R4        2.57222  -0.07713   0.00000  -0.13436  -0.13436   2.43785
    R5        2.46470   0.05566   0.00000   0.07855   0.07855   2.54326
    R6        1.90853   0.00593   0.00000   0.01172   0.01172   1.92026
    R7        1.81414   0.00667   0.00000   0.01108   0.01108   1.82522
    R8        2.70613   0.02536   0.00000   0.05603   0.05603   2.76216
    R9        2.80150   0.01111   0.00000   0.02865   0.02865   2.83015
   R10        2.05983   0.00059   0.00000   0.00149   0.00149   2.06132
   R11        2.05966   0.00000   0.00000   0.00001   0.00001   2.05967
   R12        2.67506  -0.01721   0.00000  -0.03629  -0.03626   2.63879
   R13        2.67390  -0.02012   0.00000  -0.04231  -0.04229   2.63161
   R14        2.65900  -0.01878   0.00000  -0.03825  -0.03825   2.62075
   R15        2.05973  -0.00305   0.00000  -0.00775  -0.00775   2.05198
   R16        2.65692  -0.01283   0.00000  -0.02583  -0.02586   2.63106
   R17        2.05982  -0.00502   0.00000  -0.01278  -0.01278   2.04704
   R18        2.65662  -0.01503   0.00000  -0.03030  -0.03032   2.62630
   R19        2.05985  -0.00495   0.00000  -0.01259  -0.01259   2.04726
   R20        2.65927  -0.01652   0.00000  -0.03369  -0.03369   2.62557
   R21        2.05981  -0.00512   0.00000  -0.01303  -0.01303   2.04678
   R22        2.05996  -0.00328   0.00000  -0.00836  -0.00836   2.05161
    A1        2.09440  -0.00394   0.00000  -0.01941  -0.01941   2.07499
    A2        2.11397   0.00786   0.00000   0.02679   0.02610   2.14007
    A3        2.12245   0.00639   0.00000   0.02178   0.02109   2.14354
    A4        2.04676  -0.01423   0.00000  -0.04836  -0.04900   1.99776
    A5        2.13290  -0.01877   0.00000  -0.07119  -0.07132   2.06158
    A6        2.10466   0.00137   0.00000  -0.00386  -0.00398   2.10069
    A7        2.04562   0.01740   0.00000   0.07505   0.07491   2.12054
    A8        1.91063  -0.00160   0.00000  -0.00788  -0.00788   1.90275
    A9        2.21287  -0.03199   0.00000  -0.10882  -0.10882   2.10405
   A10        1.89991  -0.01278   0.00000  -0.03659  -0.03618   1.86372
   A11        1.85552   0.00319   0.00000   0.01530   0.01571   1.87123
   A12        1.85562   0.00434   0.00000   0.02156   0.02193   1.87755
   A13        1.87611   0.01009   0.00000   0.05334   0.05344   1.92955
   A14        1.87611   0.00841   0.00000   0.04384   0.04395   1.92005
   A15        2.09443  -0.01454   0.00000  -0.09854  -0.09876   1.99567
   A16        2.09426   0.00078   0.00000   0.00292   0.00287   2.09714
   A17        2.11861  -0.00526   0.00000  -0.01762  -0.01766   2.10094
   A18        2.07028   0.00449   0.00000   0.01480   0.01482   2.08510
   A19        2.10648  -0.00176   0.00000  -0.00674  -0.00671   2.09977
   A20        2.09355   0.00055   0.00000   0.00173   0.00172   2.09527
   A21        2.08315   0.00121   0.00000   0.00500   0.00499   2.08814
   A22        2.09528  -0.00082   0.00000  -0.00235  -0.00237   2.09291
   A23        2.09466  -0.00020   0.00000  -0.00183  -0.00182   2.09284
   A24        2.09324   0.00102   0.00000   0.00418   0.00418   2.09742
   A25        2.09225   0.00052   0.00000   0.00312   0.00307   2.09533
   A26        2.09554  -0.00022   0.00000  -0.00136  -0.00134   2.09420
   A27        2.09539  -0.00030   0.00000  -0.00176  -0.00174   2.09365
   A28        2.09596  -0.00066   0.00000  -0.00185  -0.00188   2.09408
   A29        2.09279   0.00111   0.00000   0.00478   0.00480   2.09759
   A30        2.09443  -0.00045   0.00000  -0.00293  -0.00292   2.09152
   A31        2.10601  -0.00177   0.00000  -0.00691  -0.00690   2.09911
   A32        2.09335   0.00060   0.00000   0.00202   0.00201   2.09535
   A33        2.08383   0.00118   0.00000   0.00489   0.00487   2.08870
    D1        1.08146  -0.00425   0.00000  -0.04995  -0.04898   1.03249
    D2       -2.05647  -0.00902   0.00000  -0.12007  -0.12104  -2.17751
    D3       -0.03867  -0.00036   0.00000  -0.00405  -0.00394  -0.04261
    D4        3.10279  -0.00231   0.00000  -0.03367  -0.03312   3.06968
    D5        3.09942   0.00425   0.00000   0.06327   0.06272  -3.12104
    D6       -0.04230   0.00229   0.00000   0.03365   0.03354  -0.00876
    D7       -0.01776   0.00168   0.00000   0.02389   0.02346   0.00570
    D8        3.12736  -0.00295   0.00000  -0.04379  -0.04336   3.08400
    D9       -2.68446   0.00195   0.00000   0.02877   0.02834  -2.65612
   D10        0.45726   0.00384   0.00000   0.05744   0.05788   0.51514
   D11       -3.14107  -0.00046   0.00000  -0.00267  -0.00270   3.13942
   D12       -1.12475   0.00671   0.00000   0.04950   0.04944  -1.07531
   D13        1.12576  -0.00626   0.00000  -0.04703  -0.04695   1.07881
   D14        1.06221   0.00084   0.00000   0.01781   0.01774   1.07995
   D15       -2.06983   0.00010   0.00000   0.00506   0.00509  -2.06474
   D16       -0.94078  -0.00170   0.00000  -0.00946  -0.00925  -0.95003
   D17        2.21038  -0.00244   0.00000  -0.02221  -0.02191   2.18847
   D18        3.06530   0.00386   0.00000   0.04746   0.04719   3.11249
   D19       -0.06673   0.00312   0.00000   0.03471   0.03453  -0.03220
   D20        3.13945  -0.00035   0.00000  -0.00655  -0.00664   3.13281
   D21       -0.00203  -0.00018   0.00000  -0.00373  -0.00382  -0.00585
   D22       -0.01144   0.00031   0.00000   0.00568   0.00572  -0.00572
   D23        3.13027   0.00048   0.00000   0.00849   0.00855   3.13882
   D24       -3.13929   0.00073   0.00000   0.01226   0.01222  -3.12706
   D25        0.00225   0.00033   0.00000   0.00585   0.00584   0.00809
   D26        0.01174   0.00002   0.00000  -0.00026  -0.00028   0.01145
   D27       -3.12991  -0.00038   0.00000  -0.00667  -0.00667  -3.13658
   D28        0.00087  -0.00029   0.00000  -0.00476  -0.00477  -0.00390
   D29       -3.14088   0.00004   0.00000   0.00063   0.00063  -3.14024
   D30       -3.14084  -0.00046   0.00000  -0.00756  -0.00758   3.13476
   D31        0.00060  -0.00013   0.00000  -0.00217  -0.00218  -0.00158
   D32        0.00962  -0.00011   0.00000  -0.00178  -0.00176   0.00785
   D33       -3.13199   0.00009   0.00000   0.00150   0.00152  -3.13047
   D34       -3.13182  -0.00044   0.00000  -0.00717  -0.00718  -3.13900
   D35        0.00975  -0.00024   0.00000  -0.00389  -0.00390   0.00586
   D36       -0.00932   0.00044   0.00000   0.00716   0.00718  -0.00214
   D37        3.13226   0.00029   0.00000   0.00479   0.00479   3.13705
   D38        3.13229   0.00024   0.00000   0.00388   0.00390   3.13619
   D39       -0.00932   0.00009   0.00000   0.00151   0.00151  -0.00780
   D40       -0.00147  -0.00037   0.00000  -0.00609  -0.00609  -0.00756
   D41        3.14018   0.00002   0.00000   0.00028   0.00027   3.14045
   D42        3.14013  -0.00023   0.00000  -0.00371  -0.00371   3.13642
   D43       -0.00141   0.00016   0.00000   0.00266   0.00265   0.00125
         Item               Value     Threshold  Converged?
 Maximum Force            0.077127     0.000450     NO 
 RMS     Force            0.014001     0.000300     NO 
 Maximum Displacement     0.248326     0.001800     NO 
 RMS     Displacement     0.071960     0.001200     NO 
 Predicted change in Energy=-2.309571D-02
 Lowest energy point so far.  Saving SCF results.
 GradGradGradGradGradGradGradGradGradGradGradGradGradGradGradGradGradGrad

 Leave Link  103 at Mon Dec 30 16:45:04 2019, MaxMem= 10737418240 cpu:               1.4 elap:               0.1
 (Enter /apps/cent7/gaussian/g16-A.03/g16-haswell/g16/l202.exe)
                          Input orientation:                          
 ---------------------------------------------------------------------
 Center     Atomic      Atomic             Coordinates (Angstroms)
 Number     Number       Type             X           Y           Z
 ---------------------------------------------------------------------
      1          8           0        1.241229    1.340560   -0.326144
      2          6           0        0.921742    0.638458    0.698253
      3          7           0        1.211386    1.001758    1.918797
      4          8           0        1.915205    2.135583    2.093004
      5          8           0        0.225725   -0.444468    0.614137
      6          6           0       -0.233892   -0.933341   -0.684414
      7          6           0       -0.999440   -2.194246   -0.425531
      8          6           0       -2.155044   -2.165019    0.357813
      9          6           0       -2.872145   -3.328953    0.590947
     10          6           0       -2.441719   -4.532180    0.038254
     11          6           0       -1.289769   -4.568733   -0.738379
     12          6           0       -0.568355   -3.403265   -0.965662
     13          1           0        0.887596    0.451144    2.709088
     14          1           0        2.420187    2.069643    2.913698
     15          1           0       -0.887570   -0.167834   -1.104600
     16          1           0        0.648922   -1.149813   -1.285854
     17          1           0       -2.498290   -1.227939    0.785784
     18          1           0       -3.768412   -3.298667    1.198576
     19          1           0       -3.006698   -5.440257    0.211072
     20          1           0       -0.950702   -5.504363   -1.165872
     21          1           0        0.331391   -3.437754   -1.572238
     22          1           0        2.176384    1.538324   -0.484902
 ---------------------------------------------------------------------
                    Distance matrix (angstroms):
                    1          2          3          4          5
     1  O    0.000000
     2  C    1.282345   0.000000
     3  N    2.270559   1.305989   0.000000
     4  O    2.634118   2.274572   1.345833   0.000000
     5  O    2.258695   1.290056   2.182942   3.420242   0.000000
     6  C    2.734039   2.391195   3.551077   4.663793   1.461670
     7  C    4.186326   3.602505   4.538509   5.795307   2.375638
     8  C    4.928646   4.176362   4.878319   6.170331   2.948569
     9  C    6.290092   5.490487   6.098645   7.418629   4.232918
    10  C    6.941611   6.203545   6.892466   8.225803   4.914904
    11  C    6.441711   5.836912   6.659334   7.952134   4.597345
    12  C    5.117368   4.617849   5.558040   6.797230   3.446854
    13  H    3.182569   2.019829   1.016157   2.067093   2.372554
    14  H    3.523929   3.033450   1.895101   0.965864   4.052703
    15  H    2.722689   2.678432   3.861929   4.835902   2.066400
    16  H    2.733831   2.684964   3.900694   4.879957   2.070404
    17  H    4.670929   3.897143   4.474032   5.700969   2.839639
    18  H    6.995977   6.144007   6.618969   7.914200   4.943799
    19  H    8.019536   7.254017   7.887212   9.228225   5.963969
    20  H    7.236206   6.686947   7.517940   8.786493   5.491352
    21  H    5.021239   4.703100   5.715854   6.855986   3.708256
    22  H    0.968932   1.945184   2.645164   2.659047   2.990722
                    6          7          8          9         10
     6  C    0.000000
     7  C    1.497653   0.000000
     8  C    2.508803   1.396390   0.000000
     9  C    3.784955   2.414087   1.386841   0.000000
    10  C    4.283502   2.785893   2.405774   1.392297   0.000000
    11  C    3.786009   2.412542   2.779960   2.409995   1.389778
    12  C    2.508284   1.392589   2.408821   2.781366   2.406613
    13  H    3.832805   4.514956   4.650856   5.736838   6.561342
    14  H    5.385950   6.405079   6.737778   7.908780   8.688520
    15  H    1.090803   2.140092   2.780987   4.099523   4.771688
    16  H    1.089931   2.132625   3.405071   4.546311   4.769248
    17  H    2.715837   2.155826   1.085862   2.142893   3.388216
    18  H    4.651155   3.394801   2.143594   1.083247   2.151282
    19  H    5.366809   3.869230   3.387334   2.149421   1.083361
    20  H    4.651866   3.392250   3.863066   3.392752   2.148998
    21  H    2.716590   2.152292   3.395190   3.867021   3.388449
    22  H    3.458087   4.901169   5.760745   7.094750   7.645363
                   11         12         13         14         15
    11  C    0.000000
    12  C    1.389393   0.000000
    13  H    6.467234   5.520874   0.000000
    14  H    8.436201   7.343946   2.238357   0.000000
    15  H    4.434388   3.254108   4.251890   5.665181   0.000000
    16  H    3.968282   2.581149   4.310405   5.580190   1.832469
    17  H    3.865812   3.394739   4.240595   6.292336   2.700332
    18  H    3.392423   3.864612   6.166128   8.370134   4.837973
    19  H    2.146824   3.388149   7.490942   9.651625   5.832678
    20  H    1.083107   2.144968   7.339122   9.239662   5.337254
    21  H    2.145366   1.085665   5.810563   7.403925   3.520927
    22  H    7.026707   5.673096   3.611718   3.448510   3.561294
                   16         17         18         19         20
    16  H    0.000000
    17  H    3.768651   0.000000
    18  H    5.504798   2.464045   0.000000
    19  H    5.832002   4.281634   2.478261   0.000000
    20  H    4.640614   4.948919   4.288963   2.475319   0.000000
    21  H    2.327556   4.295422   4.950266   4.281711   2.465718
    22  H    3.193861   5.578479   7.846730   8.720625   7.735749
                   21         22
    21  H    0.000000
    22  H    5.417347   0.000000
 Stoichiometry    C8H10NO3(1+)
 Framework group  C1[X(C8H10NO3)]
 Deg. of freedom    60
 Full point group                 C1      NOp   1
 RotChk:  IX=3 Diff= 4.43D-02
 Largest Abelian subgroup         C1      NOp   1
 Largest concise Abelian subgroup C1      NOp   1
                         Standard orientation:                         
 ---------------------------------------------------------------------
 Center     Atomic      Atomic             Coordinates (Angstroms)
 Number     Number       Type             X           Y           Z
 ---------------------------------------------------------------------
      1          8           0       -2.758219   -1.114384    0.675702
      2          6           0       -2.247685   -0.127988    0.034774
      3          7           0       -2.975212    0.810668   -0.508582
      4          8           0       -4.314222    0.702358   -0.427422
      5          8           0       -0.974939    0.058328   -0.063463
      6          6           0       -0.037272   -0.873147    0.560727
      7          6           0        1.339917   -0.370578    0.254558
      8          6           0        1.747013    0.883871    0.713398
      9          6           0        3.025112    1.347946    0.440589
     10          6           0        3.909179    0.558638   -0.290101
     11          6           0        3.508484   -0.688792   -0.753615
     12          6           0        2.225527   -1.149842   -0.485540
     13          1           0       -2.533262    1.609446   -0.954910
     14          1           0       -4.712872    1.153699   -1.182579
     15          1           0       -0.224143   -0.847860    1.635107
     16          1           0       -0.188600   -1.849842    0.101251
     17          1           0        1.063288    1.500458    1.289104
     18          1           0        3.334590    2.321564    0.800749
     19          1           0        4.911290    0.915620   -0.495059
     20          1           0        4.193115   -1.302767   -1.325835
     21          1           0        1.917416   -2.124627   -0.850959
     22          1           0       -3.376948   -1.701420    0.215929
 ---------------------------------------------------------------------
 Rotational constants (GHZ):           2.8384954           0.3817723           0.3593194
 Leave Link  202 at Mon Dec 30 16:45:04 2019, MaxMem= 10737418240 cpu:               0.3 elap:               0.0
 (Enter /apps/cent7/gaussian/g16-A.03/g16-haswell/g16/l301.exe)
 Standard basis: 6-311++G(d,p) (5D, 7F)
 Ernie: Thresh=  0.10000D-02 Tol=  0.10000D-05 Strict=F.
 There are   346 symmetry adapted cartesian basis functions of A   symmetry.
[...]
 25,-0.00151598,-0.00508746,0.00941853,0.01096551,0.00309134,0.03784623
 ,0.03935466,-0.07775101,-0.20230356,0.01184126,0.21585481,0.00094287,-
 0.00448236,-0.00490549,0.00003246,0.01564387,-0.02420346,-0.04884823,-
 0.07787658,0.10199365,-0.00883565,-0.00618990,0.00406335,0.00064906,0.
 00272413,0.00200792,-0.00092199,-0.00041309,-0.00043157,0.00005429,0.0
 0002594,-0.00001446,-0.00001894,-0.00003185,0.00007958,-0.00004654,0.0
 0005148,0.00004139,0.00002936,-0.00001212,-0.00000507,-0.00002837,0.00
 001453,-0.00001142,0.00009772,-0.00001586,-0.00006592,0.05814566,-0.00
 461911,0.00512622,-0.00446950,0.01637044,0.01224308,0.00537688,-0.0712
 2363,-0.12212758,0.12996444,-0.01180579,-0.02245252,0.02190542,-0.0037
 2167,-0.00584204,-0.00136312,0.00159639,0.00039759,0.00080483,-0.00006
 135,-0.00007084,0.00001430,0.00008085,-0.00001891,-0.00001022,0.000002
 06,-0.00011284,0.00001151,-0.00005402,-0.00004356,0.00002953,-0.000013
 27,-0.00005293,0.00003405,-0.00010053,0.00001092,0.00010008,0.07383669
 ,0.13573668,-0.00283176,-0.00188487,0.00081876,0.00935343,0.01053503,-
 0.02178539,0.07959051,0.15270519,-0.34132174,-0.00518326,-0.01047447,0
 .01545625,0.00273163,0.00337263,0.00309424,-0.00197869,-0.00129183,-0.
 00167693,0.00010289,0.00016146,-0.00000270,-0.00015901,0.00007840,0.00
 003847,-0.00000798,0.00009066,-0.00001134,0.00002315,0.00004867,-0.000
 02336,0.00007674,0.00002481,-0.00004093,0.00013077,-0.00009658,-0.0000
 2626,-0.08265859,-0.15238093,0.34393451,-0.00017602,-0.00017396,0.0023
 1931,-0.00304174,-0.00126158,-0.00432229,-0.00252425,-0.00143763,0.001
 38396,-0.49130706,0.04581722,-0.08190824,0.00268925,0.00311618,0.00200
 951,-0.00079664,-0.00097071,-0.00138522,0.00009123,0.00012810,0.000039
 30,-0.00010488,0.00006777,0.00005475,-0.00002468,0.00006402,0.00001276
 ,0.00001417,0.00003057,-0.00000252,0.00005168,0.00002321,-0.00002486,0
 .00014133,-0.00007277,-0.00004831,-0.00123937,0.00060599,0.00031610,0.
 49614014,-0.00003342,0.00070118,0.00062432,-0.00538200,-0.00543019,0.0
 0246017,-0.05273019,-0.01199598,-0.01251299,0.10684455,-0.05576802,0.0
 1967749,-0.00016607,-0.00063242,-0.00235664,0.00061629,-0.00032442,0.0
 0012897,-0.00007272,-0.00005251,-0.00005379,0.00003984,0.00001593,-0.0
 0001703,0.00000168,-0.00003700,0.00001105,-0.00002290,0.00000741,0.000
 01003,0.00002203,-0.00000043,0.00001816,-0.00003017,-0.00000031,0.0000
 1112,-0.00329326,-0.00089314,-0.00061024,-0.04631384,0.07417179,0.0004
 9458,-0.00146650,-0.00071857,-0.00662317,-0.00273323,-0.00209275,-0.00
 087507,0.00331544,-0.00253933,-0.07753891,0.00386613,-0.01942293,0.001
 40526,0.00180961,-0.00023169,-0.00046136,-0.00055136,-0.00040908,0.000
 01486,0.00003628,-0.00006216,-0.00004780,0.00004845,0.00001795,-0.0000
 0093,0.00002089,-0.00000401,0.00000244,0.00002231,-0.00000658,0.000044
 43,0.00000890,-0.00001290,0.00002343,-0.00003029,-0.00001285,0.0031636
 4,0.00123617,0.00128468,0.08281638,-0.00601435,0.02347065,-0.00033073,
 -0.00099256,0.00143176,0.00097139,0.00605686,-0.00281424,-0.00056270,-
 0.00057049,-0.00019314,0.00010314,-0.00036747,-0.00001952,-0.01247504,
 0.00265393,-0.01056810,-0.15631711,0.13219666,-0.02352899,0.01207963,-
 0.01276574,0.00391817,0.00094881,-0.00138675,-0.00057816,0.00021236,0.
 00017686,0.00017433,0.00020016,-0.00019384,0.00004699,-0.00002737,-0.0
 0069496,-0.00063938,-0.00157665,-0.00166028,0.00119632,0.00002984,0.00
 006967,0.00010743,0.00004839,0.00001982,0.00000900,0.16722862,-0.00086
 954,-0.00098544,0.00041433,0.00038986,0.00416900,-0.00027612,-0.000576
 72,-0.00033696,-0.00111384,0.00007812,-0.00044451,-0.00013615,-0.01096
 425,0.00533133,-0.00606047,0.13762281,-0.22031576,0.03831705,0.0164650
 2,-0.01984672,0.00249136,0.00188378,0.00147048,-0.00159762,-0.00027280
 ,-0.00034266,-0.00012071,-0.00015838,0.00016546,0.00014737,0.00067605,
 -0.00055834,-0.00101414,-0.00333036,-0.00289755,0.00234948,0.00008112,
 -0.00006047,0.00008248,0.00010361,0.00004317,0.00003081,-0.13900665,0.
 23337693,-0.00062504,-0.00143364,0.00115734,0.00166506,0.00774025,0.00
 001962,-0.00074812,-0.00080500,-0.00100822,0.00013722,-0.00074303,-0.0
 0040855,-0.02954767,0.01240543,-0.02211288,-0.01614375,0.03156448,-0.0
 5371518,-0.00253660,0.00229655,0.00232859,-0.00066876,-0.00002228,-0.0
 0032842,0.00012407,-0.00013902,0.00007776,0.00011056,-0.00027884,-0.00
 005304,-0.00088106,-0.00004637,-0.00012739,0.00093205,0.00035605,0.000
 92443,-0.00002760,0.00008462,0.00021678,0.00018718,0.00006024,0.000093
 72,0.03491815,-0.03470459,0.06479985,-0.00006436,-0.00130147,0.0003870
 9,0.00439660,0.00328505,-0.00097567,-0.00151335,0.00016934,-0.00102360
 ,-0.00048436,-0.00002758,-0.00007614,0.00770495,-0.00734097,-0.0237197
 8,-0.20299709,0.01672522,0.14800501,-0.01043176,0.00060298,0.00931223,
 0.00021079,-0.00287091,0.00123914,-0.00059502,0.00016507,-0.00042023,0
 .00012149,-0.00011074,-0.00002731,-0.00032713,-0.00035142,-0.00006895,
 0.00035737,0.00191824,-0.00109517,0.00017005,-0.00028078,0.00026501,0.
 00012452,-0.00010678,0.00005920,-0.01030308,-0.00097216,0.01285905,0.2
 1271450,0.00018642,-0.00068776,0.00090645,0.00225717,0.00335396,-0.003
 08724,-0.00072033,-0.00020079,-0.00035355,-0.00014067,-0.00010073,0.00
 011976,0.00045577,-0.00315600,-0.00745212,0.01367074,-0.05405389,-0.00
 835816,-0.02083831,0.00348645,0.01904936,-0.00039935,-0.00462982,0.000
 77230,-0.00134743,0.00035863,-0.00024336,0.00005669,0.00000709,0.00012
 755,0.00003954,-0.00001349,0.00004490,-0.00148142,0.00174352,0.0001168
 5,0.00011342,-0.00007276,0.00010512,0.00002735,-0.00003230,-0.00000420
 ,0.01669974,0.00083065,-0.01668806,-0.00904428,0.05408871,-0.00006415,
 -0.00153608,0.00129405,0.00490118,0.00585309,-0.00276638,-0.00098040,-
 0.00035330,-0.00051510,-0.00068930,-0.00006275,0.00001532,0.00525912,-
 0.01023975,-0.03343561,0.13735427,-0.00706218,-0.17255586,0.00323160,-
 0.00107311,0.00143485,0.00028426,0.00081607,0.00086166,0.00006497,-0.0
 0083773,-0.00049001,-0.00041286,0.00002980,0.00018077,0.00007744,0.000
 22303,0.00027786,-0.00077717,-0.00107596,-0.00001211,0.00026190,-0.000
 21742,0.00029015,0.00008320,-0.00015233,0.00002061,-0.00363197,0.00039
 073,0.00793319,-0.14486439,0.01490911,0.19724845,0.00011114,0.00014934
 ,-0.00005115,-0.00067133,-0.00054621,-0.00027839,0.00014814,-0.0000756
 4,0.00015172,0.00003938,0.00005786,0.00002839,-0.00003663,-0.00017758,
 -0.00028353,0.00041757,0.00186935,-0.00150970,-0.00826667,0.02582833,0
 .00464419,-0.11869495,0.11390203,0.03099110,0.01146190,-0.01414716,-0.
 00280886,-0.00013992,-0.00330541,0.00265423,-0.00064857,-0.00071843,-0
 .00020612,-0.00415914,-0.00158237,0.00385509,-0.00007504,0.00004325,-0
 .00004078,-0.00004991,-0.00000976,-0.00001638,-0.00029080,-0.00089456,
 0.00033837,0.00044789,-0.00008300,0.00014984,0.12047382,0.00002126,-0.
 00000618,0.00002848,0.00003332,0.00002865,-0.00006156,0.00002047,0.000
 00809,0.00002431,0.00000851,0.00000625,0.00002070,0.00023590,0.0002494
 7,0.00019790,-0.00093210,0.00094380,0.00007562,-0.00214268,0.00209551,
 0.00086855,0.11358262,-0.26969642,-0.04473554,0.01494389,-0.01748815,-
 0.00601148,-0.00374447,-0.00324604,0.00116536,-0.00086028,0.00001888,0
 .00032363,-0.00080955,0.00189156,0.00033871,0.00002479,0.00001224,-0.0
 0001274,-0.00000029,-0.00000005,-0.00000473,0.00031505,0.00037198,0.00
 001757,-0.00004414,0.00005984,-0.00007596,-0.12135633,0.28467738,-0.00
 000589,0.00008051,-0.00005224,-0.00001752,0.00001303,-0.00000882,-0.00
 005096,-0.00006818,-0.00006729,-0.00001106,-0.00001419,-0.00004823,-0.
 00069406,-0.00060705,-0.00051110,-0.00097960,-0.00090086,-0.00250962,0
 .00478062,-0.00887459,0.00116544,0.03035240,-0.04428056,-0.04970200,-0
 .00224314,0.00442808,0.00542011,0.00269255,0.00094754,0.00674362,-0.00
 018292,0.00034831,-0.00110484,0.00406252,0.00026539,0.00513045,-0.0000
 5558,-0.00002089,0.00002546,-0.00000507,-0.00000885,0.00000846,0.00002
 895,0.00067387,-0.00003437,0.00007249,0.00026014,0.00013469,-0.0359718
 3,0.04804075,0.03964217,-0.00001939,-0.00004115,-0.00001189,0.00009110
 ,0.00014585,0.00009529,-0.00004909,-0.00001040,-0.00005892,-0.00001042
 ,-0.00001866,-0.00002740,-0.00015525,-0.00015654,-0.00012834,-0.000288
 46,0.00025280,0.00046109,0.00179834,-0.00251541,0.00198120,-0.00855521
 ,0.00236272,0.00446279,-0.31407330,-0.00028931,0.09831011,-0.00790458,
 -0.00251827,0.00425353,0.00127961,0.00242841,0.00228237,0.00055918,0.0
 0022816,-0.00057949,-0.00000755,-0.00001763,0.00002304,0.00000760,0.00
 000012,0.00000982,-0.00002372,0.00001243,-0.00002329,-0.00011883,-0.00
 017168,-0.00004143,0.00006120,-0.00008233,-0.00152603,0.32799933,-0.00
 002625,-0.00007320,-0.00000072,0.00011550,0.00018627,0.00007767,-0.000
 05096,-0.00001132,-0.00006186,-0.00002042,-0.00002524,-0.00002906,-0.0
 0010721,-0.00020917,-0.00009783,-0.00127720,0.00026424,0.00067987,-0.0
 0224203,-0.00426786,0.00039525,-0.02682505,0.00438990,0.00959333,-0.00
 010848,-0.05950739,-0.00030047,0.02655142,0.00498621,-0.00948313,0.002
 37670,-0.00460514,-0.00121640,0.00001733,-0.00143470,0.00001549,-0.000
 00489,-0.00001109,0.00001917,0.00001043,-0.00000057,0.00000844,0.00002
 236,0.00001958,-0.00001605,-0.00019771,-0.00032773,0.00005122,0.000428
 76,0.00081649,-0.00003161,0.00044297,0.05873655,0.00001273,0.00004290,
 -0.00003903,-0.00003350,-0.00004594,0.00008245,0.00000269,0.00000577,-
 0.00001105,0.00001520,0.00001054,-0.00000220,0.00004037,0.00011360,0.0
 0001849,0.00015044,-0.00032900,0.00019409,0.00239069,0.00073847,0.0068
 9275,0.00359717,-0.00083689,0.00237837,0.09805723,-0.00010326,-0.07481
 744,0.00517615,0.00079105,0.00234750,0.00232086,-0.00125094,0.00671120
 ,-0.00058713,-0.00000924,-0.00089649,-0.00001125,-0.00000682,0.0000070
 4,-0.00000680,-0.00000074,0.00000358,-0.00003109,0.00002949,0.00001832
 ,-0.00004785,-0.00003759,-0.00009125,-0.00149899,0.00011327,-0.0036829
 5,-0.10783673,0.00057948,0.06553396,0.00000362,-0.00000315,-0.00000604
 ,0.00000922,0.00003584,0.00001043,-0.00001160,-0.00000186,-0.00001221,
 -0.00000453,-0.00000317,-0.00000964,-0.00001177,-0.00009946,-0.0000436
 4,-0.00014525,-0.00016596,-0.00033108,-0.00087207,0.00111231,0.0000297
 1,0.00013457,0.00326216,0.00280969,0.01132855,0.01441664,-0.00189772,-
 0.12380957,-0.11951342,0.02620275,-0.00827046,-0.02621815,0.00391142,-
 0.00402216,0.00048129,0.00435741,-0.00000345,-0.00000724,0.00000860,0.
 00000103,-0.00000104,0.00000393,-0.00002515,-0.00004778,0.00002222,0.0
 0008745,0.00006834,-0.00001760,0.00037890,0.00082196,-0.00019948,0.000
 06736,-0.00038636,-0.00150853,0.12542984,-0.00001089,-0.00000437,-0.00
 000532,0.00005834,0.00003946,0.00004941,-0.00001271,0.00000830,-0.0000
 2007,-0.00000161,-0.00000424,-0.00000560,0.00001506,0.00005168,0.00006
 358,-0.00015028,-0.00018439,0.00003923,0.00103737,0.00034821,-0.000403
 67,0.00303718,-0.00321940,-0.00141319,-0.01452008,-0.01694259,0.004586
 04,-0.11947267,-0.27572677,0.03620857,0.00263278,0.00504810,-0.0009392
 8,0.00071859,0.00153486,-0.00048763,0.00000465,-0.00000604,0.00000675,
 0.00000403,0.00000121,0.00000312,0.00003573,0.00005574,-0.00001725,-0.
 00004101,-0.00001155,0.00000973,-0.00071541,-0.00091811,0.00025333,0.0
 0012868,0.00079611,0.00009110,0.12722089,0.28848236,0.00000420,0.00001
 584,-0.00000202,-0.00001872,-0.00000012,-0.00006324,-0.00001312,-0.000
 01727,-0.00000545,-0.00000830,-0.00000561,-0.00001613,-0.00023171,-0.0
 0023680,-0.00014470,-0.00035396,-0.00000064,-0.00083830,0.00015270,-0.
 00019625,-0.00085499,0.00277372,-0.00151376,0.00666319,-0.00292413,-0.
 00573805,0.00566651,0.02613408,0.03610322,-0.05037129,0.00507283,0.009
 60479,0.00325582,0.00436493,-0.00044391,0.00607298,-0.00000258,-0.0000
 1306,0.00000971,-0.00000135,-0.00000620,0.00000273,-0.00003283,0.00010
 031,0.00005910,0.00008137,-0.00004140,0.00001362,-0.00021970,-0.000278
 11,-0.00011958,-0.00146714,0.00026909,-0.00353733,-0.03184085,-0.03816
 655,0.03791866,-0.00002366,-0.00001595,-0.00001412,0.00009230,0.000054
 05,0.00006440,-0.00003916,0.00000387,-0.00003667,-0.00000924,-0.000008
 25,-0.00001110,-0.00005404,-0.00003837,-0.00001574,0.00049467,-0.00087
 476,-0.00002272,0.00008993,-0.00307962,0.00270146,-0.00098786,-0.00090
 546,-0.00005575,-0.00409674,-0.00089180,0.00429875,-0.00784302,0.02643
 242,0.00540494,-0.11766582,0.11473510,0.03310201,0.01104092,-0.0150967
 9,-0.00329847,0.00000935,-0.00001483,0.00000660,0.00000841,-0.00000406
 ,0.00000147,-0.00013773,-0.00023585,0.00000356,0.00002171,0.00002088,-
 0.00000047,-0.00005085,0.00007668,-0.00037121,-0.00047440,0.00127433,0
 .00013903,0.00030257,-0.00020692,-0.00164408,0.11929283,-0.00005214,-0
 .00007115,0.00000482,0.00018653,0.00019634,0.00008008,-0.00008423,-0.0
 0000623,-0.00007477,-0.00002886,-0.00002953,-0.00003114,-0.00022629,-0
 .00024358,-0.00014352,0.00096495,-0.00072762,-0.00007246,-0.00359984,-
 0.00242111,0.00088859,-0.00071806,0.00031788,0.00034372,-0.00083762,0.
 00149779,0.00005510,-0.00246862,0.00498614,0.00095004,0.11456040,-0.27
 648733,-0.05088805,0.01396963,-0.01754108,-0.00595896,0.00001650,-0.00
 002731,0.00001996,0.00002020,-0.00000423,0.00000687,-0.00017052,-0.000
 29570,0.00001520,-0.00000850,0.00001635,-0.00002779,0.00008501,-0.0000
 2884,0.00000722,-0.00020439,0.00013263,0.00007708,0.00030569,0.0004891
 4,0.00005587,-0.12169590,0.28944587,0.00000899,0.00003680,-0.00003488,
 0.00003850,-0.00005779,0.00006354,-0.00001597,0.00000864,-0.00001719,0
 .00000354,0.00001392,0.00000016,0.00005805,0.00003428,-0.00004644,-0.0
 0021008,0.00013397,0.00039451,0.00268952,0.00118681,0.00678058,-0.0000
 0615,0.00043265,-0.00110245,0.00426510,0.00010369,0.00597890,0.0042254
 6,-0.00976079,0.00226002,0.03332574,-0.05112615,-0.05399104,-0.0022332
 7,0.00481495,0.00471543,0.00000855,-0.00001781,0.00000413,-0.00000261,
 -0.00000511,0.00000413,-0.00005557,-0.00000157,-0.00010334,0.00003899,
 -0.00002545,-0.00002273,-0.00035026,-0.00001566,-0.00092061,0.00012512
 ,-0.00048201,-0.00018710,-0.00160925,0.00022637,-0.00346254,-0.0386709
 8,0.05451182,0.04328844,0.00000467,-0.00002935,0.00000721,0.00011430,0
 .00026794,0.00006815,-0.00005047,-0.00000490,-0.00006038,-0.00001452,-
 0.00001549,-0.00001735,-0.00000035,-0.00013821,-0.00007026,-0.00016002
 ,-0.00101020,-0.00119994,-0.00966893,-0.00270007,0.00480472,0.00175540
 ,0.00270180,0.00201409,0.00039694,-0.00020243,-0.00060763,0.00134650,-
 0.00296679,0.00236360,-0.00902745,0.00261871,0.00504933,-0.30254834,0.
 00021193,0.10079458,-0.00000529,-0.00000961,0.00001769,0.00001031,-0.0
 0000209,0.00000924,0.00018494,0.00000249,-0.00016742,0.00057248,0.0007
 8532,-0.00018458,-0.00040512,-0.00010832,0.00032663,-0.00018768,0.0000
 0332,-0.00033624,-0.00056492,0.00023132,0.00017289,0.00002336,-0.00003
 088,-0.00163170,0.31821998,0.00003386,0.00013962,0.00000152,-0.0003316
 8,-0.00055683,-0.00030961,0.00011369,-0.00001829,0.00016280,0.00003201
 ,0.00005807,0.00005510,0.00004183,0.00032751,0.00013444,0.00156229,0.0
 0139965,-0.00095095,0.02474445,0.00370618,-0.00920985,0.00205766,-0.00
 480742,-0.00104496,-0.00010345,-0.00117578,0.00003738,-0.00252604,-0.0
 0476730,0.00051945,-0.02627140,0.00546995,0.00983858,0.00041927,-0.059
 37752,-0.00069580,-0.00000163,0.00003290,-0.00004825,-0.00003493,-0.00
 000814,-0.00002856,-0.00016852,0.00018668,0.00023389,-0.00042526,-0.00
 052876,0.00042658,0.00130440,0.00021158,-0.00051336,0.00000508,0.00011
 893,0.00003615,-0.00128101,0.00015811,0.00051478,0.00046454,0.00077679
 ,-0.00000398,0.00038173,0.05871575,0.00006459,0.00014439,-0.00009694,-
 0.00016690,-0.00038004,-0.00018023,-0.00006274,-0.00004371,0.00002184,
 -0.00001664,0.00002153,-0.00001454,-0.00065056,-0.00066884,-0.00060788
 ,-0.00139097,0.00058250,-0.00237640,0.00558814,0.00191998,0.00099206,0
 .00160995,-0.00129726,0.00591266,-0.00056143,0.00014165,-0.00095125,0.
 00232230,0.00070616,0.00678381,0.00418323,-0.00110231,0.00294680,0.101
 51175,-0.00089114,-0.07644699,0.00003861,-0.00005506,-0.00002105,-0.00
 001080,-0.00003001,-0.00001071,0.00013698,0.00024649,0.00026660,0.0001
 2645,-0.00022302,-0.00000128,0.00041145,-0.00002018,0.00046878,-0.0003
 0531,0.00003154,-0.00093123,0.00011457,-0.00008000,-0.00025380,-0.0015
 8003,0.00018570,-0.00360807,-0.11136320,0.00084919,0.06809454,-0.12327
 470,-0.18840958,-0.06101488,-0.00149581,-0.00670705,0.01253718,-0.0031
 2179,0.00339451,-0.00540731,-0.00238044,-0.00132785,0.00297596,0.00623
 332,-0.00006648,-0.00315951,-0.00074418,-0.00055929,-0.00044329,0.0000
 0685,0.00003030,-0.00009124,-0.00001006,0.00004020,0.00000199,-0.00002
 014,0.00001456,0.00004357,-0.00000850,0.00002901,-0.00000280,0.0000303
 3,0.00003411,-0.00001995,0.00008850,-0.00004457,-0.00000894,-0.0001302
 4,-0.00067588,0.00010649,-0.00006353,0.00062397,-0.00249406,0.00006280
 ,0.00001374,0.00007182,-0.00009484,-0.00015491,-0.00000344,-0.00005102
 ,-0.00000398,-0.00000182,0.00000417,0.00000345,-0.00000448,-0.00000218
 ,0.00000693,0.00000174,0.00000647,0.00001695,-0.00000172,0.00000423,-0
 .00001691,0.00000056,0.12496077,-0.17761095,-0.33568764,-0.08290585,-0
 .01466376,-0.03772832,0.00732093,-0.00151559,0.00177966,-0.00496335,-0
 .00000272,-0.00075186,-0.00184916,0.00074092,0.00563214,0.00276615,-0.
 00086173,-0.00090844,-0.00103474,0.00000291,0.00014488,-0.00015265,-0.
 00013872,0.00015736,0.00006384,0.00000310,0.00008641,-0.00001145,0.000
 03451,0.00003991,-0.00000059,0.00007563,0.00002352,-0.00001087,0.00017
 130,-0.00002932,-0.00007243,-0.00021556,-0.00176760,-0.00045042,0.0002
 4703,0.00023899,0.00041980,-0.00026892,0.00006309,0.00011988,0.0002578
 2,-0.00012963,0.00000499,-0.00005647,-0.00000795,0.00000197,0.00001854
 ,0.00002650,-0.00000846,0.00000348,0.00000420,-0.00000616,0.00000667,0
 .00002476,-0.00000756,0.00001378,-0.00006170,-0.00003755,0.19375875,0.
 36885104,-0.07810611,-0.12049649,-0.07863599,0.02423444,0.03303089,0.0
 1944009,-0.00134719,0.00479729,-0.00709886,0.00143445,-0.00088154,0.00
 204651,-0.00171317,0.00584117,-0.00661101,-0.00061707,-0.00059395,-0.0
 0055996,-0.00000558,-0.00005543,0.00010769,0.00001073,-0.00003702,0.00
 001890,-0.00001354,-0.00000003,-0.00004361,0.00000856,-0.00000999,0.00
 000426,-0.00001650,-0.00002165,-0.00002347,-0.00003909,0.00000813,0.00
 003252,0.00073442,-0.00100698,-0.00027047,-0.00150438,-0.00123327,0.00
 061706,0.00012494,-0.00024857,-0.00000389,-0.00012694,0.00010260,0.000
 18509,0.00001132,0.00000112,0.00002249,0.00000158,-0.00000139,0.000008
 32,0.00000532,0.00000135,0.00000703,-0.00000089,-0.00000538,0.00000654
 ,0.00001057,-0.00000454,0.00001327,0.05691414,0.08081369,0.07073749\\0
 .00002807,-0.00004806,-0.00000717,-0.00004921,0.00009058,-0.00009371,-
 0.00004621,-0.00043431,0.00005141,0.00012943,0.00034073,-0.00000946,-0
 .00005519,0.00001845,-0.00001177,-0.00003325,-0.00011936,0.00000151,0.
 00008635,0.00017694,0.00000922,-0.00004491,-0.00000111,0.00000249,-0.0
 0001504,0.00005320,-0.00000800,0.00000959,-0.00003869,-0.00002070,0.00
 003108,-0.00001473,0.00000357,-0.00001058,-0.00007733,-0.00000775,0.00
 004807,0.00006488,0.00002896,-0.00004119,-0.00002048,0.00003897,-0.000
 03537,0.00002307,0.00001259,0.00001670,-0.00002911,-0.00001703,0.00001
 072,0.00000379,0.00002432,-0.00001354,-0.00001998,0.00000507,-0.000003
 47,-0.00001317,0.00000052,-0.00000046,-0.00000707,-0.00002360,0.000009
 12,0.00002559,0.00000942,-0.00002074,0.00002616,0.00001113\\\@


 TO SEE A WORLD IN A GRAIN OF SAND
 AND A HEAVEN IN A WILD FLOWER
 HOLD INFINITY IN THE PALM OF YOUR HAND
 AND ETERNITY IN AN HOUR

                       -- WILLIAM BLAKE
 Job cpu time:       0 days  1 hours 14 minutes  0.4 seconds.
 Elapsed time:       0 days  0 hours  3 minutes  9.9 seconds.
 File lengths (MBytes):  RWF=    229 Int=      0 D2E=      0 Chk=     10 Scr=      1
 Normal termination of Gaussian 16 at Mon Dec 30 16:54:43 2019.
real 605.13
user 14081.98
sys 67.51
Machine:
brown-a116
brown-a116
brown-a116
brown-a116
brown-a116
brown-a116
brown-a116
brown-a116
brown-a116
brown-a116
brown-a116
brown-a116
brown-a116
brown-a116
brown-a116
brown-a116
brown-a116
brown-a116
brown-a116
brown-a116
