Title Card Required                                                     
Freq      RM062X                                                      6-311++G(d,p)       
Number of atoms                            I               17
Info1-9                                    I   N=           9
          44          44        1002           0           0         100
           6          18        -502
Full Title                                 C   N=           2
Title Card Required     
Route                                      C   N=           6
#P opt freq m062x/6-311++g(d,p) geom=connectivity temperatur
e=0.001     
Charge                                     I                0
Multiplicity                               I                1
Number of electrons                        I               72
Number of alpha electrons                  I               36
Number of beta electrons                   I               36
Number of basis functions                  I              269
Number of independent functions            I              268
Number of point charges in /Mol/           I                0
Number of translation vectors              I                0
Atomic numbers                             I   N=          17
           8           6           7           8           6           6
           6           6           6           6           1           1
           1           1           1           1           1
Nuclear charges                            R   N=          17
  8.00000000E+00  6.00000000E+00  7.00000000E+00  8.00000000E+00  6.00000000E+00
  6.00000000E+00  6.00000000E+00  6.00000000E+00  6.00000000E+00  6.00000000E+00
  1.00000000E+00  1.00000000E+00  1.00000000E+00  1.00000000E+00  1.00000000E+00
  1.00000000E+00  1.00000000E+00
Current cartesian coordinates              R   N=          51
  3.33841511E+00  2.62540073E+00  7.66653496E-01  2.36110386E+00  6.11423700E-01
  2.35801435E-01  3.83488914E+00 -1.46163511E+00 -2.62654399E-01  6.40693263E+00
 -9.86679766E-01 -4.54802405E-01 -4.20977106E-01  1.88604914E-01  1.23773883E-01
 -1.95956651E+00  2.29060892E+00 -2.69489004E-01 -4.56227408E+00  1.99416282E+00
 -4.17725904E-01 -5.63260645E+00 -3.94789889E-01 -1.52162014E-01 -4.10022577E+00
 -2.48899876E+00  2.73022831E-01 -1.49315987E+00 -2.20295798E+00  4.14731759E-01
  3.26808515E+00 -2.66104950E+00 -1.63948318E+00  6.51898497E+00  8.25737311E-01
 -1.53101088E-01 -1.08210521E+00  4.13142593E+00 -4.49960825E-01 -5.75863747E+00
  3.62474713E+00 -7.33874922E-01 -7.66461900E+00 -6.22613149E-01 -2.60074211E-01
 -4.93663193E+00 -4.34112933E+00  5.17701639E-01 -3.05846962E-01 -3.82376264E+00
  8.14846734E-01
Number of symbols in /Mol/                 I                0
Force Field                                I                0
Atom Types                                 C   N=          17
                                                            
                                                            
                                                            
                        
Int Atom Types                             I   N=          17
           0           0           0           0           0           0
           0           0           0           0           0           0
           0           0           0           0           0
MM charges                                 R   N=          17
  0.00000000E+00  0.00000000E+00  0.00000000E+00  0.00000000E+00  0.00000000E+00
  0.00000000E+00  0.00000000E+00  0.00000000E+00  0.00000000E+00  0.00000000E+00
  0.00000000E+00  0.00000000E+00  0.00000000E+00  0.00000000E+00  0.00000000E+00
  0.00000000E+00  0.00000000E+00
Integer atomic weights                     I   N=          17
          16          12          14          16          12          12
          12          12          12          12           1           1
           1           1           1           1           1
Real atomic weights                        R   N=          17
  1.59949146E+01  1.20000000E+01  1.40030740E+01  1.59949146E+01  1.20000000E+01
  1.20000000E+01  1.20000000E+01  1.20000000E+01  1.20000000E+01  1.20000000E+01
  1.00782504E+00  1.00782504E+00  1.00782504E+00  1.00782504E+00  1.00782504E+00
  1.00782504E+00  1.00782504E+00
Atom fragment info                         I   N=          17
           0           0           0           0           0           0
           0           0           0           0           0           0
           0           0           0           0           0
Atom residue num                           I   N=          17
           0           0           0           0           0           0
           0           0           0           0           0           0
           0           0           0           0           0
Nuclear spins                              I   N=          17
           0           0           2           0           0           0
           0           0           0           0           1           1
           1           1           1           1           1
Nuclear ZEff                               R   N=          17
 -5.60000000E+00 -3.60000000E+00 -4.55000000E+00 -5.60000000E+00 -3.60000000E+00
 -3.60000000E+00 -3.60000000E+00 -3.60000000E+00 -3.60000000E+00 -3.60000000E+00
 -1.00000000E+00 -1.00000000E+00 -1.00000000E+00 -1.00000000E+00 -1.00000000E+00
 -1.00000000E+00 -1.00000000E+00
Nuclear ZNuc                               R   N=          17
  8.00000000E+00  6.00000000E+00  7.00000000E+00  8.00000000E+00  6.00000000E+00
  6.00000000E+00  6.00000000E+00  6.00000000E+00  6.00000000E+00  6.00000000E+00
  1.00000000E+00  1.00000000E+00  1.00000000E+00  1.00000000E+00  1.00000000E+00
  1.00000000E+00  1.00000000E+00
Nuclear QMom                               R   N=          17
  0.00000000E+00  0.00000000E+00  2.04400000E+00  0.00000000E+00  0.00000000E+00
  0.00000000E+00  0.00000000E+00  0.00000000E+00  0.00000000E+00  0.00000000E+00
  0.00000000E+00  0.00000000E+00  0.00000000E+00  0.00000000E+00  0.00000000E+00
  0.00000000E+00  0.00000000E+00
Nuclear GFac                               R   N=          17
  0.00000000E+00  0.00000000E+00  4.03761000E-01  0.00000000E+00  0.00000000E+00
  0.00000000E+00  0.00000000E+00  0.00000000E+00  0.00000000E+00  0.00000000E+00
  2.79284600E+00  2.79284600E+00  2.79284600E+00  2.79284600E+00  2.79284600E+00
  2.79284600E+00  2.79284600E+00
MicOpt                                     I   N=          17
          -1          -1          -1          -1          -1          -1
          -1          -1          -1          -1          -1          -1
          -1          -1          -1          -1          -1
Number of residues                         I                0
Number of secondary structures             I                0
Redundant internal dimensions              I   N=           4
          76          17          25          34
Redundant internal coordinate indices      I   N=         304
           1           2           0           0           2           3
           0           0           2           5           0           0
           3           4           0           0           3          11
           0           0           4          12           0           0
           5           6           0           0           5          10
           0           0           6           7           0           0
           6          13           0           0           7           8
           0           0           7          14           0           0
           8           9           0           0           8          15
           0           0           9          10           0           0
           9          16           0           0          10          17
           0           0           1           2           3           0
           1           2           5           0           3           2
           5           0           2           3           4           0
           2           3          11           0           4           3
          11           0           3           4          12           0
           2           5           6           0           2           5
          10           0           6           5          10           0
           5           6           7           0           5           6
          13           0           7           6          13           0
           6           7           8           0           6           7
          14           0           8           7          14           0
           7           8           9           0           7           8
          15           0           9           8          15           0
           8           9          10           0           8           9
          16           0          10           9          16           0
           5          10           9           0           5          10
          17           0           9          10          17           0
           1           2           3           4           1           2
           3          11           5           2           3           4
           5           2           3          11           1           2
           5           6           1           2           5          10
           3           2           5           6           3           2
           5          10           2           3           4          12
          11           3           4          12           2           5
           6           7           2           5           6          13
          10           5           6           7          10           5
           6          13           2           5          10           9
           2           5          10          17           6           5
          10           9           6           5          10          17
           5           6           7           8           5           6
           7          14          13           6           7           8
          13           6           7          14           6           7
           8           9           6           7           8          15
          14           7           8           9          14           7
           8          15           7           8           9          10
           7           8           9          16          15           8
           9          10          15           8           9          16
           8           9          10           5           8           9
          10          17          16           9          10           5
          16           9          10          17
Redundant internal coordinates             R   N=          76
  2.30066179E+00  2.59192479E+00  2.81625645E+00  2.62257720E+00  1.91194119E+00
  1.84077024E+00  2.63445134E+00  2.63700691E+00  2.62372658E+00  2.04722146E+00
  2.63120326E+00  2.04695891E+00  2.62957858E+00  2.04758967E+00  2.62653638E+00
  2.04690758E+00  2.04861214E+00  2.09784165E+00  2.16547917E+00  2.01969804E+00
  2.01184918E+00  2.06197685E+00  1.93006759E+00  1.79877012E+00  2.05227024E+00
  2.13344531E+00  2.09744208E+00  2.09166147E+00  2.07177622E+00  2.11974624E+00
  2.09486560E+00  2.09266271E+00  2.09565138E+00  2.09710838E+00  2.09369181E+00
  2.09234631E+00  2.09487982E+00  2.09650675E+00  2.09172084E+00  2.09023338E+00
  2.09836557E+00  2.09398944E+00 -1.48715464E-01 -2.48576213E+00  3.01169485E+00
  6.74648183E-01  4.02897086E-01 -2.73070593E+00 -2.75833050E+00  3.91251785E-01
  7.31764669E-03  2.40296744E+00  3.12883667E+00 -1.45165159E-02 -2.05732277E-02
  3.11925890E+00 -3.13284392E+00  4.58784664E-02  1.69399936E-02 -3.08752293E+00
  9.66066305E-03 -3.13553186E+00 -3.13012185E+00  7.87093161E-03  4.83607032E-03
  3.13695026E+00 -3.13315050E+00 -1.03630927E-03 -8.46973703E-03  3.11969022E+00
 -3.14059126E+00 -1.24313026E-02 -2.41063659E-03  3.10214641E+00 -3.13060764E+00
 -2.60505928E-02
ZRed-IntVec                                I   N=          76
           0           0           0           0           0           0
           0           0           0           0           0           0
           0           0           0           0           0           0
           0           0           0           0           0           0
           0           0           0           0           0           0
           0           0           0           0           0           0
           0           0           0           0           0           0
           0           0           0           0           0           0
           0           0           0           0           0           0
           0           0           0           0           0           0
           0           0           0           0           0           0
           0           0           0           0           0           0
           0           0           0           0
ZRed-FPVec                                 R   N=          76
  0.00000000E+00  0.00000000E+00  0.00000000E+00  0.00000000E+00  0.00000000E+00
  0.00000000E+00  0.00000000E+00  0.00000000E+00  0.00000000E+00  0.00000000E+00
  0.00000000E+00  0.00000000E+00  0.00000000E+00  0.00000000E+00  0.00000000E+00
  0.00000000E+00  0.00000000E+00  0.00000000E+00  0.00000000E+00  0.00000000E+00
  0.00000000E+00  0.00000000E+00  0.00000000E+00  0.00000000E+00  0.00000000E+00
  0.00000000E+00  0.00000000E+00  0.00000000E+00  0.00000000E+00  0.00000000E+00
  0.00000000E+00  0.00000000E+00  0.00000000E+00  0.00000000E+00  0.00000000E+00
  0.00000000E+00  0.00000000E+00  0.00000000E+00  0.00000000E+00  0.00000000E+00
  0.00000000E+00  0.00000000E+00  0.00000000E+00  0.00000000E+00  0.00000000E+00
  0.00000000E+00  0.00000000E+00  0.00000000E+00  0.00000000E+00  0.00000000E+00
  0.00000000E+00  0.00000000E+00  0.00000000E+00  0.00000000E+00  0.00000000E+00
  0.00000000E+00  0.00000000E+00  0.00000000E+00  0.00000000E+00  0.00000000E+00
  0.00000000E+00  0.00000000E+00  0.00000000E+00  0.00000000E+00  0.00000000E+00
  0.00000000E+00  0.00000000E+00  0.00000000E+00  0.00000000E+00  0.00000000E+00
  0.00000000E+00  0.00000000E+00  0.00000000E+00  0.00000000E+00  0.00000000E+00
  0.00000000E+00
ZRed-Constraint1                           R   N=          76
  2.30066179E+00  2.59192479E+00  2.81625645E+00  2.62257720E+00  1.91194119E+00
  1.84077024E+00  2.63445134E+00  2.63700691E+00  2.62372658E+00  2.04722146E+00
  2.63120326E+00  2.04695891E+00  2.62957858E+00  2.04758967E+00  2.62653638E+00
  2.04690758E+00  2.04861214E+00  2.09784165E+00  2.16547917E+00  2.01969804E+00
  2.01184918E+00  2.06197685E+00  1.93006759E+00  1.79877012E+00  2.05227024E+00
  2.13344531E+00  2.09744208E+00  2.09166147E+00  2.07177622E+00  2.11974624E+00
  2.09486560E+00  2.09266271E+00  2.09565138E+00  2.09710838E+00  2.09369181E+00
  2.09234631E+00  2.09487982E+00  2.09650675E+00  2.09172084E+00  2.09023338E+00
  2.09836557E+00  2.09398944E+00 -1.48715464E-01 -2.48576213E+00  3.01169485E+00
  6.74648183E-01  4.02897086E-01 -2.73070593E+00 -2.75833050E+00  3.91251785E-01
  7.31764669E-03  2.40296744E+00  3.12883667E+00 -1.45165159E-02 -2.05732277E-02
  3.11925890E+00 -3.13284392E+00  4.58784664E-02  1.69399936E-02 -3.08752293E+00
  9.66066305E-03 -3.13553186E+00 -3.13012185E+00  7.87093161E-03  4.83607032E-03
  3.13695026E+00 -3.13315050E+00 -1.03630927E-03 -8.46973703E-03  3.11969022E+00
 -3.14059126E+00 -1.24313026E-02 -2.41063659E-03  3.10214641E+00 -3.13060764E+00
 -2.60505928E-02
ZRed-Constraint2                           R   N=          76
  2.37042600E+00  2.56686871E+00  2.69212010E+00  2.46256744E+00  1.90865453E+00
  1.81425682E+00  2.68079727E+00  2.68134356E+00  2.66162179E+00  2.05987058E+00
  2.65588958E+00  2.05985610E+00  2.65386792E+00  2.05986744E+00  2.65815695E+00
  2.05982965E+00  2.05968376E+00  2.06831842E+00  2.10354759E+00  2.11107346E+00
  2.14766115E+00  2.10612965E+00  2.02939450E+00  1.91057821E+00  2.11393073E+00
  2.11273003E+00  2.05644500E+00  2.11189626E+00  2.09211145E+00  2.07917760E+00
  2.09567103E+00  2.09553442E+00  2.09197986E+00  2.09172674E+00  2.09652492E+00
  2.09493365E+00  2.09444858E+00  2.09284404E+00  2.09589268E+00  2.11496953E+00
  2.09165384E+00  2.07656193E+00  3.45076503E-02 -3.10716328E+00 -3.13079127E+00
  1.07231086E-02  3.30106556E-01 -2.82533641E+00 -2.78730213E+00  3.40440210E-01
  1.21845862E+00 -1.92305895E+00  3.08121506E+00 -6.03108030E-02 -4.69604816E-02
  3.09469896E+00 -3.08367210E+00  5.77846111E-02  4.45131511E-02 -3.09721544E+00
  1.32906880E-02 -3.12835664E+00 -3.12836827E+00  1.31697150E-02  2.43687679E-02
 -3.11712533E+00 -3.11716932E+00  2.45218821E-02 -2.68533657E-02  3.11468554E+00
  3.11464083E+00 -2.70055782E-02 -8.25883217E-03  3.13346861E+00  3.13338767E+00
 -8.07020010E-03
SymInf integers                            I   N=          26
           1           1           1           1           1           0
           0           0           0           0           0           0
           0           0           0           0           0           0
           0           0           0           0           0           0
           0           0
RotTr to input orientation                 R   N=          12
 -9.84628728E-01  1.64610906E-01 -5.83910767E-02 -1.70584166E-01 -9.78122896E-01
  1.19065711E-01 -3.75141345E-02  1.27196113E-01  9.91167916E-01 -1.60518335E+00
  2.73529166E+00 -1.10479348E-01
Number of contracted shells                I               95
Number of primitive shells                 I              179
Pure/Cartesian d shells                    I                0
Pure/Cartesian f shells                    I                0
Highest angular momentum                   I                2
Largest degree of contraction              I                6
Shell types                                I   N=          95
           0          -1          -1          -1          -1          -2
           0          -1          -1          -1          -1          -2
           0          -1          -1          -1          -1          -2
           0          -1          -1          -1          -1          -2
           0          -1          -1          -1          -1          -2
           0          -1          -1          -1          -1          -2
           0          -1          -1          -1          -1          -2
           0          -1          -1          -1          -1          -2
           0          -1          -1          -1          -1          -2
           0          -1          -1          -1          -1          -2
           0           0           0           0           1           0
           0           0           0           1           0           0
           0           0           1           0           0           0
           0           1           0           0           0           0
           1           0           0           0           0           1
           0           0           0           0           1
Number of primitives per shell             I   N=          95
           6           3           1           1           1           1
           6           3           1           1           1           1
           6           3           1           1           1           1
           6           3           1           1           1           1
           6           3           1           1           1           1
           6           3           1           1           1           1
           6           3           1           1           1           1
           6           3           1           1           1           1
           6           3           1           1           1           1
           6           3           1           1           1           1
           3           1           1           1           1           3
           1           1           1           1           3           1
           1           1           1           3           1           1
           1           1           3           1           1           1
           1           3           1           1           1           1
           3           1           1           1           1
Shell to atom map                          I   N=          95
           1           1           1           1           1           1
           2           2           2           2           2           2
           3           3           3           3           3           3
           4           4           4           4           4           4
           5           5           5           5           5           5
           6           6           6           6           6           6
           7           7           7           7           7           7
           8           8           8           8           8           8
           9           9           9           9           9           9
          10          10          10          10          10          10
          11          11          11          11          11          12
          12          12          12          12          13          13
          13          13          13          14          14          14
          14          14          15          15          15          15
          15          16          16          16          16          16
          17          17          17          17          17
Primitive exponents                        R   N=         179
  8.58850000E+03  1.29723000E+03  2.99296000E+02  8.73771000E+01  2.56789000E+01
  3.74004000E+00  4.21175000E+01  9.62837000E+00  2.85332000E+00  9.05661000E-01
  2.55611000E-01  8.45000000E-02  1.29200000E+00  4.56324000E+03  6.82024000E+02
  1.54973000E+02  4.44553000E+01  1.30290000E+01  1.82773000E+00  2.09642000E+01
  4.80331000E+00  1.45933000E+00  4.83456000E-01  1.45585000E-01  4.38000000E-02
  6.26000000E-01  6.29348000E+03  9.49044000E+02  2.18776000E+02  6.36916000E+01
  1.88282000E+01  2.72023000E+00  3.06331000E+01  7.02614000E+00  2.11205000E+00
  6.84009000E-01  2.00878000E-01  6.39000000E-02  9.13000000E-01  8.58850000E+03
  1.29723000E+03  2.99296000E+02  8.73771000E+01  2.56789000E+01  3.74004000E+00
  4.21175000E+01  9.62837000E+00  2.85332000E+00  9.05661000E-01  2.55611000E-01
  8.45000000E-02  1.29200000E+00  4.56324000E+03  6.82024000E+02  1.54973000E+02
  4.44553000E+01  1.30290000E+01  1.82773000E+00  2.09642000E+01  4.80331000E+00
  1.45933000E+00  4.83456000E-01  1.45585000E-01  4.38000000E-02  6.26000000E-01
  4.56324000E+03  6.82024000E+02  1.54973000E+02  4.44553000E+01  1.30290000E+01
  1.82773000E+00  2.09642000E+01  4.80331000E+00  1.45933000E+00  4.83456000E-01
  1.45585000E-01  4.38000000E-02  6.26000000E-01  4.56324000E+03  6.82024000E+02
  1.54973000E+02  4.44553000E+01  1.30290000E+01  1.82773000E+00  2.09642000E+01
  4.80331000E+00  1.45933000E+00  4.83456000E-01  1.45585000E-01  4.38000000E-02
  6.26000000E-01  4.56324000E+03  6.82024000E+02  1.54973000E+02  4.44553000E+01
  1.30290000E+01  1.82773000E+00  2.09642000E+01  4.80331000E+00  1.45933000E+00
  4.83456000E-01  1.45585000E-01  4.38000000E-02  6.26000000E-01  4.56324000E+03
  6.82024000E+02  1.54973000E+02  4.44553000E+01  1.30290000E+01  1.82773000E+00
  2.09642000E+01  4.80331000E+00  1.45933000E+00  4.83456000E-01  1.45585000E-01
  4.38000000E-02  6.26000000E-01  4.56324000E+03  6.82024000E+02  1.54973000E+02
  4.44553000E+01  1.30290000E+01  1.82773000E+00  2.09642000E+01  4.80331000E+00
  1.45933000E+00  4.83456000E-01  1.45585000E-01  4.38000000E-02  6.26000000E-01
  3.38650000E+01  5.09479000E+00  1.15879000E+00  3.25840000E-01  1.02741000E-01
  3.60000000E-02  7.50000000E-01  3.38650000E+01  5.09479000E+00  1.15879000E+00
  3.25840000E-01  1.02741000E-01  3.60000000E-02  7.50000000E-01  3.38650000E+01
  5.09479000E+00  1.15879000E+00  3.25840000E-01  1.02741000E-01  3.60000000E-02
  7.50000000E-01  3.38650000E+01  5.09479000E+00  1.15879000E+00  3.25840000E-01
  1.02741000E-01  3.60000000E-02  7.50000000E-01  3.38650000E+01  5.09479000E+00
  1.15879000E+00  3.25840000E-01  1.02741000E-01  3.60000000E-02  7.50000000E-01
  3.38650000E+01  5.09479000E+00  1.15879000E+00  3.25840000E-01  1.02741000E-01
  3.60000000E-02  7.50000000E-01  3.38650000E+01  5.09479000E+00  1.15879000E+00
  3.25840000E-01  1.02741000E-01  3.60000000E-02  7.50000000E-01
Contraction coefficients                   R   N=         179
  1.89515008E-03  1.43859006E-02  7.07320031E-02  2.40001011E-01  5.94797026E-01
  2.80802012E-01  1.13889012E-01  9.20811101E-01 -3.27447036E-03  1.00000000E+00
  1.00000000E+00  1.00000000E+00  1.00000000E+00  1.96665025E-03  1.52306019E-02
  7.61269097E-02  2.60801033E-01  6.16462078E-01  2.21006028E-01  1.14660081E-01
  9.19999648E-01 -3.03068213E-03  1.00000000E+00  1.00000000E+00  1.00000000E+00
  1.00000000E+00  1.96978815E-03  1.49612859E-02  7.35005308E-02  2.48936766E-01
  6.02459433E-01  2.56201759E-01  1.11906080E-01  9.21666655E-01 -2.56919183E-03
  1.00000000E+00  1.00000000E+00  1.00000000E+00  1.00000000E+00  1.89515008E-03
  1.43859006E-02  7.07320031E-02  2.40001011E-01  5.94797026E-01  2.80802012E-01
  1.13889012E-01  9.20811101E-01 -3.27447036E-03  1.00000000E+00  1.00000000E+00
  1.00000000E+00  1.00000000E+00  1.96665025E-03  1.52306019E-02  7.61269097E-02
  2.60801033E-01  6.16462078E-01  2.21006028E-01  1.14660081E-01  9.19999648E-01
 -3.03068213E-03  1.00000000E+00  1.00000000E+00  1.00000000E+00  1.00000000E+00
  1.96665025E-03  1.52306019E-02  7.61269097E-02  2.60801033E-01  6.16462078E-01
  2.21006028E-01  1.14660081E-01  9.19999648E-01 -3.03068213E-03  1.00000000E+00
  1.00000000E+00  1.00000000E+00  1.00000000E+00  1.96665025E-03  1.52306019E-02
  7.61269097E-02  2.60801033E-01  6.16462078E-01  2.21006028E-01  1.14660081E-01
  9.19999648E-01 -3.03068213E-03  1.00000000E+00  1.00000000E+00  1.00000000E+00
  1.00000000E+00  1.96665025E-03  1.52306019E-02  7.61269097E-02  2.60801033E-01
  6.16462078E-01  2.21006028E-01  1.14660081E-01  9.19999648E-01 -3.03068213E-03
  1.00000000E+00  1.00000000E+00  1.00000000E+00  1.00000000E+00  1.96665025E-03
  1.52306019E-02  7.61269097E-02  2.60801033E-01  6.16462078E-01  2.21006028E-01
  1.14660081E-01  9.19999648E-01 -3.03068213E-03  1.00000000E+00  1.00000000E+00
  1.00000000E+00  1.00000000E+00  1.96665025E-03  1.52306019E-02  7.61269097E-02
  2.60801033E-01  6.16462078E-01  2.21006028E-01  1.14660081E-01  9.19999648E-01
 -3.03068213E-03  1.00000000E+00  1.00000000E+00  1.00000000E+00  1.00000000E+00
  2.54938145E-02  1.90373109E-01  8.52161486E-01  1.00000000E+00  1.00000000E+00
  1.00000000E+00  1.00000000E+00  2.54938145E-02  1.90373109E-01  8.52161486E-01
  1.00000000E+00  1.00000000E+00  1.00000000E+00  1.00000000E+00  2.54938145E-02
  1.90373109E-01  8.52161486E-01  1.00000000E+00  1.00000000E+00  1.00000000E+00
  1.00000000E+00  2.54938145E-02  1.90373109E-01  8.52161486E-01  1.00000000E+00
  1.00000000E+00  1.00000000E+00  1.00000000E+00  2.54938145E-02  1.90373109E-01
  8.52161486E-01  1.00000000E+00  1.00000000E+00  1.00000000E+00  1.00000000E+00
  2.54938145E-02  1.90373109E-01  8.52161486E-01  1.00000000E+00  1.00000000E+00
  1.00000000E+00  1.00000000E+00  2.54938145E-02  1.90373109E-01  8.52161486E-01
  1.00000000E+00  1.00000000E+00  1.00000000E+00  1.00000000E+00
P(S=P) Contraction coefficients            R   N=         179
  0.00000000E+00  0.00000000E+00  0.00000000E+00  0.00000000E+00  0.00000000E+00
  0.00000000E+00  3.65113974E-02  2.37152983E-01  8.19701941E-01  1.00000000E+00
  1.00000000E+00  1.00000000E+00  0.00000000E+00  0.00000000E+00  0.00000000E+00
  0.00000000E+00  0.00000000E+00  0.00000000E+00  0.00000000E+00  4.02486927E-02
  2.37593957E-01  8.15853851E-01  1.00000000E+00  1.00000000E+00  1.00000000E+00
  0.00000000E+00  0.00000000E+00  0.00000000E+00  0.00000000E+00  0.00000000E+00
  0.00000000E+00  0.00000000E+00  3.83119186E-02  2.37403116E-01  8.17592398E-01
  1.00000000E+00  1.00000000E+00  1.00000000E+00  0.00000000E+00  0.00000000E+00
  0.00000000E+00  0.00000000E+00  0.00000000E+00  0.00000000E+00  0.00000000E+00
  3.65113974E-02  2.37152983E-01  8.19701941E-01  1.00000000E+00  1.00000000E+00
  1.00000000E+00  0.00000000E+00  0.00000000E+00  0.00000000E+00  0.00000000E+00
  0.00000000E+00  0.00000000E+00  0.00000000E+00  4.02486927E-02  2.37593957E-01
  8.15853851E-01  1.00000000E+00  1.00000000E+00  1.00000000E+00  0.00000000E+00
  0.00000000E+00  0.00000000E+00  0.00000000E+00  0.00000000E+00  0.00000000E+00
  0.00000000E+00  4.02486927E-02  2.37593957E-01  8.15853851E-01  1.00000000E+00
  1.00000000E+00  1.00000000E+00  0.00000000E+00  0.00000000E+00  0.00000000E+00
  0.00000000E+00  0.00000000E+00  0.00000000E+00  0.00000000E+00  4.02486927E-02
  2.37593957E-01  8.15853851E-01  1.00000000E+00  1.00000000E+00  1.00000000E+00
  0.00000000E+00  0.00000000E+00  0.00000000E+00  0.00000000E+00  0.00000000E+00
  0.00000000E+00  0.00000000E+00  4.02486927E-02  2.37593957E-01  8.15853851E-01
  1.00000000E+00  1.00000000E+00  1.00000000E+00  0.00000000E+00  0.00000000E+00
  0.00000000E+00  0.00000000E+00  0.00000000E+00  0.00000000E+00  0.00000000E+00
  4.02486927E-02  2.37593957E-01  8.15853851E-01  1.00000000E+00  1.00000000E+00
  1.00000000E+00  0.00000000E+00  0.00000000E+00  0.00000000E+00  0.00000000E+00
  0.00000000E+00  0.00000000E+00  0.00000000E+00  4.02486927E-02  2.37593957E-01
  8.15853851E-01  1.00000000E+00  1.00000000E+00  1.00000000E+00  0.00000000E+00
  0.00000000E+00  0.00000000E+00  0.00000000E+00  0.00000000E+00  0.00000000E+00
  0.00000000E+00  0.00000000E+00  0.00000000E+00  0.00000000E+00  0.00000000E+00
  0.00000000E+00  0.00000000E+00  0.00000000E+00  0.00000000E+00  0.00000000E+00
  0.00000000E+00  0.00000000E+00  0.00000000E+00  0.00000000E+00  0.00000000E+00