 Entering Gaussian System, Link 0=/apps/cent7/gaussian/g16-A.03/g16-haswell/g16/g16
 Initial command:
 /apps/cent7/gaussian/g16-A.03/g16-haswell/g16/l1.exe "/scratch/brown/finej/gaussian/Gau-290182.inp" -scrdir="/scratch/brown/finej/gaussian/"
 Entering Link 1 = /apps/cent7/gaussian/g16-A.03/g16-haswell/g16/l1.exe PID=    290184.
  
 Copyright (c) 1988,1990,1992,1993,1995,1998,2003,2009,2016,
            Gaussian, Inc.  All Rights Reserved.
  
 This is part of the Gaussian(R) 16 program.  It is based on
 the Gaussian(R) 09 system (copyright 2009, Gaussian, Inc.),
 the Gaussian(R) 03 system (copyright 2003, Gaussian, Inc.),
 the Gaussian(R) 98 system (copyright 1998, Gaussian, Inc.),
 the Gaussian(R) 94 system (copyright 1995, Gaussian, Inc.),
 the Gaussian 92(TM) system (copyright 1992, Gaussian, Inc.),
 the Gaussian 90(TM) system (copyright 1990, Gaussian, Inc.),
 the Gaussian 88(TM) system (copyright 1988, Gaussian, Inc.),
 the Gaussian 86(TM) system (copyright 1986, Carnegie Mellon
 University), and the Gaussian 82(TM) system (copyright 1983,
 Carnegie Mellon University). Gaussian is a federally registered
 trademark of Gaussian, Inc.
  
 This software contains proprietary and confidential information,
 including trade secrets, belonging to Gaussian, Inc.
  
 This software is provided under written license and may be
 used, copied, transmitted, or stored only in accord with that
 written license.
  
 The following legend is applicable only to US Government
 contracts under FAR:
  
                    RESTRICTED RIGHTS LEGEND
  
 Use, reproduction and disclosure by the US Government is
 subject to restrictions as set forth in subparagraphs (a)
 and (c) of the Commercial Computer Software - Restricted
 Rights clause in FAR 52.227-19.
  
 Gaussian, Inc.
 340 Quinnipiac St., Bldg. 40, Wallingford CT 06492
  
  
 ---------------------------------------------------------------
 Warning -- This program may not be used in any manner that
 competes with the business of Gaussian, Inc. or will provide
 assistance to any competitor of Gaussian, Inc.  The licensee
 of this program is prohibited from giving any competitor of
 Gaussian, Inc. access to this program.  By using this program,
 the user acknowledges that Gaussian, Inc. is engaged in the
 business of creating and licensing software in the field of
 computational chemistry and represents and warrants to the
 licensee that it is not a competitor of Gaussian, Inc. and that
 it will not use this program in any manner prohibited above.
 ---------------------------------------------------------------
  

 Cite this work as:
 Gaussian 16, Revision A.03,
 M. J. Frisch, G. W. Trucks, H. B. Schlegel, G. E. Scuseria, 
 M. A. Robb, J. R. Cheeseman, G. Scalmani, V. Barone, 
 G. A. Petersson, H. Nakatsuji, X. Li, M. Caricato, A. V. Marenich, 
 J. Bloino, B. G. Janesko, R. Gomperts, B. Mennucci, H. P. Hratchian, 
 J. V. Ortiz, A. F. Izmaylov, J. L. Sonnenberg, D. Williams-Young, 
 F. Ding, F. Lipparini, F. Egidi, J. Goings, B. Peng, A. Petrone, 
 T. Henderson, D. Ranasinghe, V. G. Zakrzewski, J. Gao, N. Rega, 
 G. Zheng, W. Liang, M. Hada, M. Ehara, K. Toyota, R. Fukuda, 
 J. Hasegawa, M. Ishida, T. Nakajima, Y. Honda, O. Kitao, H. Nakai, 
 T. Vreven, K. Throssell, J. A. Montgomery, Jr., J. E. Peralta, 
 F. Ogliaro, M. J. Bearpark, J. J. Heyd, E. N. Brothers, K. N. Kudin, 
 V. N. Staroverov, T. A. Keith, R. Kobayashi, J. Normand, 
 K. Raghavachari, A. P. Rendell, J. C. Burant, S. S. Iyengar, 
 J. Tomasi, M. Cossi, J. M. Millam, M. Klene, C. Adamo, R. Cammi, 
 J. W. Ochterski, R. L. Martin, K. Morokuma, O. Farkas, 
 J. B. Foresman, and D. J. Fox, Gaussian, Inc., Wallingford CT, 2016.
 
 ******************************************
 Gaussian 16:  ES64L-G16RevA.03 25-Dec-2016
                13-Oct-2019 
 ******************************************
 %chk=13.chk
 %nprocshared=24
 Will use up to   24 processors via shared memory.
 %mem=80GB
 -------------------------------------------------------------------
 #P opt freq m062x/6-311++g(d,p) geom=connectivity temperature=0.001
 -------------------------------------------------------------------
 1/18=20,19=15,26=3,38=1,57=2,112=-1000/1,3;
 2/9=110,12=2,17=6,18=5,40=1/2;
 3/5=4,6=6,7=1111,11=2,25=1,30=1,71=1,74=-55/1,2,3;
 4//1;
 5/5=2,38=5/2;
 6/7=2,8=2,9=2,10=2,28=1/1;
 7//1,2,3,16;
 1/18=20,19=15,26=3/3(2);
 2/9=110/2;
 99//99;
 2/9=110/2;
 3/5=4,6=6,7=1111,11=2,25=1,30=1,71=1,74=-55/1,2,3;
 4/5=5,16=3,69=1/1;
 5/5=2,38=5/2;
 7//1,2,3,16;
 1/18=20,19=15,26=3/3(-5);
 2/9=110/2;
 6/7=2,8=2,9=2,10=2,19=2,28=1/1;
 99/9=1/99;
 Leave Link    1 at Sun Oct 13 19:52:08 2019, MaxMem= 10737418240 cpu:               1.8 elap:               0.1
 (Enter /apps/cent7/gaussian/g16-A.03/g16-haswell/g16/l101.exe)
 -------------------
 Title Card Required
 -------------------
 Symbolic Z-matrix:
 Charge =  0 Multiplicity = 1
 O                    -2.7858    0.2039    0.1487 
 C                    -2.1146    1.2215   -0.147 
 N                    -2.7705    2.3222   -0.5979 
 O                    -4.068     2.3833   -0.7024 
 C                    -0.6942    1.2081   -0.0384 
 C                     0.0258   -0.0132    0.0116 
 C                     1.4338   -0.0244    0.0462 
 C                     2.1479    1.1861    0.0476 
 C                     1.4539    2.407     0.0441 
 C                     0.0478    2.4167    0.0065 
 H                    -2.2603    3.1492   -0.8734 
 H                    -4.4591    2.4016    0.1742 
 H                    -0.5128   -0.9608    0.0236 
 H                     1.9719   -0.972     0.072 
 H                     3.2379    1.1782    0.0513 
 H                     2.0063    3.3463    0.0706 
 H                    -0.474     3.3736    0.0121 
 
 ITRead=  0  0  0  0  0  0  0  0  0  0  0  0  0  0  0  0  0
 MicOpt= -1 -1 -1 -1 -1 -1 -1 -1 -1 -1 -1 -1 -1 -1 -1 -1 -1
 NAtoms=     17 NQM=       17 NQMF=       0 NMMI=      0 NMMIF=      0
                NMic=       0 NMicF=      0.
                    Isotopes and Nuclear Properties:
 (Nuclear quadrupole moments (NQMom) in fm**2, nuclear magnetic moments (NMagM)
  in nuclear magnetons)

  Atom         1           2           3           4           5           6           7           8           9          10
 IAtWgt=          16          12          14          16          12          12          12          12          12          12
 AtmWgt=  15.9949146  12.0000000  14.0030740  15.9949146  12.0000000  12.0000000  12.0000000  12.0000000  12.0000000  12.0000000
 NucSpn=           0           0           2           0           0           0           0           0           0           0
 AtZEff=  -0.0000000  -0.0000000  -0.0000000  -0.0000000  -0.0000000  -0.0000000  -0.0000000  -0.0000000  -0.0000000  -0.0000000
 NQMom=    0.0000000   0.0000000   2.0440000   0.0000000   0.0000000   0.0000000   0.0000000   0.0000000   0.0000000   0.0000000
 NMagM=    0.0000000   0.0000000   0.4037610   0.0000000   0.0000000   0.0000000   0.0000000   0.0000000   0.0000000   0.0000000
 AtZNuc=   8.0000000   6.0000000   7.0000000   8.0000000   6.0000000   6.0000000   6.0000000   6.0000000   6.0000000   6.0000000

  Atom        11          12          13          14          15          16          17
 IAtWgt=           1           1           1           1           1           1           1
 AtmWgt=   1.0078250   1.0078250   1.0078250   1.0078250   1.0078250   1.0078250   1.0078250
 NucSpn=           1           1           1           1           1           1           1
 AtZEff=  -0.0000000  -0.0000000  -0.0000000  -0.0000000  -0.0000000  -0.0000000  -0.0000000
 NQMom=    0.0000000   0.0000000   0.0000000   0.0000000   0.0000000   0.0000000   0.0000000
 NMagM=    2.7928460   2.7928460   2.7928460   2.7928460   2.7928460   2.7928460   2.7928460
 AtZNuc=   1.0000000   1.0000000   1.0000000   1.0000000   1.0000000   1.0000000   1.0000000
 Leave Link  101 at Sun Oct 13 19:52:09 2019, MaxMem= 10737418240 cpu:               8.7 elap:               0.4
 (Enter /apps/cent7/gaussian/g16-A.03/g16-haswell/g16/l103.exe)

 GradGradGradGradGradGradGradGradGradGradGradGradGradGradGradGradGradGrad
 Berny optimization.
 Initialization pass.
                           ----------------------------
                           !    Initial Parameters    !
                           ! (Angstroms and Degrees)  !
 --------------------------                            --------------------------
 ! Name  Definition              Value          Derivative Info.                !
 --------------------------------------------------------------------------------
 ! R1    R(1,2)                  1.2544         estimate D2E/DX2                !
 ! R2    R(2,3)                  1.3583         estimate D2E/DX2                !
 ! R3    R(2,5)                  1.4246         estimate D2E/DX2                !
 ! R4    R(3,4)                  1.3031         estimate D2E/DX2                !
 ! R5    R(3,11)                 1.01           estimate D2E/DX2                !
 ! R6    R(4,12)                 0.9601         estimate D2E/DX2                !
 ! R7    R(5,6)                  1.4186         estimate D2E/DX2                !
 ! R8    R(5,10)                 1.4189         estimate D2E/DX2                !
 ! R9    R(6,7)                  1.4085         estimate D2E/DX2                !
 ! R10   R(6,13)                 1.09           estimate D2E/DX2                !
 ! R11   R(7,8)                  1.4054         estimate D2E/DX2                !
 ! R12   R(7,14)                 1.09           estimate D2E/DX2                !
 ! R13   R(8,9)                  1.4044         estimate D2E/DX2                !
 ! R14   R(8,15)                 1.09           estimate D2E/DX2                !
 ! R15   R(9,10)                 1.4066         estimate D2E/DX2                !
 ! R16   R(9,16)                 1.09           estimate D2E/DX2                !
 ! R17   R(10,17)                1.0899         estimate D2E/DX2                !
 ! A1    A(1,2,3)              118.5059         estimate D2E/DX2                !
 ! A2    A(1,2,5)              120.5244         estimate D2E/DX2                !
 ! A3    A(3,2,5)              120.9556         estimate D2E/DX2                !
 ! A4    A(2,3,4)              123.0519         estimate D2E/DX2                !
 ! A5    A(2,3,11)             120.6723         estimate D2E/DX2                !
 ! A6    A(4,3,11)             116.2757         estimate D2E/DX2                !
 ! A7    A(3,4,12)             109.4681         estimate D2E/DX2                !
 ! A8    A(2,5,6)              121.1193         estimate D2E/DX2                !
 ! A9    A(2,5,10)             121.0505         estimate D2E/DX2                !
 ! A10   A(6,5,10)             117.8256         estimate D2E/DX2                !
 ! A11   A(5,6,7)              121.0027         estimate D2E/DX2                !
 ! A12   A(5,6,13)             119.8692         estimate D2E/DX2                !
 ! A13   A(7,6,13)             119.1281         estimate D2E/DX2                !
 ! A14   A(6,7,8)              120.0731         estimate D2E/DX2                !
 ! A15   A(6,7,14)             120.0653         estimate D2E/DX2                !
 ! A16   A(8,7,14)             119.8616         estimate D2E/DX2                !
 ! A17   A(7,8,9)              119.8471         estimate D2E/DX2                !
 ! A18   A(7,8,15)             120.122          estimate D2E/DX2                !
 ! A19   A(9,8,15)             120.0309         estimate D2E/DX2                !
 ! A20   A(8,9,10)             120.0031         estimate D2E/DX2                !
 ! A21   A(8,9,16)             119.9111         estimate D2E/DX2                !
 ! A22   A(10,9,16)            120.0858         estimate D2E/DX2                !
 ! A23   A(5,10,9)             121.1788         estimate D2E/DX2                !
 ! A24   A(5,10,17)            119.8429         estimate D2E/DX2                !
 ! A25   A(9,10,17)            118.9782         estimate D2E/DX2                !
 ! D1    D(1,2,3,4)              1.9771         estimate D2E/DX2                !
 ! D2    D(1,2,3,11)          -178.0273         estimate D2E/DX2                !
 ! D3    D(5,2,3,4)           -179.3811         estimate D2E/DX2                !
 ! D4    D(5,2,3,11)             0.6144         estimate D2E/DX2                !
 ! D5    D(1,2,5,6)             18.9137         estimate D2E/DX2                !
 ! D6    D(1,2,5,10)          -161.8799         estimate D2E/DX2                !
 ! D7    D(3,2,5,6)           -159.7006         estimate D2E/DX2                !
 ! D8    D(3,2,5,10)            19.5058         estimate D2E/DX2                !
 ! D9    D(2,3,4,12)            69.8125         estimate D2E/DX2                !
 ! D10   D(11,3,4,12)         -110.1832         estimate D2E/DX2                !
 ! D11   D(2,5,6,7)            176.5406         estimate D2E/DX2                !
 ! D12   D(2,5,6,13)            -3.4556         estimate D2E/DX2                !
 ! D13   D(10,5,6,7)            -2.6906         estimate D2E/DX2                !
 ! D14   D(10,5,6,13)          177.3132         estimate D2E/DX2                !
 ! D15   D(2,5,10,9)          -176.6814         estimate D2E/DX2                !
 ! D16   D(2,5,10,17)            3.3108         estimate D2E/DX2                !
 ! D17   D(6,5,10,9)             2.5504         estimate D2E/DX2                !
 ! D18   D(6,5,10,17)         -177.4574         estimate D2E/DX2                !
 ! D19   D(5,6,7,8)              0.7615         estimate D2E/DX2                !
 ! D20   D(5,6,7,14)          -179.2416         estimate D2E/DX2                !
 ! D21   D(13,6,7,8)          -179.2423         estimate D2E/DX2                !
 ! D22   D(13,6,7,14)            0.7546         estimate D2E/DX2                !
 ! D23   D(6,7,8,9)              1.3962         estimate D2E/DX2                !
 ! D24   D(6,7,8,15)          -178.5981         estimate D2E/DX2                !
 ! D25   D(14,7,8,9)          -178.6006         estimate D2E/DX2                !
 ! D26   D(14,7,8,15)            1.405          estimate D2E/DX2                !
 ! D27   D(7,8,9,10)            -1.5386         estimate D2E/DX2                !
 ! D28   D(7,8,9,16)           178.4583         estimate D2E/DX2                !
 ! D29   D(15,8,9,10)          178.4558         estimate D2E/DX2                !
 ! D30   D(15,8,9,16)           -1.5473         estimate D2E/DX2                !
 ! D31   D(8,9,10,5)            -0.4732         estimate D2E/DX2                !
 ! D32   D(8,9,10,17)          179.5345         estimate D2E/DX2                !
 ! D33   D(16,9,10,5)          179.5299         estimate D2E/DX2                !
 ! D34   D(16,9,10,17)          -0.4624         estimate D2E/DX2                !
 --------------------------------------------------------------------------------
 Trust Radius=3.00D-01 FncErr=1.00D-07 GrdErr=1.00D-06 EigMax=2.50D+02 EigMin=1.00D-04
 Number of steps in this run=     86 maximum allowed number of steps=    102.
 GradGradGradGradGradGradGradGradGradGradGradGradGradGradGradGradGradGrad

 Leave Link  103 at Sun Oct 13 19:52:09 2019, MaxMem= 10737418240 cpu:               0.2 elap:               0.0
 (Enter /apps/cent7/gaussian/g16-A.03/g16-haswell/g16/l202.exe)
                          Input orientation:                          
 ---------------------------------------------------------------------
 Center     Atomic      Atomic             Coordinates (Angstroms)
 Number     Number       Type             X           Y           Z
 ---------------------------------------------------------------------
      1          8           0       -2.785800    0.203900    0.148700
      2          6           0       -2.114600    1.221500   -0.147000
      3          7           0       -2.770500    2.322200   -0.597900
      4          8           0       -4.068000    2.383300   -0.702400
      5          6           0       -0.694200    1.208100   -0.038400
      6          6           0        0.025800   -0.013200    0.011600
      7          6           0        1.433800   -0.024400    0.046200
      8          6           0        2.147900    1.186100    0.047600
      9          6           0        1.453900    2.407000    0.044100
     10          6           0        0.047800    2.416700    0.006500
     11          1           0       -2.260300    3.149200   -0.873400
     12          1           0       -4.459100    2.401600    0.174200
     13          1           0       -0.512800   -0.960800    0.023600
     14          1           0        1.971900   -0.972000    0.072000
     15          1           0        3.237900    1.178200    0.051300
     16          1           0        2.006300    3.346300    0.070600
     17          1           0       -0.474000    3.373600    0.012100
 ---------------------------------------------------------------------
                    Distance matrix (angstroms):
                    1          2          3          4          5
     1  O    0.000000
     2  C    1.254375   0.000000
     3  N    2.246072   1.358328   0.000000
     4  O    2.667994   2.339662   1.303135   0.000000
     5  C    2.327706   1.424609   2.421834   3.633802   0.000000
     6  C    2.823300   2.476076   3.693897   4.797104   1.418617
     7  C    4.227014   3.765732   4.857729   6.052043   2.460609
     8  C    5.031534   4.267087   5.089013   6.374418   2.843486
     9  C    4.779084   3.765119   4.273747   5.572181   2.461402
    10  C    3.598054   2.475488   2.883929   4.176537   1.418906
    11  H    3.161587   2.065167   1.010016   1.970691   2.630164
    12  H    2.762330   2.644331   1.858444   0.960063   3.955264
    13  H    2.557089   2.712434   4.032563   4.934524   2.177356
    14  H    4.901462   4.643155   5.812992   6.952563   3.445738
    15  H    6.102762   5.356347   6.150696   7.442883   3.933237
    16  H    5.731056   4.641545   4.930871   6.198550   3.446227
    17  H    3.925567   2.710796   2.598356   3.795792   2.177253
                    6          7          8          9         10
     6  C    0.000000
     7  C    1.408470   0.000000
     8  C    2.437811   1.405436   0.000000
     9  C    2.810319   2.431484   1.404366   0.000000
    10  C    2.430005   2.807408   2.434437   1.406636   0.000000
    11  H    4.001281   4.956186   4.912660   3.897172   2.576452
    12  H    5.096276   6.374020   6.719071   5.914434   4.510044
    13  H    1.090037   2.160233   3.418930   3.900052   3.423751
    14  H    2.170311   1.090029   2.165402   3.418588   3.897402
    15  H    3.426164   2.168190   1.090035   2.166254   3.422372
    16  H    3.900269   3.419060   2.164958   1.090015   2.168868
    17  H    3.423480   3.897085   3.414788   2.156882   1.089938
                   11         12         13         14         15
    11  H    0.000000
    12  H    2.547762   0.000000
    13  H    4.555268   5.186685   0.000000
    14  H    5.982440   7.262877   2.485197   0.000000
    15  H    5.913553   7.794589   4.317851   2.495304   0.000000
    16  H    4.374227   6.534875   4.989908   4.318437   2.493565
    17  H    2.006323   4.105129   4.334589   4.987009   4.312716
                   16         17
    16  H    0.000000
    17  H    2.481140   0.000000
 Stoichiometry    C7H7NO2
 Framework group  C1[X(C7H7NO2)]
 Deg. of freedom    45
 Full point group                 C1      NOp   1
 Largest Abelian subgroup         C1      NOp   1
 Largest concise Abelian subgroup C1      NOp   1
                         Standard orientation:                         
 ---------------------------------------------------------------------
 Center     Atomic      Atomic             Coordinates (Angstroms)
 Number     Number       Type             X           Y           Z
 ---------------------------------------------------------------------
      1          8           0        1.701773    1.494002    0.281521
      2          6           0        1.226105    0.355051    0.057937
      3          7           0        2.082987   -0.663895   -0.211429
      4          8           0        3.378363   -0.521912   -0.211760
      5          6           0       -0.183163    0.146548    0.058809
      6          6           0       -1.084970    1.231789   -0.087711
      7          6           0       -2.474909    1.015500   -0.158953
      8          6           0       -2.990195   -0.288964   -0.068921
      9          6           0       -2.118292   -1.373262    0.121681
     10          6           0       -0.730179   -1.156123    0.189636
     11          1           0        1.734348   -1.587374   -0.425371
     12          1           0        3.685473   -0.384984    0.687494
     13          1           0       -0.702874    2.250955   -0.146730
     14          1           0       -3.153215    1.859556   -0.283986
     15          1           0       -4.063975   -0.459550   -0.146846
     16          1           0       -2.518780   -2.382563    0.216839
     17          1           0       -0.069350   -2.008724    0.345648
 ---------------------------------------------------------------------
 Rotational constants (GHZ):           3.5059272           0.8176943           0.6712818
 Leave Link  202 at Sun Oct 13 19:52:09 2019, MaxMem= 10737418240 cpu:               0.4 elap:               0.0
 (Enter /apps/cent7/gaussian/g16-A.03/g16-haswell/g16/l301.exe)
 Standard basis: 6-311++G(d,p) (5D, 7F)
 Ernie: Thresh=  0.10000D-02 Tol=  0.10000D-05 Strict=F.
 There are   279 symmetry adapted cartesian basis functions of A   symmetry.
 There are   269 symmetry adapted basis functions of A   symmetry.
   269 basis functions,   423 primitive gaussians,   279 cartesian basis functions
    36 alpha electrons       36 beta electrons
       nuclear repulsion energy       488.7749300834 Hartrees.
 IExCor= 4336 DFT=T Ex+Corr=M062X ExCW=0 ScaHFX=  0.540000
 ScaDFX=  1.000000  1.000000  1.000000  1.000000 ScalE2=  1.000000  1.000000
 IRadAn=      5 IRanWt=     -1 IRanGd=            0 ICorTp=0 IEmpDi=  4
 NAtoms=   17 NActive=   17 NUniq=   17 SFac= 1.00D+00 NAtFMM=   60 NAOKFM=F Big=F
 Integral buffers will be    131072 words long.
 Raffenetti 2 integral format.
 Two-electron integral symmetry is turned on.
 Leave Link  301 at Sun Oct 13 19:52:09 2019, MaxMem= 10737418240 cpu:               1.3 elap:               0.1
 (Enter /apps/cent7/gaussian/g16-A.03/g16-haswell/g16/l302.exe)
 NPDir=0 NMtPBC=     1 NCelOv=     1 NCel=       1 NClECP=     1 NCelD=      1
         NCelK=      1 NCelE2=     1 NClLst=     1 CellRange=     0.0.
 One-electron integrals computed using PRISM.
 One-electron integral symmetry used in STVInt
 NBasis=   269 RedAO= T EigKep=  1.10D-06  NBF=   269
 NBsUse=   269 1.00D-06 EigRej= -1.00D+00 NBFU=   269
 Precomputing XC quadrature grid using
 IXCGrd= 4 IRadAn=           5 IRanWt=          -1 IRanGd=           0 AccXCQ= 0.00D+00.
 Generated NRdTot=       0 NPtTot=           0 NUsed=           0 NTot=          32
 NSgBfM=   279   279   279   279   279 MxSgAt=    17 MxSgA2=    17.
 Leave Link  302 at Sun Oct 13 19:52:09 2019, MaxMem= 10737418240 cpu:               4.3 elap:               0.2
 (Enter /apps/cent7/gaussian/g16-A.03/g16-haswell/g16/l303.exe)
 DipDrv:  MaxL=1.
 Leave Link  303 at Sun Oct 13 19:52:09 2019, MaxMem= 10737418240 cpu:               1.0 elap:               0.1
 (Enter /apps/cent7/gaussian/g16-A.03/g16-haswell/g16/l401.exe)
 ExpMin= 3.60D-02 ExpMax= 8.59D+03 ExpMxC= 1.30D+03 IAcc=3 IRadAn=         5 AccDes= 0.00D+00
 Harris functional with IExCor= 1009 and IRadAn=       5 diagonalized for initial guess.
 HarFok:  IExCor= 1009 AccDes= 0.00D+00 IRadAn=         5 IDoV= 1 UseB2=F ITyADJ=14
 ICtDFT=  3500011 ScaDFX=  1.000000  1.000000  1.000000  1.000000
 FoFCou: FMM=F IPFlag=           0 FMFlag=      100000 FMFlg1=           0
         NFxFlg=           0 DoJE=T BraDBF=F KetDBF=T FulRan=T
         wScrn=  0.000000 ICntrl=       500 IOpCl=  0 I1Cent=   200000004 NGrid=           0
         NMat0=    1 NMatS0=      1 NMatT0=    0 NMatD0=    1 NMtDS0=    0 NMtDT0=    0
 Petite list used in FoFCou.
 Harris En= -475.813576830357    
 JPrj=0 DoOrth=F DoCkMO=F.
 Leave Link  401 at Sun Oct 13 19:52:10 2019, MaxMem= 10737418240 cpu:               9.6 elap:               0.4
 (Enter /apps/cent7/gaussian/g16-A.03/g16-haswell/g16/l502.exe)
 Integral symmetry usage will be decided dynamically.
 Closed shell SCF:
 Using DIIS extrapolation, IDIIS=  1040.
 NGot= 10737418240 LenX= 10737253159 LenY= 10737174877
 Requested convergence on RMS density matrix=1.00D-08 within 128 cycles.
 Requested convergence on MAX density matrix=1.00D-06.
 Requested convergence on             energy=1.00D-06.
 No special actions if energy rises.
 Fock matrices will be formed incrementally for  20 cycles.

 Cycle   1  Pass 1  IDiag  1:
 FoFJK:  IHMeth= 1 ICntrl=       0 DoSepK=F KAlg= 0 I1Cent=           0 FoldK=F
 IRaf= 930000000 NMat=       1 IRICut=       1 DoRegI=T DoRafI=F ISym2E= 0 IDoP0=0 IntGTp=1.
 FoFCou: FMM=F IPFlag=           0 FMFlag=      100000 FMFlg1=           0
         NFxFlg=           0 DoJE=F BraDBF=F KetDBF=F FulRan=T
         wScrn=  0.000000 ICntrl=         0 IOpCl=  0 I1Cent=           0 NGrid=           0
         NMat0=    1 NMatS0=      1 NMatT0=    0 NMatD0=    1 NMtDS0=    0 NMtDT0=    0
 Symmetry not used in FoFCou.
 E= -475.774184994230    
 DIIS: error= 2.97D-02 at cycle   1 NSaved=   1.
 NSaved= 1 IEnMin= 1 EnMin= -475.774184994230     IErMin= 1 ErrMin= 2.97D-02
 ErrMax= 2.97D-02  0.00D+00 EMaxC= 1.00D-01 BMatC= 3.54D-01 BMatP= 3.54D-01
 IDIUse=3 WtCom= 7.03D-01 WtEn= 2.97D-01
 Coeff-Com:  0.100D+01
 Coeff-En:   0.100D+01
 Coeff:      0.100D+01
 Gap=     0.351 Goal=   None    Shift=    0.000
 GapD=    0.351 DampG=1.000 DampE=0.500 DampFc=0.5000 IDamp=-1.
 Damping current iteration by 5.00D-01
 RMSDP=4.71D-02 MaxDP=4.47D+00              OVMax= 2.61D-01

 Cycle   2  Pass 1  IDiag  1:
 RMSU=  2.32D-02    CP:  1.06D+00
 E= -475.879711034026     Delta-E=       -0.105526039795 Rises=F Damp=T
 DIIS: error= 8.51D-03 at cycle   2 NSaved=   2.
 NSaved= 2 IEnMin= 2 EnMin= -475.879711034026     IErMin= 2 ErrMin= 8.51D-03
 ErrMax= 8.51D-03  0.00D+00 EMaxC= 1.00D-01 BMatC= 4.43D-02 BMatP= 3.54D-01
 IDIUse=3 WtCom= 9.15D-01 WtEn= 8.51D-02
 Coeff-Com:  0.538D-01 0.946D+00
 Coeff-En:   0.139D+00 0.861D+00
 Coeff:      0.611D-01 0.939D+00
 Gap=     0.345 Goal=   None    Shift=    0.000
 RMSDP=1.57D-02 MaxDP=1.70D+00 DE=-1.06D-01 OVMax= 1.65D-01

 Cycle   3  Pass 1  IDiag  1:
 RMSU=  1.00D-02    CP:  9.21D-01  6.52D-01
 E= -476.009352788037     Delta-E=       -0.129641754012 Rises=F Damp=F
 DIIS: error= 1.26D-02 at cycle   3 NSaved=   3.
 NSaved= 3 IEnMin= 3 EnMin= -476.009352788037     IErMin= 2 ErrMin= 8.51D-03
 ErrMax= 1.26D-02  0.00D+00 EMaxC= 1.00D-01 BMatC= 3.39D-02 BMatP= 4.43D-02
 IDIUse=3 WtCom= 8.74D-01 WtEn= 1.26D-01
 Coeff-Com: -0.883D-01 0.492D+00 0.597D+00
 Coeff-En:   0.000D+00 0.000D+00 0.100D+01
 Coeff:     -0.772D-01 0.430D+00 0.648D+00
 Gap=     0.291 Goal=   None    Shift=    0.000
 RMSDP=4.58D-03 MaxDP=2.64D-01 DE=-1.30D-01 OVMax= 6.35D-02

 Cycle   4  Pass 1  IDiag  1:
 RMSU=  3.80D-03    CP:  9.45D-01  7.26D-01  8.84D-01
 E= -476.031388283953     Delta-E=       -0.022035495916 Rises=F Damp=F
 DIIS: error= 3.89D-03 at cycle   4 NSaved=   4.
 NSaved= 4 IEnMin= 4 EnMin= -476.031388283953     IErMin= 4 ErrMin= 3.89D-03
 ErrMax= 3.89D-03  0.00D+00 EMaxC= 1.00D-01 BMatC= 4.97D-03 BMatP= 3.39D-02
 IDIUse=3 WtCom= 9.61D-01 WtEn= 3.89D-02
 Coeff-Com: -0.300D-01 0.869D-01 0.323D+00 0.621D+00
 Coeff-En:   0.000D+00 0.000D+00 0.120D+00 0.880D+00
 Coeff:     -0.289D-01 0.835D-01 0.315D+00 0.631D+00
 Gap=     0.291 Goal=   None    Shift=    0.000
 RMSDP=2.19D-03 MaxDP=1.74D-01 DE=-2.20D-02 OVMax= 1.34D-02

 Cycle   5  Pass 1  IDiag  1:
 RMSU=  1.39D-03    CP:  9.21D-01  7.25D-01  9.53D-01  8.83D-01
 E= -476.035357767610     Delta-E=       -0.003969483657 Rises=F Damp=F
 DIIS: error= 4.43D-04 at cycle   5 NSaved=   5.
 NSaved= 5 IEnMin= 5 EnMin= -476.035357767610     IErMin= 5 ErrMin= 4.43D-04
 ErrMax= 4.43D-04  0.00D+00 EMaxC= 1.00D-01 BMatC= 6.85D-05 BMatP= 4.97D-03
 IDIUse=3 WtCom= 9.96D-01 WtEn= 4.43D-03
 Coeff-Com: -0.499D-02 0.473D-02 0.664D-01 0.195D+00 0.739D+00
 Coeff-En:   0.000D+00 0.000D+00 0.000D+00 0.000D+00 0.100D+01
 Coeff:     -0.497D-02 0.471D-02 0.661D-01 0.194D+00 0.740D+00
 Gap=     0.288 Goal=   None    Shift=    0.000
 RMSDP=4.70D-04 MaxDP=4.59D-02 DE=-3.97D-03 OVMax= 3.64D-03

 Cycle   6  Pass 1  IDiag  1:
 RMSU=  2.22D-04    CP:  9.27D-01  7.22D-01  9.52D-01  9.18D-01  9.29D-01
 E= -476.035428749443     Delta-E=       -0.000070981833 Rises=F Damp=F
 DIIS: error= 2.69D-04 at cycle   6 NSaved=   6.
 NSaved= 6 IEnMin= 6 EnMin= -476.035428749443     IErMin= 6 ErrMin= 2.69D-04
 ErrMax= 2.69D-04  0.00D+00 EMaxC= 1.00D-01 BMatC= 1.14D-05 BMatP= 6.85D-05
 IDIUse=3 WtCom= 9.97D-01 WtEn= 2.69D-03
 Coeff-Com:  0.901D-03-0.555D-02 0.137D-02 0.213D-01 0.293D+00 0.689D+00
 Coeff-En:   0.000D+00 0.000D+00 0.000D+00 0.000D+00 0.000D+00 0.100D+01
 Coeff:      0.898D-03-0.553D-02 0.137D-02 0.213D-01 0.292D+00 0.690D+00
 Gap=     0.288 Goal=   None    Shift=    0.000
 RMSDP=1.72D-04 MaxDP=1.48D-02 DE=-7.10D-05 OVMax= 1.52D-03

 Cycle   7  Pass 1  IDiag  1:
 RMSU=  7.75D-05    CP:  9.29D-01  7.21D-01  9.58D-01  9.29D-01  9.56D-01
                    CP:  1.17D+00
 E= -476.035441482742     Delta-E=       -0.000012733299 Rises=F Damp=F
 DIIS: error= 7.43D-05 at cycle   7 NSaved=   7.
 NSaved= 7 IEnMin= 7 EnMin= -476.035441482742     IErMin= 7 ErrMin= 7.43D-05
 ErrMax= 7.43D-05  0.00D+00 EMaxC= 1.00D-01 BMatC= 1.84D-06 BMatP= 1.14D-05
 IDIUse=1 WtCom= 1.00D+00 WtEn= 0.00D+00
 Coeff-Com:  0.183D-02-0.399D-02-0.125D-01-0.349D-01-0.453D-01 0.225D+00
 Coeff-Com:  0.870D+00
 Coeff:      0.183D-02-0.399D-02-0.125D-01-0.349D-01-0.453D-01 0.225D+00
 Coeff:      0.870D+00
 Gap=     0.288 Goal=   None    Shift=    0.000
 RMSDP=7.81D-05 MaxDP=4.79D-03 DE=-1.27D-05 OVMax= 8.13D-04

 Cycle   8  Pass 1  IDiag  1:
 RMSU=  2.75D-05    CP:  9.30D-01  7.21D-01  9.62D-01  9.33D-01  9.92D-01
                    CP:  1.28D+00  1.24D+00
 E= -476.035443860796     Delta-E=       -0.000002378054 Rises=F Damp=F
 DIIS: error= 4.81D-05 at cycle   8 NSaved=   8.
 NSaved= 8 IEnMin= 8 EnMin= -476.035443860796     IErMin= 8 ErrMin= 4.81D-05
 ErrMax= 4.81D-05  0.00D+00 EMaxC= 1.00D-01 BMatC= 2.96D-07 BMatP= 1.84D-06
 IDIUse=1 WtCom= 1.00D+00 WtEn= 0.00D+00
 Coeff-Com:  0.782D-03-0.138D-02-0.472D-02-0.166D-01-0.439D-01 0.368D-01
 Coeff-Com:  0.379D+00 0.650D+00
 Coeff:      0.782D-03-0.138D-02-0.472D-02-0.166D-01-0.439D-01 0.368D-01
 Coeff:      0.379D+00 0.650D+00
 Gap=     0.288 Goal=   None    Shift=    0.000
 RMSDP=1.61D-05 MaxDP=9.18D-04 DE=-2.38D-06 OVMax= 2.52D-04

 Cycle   9  Pass 1  IDiag  1:
 RMSU=  9.76D-06    CP:  9.30D-01  7.20D-01  9.62D-01  9.32D-01  9.94D-01
                    CP:  1.32D+00  1.26D+00  1.02D+00
 E= -476.035444194525     Delta-E=       -0.000000333729 Rises=F Damp=F
 DIIS: error= 8.25D-06 at cycle   9 NSaved=   9.
 NSaved= 9 IEnMin= 9 EnMin= -476.035444194525     IErMin= 9 ErrMin= 8.25D-06
 ErrMax= 8.25D-06  0.00D+00 EMaxC= 1.00D-01 BMatC= 2.99D-08 BMatP= 2.96D-07
 IDIUse=1 WtCom= 1.00D+00 WtEn= 0.00D+00
 Coeff-Com: -0.159D-04 0.137D-03 0.766D-03 0.300D-03-0.612D-02-0.213D-01
 Coeff-Com: -0.265D-01 0.201D+00 0.852D+00
 Coeff:     -0.159D-04 0.137D-03 0.766D-03 0.300D-03-0.612D-02-0.213D-01
 Coeff:     -0.265D-01 0.201D+00 0.852D+00
 Gap=     0.288 Goal=   None    Shift=    0.000
 RMSDP=8.22D-06 MaxDP=4.90D-04 DE=-3.34D-07 OVMax= 7.55D-05

 Cycle  10  Pass 1  IDiag  1:
 RMSU=  5.74D-06    CP:  9.30D-01  7.20D-01  9.62D-01  9.31D-01  9.92D-01
                    CP:  1.32D+00  1.28D+00  1.09D+00  9.03D-01
 E= -476.035444226828     Delta-E=       -0.000000032304 Rises=F Damp=F
 DIIS: error= 4.01D-06 at cycle  10 NSaved=  10.
 NSaved=10 IEnMin=10 EnMin= -476.035444226828     IErMin=10 ErrMin= 4.01D-06
 ErrMax= 4.01D-06  0.00D+00 EMaxC= 1.00D-01 BMatC= 5.04D-09 BMatP= 2.99D-08
 IDIUse=1 WtCom= 1.00D+00 WtEn= 0.00D+00
 Coeff-Com: -0.683D-04 0.157D-03 0.786D-03 0.163D-02 0.121D-02-0.131D-01
 Coeff-Com: -0.511D-01 0.268D-01 0.403D+00 0.631D+00
 Coeff:     -0.683D-04 0.157D-03 0.786D-03 0.163D-02 0.121D-02-0.131D-01
 Coeff:     -0.511D-01 0.268D-01 0.403D+00 0.631D+00
 Gap=     0.288 Goal=   None    Shift=    0.000
 RMSDP=1.96D-06 MaxDP=1.04D-04 DE=-3.23D-08 OVMax= 2.38D-05

 Cycle  11  Pass 1  IDiag  1:
 RMSU=  1.07D-06    CP:  9.30D-01  7.20D-01  9.62D-01  9.31D-01  9.92D-01
                    CP:  1.32D+00  1.29D+00  1.11D+00  9.50D-01  9.31D-01
 E= -476.035444231420     Delta-E=       -0.000000004592 Rises=F Damp=F
 DIIS: error= 1.03D-06 at cycle  11 NSaved=  11.
 NSaved=11 IEnMin=11 EnMin= -476.035444231420     IErMin=11 ErrMin= 1.03D-06
 ErrMax= 1.03D-06  0.00D+00 EMaxC= 1.00D-01 BMatC= 1.59D-10 BMatP= 5.04D-09
 IDIUse=1 WtCom= 1.00D+00 WtEn= 0.00D+00
 Coeff-Com: -0.645D-05 0.920D-05 0.898D-04 0.257D-03 0.660D-03-0.126D-03
 Coeff-Com: -0.680D-02-0.147D-01-0.454D-02 0.124D+00 0.901D+00
 Coeff:     -0.645D-05 0.920D-05 0.898D-04 0.257D-03 0.660D-03-0.126D-03
 Coeff:     -0.680D-02-0.147D-01-0.454D-02 0.124D+00 0.901D+00
 Gap=     0.288 Goal=   None    Shift=    0.000
 RMSDP=5.62D-07 MaxDP=3.57D-05 DE=-4.59D-09 OVMax= 3.67D-06

 Cycle  12  Pass 1  IDiag  1:
 RMSU=  2.66D-07    CP:  9.30D-01  7.20D-01  9.62D-01  9.31D-01  9.92D-01
                    CP:  1.32D+00  1.29D+00  1.11D+00  9.67D-01  9.87D-01
                    CP:  8.36D-01
 E= -476.035444231607     Delta-E=       -0.000000000187 Rises=F Damp=F
 DIIS: error= 2.72D-07 at cycle  12 NSaved=  12.
 NSaved=12 IEnMin=12 EnMin= -476.035444231607     IErMin=12 ErrMin= 2.72D-07
 ErrMax= 2.72D-07  0.00D+00 EMaxC= 1.00D-01 BMatC= 1.49D-11 BMatP= 1.59D-10
 IDIUse=1 WtCom= 1.00D+00 WtEn= 0.00D+00
 Coeff-Com:  0.231D-05-0.637D-05-0.165D-05 0.482D-05 0.170D-03 0.602D-03
 Coeff-Com:  0.437D-03-0.507D-02-0.209D-01 0.617D-02 0.221D+00 0.798D+00
 Coeff:      0.231D-05-0.637D-05-0.165D-05 0.482D-05 0.170D-03 0.602D-03
 Coeff:      0.437D-03-0.507D-02-0.209D-01 0.617D-02 0.221D+00 0.798D+00
 Gap=     0.288 Goal=   None    Shift=    0.000
 RMSDP=1.58D-07 MaxDP=1.68D-05 DE=-1.87D-10 OVMax= 1.97D-06

 Cycle  13  Pass 1  IDiag  1:
 RMSU=  7.35D-08    CP:  9.30D-01  7.20D-01  9.62D-01  9.31D-01  9.92D-01
                    CP:  1.32D+00  1.29D+00  1.11D+00  9.65D-01  9.94D-01
                    CP:  9.10D-01  1.04D+00
 E= -476.035444231619     Delta-E=       -0.000000000011 Rises=F Damp=F
 DIIS: error= 1.46D-07 at cycle  13 NSaved=  13.
 NSaved=13 IEnMin=13 EnMin= -476.035444231619     IErMin=13 ErrMin= 1.46D-07
 ErrMax= 1.46D-07  0.00D+00 EMaxC= 1.00D-01 BMatC= 4.21D-12 BMatP= 1.49D-11
 IDIUse=1 WtCom= 1.00D+00 WtEn= 0.00D+00
 Coeff-Com:  0.234D-05-0.520D-05-0.143D-04-0.387D-04-0.205D-04 0.300D-03
 Coeff-Com:  0.113D-02-0.644D-03-0.110D-01-0.142D-01-0.199D-01 0.418D+00
 Coeff-Com:  0.627D+00
 Coeff:      0.234D-05-0.520D-05-0.143D-04-0.387D-04-0.205D-04 0.300D-03
 Coeff:      0.113D-02-0.644D-03-0.110D-01-0.142D-01-0.199D-01 0.418D+00
 Coeff:      0.627D+00
 Gap=     0.288 Goal=   None    Shift=    0.000
 RMSDP=5.82D-08 MaxDP=3.08D-06 DE=-1.15D-11 OVMax= 9.38D-07

 Cycle  14  Pass 1  IDiag  1:
 RMSU=  3.07D-08    CP:  9.30D-01  7.20D-01  9.62D-01  9.31D-01  9.92D-01
                    CP:  1.32D+00  1.29D+00  1.11D+00  9.65D-01  9.95D-01
                    CP:  9.05D-01  1.12D+00  1.15D+00
 E= -476.035444231619     Delta-E=       -0.000000000000 Rises=F Damp=F
 DIIS: error= 4.90D-08 at cycle  14 NSaved=  14.
 NSaved=14 IEnMin=14 EnMin= -476.035444231619     IErMin=14 ErrMin= 4.90D-08
 ErrMax= 4.90D-08  0.00D+00 EMaxC= 1.00D-01 BMatC= 1.93D-13 BMatP= 4.21D-12
 IDIUse=1 WtCom= 1.00D+00 WtEn= 0.00D+00
 Coeff-Com:  0.331D-06-0.720D-06-0.273D-05-0.842D-05-0.145D-04 0.252D-04
 Coeff-Com:  0.222D-03 0.289D-03-0.858D-03-0.349D-02-0.261D-01 0.266D-01
 Coeff-Com:  0.187D+00 0.817D+00
 Coeff:      0.331D-06-0.720D-06-0.273D-05-0.842D-05-0.145D-04 0.252D-04
 Coeff:      0.222D-03 0.289D-03-0.858D-03-0.349D-02-0.261D-01 0.266D-01
 Coeff:      0.187D+00 0.817D+00
 Gap=     0.288 Goal=   None    Shift=    0.000
 RMSDP=1.52D-08 MaxDP=9.95D-07 DE=-1.14D-13 OVMax= 4.26D-07

 Cycle  15  Pass 1  IDiag  1:
 RMSU=  8.33D-09    CP:  9.30D-01  7.20D-01  9.62D-01  9.31D-01  9.92D-01
                    CP:  1.32D+00  1.29D+00  1.11D+00  9.65D-01  9.95D-01
                    CP:  9.07D-01  1.14D+00  1.26D+00  1.01D+00
 E= -476.035444231617     Delta-E=        0.000000000002 Rises=F Damp=F
 DIIS: error= 1.85D-08 at cycle  15 NSaved=  15.
 NSaved=15 IEnMin=14 EnMin= -476.035444231619     IErMin=15 ErrMin= 1.85D-08
 ErrMax= 1.85D-08  0.00D+00 EMaxC= 1.00D-01 BMatC= 5.84D-14 BMatP= 1.93D-13
 IDIUse=1 WtCom= 1.00D+00 WtEn= 0.00D+00
 Coeff-Com: -0.192D-06 0.436D-06 0.656D-06 0.143D-05-0.444D-05-0.294D-04
 Coeff-Com: -0.516D-04 0.253D-03 0.127D-02 0.565D-03-0.102D-01-0.521D-01
 Coeff-Com:  0.833D-04 0.410D+00 0.651D+00
 Coeff:     -0.192D-06 0.436D-06 0.656D-06 0.143D-05-0.444D-05-0.294D-04
 Coeff:     -0.516D-04 0.253D-03 0.127D-02 0.565D-03-0.102D-01-0.521D-01
 Coeff:      0.833D-04 0.410D+00 0.651D+00
 Gap=     0.288 Goal=   None    Shift=    0.000
 RMSDP=9.08D-09 MaxDP=5.50D-07 DE= 2.39D-12 OVMax= 1.49D-07

 SCF Done:  E(RM062X) =  -476.035444232     A.U. after   15 cycles
            NFock= 15  Conv=0.91D-08     -V/T= 2.0039
 KE= 4.742089182761D+02 PE=-2.089177259592D+03 EE= 6.501579670008D+02
 Leave Link  502 at Sun Oct 13 19:52:23 2019, MaxMem= 10737418240 cpu:             324.1 elap:              13.6
 (Enter /apps/cent7/gaussian/g16-A.03/g16-haswell/g16/l601.exe)
 Copying SCF densities to generalized density rwf, IOpCl= 0 IROHF=0.

 **********************************************************************

            Population analysis using the SCF density.

 **********************************************************************

 Orbital symmetries:
       Occupied  (A) (A) (A) (A) (A) (A) (A) (A) (A) (A) (A) (A)
                 (A) (A) (A) (A) (A) (A) (A) (A) (A) (A) (A) (A)
                 (A) (A) (A) (A) (A) (A) (A) (A) (A) (A) (A) (A)
       Virtual   (A) (A) (A) (A) (A) (A) (A) (A) (A) (A) (A) (A)
                 (A) (A) (A) (A) (A) (A) (A) (A) (A) (A) (A) (A)
                 (A) (A) (A) (A) (A) (A) (A) (A) (A) (A) (A) (A)
                 (A) (A) (A) (A) (A) (A) (A) (A) (A) (A) (A) (A)
                 (A) (A) (A) (A) (A) (A) (A) (A) (A) (A) (A) (A)
                 (A) (A) (A) (A) (A) (A) (A) (A) (A) (A) (A) (A)
                 (A) (A) (A) (A) (A) (A) (A) (A) (A) (A) (A) (A)
                 (A) (A) (A) (A) (A) (A) (A) (A) (A) (A) (A) (A)
                 (A) (A) (A) (A) (A) (A) (A) (A) (A) (A) (A) (A)
                 (A) (A) (A) (A) (A) (A) (A) (A) (A) (A) (A) (A)
                 (A) (A) (A) (A) (A) (A) (A) (A) (A) (A) (A) (A)
                 (A) (A) (A) (A) (A) (A) (A) (A) (A) (A) (A) (A)
                 (A) (A) (A) (A) (A) (A) (A) (A) (A) (A) (A) (A)
                 (A) (A) (A) (A) (A) (A) (A) (A) (A) (A) (A) (A)
                 (A) (A) (A) (A) (A) (A) (A) (A) (A) (A) (A) (A)
                 (A) (A) (A) (A) (A) (A) (A) (A) (A) (A) (A) (A)
                 (A) (A) (A) (A) (A) (A) (A) (A) (A) (A) (A) (A)
                 (A) (A) (A) (A) (A) (A) (A) (A) (A) (A) (A) (A)
                 (A) (A) (A) (A) (A) (A) (A) (A) (A) (A) (A) (A)
                 (A) (A) (A) (A) (A)
 The electronic state is 1-A.
 Alpha  occ. eigenvalues --  -19.68558 -19.58858 -14.83560 -10.65340 -10.57611
 Alpha  occ. eigenvalues --  -10.57526 -10.56935 -10.56850 -10.56825 -10.56560
 Alpha  occ. eigenvalues --   -1.27942  -1.13920  -0.98808  -0.96454  -0.87290
 Alpha  occ. eigenvalues --   -0.85871  -0.75790  -0.71290  -0.69972  -0.66969
 Alpha  occ. eigenvalues --   -0.63085  -0.58306  -0.56987  -0.53923  -0.52545
 Alpha  occ. eigenvalues --   -0.50511  -0.49452  -0.48022  -0.44528  -0.43332
 Alpha  occ. eigenvalues --   -0.42501  -0.41544  -0.34121  -0.32760  -0.31934
 Alpha  occ. eigenvalues --   -0.31906
 Alpha virt. eigenvalues --   -0.03120  -0.01363  -0.00354   0.00003   0.00918
 Alpha virt. eigenvalues --    0.01815   0.02831   0.03603   0.04580   0.06179
 Alpha virt. eigenvalues --    0.06718   0.07690   0.08053   0.08560   0.08788
 Alpha virt. eigenvalues --    0.10298   0.11285   0.11501   0.12044   0.12192
 Alpha virt. eigenvalues --    0.12478   0.12990   0.13502   0.14281   0.14522
 Alpha virt. eigenvalues --    0.15047   0.15325   0.15702   0.16770   0.16994
 Alpha virt. eigenvalues --    0.17464   0.17947   0.19450   0.19668   0.20784
 Alpha virt. eigenvalues --    0.21349   0.21994   0.22459   0.22626   0.24402
 Alpha virt. eigenvalues --    0.24698   0.24970   0.25442   0.26397   0.26976
 Alpha virt. eigenvalues --    0.27943   0.28900   0.29702   0.30097   0.30737
 Alpha virt. eigenvalues --    0.31443   0.32363   0.32506   0.32886   0.33375
 Alpha virt. eigenvalues --    0.34321   0.36284   0.36934   0.37302   0.37897
 Alpha virt. eigenvalues --    0.40049   0.40491   0.44650   0.47096   0.49657
 Alpha virt. eigenvalues --    0.50911   0.53657   0.54961   0.56222   0.56368
 Alpha virt. eigenvalues --    0.57669   0.58751   0.59436   0.60312   0.61036
 Alpha virt. eigenvalues --    0.62012   0.64323   0.64797   0.66420   0.68428
 Alpha virt. eigenvalues --    0.69731   0.71157   0.71444   0.72263   0.74983
 Alpha virt. eigenvalues --    0.75318   0.77585   0.79304   0.82374   0.84881
 Alpha virt. eigenvalues --    0.85234   0.86887   0.87290   0.88345   0.89102
 Alpha virt. eigenvalues --    0.90928   0.91619   0.92483   0.93055   0.93324
 Alpha virt. eigenvalues --    0.96873   0.98690   1.01601   1.03526   1.06080
 Alpha virt. eigenvalues --    1.06545   1.08393   1.11147   1.12411   1.13894
 Alpha virt. eigenvalues --    1.16155   1.17850   1.20031   1.22022   1.23282
 Alpha virt. eigenvalues --    1.26408   1.28666   1.30835   1.33493   1.34491
 Alpha virt. eigenvalues --    1.41368   1.45347   1.50850   1.52223   1.53012
 Alpha virt. eigenvalues --    1.54994   1.55675   1.56432   1.59262   1.59493
 Alpha virt. eigenvalues --    1.65318   1.66486   1.67245   1.67631   1.70103
 Alpha virt. eigenvalues --    1.71961   1.74546   1.78424   1.79197   1.80153
 Alpha virt. eigenvalues --    1.81663   1.85479   1.86221   1.90298   1.92614
 Alpha virt. eigenvalues --    1.93422   1.94895   1.96489   1.97200   1.99952
 Alpha virt. eigenvalues --    2.00835   2.03173   2.06262   2.07386   2.08173
 Alpha virt. eigenvalues --    2.08962   2.12709   2.22665   2.24398   2.29240
 Alpha virt. eigenvalues --    2.33131   2.38755   2.41699   2.43229   2.47607
 Alpha virt. eigenvalues --    2.48844   2.50272   2.58196   2.60253   2.62626
 Alpha virt. eigenvalues --    2.65293   2.66071   2.70645   2.71305   2.72297
 Alpha virt. eigenvalues --    2.75431   2.76190   2.78954   2.79860   2.81945
 Alpha virt. eigenvalues --    2.83929   2.86183   2.89218   2.93303   2.94330
 Alpha virt. eigenvalues --    2.94827   2.97125   2.99266   3.04114   3.11372
 Alpha virt. eigenvalues --    3.12596   3.20106   3.22641   3.28482   3.32014
 Alpha virt. eigenvalues --    3.33838   3.37840   3.40359   3.41970   3.43128
 Alpha virt. eigenvalues --    3.50184   3.54337   3.56966   3.60387   3.68317
 Alpha virt. eigenvalues --    3.75187   3.85765   3.96739   4.00196   4.02258
 Alpha virt. eigenvalues --    4.05991   4.16628   4.17929   4.37200   4.61478
 Alpha virt. eigenvalues --    4.81369   4.97999   5.15741   5.19672   5.36592
 Alpha virt. eigenvalues --    5.52052   5.82890   6.07186  23.67823  23.95539
 Alpha virt. eigenvalues --   23.99613  24.03227  24.08525  24.10798  24.19832
 Alpha virt. eigenvalues --   35.63948  50.02389  50.14344
          Condensed to atoms (all electrons):
               1          2          3          4          5          6
     1  O    8.120180   0.482413  -0.194975   0.051337  -0.101431  -0.055820
     2  C    0.482413  16.203606  -0.361685  -0.067506  -7.255778   1.233742
     3  N   -0.194975  -0.361685   7.946199   0.061651  -0.459435  -0.104734
     4  O    0.051337  -0.067506   0.061651   7.526444   0.160602  -0.001679
     5  C   -0.101431  -7.255778  -0.459435   0.160602  17.561522  -4.959311
     6  C   -0.055820   1.233742  -0.104734  -0.001679  -4.959311  15.843613
     7  C    0.096035  -0.902668   0.145876   0.000793   1.576926  -3.181005
     8  C   -0.013889  -0.068026  -0.031573   0.002712  -1.322767   1.110839
     9  C    0.021224   0.835968   0.003662  -0.039735   0.134173  -0.685623
    10  C   -0.027909  -3.587867   0.177074  -0.009368  -0.817111  -2.728065
    11  H    0.008183  -0.089676   0.305609  -0.015422   0.105207  -0.027049
    12  H   -0.000627   0.026128  -0.138796   0.345563   0.002078   0.019197
    13  H   -0.003261  -0.067342   0.001038   0.000114   0.020235   0.367966
    14  H    0.001047   0.005626   0.000835  -0.000130  -0.005453   0.001665
    15  H   -0.000107  -0.018173   0.000199   0.000046   0.034965  -0.056051
    16  H    0.000327   0.017365  -0.000965  -0.000196  -0.001100   0.043758
    17  H   -0.005760  -0.167804   0.033993  -0.013487  -0.133248  -0.016556
               7          8          9         10         11         12
     1  O    0.096035  -0.013889   0.021224  -0.027909   0.008183  -0.000627
     2  C   -0.902668  -0.068026   0.835968  -3.587867  -0.089676   0.026128
     3  N    0.145876  -0.031573   0.003662   0.177074   0.305609  -0.138796
     4  O    0.000793   0.002712  -0.039735  -0.009368  -0.015422   0.345563
     5  C    1.576926  -1.322767   0.134173  -0.817111   0.105207   0.002078
     6  C   -3.181005   1.110839  -0.685623  -2.728065  -0.027049   0.019197
     7  C    8.289836  -0.816870   1.158534  -0.723957   0.014837   0.000107
     8  C   -0.816870   6.918878  -1.216987   1.554052  -0.010191   0.000186
     9  C    1.158534  -1.216987  10.787902  -5.436673  -0.017676  -0.011053
    10  C   -0.723957   1.554052  -5.436673  18.012169   0.005572  -0.034462
    11  H    0.014837  -0.010191  -0.017676   0.005572   0.433311   0.006981
    12  H    0.000107   0.000186  -0.011053  -0.034462   0.006981   0.488566
    13  H   -0.057260   0.008779  -0.006143   0.075249  -0.000713  -0.000191
    14  H    0.331947  -0.001280  -0.001189  -0.009943   0.000031   0.000005
    15  H    0.025405   0.335200  -0.010555   0.027108  -0.000096  -0.000013
    16  H   -0.030892   0.026969   0.370984  -0.107537   0.000095  -0.000062
    17  H    0.036861  -0.004816   0.018346   0.542468   0.006008  -0.001857
              13         14         15         16         17
     1  O   -0.003261   0.001047  -0.000107   0.000327  -0.005760
     2  C   -0.067342   0.005626  -0.018173   0.017365  -0.167804
     3  N    0.001038   0.000835   0.000199  -0.000965   0.033993
     4  O    0.000114  -0.000130   0.000046  -0.000196  -0.013487
     5  C    0.020235  -0.005453   0.034965  -0.001100  -0.133248
     6  C    0.367966   0.001665  -0.056051   0.043758  -0.016556
     7  C   -0.057260   0.331947   0.025405  -0.030892   0.036861
     8  C    0.008779  -0.001280   0.335200   0.026969  -0.004816
     9  C   -0.006143  -0.001189  -0.010555   0.370984   0.018346
    10  C    0.075249  -0.009943   0.027108  -0.107537   0.542468
    11  H   -0.000713   0.000031  -0.000096   0.000095   0.006008
    12  H   -0.000191   0.000005  -0.000013  -0.000062  -0.001857
    13  H    0.433870  -0.004822  -0.000103   0.000801   0.000811
    14  H   -0.004822   0.459423  -0.001264  -0.001305   0.001513
    15  H   -0.000103  -0.001264   0.463668  -0.000705  -0.001364
    16  H    0.000801  -0.001305  -0.000705   0.464554  -0.004348
    17  H    0.000811   0.001513  -0.001364  -0.004348   0.583192
 Mulliken charges:
               1
     1  O   -0.376967
     2  C   -0.218322
     3  N   -0.383974
     4  O   -0.001739
     5  C    1.459926
     6  C   -0.804888
     7  C    0.035493
     8  C   -0.471216
     9  C    0.094840
    10  C   -0.910800
    11  H    0.274990
    12  H    0.298248
    13  H    0.230973
    14  H    0.223293
    15  H    0.201840
    16  H    0.222256
    17  H    0.126047
 Sum of Mulliken charges =  -0.00000
 Mulliken charges with hydrogens summed into heavy atoms:
               1
     1  O   -0.376967
     2  C   -0.218322
     3  N   -0.108984
     4  O    0.296509
     5  C    1.459926
     6  C   -0.573915
     7  C    0.258787
     8  C   -0.269376
     9  C    0.317096
    10  C   -0.784753
 Electronic spatial extent (au):  <R**2>=           1606.9992
 Charge=             -0.0000 electrons
 Dipole moment (field-independent basis, Debye):
    X=             -2.4003    Y=             -3.6366    Z=              0.7155  Tot=              4.4157
 Quadrupole moment (field-independent basis, Debye-Ang):
   XX=            -53.1562   YY=            -55.6816   ZZ=            -61.1560
   XY=             -7.4185   XZ=              5.3845   YZ=             -1.9785
 Traceless Quadrupole moment (field-independent basis, Debye-Ang):
   XX=              3.5084   YY=              0.9830   ZZ=             -4.4914
   XY=             -7.4185   XZ=              5.3845   YZ=             -1.9785
 Octapole moment (field-independent basis, Debye-Ang**2):
  XXX=              1.7997  YYY=            -12.5456  ZZZ=              0.9035  XYY=             -7.1255
  XXY=            -11.2569  XXZ=             19.6239  XZZ=             18.6376  YZZ=             -0.2313
  YYZ=             -2.8334  XYZ=             -1.4373
 Hexadecapole moment (field-independent basis, Debye-Ang**3):
 XXXX=          -1420.0041 YYYY=           -404.4830 ZZZZ=            -79.5663 XXXY=            -19.3918
 XXXZ=             99.7864 YYYX=            -28.4442 YYYZ=             -4.6993 ZZZX=              3.1327
 ZZZY=              2.1774 XXYY=           -328.9031 XXZZ=           -283.9842 YYZZ=            -91.6916
 XXYZ=            -14.0841 YYXZ=             -4.3308 ZZXY=             -5.0170
 N-N= 4.887749300834D+02 E-N=-2.089177260366D+03  KE= 4.742089182761D+02
 No NMR shielding tensors so no spin-rotation constants.
 Leave Link  601 at Sun Oct 13 19:52:23 2019, MaxMem= 10737418240 cpu:               2.6 elap:               0.1
 (Enter /apps/cent7/gaussian/g16-A.03/g16-haswell/g16/l701.exe)
 ... and contract with generalized density number  0.
 Compute integral first derivatives.
 Leave Link  701 at Sun Oct 13 19:52:24 2019, MaxMem= 10737418240 cpu:               2.9 elap:               0.2
 (Enter /apps/cent7/gaussian/g16-A.03/g16-haswell/g16/l702.exe)
 L702 exits ... SP integral derivatives will be done elsewhere.
 Leave Link  702 at Sun Oct 13 19:52:24 2019, MaxMem= 10737418240 cpu:               1.1 elap:               0.1
 (Enter /apps/cent7/gaussian/g16-A.03/g16-haswell/g16/l703.exe)
 Integral derivatives from FoFJK, PRISM(SPDF).
 Compute integral first derivatives, UseDBF=F ICtDFT=           0.
 Calling FoFJK, ICntrl=      2127 FMM=F ISym2X=0 I1Cent= 0 IOpClX= 0 NMat=1 NMatS=1 NMatT=0.
 FoFJK:  IHMeth= 1 ICntrl=    2127 DoSepK=F KAlg= 0 I1Cent=           0 FoldK=F
 IRaf=         0 NMat=       1 IRICut=       1 DoRegI=T DoRafI=F ISym2E= 0 IDoP0=0 IntGTp=1.
 FoFCou: FMM=F IPFlag=           0 FMFlag=      100000 FMFlg1=         800
         NFxFlg=           0 DoJE=F BraDBF=F KetDBF=F FulRan=T
         wScrn=  0.000000 ICntrl=      2127 IOpCl=  0 I1Cent=           0 NGrid=           0
         NMat0=    1 NMatS0=      1 NMatT0=    0 NMatD0=    1 NMtDS0=    0 NMtDT0=    0
 Symmetry not used in FoFCou.
 Leave Link  703 at Sun Oct 13 19:52:26 2019, MaxMem= 10737418240 cpu:              52.0 elap:               2.2
 (Enter /apps/cent7/gaussian/g16-A.03/g16-haswell/g16/l716.exe)
 Dipole        =-9.44339564D-01-1.43074035D+00 2.81517391D-01
 ***** Axes restored to original set *****
 -------------------------------------------------------------------
 Center     Atomic                   Forces (Hartrees/Bohr)
 Number     Number              X              Y              Z
 -------------------------------------------------------------------
      1        8           0.021912904    0.034018431   -0.006047470
      2        6          -0.080811245   -0.061068545    0.008997139
      3        7           0.075522262    0.011137421    0.007191655
      4        8          -0.055482386    0.000432415   -0.013966655
      5        6           0.067854460    0.014769042    0.000318035
      6        6           0.003743718    0.005196613    0.000194077
      7        6          -0.010019454    0.011185959    0.000123574
      8        6          -0.009110591    0.000290684   -0.000194394
      9        6          -0.006847995   -0.007274734    0.000001409
     10        6           0.006651286   -0.010319093   -0.002144524
     11        1          -0.004656290    0.000414616   -0.001610973
     12        1          -0.000301989   -0.002506486    0.006934276
     13        1          -0.001073406    0.006325986   -0.001345957
     14        1          -0.003539736    0.003834206   -0.000356604
     15        1          -0.004576097    0.000171162    0.000795029
     16        1          -0.003059593   -0.003835533   -0.000139875
     17        1           0.003794150   -0.002772145    0.001251258
 -------------------------------------------------------------------
 Cartesian Forces:  Max     0.080811245 RMS     0.022929384
 Leave Link  716 at Sun Oct 13 19:52:26 2019, MaxMem= 10737418240 cpu:               0.6 elap:               0.1
 (Enter /apps/cent7/gaussian/g16-A.03/g16-haswell/g16/l103.exe)

 GradGradGradGradGradGradGradGradGradGradGradGradGradGradGradGradGradGrad
 Berny optimization.
 FormGI is forming the generalized inverse of G from B-inverse, IUseBI=4.
 GSVD:  received Info=                   1 from GESDD.
 Internal  Forces:  Max     0.056011860 RMS     0.011283698
 Search for a local minimum.
 Step number   1 out of a maximum of   86
 All quantities printed in internal units (Hartrees-Bohrs-Radians)
 RMS Force = .11284D-01 SwitMx=.10000D-02 MixMth= 1
 Mixed Optimization -- RFO/linear search
 Second derivative matrix not updated -- first step.
 ITU=  0
     Eigenvalues ---    0.01763   0.01822   0.01868   0.01906   0.01923
     Eigenvalues ---    0.01965   0.01996   0.02000   0.02014   0.02017
     Eigenvalues ---    0.02024   0.02243   0.02348   0.02576   0.16000
     Eigenvalues ---    0.16000   0.16000   0.16000   0.16000   0.16000
     Eigenvalues ---    0.16000   0.21995   0.21997   0.22000   0.23457
     Eigenvalues ---    0.24996   0.24997   0.25000   0.34808   0.34809
     Eigenvalues ---    0.34809   0.34811   0.34820   0.39940   0.40082
     Eigenvalues ---    0.41774   0.43091   0.43974   0.44390   0.44756
     Eigenvalues ---    0.45970   0.53287   0.55460   0.66330   0.81641
 RFO step:  Lambda=-2.01764748D-02 EMin= 1.76323113D-02
 Linear search not attempted -- first point.
 Iteration  1 RMS(Cart)=  0.04171390 RMS(Int)=  0.00088872
 Iteration  2 RMS(Cart)=  0.00143413 RMS(Int)=  0.00014484
 Iteration  3 RMS(Cart)=  0.00000195 RMS(Int)=  0.00014484
 Iteration  4 RMS(Cart)=  0.00000000 RMS(Int)=  0.00014484
 ITry= 1 IFail=0 DXMaxC= 1.64D-01 DCOld= 1.00D+10 DXMaxT= 3.00D-01 DXLimC= 3.00D+00 Rises=F
 Variable       Old X    -DE/DX   Delta X   Delta X   Delta X     New X
                                 (Linear)    (Quad)   (Total)
    R1        2.37043  -0.04075   0.00000  -0.04871  -0.04871   2.32172
    R2        2.56687   0.00087   0.00000   0.00157   0.00157   2.56844
    R3        2.69212   0.04341   0.00000   0.09913   0.09913   2.79125
    R4        2.46257   0.05601   0.00000   0.08195   0.08195   2.54452
    R5        1.90865  -0.00158   0.00000  -0.00328  -0.00328   1.90537
    R6        1.81426   0.00641   0.00000   0.01115   0.01115   1.82540
    R7        2.68080  -0.02194   0.00000  -0.04952  -0.04950   2.63130
    R8        2.68134  -0.01450   0.00000  -0.03253  -0.03249   2.64886
    R9        2.66162  -0.01962   0.00000  -0.04275  -0.04277   2.61885
   R10        2.05987  -0.00499   0.00000  -0.01354  -0.01354   2.04633
   R11        2.65589  -0.01262   0.00000  -0.02694  -0.02698   2.62891
   R12        2.05986  -0.00509   0.00000  -0.01382  -0.01382   2.04603
   R13        2.65387  -0.01383   0.00000  -0.02908  -0.02910   2.62476
   R14        2.05987  -0.00457   0.00000  -0.01242  -0.01242   2.04745
   R15        2.65816  -0.01754   0.00000  -0.03735  -0.03733   2.62083
   R16        2.05983  -0.00486   0.00000  -0.01319  -0.01319   2.04664
   R17        2.05968  -0.00424   0.00000  -0.01152  -0.01152   2.04817
    A1        2.06832   0.00882   0.00000   0.03286   0.03265   2.10097
    A2        2.10355   0.00767   0.00000   0.02861   0.02840   2.13195
    A3        2.11107  -0.01646   0.00000  -0.06069  -0.06090   2.05018
    A4        2.14766  -0.01077   0.00000  -0.04486  -0.04506   2.10260
    A5        2.10613   0.00974   0.00000   0.04658   0.04637   2.15250
    A6        2.02939   0.00103   0.00000  -0.00172  -0.00192   2.02747
    A7        1.91058  -0.00482   0.00000  -0.02678  -0.02678   1.88380
    A8        2.11393  -0.01501   0.00000  -0.05529  -0.05537   2.05856
    A9        2.11273   0.01066   0.00000   0.03972   0.03963   2.15236
   A10        2.05645   0.00436   0.00000   0.01577   0.01581   2.07225
   A11        2.11190  -0.00194   0.00000  -0.00910  -0.00908   2.10281
   A12        2.09211  -0.00325   0.00000  -0.01888  -0.01889   2.07323
   A13        2.07918   0.00519   0.00000   0.02797   0.02797   2.10715
   A14        2.09567   0.00111   0.00000   0.00453   0.00449   2.10016
   A15        2.09553  -0.00178   0.00000  -0.00903  -0.00901   2.08652
   A16        2.09198   0.00066   0.00000   0.00450   0.00452   2.09650
   A17        2.09173  -0.00037   0.00000  -0.00020  -0.00026   2.09147
   A18        2.09652   0.00033   0.00000   0.00091   0.00094   2.09746
   A19        2.09493   0.00004   0.00000  -0.00071  -0.00069   2.09425
   A20        2.09445  -0.00142   0.00000  -0.00406  -0.00406   2.09038
   A21        2.09284   0.00143   0.00000   0.00601   0.00600   2.09884
   A22        2.09589  -0.00001   0.00000  -0.00196  -0.00197   2.09393
   A23        2.11497  -0.00171   0.00000  -0.00617  -0.00624   2.10873
   A24        2.09165   0.00296   0.00000   0.01476   0.01458   2.10624
   A25        2.07656  -0.00125   0.00000  -0.00859  -0.00877   2.06779
    D1        0.03451  -0.00298   0.00000  -0.07050  -0.07069  -0.03618
    D2       -3.10716  -0.00129   0.00000  -0.03177  -0.03160  -3.13877
    D3       -3.13079  -0.00146   0.00000  -0.03279  -0.03295   3.11944
    D4        0.01072   0.00023   0.00000   0.00595   0.00613   0.01686
    D5        0.33011   0.00119   0.00000   0.03101   0.03109   0.36120
    D6       -2.82534   0.00193   0.00000   0.04900   0.04890  -2.77643
    D7       -2.78730  -0.00036   0.00000  -0.00749  -0.00739  -2.79469
    D8        0.34044   0.00038   0.00000   0.01050   0.01042   0.35086
    D9        1.21846  -0.00135   0.00000  -0.02838  -0.02877   1.18969
   D10       -1.92306  -0.00297   0.00000  -0.06554  -0.06515  -1.98821
   D11        3.08122   0.00129   0.00000   0.03135   0.03098   3.11219
   D12       -0.06031   0.00130   0.00000   0.03211   0.03180  -0.02851
   D13       -0.04696   0.00052   0.00000   0.01371   0.01378  -0.03318
   D14        3.09470   0.00052   0.00000   0.01448   0.01461   3.10931
   D15       -3.08367  -0.00120   0.00000  -0.03326  -0.03380  -3.11747
   D16        0.05778   0.00006   0.00000  -0.00150  -0.00178   0.05600
   D17        0.04451  -0.00063   0.00000  -0.01640  -0.01640   0.02812
   D18       -3.09722   0.00063   0.00000   0.01536   0.01562  -3.08160
   D19        0.01329  -0.00008   0.00000  -0.00136  -0.00140   0.01189
   D20       -3.12836  -0.00016   0.00000  -0.00362  -0.00359  -3.13195
   D21       -3.12837  -0.00008   0.00000  -0.00213  -0.00224  -3.13061
   D22        0.01317  -0.00016   0.00000  -0.00438  -0.00444   0.00873
   D23        0.02437  -0.00038   0.00000  -0.00916  -0.00913   0.01524
   D24       -3.11713  -0.00050   0.00000  -0.01294  -0.01293  -3.13005
   D25       -3.11717  -0.00030   0.00000  -0.00692  -0.00692  -3.12409
   D26        0.02452  -0.00041   0.00000  -0.01069  -0.01072   0.01380
   D27       -0.02685   0.00031   0.00000   0.00657   0.00658  -0.02027
   D28        3.11469  -0.00001   0.00000  -0.00196  -0.00203   3.11265
   D29        3.11464   0.00042   0.00000   0.01034   0.01037   3.12501
   D30       -0.02701   0.00011   0.00000   0.00181   0.00176  -0.02525
   D31       -0.00826   0.00035   0.00000   0.00691   0.00671  -0.00155
   D32        3.13347  -0.00090   0.00000  -0.02458  -0.02462   3.10885
   D33        3.13339   0.00066   0.00000   0.01545   0.01530  -3.13450
   D34       -0.00807  -0.00058   0.00000  -0.01604  -0.01603  -0.02410
         Item               Value     Threshold  Converged?
 Maximum Force            0.056012     0.000450     NO 
 RMS     Force            0.011284     0.000300     NO 
 Maximum Displacement     0.164214     0.001800     NO 
 RMS     Displacement     0.042014     0.001200     NO 
 Predicted change in Energy=-1.076097D-02
 Lowest energy point so far.  Saving SCF results.
 GradGradGradGradGradGradGradGradGradGradGradGradGradGradGradGradGradGrad

 Leave Link  103 at Sun Oct 13 19:52:26 2019, MaxMem= 10737418240 cpu:               1.1 elap:               0.1
 (Enter /apps/cent7/gaussian/g16-A.03/g16-haswell/g16/l202.exe)
                          Input orientation:                          
 ---------------------------------------------------------------------
 Center     Atomic      Atomic             Coordinates (Angstroms)
 Number     Number       Type             X           Y           Z
 ---------------------------------------------------------------------
      1          8           0       -2.779634    0.216685    0.200169
      2          6           0       -2.128477    1.202764   -0.136142
      3          7           0       -2.756834    2.319345   -0.589720
      4          8           0       -4.097183    2.345023   -0.715701
      5          6           0       -0.654275    1.237660   -0.051059
      6          6           0        0.025622    0.023400   -0.004623
      7          6           0        1.410421   -0.005635    0.040495
      8          6           0        2.137873    1.180096    0.054179
      9          6           0        1.472399    2.399189    0.040816
     10          6           0        0.086742    2.426800   -0.010493
     11          1           0       -2.267007    3.151702   -0.879334
     12          1           0       -4.479881    2.314702    0.170699
     13          1           0       -0.547385   -0.895445   -0.005302
     14          1           0        1.923935   -0.958453    0.067202
     15          1           0        3.220754    1.154423    0.078670
     16          1           0        2.031035    3.326270    0.078394
     17          1           0       -0.412106    3.388776    0.011150
 ---------------------------------------------------------------------
                    Distance matrix (angstroms):
                    1          2          3          4          5
     1  O    0.000000
     2  C    1.228602   0.000000
     3  N    2.246246   1.359161   0.000000
     4  O    2.665442   2.348712   1.346501   0.000000
     5  C    2.371214   1.477067   2.425067   3.677175   0.000000
     6  C    2.819354   2.459337   3.654554   4.784672   1.392425
     7  C    4.198986   3.743692   4.813389   6.035821   2.411874
     8  C    5.013118   4.270653   5.066622   6.389499   2.794724
     9  C    4.782102   3.798559   4.276723   5.620987   2.424940
    10  C    3.625617   2.534018   2.903959   4.243729   1.401715
    11  H    3.168981   2.090427   1.008278   2.006751   2.636380
    12  H    2.700627   2.619095   1.883388   0.965962   3.980510
    13  H    2.502396   2.630485   3.944374   4.858639   2.136272
    14  H    4.849967   4.597200   5.751965   6.912290   3.388815
    15  H    6.074436   5.353761   6.126610   7.456592   3.878094
    16  H    5.729475   4.675130   4.938012   6.256875   3.404400
    17  H    3.962711   2.783212   2.646219   3.898400   2.165598
                    6          7          8          9         10
     6  C    0.000000
     7  C    1.385838   0.000000
     8  C    2.408943   1.391162   0.000000
     9  C    2.782014   2.405622   1.388965   0.000000
    10  C    2.404184   2.769741   2.401165   1.386881   0.000000
    11  H    3.975870   4.933391   4.915450   3.923788   2.611610
    12  H    5.057704   6.332186   6.715325   5.954296   4.571591
    13  H    1.082873   2.151015   3.394410   3.864747   3.382226
    14  H    2.138407   1.082715   2.149262   3.387970   3.852434
    15  H    3.390431   2.150465   1.083462   2.146537   3.383626
    16  H    3.864909   3.389423   2.148968   1.083035   2.144113
    17  H    3.393761   3.852855   3.373798   2.128737   1.083843
                   11         12         13         14         15
    11  H    0.000000
    12  H    2.588426   0.000000
    13  H    4.483351   5.079424   0.000000
    14  H    5.945864   7.192573   2.473186   0.000000
    15  H    5.917974   7.788100   4.290441   2.479137   0.000000
    16  H    4.406913   6.589675   4.947538   4.286075   2.476358
    17  H    2.071189   4.210212   4.286388   4.935445   4.265509
                   16         17
    16  H    0.000000
    17  H    2.444866   0.000000
 Stoichiometry    C7H7NO2
 Framework group  C1[X(C7H7NO2)]
 Deg. of freedom    45
 Full point group                 C1      NOp   1
 RotChk:  IX=0 Diff= 1.93D-02
 Largest Abelian subgroup         C1      NOp   1
 Largest concise Abelian subgroup C1      NOp   1
                         Standard orientation:                         
 ---------------------------------------------------------------------
 Center     Atomic      Atomic             Coordinates (Angstroms)
 Number     Number       Type             X           Y           Z
 ---------------------------------------------------------------------
      1          8           0        1.710820    1.472771    0.317294
      2          6           0        1.242017    0.366322    0.061450
      3          7           0        2.063454   -0.683943   -0.202183
      4          8           0        3.399263   -0.516469   -0.227373
      5          6           0       -0.213253    0.114098    0.044157
      6          6           0       -1.063027    1.206182   -0.111032
      7          6           0       -2.435857    1.025984   -0.169468
      8          6           0       -2.982409   -0.248576   -0.059429
      9          6           0       -2.149120   -1.343885    0.128055
     10          6           0       -0.775095   -1.162858    0.180249
     11          1           0        1.727195   -1.609318   -0.419521
     12          1           0        3.692347   -0.327264    0.673397
     13          1           0       -0.631230    2.196421   -0.185815
     14          1           0       -3.082088    1.884916   -0.299436
     15          1           0       -4.055389   -0.387795   -0.116175
     16          1           0       -2.568880   -2.335811    0.241416
     17          1           0       -0.146334   -2.027570    0.358155
 ---------------------------------------------------------------------
 Rotational constants (GHZ):           3.5579421           0.8159262           0.6727773
 Leave Link  202 at Sun Oct 13 19:52:26 2019, MaxMem= 10737418240 cpu:               1.2 elap:               0.1
 (Enter /apps/cent7/gaussian/g16-A.03/g16-haswell/g16/l301.exe)
 Standard basis: 6-311++G(d,p) (5D, 7F)
 Ernie: Thresh=  0.10000D-02 Tol=  0.10000D-05 Strict=F.
 There are   279 symmetry adapted cartesian basis functions of A   symmetry.
 There are   269 symmetry adapted basis functions of A   symmetry.
   269 basis functions,   423 primitive gaussians,   279 cartesian basis functions
    36 alpha electrons       36 beta electrons
       nuclear repulsion energy       489.8488628821 Hartrees.
 IExCor= 4336 DFT=T Ex+Corr=M062X ExCW=0 ScaHFX=  0.540000
 ScaDFX=  1.000000  1.000000  1.000000  1.000000 ScalE2=  1.000000  1.000000
 IRadAn=      5 IRanWt=     -1 IRanGd=            0 ICorTp=0 IEmpDi=  4
 NAtoms=   17 NActive=   17 NUniq=   17 SFac= 1.00D+00 NAtFMM=   60 NAOKFM=F Big=F
 Integral buffers will be    131072 words long.
 Raffenetti 2 integral format.
 Two-electron integral symmetry is turned on.
 Leave Link  301 at Sun Oct 13 19:52:26 2019, MaxMem= 10737418240 cpu:               1.7 elap:               0.1
 (Enter /apps/cent7/gaussian/g16-A.03/g16-haswell/g16/l302.exe)
 NPDir=0 NMtPBC=     1 NCelOv=     1 NCel=       1 NClECP=     1 NCelD=      1
         NCelK=      1 NCelE2=     1 NClLst=     1 CellRange=     0.0.
 One-electron integrals computed using PRISM.
 One-electron integral symmetry used in STVInt
 NBasis=   269 RedAO= T EigKep=  3.40D-06  NBF=   269
 NBsUse=   268 1.00D-06 EigRej=  9.90D-07 NBFU=   268
 Precomputing XC quadrature grid using
 IXCGrd= 4 IRadAn=           5 IRanWt=          -1 IRanGd=           0 AccXCQ= 0.00D+00.
 Generated NRdTot=       0 NPtTot=           0 NUsed=           0 NTot=          32
 NSgBfM=   279   279   279   279   279 MxSgAt=    17 MxSgA2=    17.
 Leave Link  302 at Sun Oct 13 19:52:27 2019, MaxMem= 10737418240 cpu:               4.3 elap:               0.2
 (Enter /apps/cent7/gaussian/g16-A.03/g16-haswell/g16/l303.exe)
 DipDrv:  MaxL=1.
 Leave Link  303 at Sun Oct 13 19:52:27 2019, MaxMem= 10737418240 cpu:               0.8 elap:               0.1
 (Enter /apps/cent7/gaussian/g16-A.03/g16-haswell/g16/l401.exe)
 Initial guess from the checkpoint file:  "13.chk"
 B after Tr=     0.000000   -0.000000    0.000000
         Rot=    0.999992    0.000138    0.000545    0.004003 Ang=   0.46 deg.
 Guess basis will be translated and rotated to current coordinates.
 JPrj=2 DoOrth=T DoCkMO=T.
 Generating alternative initial guess.
 ExpMin= 3.60D-02 ExpMax= 8.59D+03 ExpMxC= 1.30D+03 IAcc=3 IRadAn=         5 AccDes= 0.00D+00
 Harris functional with IExCor= 1009 and IRadAn=       5 diagonalized for initial guess.
 HarFok:  IExCor= 1009 AccDes= 0.00D+00 IRadAn=         5 IDoV= 1 UseB2=F ITyADJ=14
 ICtDFT=  3500011 ScaDFX=  1.000000  1.000000  1.000000  1.000000
 FoFCou: FMM=F IPFlag=           0 FMFlag=      100000 FMFlg1=           0
         NFxFlg=           0 DoJE=T BraDBF=F KetDBF=T FulRan=T
         wScrn=  0.000000 ICntrl=       500 IOpCl=  0 I1Cent=   200000004 NGrid=           0
         NMat0=    1 NMatS0=      1 NMatT0=    0 NMatD0=    1 NMtDS0=    0 NMtDT0=    0
 Petite list used in FoFCou.
 Harris En= -475.833801821988    
 Leave Link  401 at Sun Oct 13 19:52:27 2019, MaxMem= 10737418240 cpu:              11.6 elap:               0.5
 (Enter /apps/cent7/gaussian/g16-A.03/g16-haswell/g16/l502.exe)
 Integral symmetry usage will be decided dynamically.
 Closed shell SCF:
 Using DIIS extrapolation, IDIIS=  1040.
 NGot= 10737418240 LenX= 10737253159 LenY= 10737174877
 Requested convergence on RMS density matrix=1.00D-08 within 128 cycles.
 Requested convergence on MAX density matrix=1.00D-06.
 Requested convergence on             energy=1.00D-06.
 No special actions if energy rises.
 Fock matrices will be formed incrementally for  20 cycles.

 Cycle   1  Pass 1  IDiag  1:
 FoFJK:  IHMeth= 1 ICntrl=       0 DoSepK=F KAlg= 0 I1Cent=           0 FoldK=F
 IRaf= 930000000 NMat=       1 IRICut=       1 DoRegI=T DoRafI=F ISym2E= 0 IDoP0=0 IntGTp=1.
 FoFCou: FMM=F IPFlag=           0 FMFlag=      100000 FMFlg1=           0
         NFxFlg=           0 DoJE=F BraDBF=F KetDBF=F FulRan=T
         wScrn=  0.000000 ICntrl=         0 IOpCl=  0 I1Cent=           0 NGrid=           0
         NMat0=    1 NMatS0=      1 NMatT0=    0 NMatD0=    1 NMtDS0=    0 NMtDT0=    0
 Symmetry not used in FoFCou.
 E= -476.036583326739    
 DIIS: error= 3.34D-03 at cycle   1 NSaved=   1.
 NSaved= 1 IEnMin= 1 EnMin= -476.036583326739     IErMin= 1 ErrMin= 3.34D-03
 ErrMax= 3.34D-03  0.00D+00 EMaxC= 1.00D-01 BMatC= 8.13D-03 BMatP= 8.13D-03
 IDIUse=3 WtCom= 9.67D-01 WtEn= 3.34D-02
 Coeff-Com:  0.100D+01
 Coeff-En:   0.100D+01
 Coeff:      0.100D+01
 Gap=     0.477 Goal=   None    Shift=    0.000
 GapD=    0.477 DampG=2.000 DampE=1.000 DampFc=2.0000 IDamp=-1.
 RMSDP=5.06D-03 MaxDP=5.92D-01              OVMax= 2.47D-02

 Cycle   2  Pass 1  IDiag  1:
 RMSU=  4.84D-03    CP:  9.72D-01
 E= -476.046861704988     Delta-E=       -0.010278378249 Rises=F Damp=F
 DIIS: error= 1.57D-03 at cycle   2 NSaved=   2.
 NSaved= 2 IEnMin= 2 EnMin= -476.046861704988     IErMin= 2 ErrMin= 1.57D-03
 ErrMax= 1.57D-03  0.00D+00 EMaxC= 1.00D-01 BMatC= 1.20D-03 BMatP= 8.13D-03
 IDIUse=3 WtCom= 9.84D-01 WtEn= 1.57D-02
 Coeff-Com:  0.141D+00 0.859D+00
 Coeff-En:   0.000D+00 0.100D+01
 Coeff:      0.139D+00 0.861D+00
 Gap=     0.300 Goal=   None    Shift=    0.000
 RMSDP=1.65D-03 MaxDP=1.23D-01 DE=-1.03D-02 OVMax= 1.59D-02

 Cycle   3  Pass 1  IDiag  1:
 RMSU=  1.25D-03    CP:  9.88D-01  1.14D+00
 E= -476.046990023632     Delta-E=       -0.000128318644 Rises=F Damp=F
 DIIS: error= 2.08D-03 at cycle   3 NSaved=   3.
 NSaved= 3 IEnMin= 3 EnMin= -476.046990023632     IErMin= 2 ErrMin= 1.57D-03
 ErrMax= 2.08D-03  0.00D+00 EMaxC= 1.00D-01 BMatC= 1.27D-03 BMatP= 1.20D-03
 IDIUse=3 WtCom= 9.79D-01 WtEn= 2.08D-02
 Coeff-Com: -0.485D-01 0.519D+00 0.529D+00
 Coeff-En:   0.000D+00 0.466D+00 0.534D+00
 Coeff:     -0.475D-01 0.518D+00 0.529D+00
 Gap=     0.300 Goal=   None    Shift=    0.000
 RMSDP=8.23D-04 MaxDP=6.26D-02 DE=-1.28D-04 OVMax= 8.43D-03

 Cycle   4  Pass 1  IDiag  1:
 RMSU=  5.52D-04    CP:  9.79D-01  1.12D+00  7.07D-01
 E= -476.047889492262     Delta-E=       -0.000899468630 Rises=F Damp=F
 DIIS: error= 4.35D-04 at cycle   4 NSaved=   4.
 NSaved= 4 IEnMin= 4 EnMin= -476.047889492262     IErMin= 4 ErrMin= 4.35D-04
 ErrMax= 4.35D-04  0.00D+00 EMaxC= 1.00D-01 BMatC= 4.56D-05 BMatP= 1.20D-03
 IDIUse=3 WtCom= 9.96D-01 WtEn= 4.35D-03
 Coeff-Com: -0.280D-01 0.179D+00 0.247D+00 0.601D+00
 Coeff-En:   0.000D+00 0.000D+00 0.000D+00 0.100D+01
 Coeff:     -0.278D-01 0.178D+00 0.246D+00 0.603D+00
 Gap=     0.299 Goal=   None    Shift=    0.000
 RMSDP=2.20D-04 MaxDP=1.72D-02 DE=-8.99D-04 OVMax= 1.71D-03

 Cycle   5  Pass 1  IDiag  1:
 RMSU=  1.10D-04    CP:  9.83D-01  1.12D+00  7.24D-01  9.61D-01
 E= -476.047926570379     Delta-E=       -0.000037078118 Rises=F Damp=F
 DIIS: error= 1.08D-04 at cycle   5 NSaved=   5.
 NSaved= 5 IEnMin= 5 EnMin= -476.047926570379     IErMin= 5 ErrMin= 1.08D-04
 ErrMax= 1.08D-04  0.00D+00 EMaxC= 1.00D-01 BMatC= 3.89D-06 BMatP= 4.56D-05
 IDIUse=3 WtCom= 9.99D-01 WtEn= 1.08D-03
 Coeff-Com: -0.296D-02-0.128D-01 0.157D-01 0.234D+00 0.766D+00
 Coeff-En:   0.000D+00 0.000D+00 0.000D+00 0.000D+00 0.100D+01
 Coeff:     -0.296D-02-0.128D-01 0.157D-01 0.234D+00 0.766D+00
 Gap=     0.299 Goal=   None    Shift=    0.000
 RMSDP=5.83D-05 MaxDP=2.49D-03 DE=-3.71D-05 OVMax= 4.74D-04

 Cycle   6  Pass 1  IDiag  1:
 RMSU=  2.71D-05    CP:  9.82D-01  1.12D+00  7.57D-01  9.95D-01  8.36D-01
 E= -476.047930133366     Delta-E=       -0.000003562987 Rises=F Damp=F
 DIIS: error= 3.59D-05 at cycle   6 NSaved=   6.
 NSaved= 6 IEnMin= 6 EnMin= -476.047930133366     IErMin= 6 ErrMin= 3.59D-05
 ErrMax= 3.59D-05  0.00D+00 EMaxC= 1.00D-01 BMatC= 4.41D-07 BMatP= 3.89D-06
 IDIUse=1 WtCom= 1.00D+00 WtEn= 0.00D+00
 Coeff-Com:  0.125D-02-0.230D-01-0.181D-01 0.452D-01 0.322D+00 0.672D+00
 Coeff:      0.125D-02-0.230D-01-0.181D-01 0.452D-01 0.322D+00 0.672D+00
 Gap=     0.299 Goal=   None    Shift=    0.000
 RMSDP=1.70D-05 MaxDP=1.13D-03 DE=-3.56D-06 OVMax= 1.49D-04

 Cycle   7  Pass 1  IDiag  1:
 RMSU=  1.12D-05    CP:  9.82D-01  1.13D+00  7.59D-01  9.95D-01  8.22D-01
                    CP:  7.94D-01
 E= -476.047930548187     Delta-E=       -0.000000414821 Rises=F Damp=F
 DIIS: error= 9.31D-06 at cycle   7 NSaved=   7.
 NSaved= 7 IEnMin= 7 EnMin= -476.047930548187     IErMin= 7 ErrMin= 9.31D-06
 ErrMax= 9.31D-06  0.00D+00 EMaxC= 1.00D-01 BMatC= 2.88D-08 BMatP= 4.41D-07
 IDIUse=1 WtCom= 1.00D+00 WtEn= 0.00D+00
 Coeff-Com:  0.673D-03-0.546D-02-0.764D-02-0.104D-01 0.171D-01 0.193D+00
 Coeff-Com:  0.813D+00
 Coeff:      0.673D-03-0.546D-02-0.764D-02-0.104D-01 0.171D-01 0.193D+00
 Coeff:      0.813D+00
 Gap=     0.299 Goal=   None    Shift=    0.000
 RMSDP=6.04D-06 MaxDP=4.96D-04 DE=-4.15D-07 OVMax= 1.12D-04

 Cycle   8  Pass 1  IDiag  1:
 RMSU=  3.19D-06    CP:  9.82D-01  1.12D+00  7.59D-01  1.00D+00  8.27D-01
                    CP:  8.61D-01  9.92D-01
 E= -476.047930591949     Delta-E=       -0.000000043762 Rises=F Damp=F
 DIIS: error= 5.53D-06 at cycle   8 NSaved=   8.
 NSaved= 8 IEnMin= 8 EnMin= -476.047930591949     IErMin= 8 ErrMin= 5.53D-06
 ErrMax= 5.53D-06  0.00D+00 EMaxC= 1.00D-01 BMatC= 5.68D-09 BMatP= 2.88D-08
 IDIUse=1 WtCom= 1.00D+00 WtEn= 0.00D+00
 Coeff-Com:  0.129D-03 0.501D-03-0.104D-02-0.981D-02-0.310D-01-0.508D-02
 Coeff-Com:  0.320D+00 0.726D+00
 Coeff:      0.129D-03 0.501D-03-0.104D-02-0.981D-02-0.310D-01-0.508D-02
 Coeff:      0.320D+00 0.726D+00
 Gap=     0.299 Goal=   None    Shift=    0.000
 RMSDP=2.41D-06 MaxDP=1.55D-04 DE=-4.38D-08 OVMax= 3.84D-05

 Cycle   9  Pass 1  IDiag  1:
 RMSU=  1.32D-06    CP:  9.82D-01  1.12D+00  7.59D-01  1.00D+00  8.23D-01
                    CP:  8.66D-01  1.09D+00  1.06D+00
 E= -476.047930599831     Delta-E=       -0.000000007881 Rises=F Damp=F
 DIIS: error= 2.81D-06 at cycle   9 NSaved=   9.
 NSaved= 9 IEnMin= 9 EnMin= -476.047930599831     IErMin= 9 ErrMin= 2.81D-06
 ErrMax= 2.81D-06  0.00D+00 EMaxC= 1.00D-01 BMatC= 1.04D-09 BMatP= 5.68D-09
 IDIUse=1 WtCom= 1.00D+00 WtEn= 0.00D+00
 Coeff-Com: -0.491D-04 0.107D-02 0.819D-03-0.219D-02-0.152D-01-0.331D-01
 Coeff-Com:  0.180D-02 0.328D+00 0.719D+00
 Coeff:     -0.491D-04 0.107D-02 0.819D-03-0.219D-02-0.152D-01-0.331D-01
 Coeff:      0.180D-02 0.328D+00 0.719D+00
 Gap=     0.299 Goal=   None    Shift=    0.000
 RMSDP=1.20D-06 MaxDP=7.39D-05 DE=-7.88D-09 OVMax= 1.88D-05

 Cycle  10  Pass 1  IDiag  1:
 RMSU=  6.88D-07    CP:  9.82D-01  1.13D+00  7.59D-01  9.99D-01  8.22D-01
                    CP:  8.80D-01  1.10D+00  1.15D+00  7.72D-01
 E= -476.047930601497     Delta-E=       -0.000000001666 Rises=F Damp=F
 DIIS: error= 7.35D-07 at cycle  10 NSaved=  10.
 NSaved=10 IEnMin=10 EnMin= -476.047930601497     IErMin=10 ErrMin= 7.35D-07
 ErrMax= 7.35D-07  0.00D+00 EMaxC= 1.00D-01 BMatC= 9.88D-11 BMatP= 1.04D-09
 IDIUse=1 WtCom= 1.00D+00 WtEn= 0.00D+00
 Coeff-Com: -0.334D-04 0.343D-03 0.429D-03 0.263D-03-0.238D-02-0.113D-01
 Coeff-Com: -0.331D-01 0.301D-01 0.249D+00 0.767D+00
 Coeff:     -0.334D-04 0.343D-03 0.429D-03 0.263D-03-0.238D-02-0.113D-01
 Coeff:     -0.331D-01 0.301D-01 0.249D+00 0.767D+00
 Gap=     0.299 Goal=   None    Shift=    0.000
 RMSDP=2.46D-07 MaxDP=8.57D-06 DE=-1.67D-09 OVMax= 8.68D-06

 Cycle  11  Pass 1  IDiag  1:
 RMSU=  1.53D-07    CP:  9.82D-01  1.13D+00  7.59D-01  9.99D-01  8.22D-01
                    CP:  8.81D-01  1.09D+00  1.19D+00  8.23D-01  1.11D+00
 E= -476.047930601696     Delta-E=       -0.000000000199 Rises=F Damp=F
 DIIS: error= 2.28D-07 at cycle  11 NSaved=  11.
 NSaved=11 IEnMin=11 EnMin= -476.047930601696     IErMin=11 ErrMin= 2.28D-07
 ErrMax= 2.28D-07  0.00D+00 EMaxC= 1.00D-01 BMatC= 1.85D-11 BMatP= 9.88D-11
 IDIUse=1 WtCom= 1.00D+00 WtEn= 0.00D+00
 Coeff-Com:  0.345D-06-0.116D-03-0.363D-04 0.534D-03 0.240D-02 0.327D-02
 Coeff-Com: -0.112D-01-0.620D-01-0.639D-01 0.278D+00 0.853D+00
 Coeff:      0.345D-06-0.116D-03-0.363D-04 0.534D-03 0.240D-02 0.327D-02
 Coeff:     -0.112D-01-0.620D-01-0.639D-01 0.278D+00 0.853D+00
 Gap=     0.299 Goal=   None    Shift=    0.000
 RMSDP=1.53D-07 MaxDP=9.47D-06 DE=-1.99D-10 OVMax= 5.47D-06

 Cycle  12  Pass 1  IDiag  1:
 RMSU=  6.55D-08    CP:  9.82D-01  1.13D+00  7.59D-01  9.99D-01  8.22D-01
                    CP:  8.83D-01  1.09D+00  1.21D+00  8.45D-01  1.25D+00
                    CP:  1.08D+00
 E= -476.047930601736     Delta-E=       -0.000000000040 Rises=F Damp=F
[...]
 19\0\\#P Geom=AllCheck Guess=TCheck SCRF=Check GenChk RM062X/6-311++G(
 d,p) Freq\\Title Card Required\\0,1\O,-2.8410968296,0.4309523849,0.405
 9130801\C,-2.1395370852,1.3525243585,0.0307831223\N,-2.7104140847,2.52
 03686009,-0.4068144485\O,-4.0896189721,2.4856446428,-0.5571454558\C,-0
 .6495615739,1.3214925596,0.0313479489\C,-0.0298296322,0.073000349,0.00
 50620956\C,1.355995858,-0.0102543028,-0.0109451591\C,2.1240622408,1.15
 09084837,0.0108960561\C,1.5062279456,2.3969737426,0.0546080789\C,0.119
 2004478,2.4855544452,0.066401114\H,-2.279482253,2.9991391856,-1.187023
 4557\H,-4.3175978631,1.5776049294,-0.2881696869\H,-0.6496112908,-0.815
 5204068,-0.0007247759\H,1.8384371716,-0.9797383002,-0.0370617147\H,3.2
 055359932,1.0845611494,0.0027289226\H,2.1043647625,3.2992483697,0.0920
 903347\H,-0.3610748349,3.4548398086,0.1374539434\\Version=ES64L-G16Rev
 A.03\State=1-A\HF=-476.0555778\RMSD=3.527e-09\RMSF=2.540e-05\ZeroPoint
 =0.1328509\Thermal=0.1328509\Dipole=1.355145,0.2913214,-0.5344297\Dipo
 leDeriv=-1.0461678,-0.372843,0.1490023,-0.1917427,-0.9408533,0.2627272
 ,0.0117468,0.2775138,-0.4938425,1.5848684,0.0261619,-0.0223454,-0.1642
 112,1.4270134,-0.5178899,0.1244658,-0.4576165,0.4582084,0.0802025,0.01
 65371,-0.0543942,0.4951889,-1.0091628,0.2832406,-0.0353557,-0.0004602,
 -0.1500069,-0.7623778,0.2195165,-0.0511727,-0.0797108,-0.2013297,-0.02
 40553,-0.0819902,0.034664,-0.392643,-0.4034622,0.0122417,0.0088489,0.0
 159854,-0.0194663,0.0220576,-0.0114228,0.0183488,-0.0498892,-0.0044227
 ,0.1057878,-0.0102824,-0.0566221,-0.0131079,-0.0015414,0.0189147,-0.02
 28685,-0.0928955,-0.0791622,-0.1450861,-0.0014196,-0.0909829,0.053068,
 0.0026568,-0.0008537,0.003909,-0.134443,0.0692803,0.0032996,-0.0041828
 ,-0.0248137,0.0211654,0.004117,-0.0028591,0.0045206,-0.11879,-0.088724
 7,0.1330851,0.0085097,0.1290096,0.0148221,0.0078416,0.0165835,0.009946
 5,-0.1338343,0.0217558,-0.0786187,-0.022805,0.0641273,-0.0323114,0.020
 832,-0.0734828,0.0246271,-0.1134154,0.0932817,0.021714,0.009403,-0.080
 5133,0.3647749,-0.040262,0.0320845,0.0787377,0.2016803,0.3994352,0.043
 1943,-0.0079475,-0.0420281,0.2643566,0.0044734,0.0028465,0.0396336,0.3
 264244,0.0817924,-0.0458871,-0.0016651,-0.0309667,0.0425721,-0.0072005
 ,-0.0141148,0.0058069,0.1373762,0.0342985,0.0507722,0.0005719,0.058041
 4,-0.0309327,-0.0046771,0.0003929,-0.0042067,0.1415463,-0.064389,0.009
 046,0.0012534,0.0086339,0.0768638,-0.0025184,-0.0011288,-0.0002875,0.1
 396116,0.0201665,-0.0543926,-0.002477,-0.0644601,-0.0190415,-0.0062741
 ,0.0021467,-0.0103314,0.1410739,0.0636248,0.0554713,0.0011026,0.055065
 ,0.0015692,-0.0035275,0.0120265,-0.0019373,0.1338386\Polar=126.0186338
 ,-4.1473918,99.5569568,1.7282429,-4.2619453,55.2777255\Quadrupole=-0.0
 417779,2.1505721,-2.1087942,0.490299,1.407406,-0.0142035\PG=C01 [X(C7H
 7N1O2)]\NImag=0\\0.32742644,0.29838836,0.52355857,-0.12384799,-0.19813
 732,0.12008818,-0.31093995,-0.25724336,0.10673322,0.76141493,-0.247242
 19,-0.42224334,0.14050925,0.15058991,0.75103945,0.10745848,0.14449262,
 -0.13743898,-0.06645126,-0.22535979,0.30210886,0.00899464,-0.02646240,
 0.00641340,-0.16543977,0.10346848,-0.02682482,0.63623625,-0.02616447,-
 0.10194627,0.05326216,0.06112744,-0.19978059,0.05089716,0.02245541,0.4
 8376449,-0.00150824,0.04365474,0.00794100,-0.02326310,0.10289953,-0.09
 689720,-0.07686998,-0.34721696,0.41712341,0.01450751,-0.00031297,0.001
 80924,-0.05320249,-0.01617432,-0.00227088,-0.29795017,0.03854913,-0.02
 715988,0.42927891,0.02063408,0.00321450,-0.00280364,0.03618725,-0.0167
 4676,0.01154867,-0.05695748,-0.07775678,0.03937047,0.07643096,0.516990
 44,-0.00582754,0.00125629,-0.00252107,-0.01295753,-0.00387264,-0.00209
 765,-0.01949330,0.04270775,-0.04637125,0.00375942,-0.16631594,0.076972
 63,-0.03748540,-0.02305706,0.00833678,-0.20830801,0.01428825,-0.004640
 69,-0.02160410,0.01459372,-0.00520210,0.00353412,0.00086931,0.00015957
 ,0.65375377,-0.04146427,0.00183868,0.00635094,0.00942738,-0.10473434,-
 0.00090898,0.03379517,0.00394901,0.00419876,0.00433417,-0.00358297,0.0
 0331860,0.00767586,0.70969484,0.01571760,0.00492830,0.01450875,-0.0045
 0456,0.00802122,-0.07589387,-0.01199639,-0.00123552,0.00739395,-0.0010
 0206,0.00424742,0.00413413,0.00185928,-0.00255915,0.14882436,0.0003395
 2,0.00316354,-0.00121712,-0.02321720,0.03105365,0.00133138,-0.00517765
 ,-0.00359127,0.00158649,-0.00135698,0.00125267,-0.00150261,-0.16074138
 ,0.04177901,0.00356749,0.71968650,-0.00382586,-0.00631712,0.00147136,0
 .01624638,0.00809755,-0.00133824,-0.00262490,0.00197336,-0.00099218,-0
 .00150636,0.00043962,-0.00037934,0.11073702,-0.29456941,-0.00357393,0.
 04178470,0.71960800,0.00105724,-0.00034317,-0.00001493,-0.00159679,-0.
 00002067,0.00189344,-0.00013824,-0.00025304,0.00083930,-0.00022067,0.0
 0009782,0.00055810,0.00452039,-0.00282533,-0.06512346,-0.00476023,0.00
 949231,0.14147358,0.00074073,-0.00158396,0.00030416,0.00370573,0.00532
 632,-0.00026983,-0.00040580,0.00072680,-0.00091632,-0.00054439,-0.0000
 1035,0.00028802,-0.02086195,0.08775626,0.00146339,-0.35035515,-0.02453
 499,0.00304631,0.69465076,-0.00043808,0.00168102,-0.00028347,0.0018261
 7,-0.00688947,0.00056851,0.00186069,0.00174688,-0.00039471,-0.00000822
 ,-0.00016995,0.00052312,0.03095907,0.03246687,-0.00081865,0.05178487,-
 0.13454591,-0.00175876,-0.03515838,0.73870053,-0.00086645,-0.00024389,
 -0.00048484,0.00059937,-0.00089619,0.00798758,0.00056048,0.00037353,-0
 .00020929,0.00022173,-0.00031495,-0.00043522,0.00045258,0.00150090,0.0
 0696781,0.00429255,-0.00235998,-0.06450609,-0.00615325,0.01435126,0.13
 861196,-0.00065951,0.00031479,-0.00020000,0.00112457,-0.00060774,0.000
 52172,0.00009639,0.00027446,0.00006967,-0.00062495,-0.00004213,-0.0000
 6647,-0.00172021,-0.00411203,-0.00028566,-0.03245597,-0.02580971,-0.00
 029438,-0.19669150,-0.13391493,-0.00219566,0.75518706,-0.00160737,0.00
 045526,-0.00015795,0.00095497,-0.00431884,0.00028529,-0.00021795,0.000
 10806,0.00092488,0.00055203,0.00001478,-0.00038786,-0.00549702,-0.0800
 3546,-0.00068173,-0.08282666,0.04957689,0.00122243,-0.05650821,-0.2790
 5396,-0.00408437,-0.00549805,0.67317447,-0.00004633,0.00012984,0.00018
 818,-0.00005649,-0.00016375,-0.00127226,0.00004810,-0.00010900,0.00005
 081,-0.00002796,0.00007205,0.00012608,-0.00043814,-0.00217593,-0.00734
 760,-0.00198818,0.00154401,0.00662081,0.00004076,-0.00397952,-0.064508
 59,-0.00496697,0.01450506,0.14145438,-0.00322067,-0.00024499,0.0000372
 2,0.00582654,-0.00584363,0.00035316,-0.00045575,0.00131624,0.00077174,
 0.00044202,0.00020020,-0.00041845,-0.03564295,-0.08059892,-0.00109126,
 -0.05771264,0.03847816,0.00120599,0.07603963,0.01995536,0.00034567,-0.
 17447353,0.04417890,0.00140599,0.70017500,-0.00081868,0.00096433,0.000
 61180,-0.00349300,-0.00511940,-0.00077707,0.00054450,0.00048236,-0.000
 01780,-0.00001179,0.00058313,0.00012719,-0.02254130,0.04544394,0.00014
 910,0.03613363,-0.02575233,-0.00097041,-0.03704670,-0.05809204,-0.0014
 6192,0.12157256,-0.30150976,-0.00806048,0.03916825,0.73036343,-0.00146
 994,-0.00060868,-0.00116377,0.00072706,-0.00099042,0.00854165,0.000629
 32,0.00013683,-0.00069871,0.00053080,0.00000111,-0.00016579,-0.0012554
 4,0.00264347,0.00757034,0.00145690,-0.00084821,-0.00617462,-0.00129193
 ,-0.00187434,0.00710348,0.00424144,-0.00859065,-0.06517721,-0.00079506
 ,0.02273558,0.13842077,-0.00456928,0.00092768,0.00067835,-0.01942999,-
 0.02536405,-0.00082583,-0.00171720,-0.00059944,-0.00115311,-0.00026555
 ,-0.00042125,0.00062689,-0.18315801,-0.05617726,-0.00394609,0.07217772
 ,-0.03610473,-0.00181370,-0.06620044,-0.03140500,-0.00034560,-0.018466
 29,0.09140944,0.00322497,-0.34598629,-0.02533242,0.00075232,0.69572586
 ,0.00670967,0.00149481,-0.00115156,-0.01127454,0.01143159,0.00054152,0
 .00107174,-0.00493988,-0.00049579,0.00090107,-0.00107751,0.00025367,-0
 .12314821,-0.27333754,-0.00558579,0.02005716,-0.05880901,-0.00185746,-
 0.03251165,-0.01708759,-0.00014800,0.03308998,0.03369800,0.00104704,0.
 05116029,-0.13212697,-0.00304921,-0.03598527,0.72740531,0.00090808,0.0
 0006788,0.00224362,0.00104677,0.00036380,-0.00081741,-0.00045799,0.000
 96457,-0.00034387,-0.00020411,-0.00078726,0.00024002,-0.00535453,-0.00
 897078,-0.06315759,-0.00123567,-0.00124314,0.00735732,0.00006844,0.000
 48245,-0.00627107,0.00159364,-0.00057579,0.00728775,0.00300516,-0.0022
 4584,-0.06473731,-0.00633636,0.02982442,0.14162119,-0.00007751,0.00714
 112,-0.00037978,0.01572352,-0.00202511,-0.01016470,-0.11821169,-0.0645
 3045,0.11652815,-0.02786346,-0.02303666,0.02490944,-0.00178118,0.00111
 067,0.00013502,0.00044073,-0.00065439,0.00010782,-0.00042949,-0.000452
 55,-0.00004886,-0.00010358,0.00032967,-0.00000438,-0.00003249,-0.00033
 136,-0.00000010,-0.00116069,0.00093970,-0.00028631,0.14093487,0.005714
 02,-0.00012704,0.00163448,-0.01479999,-0.02260007,0.02129505,-0.070738
 20,-0.10317335,0.15746491,0.00368782,-0.00163676,-0.00220429,-0.000806
 86,-0.00049502,-0.00158706,0.00087894,-0.00096543,-0.00030342,-0.00077
 423,-0.00065332,0.00017495,-0.00018959,0.00076169,-0.00002849,0.000593
 18,-0.00069167,0.00000824,-0.00059872,0.00190858,-0.00000204,0.0788945
 6,0.12863638,0.00067267,0.00283687,0.00339839,0.00625188,-0.01438892,-
 0.00648686,0.13567604,0.19992393,-0.28714782,-0.00643135,-0.01237243,0
 .01017427,-0.00060121,0.00042483,0.00038157,-0.00025662,0.00004945,0.0
 0006363,0.00029573,-0.00011519,-0.00003142,0.00015315,-0.00026602,-0.0
 0007973,-0.00027602,-0.00053211,0.00011033,0.00027427,0.00149079,0.000
 29489,-0.13081644,-0.17546777,0.28089989,0.00736367,-0.00059086,0.0014
 8089,-0.01006352,-0.00904018,0.00220055,-0.03166766,-0.04407590,0.0174
 4294,-0.06565374,-0.05518537,0.01044405,0.00055453,-0.00022901,0.00049
 242,0.00046272,0.00019364,-0.00021059,-0.00007463,0.00002649,0.0000340
 1,0.00011138,0.00013573,0.00000996,0.00026063,0.00004102,0.00005971,-0
 .00011898,-0.00049244,-0.00026535,-0.00667015,-0.00104933,-0.00413030,
 0.10552782,-0.00982055,-0.00597707,-0.00066049,0.01108572,0.01657810,-
 0.00295452,-0.00670986,-0.00638855,0.00052427,-0.10631066,-0.42138900,
 0.12502117,-0.00144956,-0.00246768,0.00031839,0.00030409,0.00010933,0.
 00007390,0.00018957,-0.00011531,-0.00012025,0.00000795,-0.00022396,0.0
 0001061,-0.00037070,-0.00009578,-0.00014286,-0.00032436,0.00031144,0.0
 0015787,0.00348685,-0.00052894,-0.00043501,0.10988067,0.42040415,0.006
 22927,0.00100353,-0.00626422,-0.00601200,-0.00685386,0.00845612,-0.006
 10067,0.00027380,-0.00216804,0.03140529,0.12698892,-0.04040941,0.00099
 906,0.00071540,-0.00011991,-0.00004292,0.00013801,-0.00012826,0.000014
 73,-0.00001006,0.00006304,-0.00006922,0.00001913,-0.00002254,0.0000753
 7,0.00011902,0.00020790,0.00005962,-0.00021503,-0.00010548,0.00114851,
 -0.00039307,-0.00106078,-0.02764418,-0.12191099,0.04160024,-0.00134405
 ,-0.00057570,-0.00006956,0.00041386,0.00250200,-0.00064671,0.00016247,
 -0.00117465,0.00032568,0.00004098,-0.00010813,0.00012976,0.01208560,0.
 01093333,0.00022663,-0.15120871,-0.13579612,-0.00183604,-0.01031714,-0
 .02549088,-0.00025363,-0.00521372,0.00132436,0.00027277,-0.00076715,0.
 00094717,-0.00002784,-0.00090527,0.00325403,0.00024133,0.00016168,0.00
 004799,0.00012074,-0.00014066,0.00017518,-0.00006312,0.15612144,-0.000
 01422,0.00242493,-0.00039430,-0.00262461,-0.00277476,0.00093635,0.0001
 4731,0.00073982,-0.00004882,-0.00004777,0.00014667,-0.00007450,-0.0166
 3321,-0.01854206,-0.00012124,-0.13390572,-0.25487290,-0.00174793,0.004
 00532,0.00735234,0.00004941,0.00146762,0.00128899,-0.00000523,0.000788
 40,0.00018581,0.00000469,0.00371831,-0.00338613,-0.00013562,-0.0001464
 3,-0.00011263,-0.00016146,0.00017246,-0.00011099,0.00004675,0.14413335
 ,0.26782880,0.00033443,0.00005228,-0.00044648,0.00055068,0.00031246,-0
 .00368341,-0.00025329,0.00048319,-0.00000609,-0.00012798,0.00012331,0.
 00007942,-0.00143332,-0.00068726,0.00421979,-0.00107954,-0.00156020,-0
 .04005573,0.00032175,0.00020436,0.00437985,0.00010346,-0.00041060,0.00
 776075,-0.00025522,0.00009380,-0.00112823,0.00033459,-0.00034224,0.006
 62445,-0.00008507,-0.00007136,-0.00002271,0.00006128,0.00002074,0.0000
 4235,0.00164460,0.00165667,0.02732966,-0.00026923,-0.00038251,0.000090
 19,0.00059498,0.00176576,-0.00007181,-0.00053296,-0.00000892,0.0000362
 6,-0.00026313,0.00011706,-0.00013827,-0.00570257,-0.00047770,0.0001986
 2,-0.00868004,0.02928059,0.00079633,-0.11603152,0.11391892,0.00313184,
 0.01194758,-0.01704601,-0.00040953,-0.00128691,-0.00355803,-0.00003018
 ,-0.00101259,-0.00089972,0.00000348,-0.00001873,-0.00005161,0.00000531
 ,0.00006579,0.00002310,0.00000783,0.00096244,-0.00039717,-0.00006872,0
 .11908836,0.00017752,0.00004043,-0.00001988,-0.00040310,0.00006197,0.0
 0000144,0.00002138,-0.00005503,-0.00002052,0.00004310,-0.00000649,0.00
 000928,-0.00024107,0.00189951,-0.00005487,-0.00159452,0.00273123,-0.00
 000479,0.11400609,-0.28875921,-0.00666265,0.01402929,-0.01741290,-0.00
 057998,-0.00394488,-0.00266017,-0.00021434,-0.00090715,0.00030814,0.00
 003800,-0.00000081,0.00000965,-0.00001166,-0.00002451,0.00000950,0.000
 00069,0.00030738,0.00049221,0.00008971,-0.12204210,0.30351764,0.000123
 34,0.00002086,0.00000049,-0.00005567,-0.00002095,0.00026728,0.00007902
 ,0.00002573,-0.00011496,0.00000536,-0.00001904,-0.00005381,0.00020581,
 -0.00047734,0.00777346,-0.00022958,-0.00014281,0.00370022,0.00324990,-
 0.00650149,-0.03930584,0.00018342,-0.00035699,0.00367929,0.00009240,-0
 .00019045,0.00753214,0.00003144,0.00006983,-0.00099960,-0.00003160,0.0
 0001739,0.00001327,0.00000416,0.00000301,0.00001395,-0.00011206,0.0000
 3223,-0.00428355,-0.00347487,0.00733113,0.02694279,-0.00012156,0.00006
 247,0.00002592,-0.00001984,-0.00004834,-0.00000845,-0.00004059,0.00001
 848,-0.00000970,-0.00004913,-0.00001822,-0.00003051,0.00085305,-0.0001
 8291,0.00001346,0.00004097,-0.00332489,-0.00004139,-0.01178419,0.00409
 290,0.00018341,-0.34424872,0.01753148,0.00230630,-0.00879852,-0.002219
 64,-0.00000680,0.00080456,0.00264440,0.00015217,0.00003611,0.00001680,
 0.00004543,0.00002211,-0.00000437,0.00000726,-0.00058349,0.00031146,0.
 00000371,0.00063996,-0.00021295,-0.00003438,0.36315049,0.00002168,0.00
 026212,-0.00005373,-0.00004645,-0.00029485,0.00012068,-0.00000319,0.00
 015755,0.00002386,-0.00000183,0.00007264,-0.00001485,-0.00015406,-0.00
 152954,0.00005314,-0.00311667,-0.00425059,-0.00026596,-0.02687650,0.00
 662696,0.00021281,0.01741065,-0.06101525,-0.00077630,0.02888330,0.0034
 1672,-0.00011521,0.00243896,-0.00485067,-0.00045444,-0.00005207,-0.000
 04510,-0.00009151,0.00002422,-0.00001934,0.00000725,-0.00122794,0.0002
 4939,0.00000706,0.00055245,0.00078659,0.00011089,-0.01872903,0.0595936
 5,0.00020782,0.00008072,0.00008229,-0.00011430,0.00011854,-0.00131229,
 -0.00014253,-0.00001594,0.00013011,-0.00009772,0.00000364,-0.00000103,
 0.00005996,-0.00028058,-0.00070817,-0.00006557,-0.00006585,0.00758528,
 -0.00043792,0.00008575,0.00423363,0.00218232,-0.00079529,-0.04008985,0
 .00087545,-0.00015688,0.00421135,0.00007283,-0.00035404,0.00749210,0.0
 0001956,-0.00000021,-0.00002668,-0.00000267,0.00002784,-0.00003136,-0.
 00005347,0.00000797,-0.00012702,-0.00001569,0.00011510,-0.00406392,-0.
 00254740,0.00103643,0.02679777,-0.00096096,-0.00015954,0.00014762,0.00
 073427,-0.00158937,-0.00000882,-0.00008373,0.00034922,0.00009329,-0.00
 015460,0.00007426,-0.00006681,-0.00558328,0.00159378,-0.00015914,-0.00
 070821,0.00100804,0.00004581,-0.00047107,0.00323207,0.00007115,0.01189
 199,0.01335601,0.00053542,-0.14640248,-0.13196250,-0.00514658,-0.01191
 309,-0.02730957,-0.00123039,-0.00002814,-0.00012668,-0.00000657,0.0000
 6406,-0.00006221,0.00001856,0.00003095,-0.00009420,0.00000900,0.000426
 54,0.00071223,-0.00001252,0.00060097,-0.00052094,-0.00001505,0.1516488
 7,0.00000847,-0.00002377,-0.00002303,0.00037307,0.00024931,0.00003659,
 -0.00004393,0.00003541,-0.00002895,-0.00006415,-0.00000065,-0.00000706
 ,0.00112975,0.00169501,-0.00025939,0.00106706,0.00000301,0.00004424,0.
 00368349,-0.00356884,-0.00044861,-0.01775638,-0.01728461,-0.00086151,-
 0.13214327,-0.25825847,-0.00915334,0.00361794,0.00582903,0.00014195,-0
 .00000643,-0.00001997,0.00002554,0.00001544,0.00000039,-0.00000423,-0.
 00007619,0.00000476,0.00004139,-0.00088532,-0.00093414,0.00001632,0.00
 023215,0.00082195,0.00022205,0.14121139,0.27089361,-0.00007701,0.00000
 363,-0.00028218,-0.00000722,0.00005251,0.00055980,-0.00005879,0.000008
 63,-0.00005494,-0.00003234,0.00001388,-0.00000180,0.00028898,0.0000849
 6,0.00759491,0.00034312,-0.00011993,-0.00111642,-0.00012394,-0.0004563
 5,0.00748894,-0.00072975,-0.00024867,0.00365576,-0.00493723,-0.0096986
 9,-0.03869668,-0.00015401,-0.00020471,0.00337002,-0.00002601,-0.000004
 90,0.00004003,-0.00000115,0.00000899,0.00000061,-0.00001392,-0.0000030
 1,-0.00101997,-0.00005073,-0.00004702,0.00003671,-0.00003210,0.0001795
 2,-0.00410784,0.00574821,0.01006358,0.02676490,0.00027562,0.00061538,-
 0.00034252,0.00108238,-0.00105941,0.00031852,-0.00220269,0.00073419,-0
 .00077178,0.00012505,0.00001382,0.00018433,0.01180799,-0.01516352,-0.0
 0068877,-0.00153424,-0.00354659,0.00013213,-0.00096957,-0.00078851,-0.
 00002936,-0.00570098,-0.00057133,0.00009370,-0.00796442,0.02890829,0.0
 0162633,-0.11380446,0.11179336,0.00835164,-0.00091979,-0.00069810,-0.0
 0097670,-0.00004337,-0.00010085,-0.00003340,0.00050076,-0.00088090,-0.
 00006034,0.00007207,0.00007409,-0.00002414,-0.00050217,0.00139742,0.00
 007438,0.00090790,-0.00036309,-0.00013611,0.11886991,-0.00025811,0.000
 69997,-0.00015462,0.00206674,-0.00195556,0.00061472,0.00039324,0.00108
 353,0.00015431,-0.00006022,0.00090509,0.00003940,0.01327537,-0.0176938
 6,-0.00124025,-0.00422448,-0.00245628,-0.00057977,-0.00068887,0.000360
 99,0.00007796,-0.00023674,0.00177659,-0.00056842,-0.00157591,0.0028668
 8,0.00005735,0.11110733,-0.28677157,-0.01762601,-0.00066631,-0.0002670
 0,-0.00090934,0.00019791,-0.00009628,0.00007475,0.00082483,-0.00091426
 ,-0.00001331,0.00009122,-0.00002892,0.00008168,-0.00016977,0.00001777,
 -0.00002925,0.00028803,0.00055796,0.00036755,-0.12036426,0.30191494,0.
 00093456,0.00080549,0.00016558,-0.00089006,0.00028988,-0.00391479,-0.0
 0107036,-0.00022682,0.00053359,-0.00015687,0.00014598,-0.00022760,0.00
 204302,-0.00035251,0.00298154,-0.00019989,-0.00007132,0.00702783,0.000
 09999,-0.00002290,-0.00108391,-0.00024072,-0.00040085,0.00767399,-0.00
 039490,0.00027513,0.00424435,0.00851943,-0.01982345,-0.04009903,-0.001
 00525,-0.00053242,-0.00052026,0.00002428,0.00005732,-0.00007420,0.0001
 1485,-0.00004194,0.00033691,-0.00001007,0.00003035,-0.00113792,-0.0000
 2693,0.00002036,-0.00006436,-0.00002318,0.00019444,-0.00423185,-0.0077
 1790,0.01965324,0.02839013\\-0.00001185,-0.00002855,0.00000197,0.00001
 159,0.00006377,-0.00002090,0.00010080,-0.00001554,0.00002395,-0.000105
 61,0.00002040,-0.00002538,0.00001495,-0.00000518,0.00000052,0.00001025
 ,-0.00000822,0.00000817,-0.00002198,-0.00000910,0.00000073,-0.00000082
 ,0.00002167,0.00000121,0.00002258,-0.00000947,-0.00000054,-0.00003022,
 -0.00001829,-0.00000339,0.00000543,0.00000404,0.00000180,-0.00000525,-
 0.00001822,0.00001109,-0.00000091,0.00000241,-0.00000152,0.00000034,0.
 00000051,-0.00000160,-0.00000028,-0.00000368,0.00000197,-0.00000059,-0
 .00000102,0.00000193,0.00001157,0.00000447,-0.00000001\\\@


 IF YOU WANT TO LEARN FROM THE THEORETICAL PHYSICISTS ABOUT THE
 METHODS WHICH THEY USE, I ADVISE YOU TO FOLLOW THIS PRINCIPLE VERY STRICTLY:
 DON'T LISTEN TO THEIR WORDS; PAY ATTENTION, INSTEAD, TO THEIR ACTIONS.
 -- A.EINSTEIN, 1934
 Job cpu time:       0 days  0 hours 41 minutes 45.3 seconds.
 Elapsed time:       0 days  0 hours  1 minutes 45.2 seconds.
 File lengths (MBytes):  RWF=    123 Int=      0 D2E=      0 Chk=      7 Scr=      1
 Normal termination of Gaussian 16 at Sun Oct 13 19:57:52 2019.
real 344.24
user 8032.17
sys 31.97
Machine:
brown-a369
brown-a369
brown-a369
brown-a369
brown-a369
brown-a369
brown-a369
brown-a369
brown-a369
brown-a369
brown-a369
brown-a369
brown-a369
brown-a369
brown-a369
brown-a369
brown-a369
brown-a369
brown-a369
brown-a369
brown-a369
brown-a369
brown-a369
brown-a369
