Title Card Required                                                     
Freq      RM062X                                                      6-311++G(d,p)       
Number of atoms                            I               18
Info1-9                                    I   N=           9
          46          46        1002           0           0         100
           6          18        -502
Full Title                                 C   N=           2
Title Card Required     
Route                                      C   N=           6
#p opt freq m062x/6-311++g(d,p) geom=connectivity temperatur
e=0.001     
Charge                                     I                1
Multiplicity                               I                1
Number of electrons                        I               72
Number of alpha electrons                  I               36
Number of beta electrons                   I               36
Number of basis functions                  I              276
Number of independent functions            I              276
Number of point charges in /Mol/           I                0
Number of translation vectors              I                0
Atomic numbers                             I   N=          18
           8           6           7           8           6           6
           6           6           6           6           1           1
           1           1           1           1           1           1
Nuclear charges                            R   N=          18
  8.00000000E+00  6.00000000E+00  7.00000000E+00  8.00000000E+00  6.00000000E+00
  6.00000000E+00  6.00000000E+00  6.00000000E+00  6.00000000E+00  6.00000000E+00
  1.00000000E+00  1.00000000E+00  1.00000000E+00  1.00000000E+00  1.00000000E+00
  1.00000000E+00  1.00000000E+00  1.00000000E+00
Current cartesian coordinates              R   N=          54
 -3.14908256E+00  2.68387637E+00  6.28088454E-01 -2.22799400E+00  4.78272677E-01
  1.26723144E-01 -3.79805973E+00 -1.41866981E+00 -3.16678192E-01 -6.32459299E+00
 -8.55479863E-01 -4.37917368E-01  4.85117407E-01  1.44305890E-01  8.09060481E-02
  2.00700252E+00  2.29013783E+00 -2.26156153E-01  4.60756240E+00  2.00574555E+00
 -3.30250888E-01  5.67827499E+00 -3.87456704E-01 -1.04756226E-01  4.16318359E+00
 -2.51864947E+00  2.36914906E-01  1.56371853E+00 -2.26579872E+00  3.32658253E-01
 -3.24103959E+00 -2.99070236E+00 -1.26370445E+00 -4.97670887E+00  2.72895413E+00
  4.06158427E-01  1.14906137E+00  4.13882484E+00 -4.07010474E-01  5.80019958E+00
  3.64768869E+00 -5.85127600E-01  7.71341835E+00 -5.98282160E-01 -1.78547030E-01
  5.01777798E+00 -4.36399549E+00  4.54735171E-01  4.07073322E-01 -3.91951822E+00
  6.90745446E-01 -7.15515223E+00 -1.81879515E+00  8.81894668E-01
Number of symbols in /Mol/                 I                0
Force Field                                I                0
Atom Types                                 C   N=          18
                                                            
                                                            
                                                            
                                    
Int Atom Types                             I   N=          18
           0           0           0           0           0           0
           0           0           0           0           0           0
           0           0           0           0           0           0
MM charges                                 R   N=          18
  0.00000000E+00  0.00000000E+00  0.00000000E+00  0.00000000E+00  0.00000000E+00
  0.00000000E+00  0.00000000E+00  0.00000000E+00  0.00000000E+00  0.00000000E+00
  0.00000000E+00  0.00000000E+00  0.00000000E+00  0.00000000E+00  0.00000000E+00
  0.00000000E+00  0.00000000E+00  0.00000000E+00
Integer atomic weights                     I   N=          18
          16          12          14          16          12          12
          12          12          12          12           1           1
           1           1           1           1           1           1
Real atomic weights                        R   N=          18
  1.59949146E+01  1.20000000E+01  1.40030740E+01  1.59949146E+01  1.20000000E+01
  1.20000000E+01  1.20000000E+01  1.20000000E+01  1.20000000E+01  1.20000000E+01
  1.00782504E+00  1.00782504E+00  1.00782504E+00  1.00782504E+00  1.00782504E+00
  1.00782504E+00  1.00782504E+00  1.00782504E+00
Atom fragment info                         I   N=          18
           0           0           0           0           0           0
           0           0           0           0           0           0
           0           0           0           0           0           0
Atom residue num                           I   N=          18
           0           0           0           0           0           0
           0           0           0           0           0           0
           0           0           0           0           0           0
Nuclear spins                              I   N=          18
           0           0           2           0           0           0
           0           0           0           0           1           1
           1           1           1           1           1           1
Nuclear ZEff                               R   N=          18
 -5.60000000E+00 -3.60000000E+00 -4.55000000E+00 -5.60000000E+00 -3.60000000E+00
 -3.60000000E+00 -3.60000000E+00 -3.60000000E+00 -3.60000000E+00 -3.60000000E+00
 -1.00000000E+00 -1.00000000E+00 -1.00000000E+00 -1.00000000E+00 -1.00000000E+00
 -1.00000000E+00 -1.00000000E+00 -1.00000000E+00
Nuclear ZNuc                               R   N=          18
  8.00000000E+00  6.00000000E+00  7.00000000E+00  8.00000000E+00  6.00000000E+00
  6.00000000E+00  6.00000000E+00  6.00000000E+00  6.00000000E+00  6.00000000E+00
  1.00000000E+00  1.00000000E+00  1.00000000E+00  1.00000000E+00  1.00000000E+00
  1.00000000E+00  1.00000000E+00  1.00000000E+00
Nuclear QMom                               R   N=          18
  0.00000000E+00  0.00000000E+00  2.04400000E+00  0.00000000E+00  0.00000000E+00
  0.00000000E+00  0.00000000E+00  0.00000000E+00  0.00000000E+00  0.00000000E+00
  0.00000000E+00  0.00000000E+00  0.00000000E+00  0.00000000E+00  0.00000000E+00
  0.00000000E+00  0.00000000E+00  0.00000000E+00
Nuclear GFac                               R   N=          18
  0.00000000E+00  0.00000000E+00  4.03761000E-01  0.00000000E+00  0.00000000E+00
  0.00000000E+00  0.00000000E+00  0.00000000E+00  0.00000000E+00  0.00000000E+00
  2.79284600E+00  2.79284600E+00  2.79284600E+00  2.79284600E+00  2.79284600E+00
  2.79284600E+00  2.79284600E+00  2.79284600E+00
MicOpt                                     I   N=          18
          -1          -1          -1          -1          -1          -1
          -1          -1          -1          -1          -1          -1
          -1          -1          -1          -1          -1          -1
Number of residues                         I                0
Number of secondary structures             I                0
Redundant internal dimensions              I   N=           4
          81          18          27          36
Redundant internal coordinate indices      I   N=         324
           1           2           0           0           2           3
           0           0           2           5           0           0
           3           4           0           0           3          11
           0           0           4          12           0           0
           4          18           0           0           5           6
           0           0           5          10           0           0
           6           7           0           0           6          13
           0           0           7           8           0           0
           7          14           0           0           8           9
           0           0           8          15           0           0
           9          10           0           0           9          16
           0           0          10          17           0           0
           1           2           3           0           1           2
           5           0           3           2           5           0
           2           3           4           0           2           3
          11           0           4           3          11           0
           3           4          12           0           3           4
          18           0          12           4          18           0
           2           5           6           0           2           5
          10           0           6           5          10           0
           5           6           7           0           5           6
          13           0           7           6          13           0
           6           7           8           0           6           7
          14           0           8           7          14           0
           7           8           9           0           7           8
          15           0           9           8          15           0
           8           9          10           0           8           9
          16           0          10           9          16           0
           5          10           9           0           5          10
          17           0           9          10          17           0
           1           2           3           4           1           2
           3          11           5           2           3           4
           5           2           3          11           1           2
           5           6           1           2           5          10
           3           2           5           6           3           2
           5          10           2           3           4          12
           2           3           4          18          11           3
           4          12          11           3           4          18
           2           5           6           7           2           5
           6          13          10           5           6           7
          10           5           6          13           2           5
          10           9           2           5          10          17
           6           5          10           9           6           5
          10          17           5           6           7           8
           5           6           7          14          13           6
           7           8          13           6           7          14
           6           7           8           9           6           7
           8          15          14           7           8           9
          14           7           8          15           7           8
           9          10           7           8           9          16
          15           8           9          10          15           8
           9          16           8           9          10           5
           8           9          10          17          16           9
          10           5          16           9          10          17
Redundant internal coordinates             R   N=          81
  2.44222418E+00  2.50201957E+00  2.73397266E+00  2.59138036E+00  1.91791984E+00
  3.92140569E+00  1.83295084E+00  2.64858759E+00  2.65242602E+00  2.61813413E+00
  2.04607306E+00  2.63148063E+00  2.04531731E+00  2.63708622E+00  2.04736439E+00
  2.61348787E+00  2.04525773E+00  2.04959576E+00  2.07649544E+00  2.08063134E+00
  2.12603735E+00  2.04354366E+00  2.12549752E+00  2.02438838E+00  1.42372932E+00
  1.86908000E+00  2.07276768E+00  2.06370913E+00  2.10941194E+00  2.11006242E+00
  2.07984866E+00  2.09593322E+00  2.10729197E+00  2.09385937E+00  2.09087140E+00
  2.09845409E+00  2.10867677E+00  2.08865258E+00  2.08581706E+00  2.09209623E+00
  2.09775141E+00  2.09322949E+00  2.08162194E+00  2.11792701E+00  2.08247241E+00
  1.00469714E-01  2.78165360E+00 -3.04817412E+00 -3.66990234E-01 -3.50754780E-01
  2.79286970E+00  2.79790530E+00 -3.41655526E-01 -3.62688257E-02 -2.08881497E+00
 -2.74421539E+00  1.48642378E+00 -3.11733953E+00  8.32886125E-03  2.22205017E-02
 -3.13529641E+00  3.12248437E+00 -7.13024618E-02 -1.70222928E-02  3.07237618E+00
 -1.13513332E-02  3.13126033E+00 -3.13691318E+00  5.69848056E-03 -4.47711922E-03
 -3.13654446E+00  3.13609205E+00  4.02471400E-03  9.75847076E-03 -3.11601882E+00
 -3.14134417E+00  1.60638483E-02  9.73030863E-04 -3.08949815E+00  3.12679166E+00
  3.63204760E-02
ZRed-IntVec                                I   N=          81
           0           0           0           0           0           0
           0           0           0           0           0           0
           0           0           0           0           0           0
           0           0           0           0           0           0
           0           0           0           0           0           0
           0           0           0           0           0           0
           0           0           0           0           0           0
           0           0           0           0           0           0
           0           0           0           0           0           0
           0           0           0           0           0           0
           0           0           0           0           0           0
           0           0           0           0           0           0
           0           0           0           0           0           0
           0           0           0
ZRed-FPVec                                 R   N=          81
  0.00000000E+00  0.00000000E+00  0.00000000E+00  0.00000000E+00  0.00000000E+00
  0.00000000E+00  0.00000000E+00  0.00000000E+00  0.00000000E+00  0.00000000E+00
  0.00000000E+00  0.00000000E+00  0.00000000E+00  0.00000000E+00  0.00000000E+00
  0.00000000E+00  0.00000000E+00  0.00000000E+00  0.00000000E+00  0.00000000E+00
  0.00000000E+00  0.00000000E+00  0.00000000E+00  0.00000000E+00  0.00000000E+00
  0.00000000E+00  0.00000000E+00  0.00000000E+00  0.00000000E+00  0.00000000E+00
  0.00000000E+00  0.00000000E+00  0.00000000E+00  0.00000000E+00  0.00000000E+00
  0.00000000E+00  0.00000000E+00  0.00000000E+00  0.00000000E+00  0.00000000E+00
  0.00000000E+00  0.00000000E+00  0.00000000E+00  0.00000000E+00  0.00000000E+00
  0.00000000E+00  0.00000000E+00  0.00000000E+00  0.00000000E+00  0.00000000E+00
  0.00000000E+00  0.00000000E+00  0.00000000E+00  0.00000000E+00  0.00000000E+00
  0.00000000E+00  0.00000000E+00  0.00000000E+00  0.00000000E+00  0.00000000E+00
  0.00000000E+00  0.00000000E+00  0.00000000E+00  0.00000000E+00  0.00000000E+00
  0.00000000E+00  0.00000000E+00  0.00000000E+00  0.00000000E+00  0.00000000E+00
  0.00000000E+00  0.00000000E+00  0.00000000E+00  0.00000000E+00  0.00000000E+00
  0.00000000E+00  0.00000000E+00  0.00000000E+00  0.00000000E+00  0.00000000E+00
  0.00000000E+00
ZRed-Constraint1                           R   N=          81
  2.44222418E+00  2.50201957E+00  2.73397266E+00  2.59138036E+00  1.91791984E+00
  3.92140569E+00  1.83295084E+00  2.64858759E+00  2.65242602E+00  2.61813413E+00
  2.04607306E+00  2.63148063E+00  2.04531731E+00  2.63708622E+00  2.04736439E+00
  2.61348787E+00  2.04525773E+00  2.04959576E+00  2.07649544E+00  2.08063134E+00
  2.12603735E+00  2.04354366E+00  2.12549752E+00  2.02438838E+00  1.42372932E+00
  1.86908000E+00  2.07276768E+00  2.06370913E+00  2.10941194E+00  2.11006242E+00
  2.07984866E+00  2.09593322E+00  2.10729197E+00  2.09385937E+00  2.09087140E+00
  2.09845409E+00  2.10867677E+00  2.08865258E+00  2.08581706E+00  2.09209623E+00
  2.09775141E+00  2.09322949E+00  2.08162194E+00  2.11792701E+00  2.08247241E+00
  1.00469714E-01  2.78165360E+00 -3.04817412E+00 -3.66990234E-01 -3.50754780E-01
  2.79286970E+00  2.79790530E+00 -3.41655526E-01 -3.62688257E-02 -2.08881497E+00
 -2.74421539E+00  1.48642378E+00 -3.11733953E+00  8.32886125E-03  2.22205017E-02
 -3.13529641E+00  3.12248437E+00 -7.13024618E-02 -1.70222928E-02  3.07237618E+00
 -1.13513332E-02  3.13126033E+00 -3.13691318E+00  5.69848056E-03 -4.47711922E-03
 -3.13654446E+00  3.13609205E+00  4.02471400E-03  9.75847076E-03 -3.11601882E+00
 -3.14134417E+00  1.60638483E-02  9.73030863E-04 -3.08949815E+00  3.12679166E+00
  3.63204760E-02
ZRed-Constraint2                           R   N=          81
  2.37042600E+00  2.56686871E+00  2.69212010E+00  2.46256744E+00  1.90865453E+00
  1.81413708E+00  1.81413708E+00  2.68079727E+00  2.68134356E+00  2.66162179E+00
  2.05987058E+00  2.65588958E+00  2.05985610E+00  2.65386792E+00  2.05986744E+00
  2.65815695E+00  2.05982965E+00  2.05968376E+00  2.06831842E+00  2.10354759E+00
  2.11107346E+00  2.14766115E+00  2.10612965E+00  2.02939450E+00  1.91063323E+00
  1.91063324E+00  1.91063324E+00  2.11393073E+00  2.11273003E+00  2.05644500E+00
  2.11189626E+00  2.09211145E+00  2.07917760E+00  2.09567103E+00  2.09553442E+00
  2.09197986E+00  2.09172674E+00  2.09652492E+00  2.09493365E+00  2.09444858E+00
  2.09284404E+00  2.09589268E+00  2.11496953E+00  2.09165384E+00  2.07656193E+00
  3.45076503E-02 -3.10716328E+00 -3.13079127E+00  1.07231086E-02  3.30106556E-01
 -2.82533641E+00 -2.78730213E+00  3.40440210E-01  7.04364808E-01 -1.39003030E+00
 -2.43715276E+00  1.75163744E+00  3.08121506E+00 -6.03108030E-02 -4.69604816E-02
  3.09469896E+00 -3.08367210E+00  5.77846111E-02  4.45131511E-02 -3.09721544E+00
  1.32906880E-02 -3.12835664E+00 -3.12836827E+00  1.31697150E-02  2.43687679E-02
 -3.11712533E+00 -3.11716932E+00  2.45218821E-02 -2.68533657E-02  3.11468554E+00
  3.11464083E+00 -2.70055782E-02 -8.25883217E-03  3.13346861E+00  3.13338767E+00
 -8.07020010E-03
SymInf integers                            I   N=          26
           1           1           1           1           1           0
           0           0           0           0           0           0
           0           0           0           0           0           0
           0           0           0           0           0           0
           0           0
RotTr to input orientation                 R   N=          12
  9.83284228E-01 -1.46255048E-01  1.08450850E-01 -1.54622482E-01 -9.85257961E-01
  7.32027217E-02  9.61457962E-02 -8.87480213E-02 -9.91402933E-01 -1.72539460E+00
  2.66040950E+00 -3.78414607E-01
Number of contracted shells                I              100
Number of primitive shells                 I              186
Pure/Cartesian d shells                    I                0
Pure/Cartesian f shells                    I                0
Highest angular momentum                   I                2
Largest degree of contraction              I                6
Shell types                                I   N=         100
           0          -1          -1          -1          -1          -2
           0          -1          -1          -1          -1          -2
           0          -1          -1          -1          -1          -2
           0          -1          -1          -1          -1          -2
           0          -1          -1          -1          -1          -2
           0          -1          -1          -1          -1          -2
           0          -1          -1          -1          -1          -2
           0          -1          -1          -1          -1          -2
           0          -1          -1          -1          -1          -2
           0          -1          -1          -1          -1          -2
           0           0           0           0           1           0
           0           0           0           1           0           0
           0           0           1           0           0           0
           0           1           0           0           0           0
           1           0           0           0           0           1
           0           0           0           0           1           0
           0           0           0           1
Number of primitives per shell             I   N=         100
           6           3           1           1           1           1
           6           3           1           1           1           1
           6           3           1           1           1           1
           6           3           1           1           1           1
           6           3           1           1           1           1
           6           3           1           1           1           1
           6           3           1           1           1           1
           6           3           1           1           1           1
           6           3           1           1           1           1
           6           3           1           1           1           1
           3           1           1           1           1           3
           1           1           1           1           3           1
           1           1           1           3           1           1
           1           1           3           1           1           1
           1           3           1           1           1           1
           3           1           1           1           1           3
           1           1           1           1
Shell to atom map                          I   N=         100
           1           1           1           1           1           1
           2           2           2           2           2           2
           3           3           3           3           3           3
           4           4           4           4           4           4
           5           5           5           5           5           5
           6           6           6           6           6           6
           7           7           7           7           7           7
           8           8           8           8           8           8
           9           9           9           9           9           9
          10          10          10          10          10          10
          11          11          11          11          11          12
          12          12          12          12          13          13
          13          13          13          14          14          14
          14          14          15          15          15          15
          15          16          16          16          16          16
          17          17          17          17          17          18
          18          18          18          18
Primitive exponents                        R   N=         186
  8.58850000E+03  1.29723000E+03  2.99296000E+02  8.73771000E+01  2.56789000E+01
  3.74004000E+00  4.21175000E+01  9.62837000E+00  2.85332000E+00  9.05661000E-01
  2.55611000E-01  8.45000000E-02  1.29200000E+00  4.56324000E+03  6.82024000E+02
  1.54973000E+02  4.44553000E+01  1.30290000E+01  1.82773000E+00  2.09642000E+01
  4.80331000E+00  1.45933000E+00  4.83456000E-01  1.45585000E-01  4.38000000E-02
  6.26000000E-01  6.29348000E+03  9.49044000E+02  2.18776000E+02  6.36916000E+01
  1.88282000E+01  2.72023000E+00  3.06331000E+01  7.02614000E+00  2.11205000E+00
  6.84009000E-01  2.00878000E-01  6.39000000E-02  9.13000000E-01  8.58850000E+03
  1.29723000E+03  2.99296000E+02  8.73771000E+01  2.56789000E+01  3.74004000E+00
  4.21175000E+01  9.62837000E+00  2.85332000E+00  9.05661000E-01  2.55611000E-01
  8.45000000E-02  1.29200000E+00  4.56324000E+03  6.82024000E+02  1.54973000E+02
  4.44553000E+01  1.30290000E+01  1.82773000E+00  2.09642000E+01  4.80331000E+00
  1.45933000E+00  4.83456000E-01  1.45585000E-01  4.38000000E-02  6.26000000E-01
  4.56324000E+03  6.82024000E+02  1.54973000E+02  4.44553000E+01  1.30290000E+01
  1.82773000E+00  2.09642000E+01  4.80331000E+00  1.45933000E+00  4.83456000E-01
  1.45585000E-01  4.38000000E-02  6.26000000E-01  4.56324000E+03  6.82024000E+02
  1.54973000E+02  4.44553000E+01  1.30290000E+01  1.82773000E+00  2.09642000E+01
  4.80331000E+00  1.45933000E+00  4.83456000E-01  1.45585000E-01  4.38000000E-02
  6.26000000E-01  4.56324000E+03  6.82024000E+02  1.54973000E+02  4.44553000E+01
  1.30290000E+01  1.82773000E+00  2.09642000E+01  4.80331000E+00  1.45933000E+00
  4.83456000E-01  1.45585000E-01  4.38000000E-02  6.26000000E-01  4.56324000E+03
  6.82024000E+02  1.54973000E+02  4.44553000E+01  1.30290000E+01  1.82773000E+00
  2.09642000E+01  4.80331000E+00  1.45933000E+00  4.83456000E-01  1.45585000E-01
  4.38000000E-02  6.26000000E-01  4.56324000E+03  6.82024000E+02  1.54973000E+02
  4.44553000E+01  1.30290000E+01  1.82773000E+00  2.09642000E+01  4.80331000E+00
  1.45933000E+00  4.83456000E-01  1.45585000E-01  4.38000000E-02  6.26000000E-01
  3.38650000E+01  5.09479000E+00  1.15879000E+00  3.25840000E-01  1.02741000E-01
  3.60000000E-02  7.50000000E-01  3.38650000E+01  5.09479000E+00  1.15879000E+00
  3.25840000E-01  1.02741000E-01  3.60000000E-02  7.50000000E-01  3.38650000E+01
  5.09479000E+00  1.15879000E+00  3.25840000E-01  1.02741000E-01  3.60000000E-02
  7.50000000E-01  3.38650000E+01  5.09479000E+00  1.15879000E+00  3.25840000E-01
  1.02741000E-01  3.60000000E-02  7.50000000E-01  3.38650000E+01  5.09479000E+00
  1.15879000E+00  3.25840000E-01  1.02741000E-01  3.60000000E-02  7.50000000E-01
  3.38650000E+01  5.09479000E+00  1.15879000E+00  3.25840000E-01  1.02741000E-01
  3.60000000E-02  7.50000000E-01  3.38650000E+01  5.09479000E+00  1.15879000E+00
  3.25840000E-01  1.02741000E-01  3.60000000E-02  7.50000000E-01  3.38650000E+01
  5.09479000E+00  1.15879000E+00  3.25840000E-01  1.02741000E-01  3.60000000E-02
  7.50000000E-01
Contraction coefficients                   R   N=         186
  1.89515008E-03  1.43859006E-02  7.07320031E-02  2.40001011E-01  5.94797026E-01
  2.80802012E-01  1.13889012E-01  9.20811101E-01 -3.27447036E-03  1.00000000E+00
  1.00000000E+00  1.00000000E+00  1.00000000E+00  1.96665025E-03  1.52306019E-02
  7.61269097E-02  2.60801033E-01  6.16462078E-01  2.21006028E-01  1.14660081E-01
  9.19999648E-01 -3.03068213E-03  1.00000000E+00  1.00000000E+00  1.00000000E+00
  1.00000000E+00  1.96978815E-03  1.49612859E-02  7.35005308E-02  2.48936766E-01
  6.02459433E-01  2.56201759E-01  1.11906080E-01  9.21666655E-01 -2.56919183E-03
  1.00000000E+00  1.00000000E+00  1.00000000E+00  1.00000000E+00  1.89515008E-03
  1.43859006E-02  7.07320031E-02  2.40001011E-01  5.94797026E-01  2.80802012E-01
  1.13889012E-01  9.20811101E-01 -3.27447036E-03  1.00000000E+00  1.00000000E+00
  1.00000000E+00  1.00000000E+00  1.96665025E-03  1.52306019E-02  7.61269097E-02
  2.60801033E-01  6.16462078E-01  2.21006028E-01  1.14660081E-01  9.19999648E-01
 -3.03068213E-03  1.00000000E+00  1.00000000E+00  1.00000000E+00  1.00000000E+00
  1.96665025E-03  1.52306019E-02  7.61269097E-02  2.60801033E-01  6.16462078E-01
  2.21006028E-01  1.14660081E-01  9.19999648E-01 -3.03068213E-03  1.00000000E+00
  1.00000000E+00  1.00000000E+00  1.00000000E+00  1.96665025E-03  1.52306019E-02
  7.61269097E-02  2.60801033E-01  6.16462078E-01  2.21006028E-01  1.14660081E-01
  9.19999648E-01 -3.03068213E-03  1.00000000E+00  1.00000000E+00  1.00000000E+00
  1.00000000E+00  1.96665025E-03  1.52306019E-02  7.61269097E-02  2.60801033E-01
  6.16462078E-01  2.21006028E-01  1.14660081E-01  9.19999648E-01 -3.03068213E-03
  1.00000000E+00  1.00000000E+00  1.00000000E+00  1.00000000E+00  1.96665025E-03
  1.52306019E-02  7.61269097E-02  2.60801033E-01  6.16462078E-01  2.21006028E-01
  1.14660081E-01  9.19999648E-01 -3.03068213E-03  1.00000000E+00  1.00000000E+00
  1.00000000E+00  1.00000000E+00  1.96665025E-03  1.52306019E-02  7.61269097E-02
  2.60801033E-01  6.16462078E-01  2.21006028E-01  1.14660081E-01  9.19999648E-01
 -3.03068213E-03  1.00000000E+00  1.00000000E+00  1.00000000E+00  1.00000000E+00
  2.54938145E-02  1.90373109E-01  8.52161486E-01  1.00000000E+00  1.00000000E+00
  1.00000000E+00  1.00000000E+00  2.54938145E-02  1.90373109E-01  8.52161486E-01
  1.00000000E+00  1.00000000E+00  1.00000000E+00  1.00000000E+00  2.54938145E-02
  1.90373109E-01  8.52161486E-01  1.00000000E+00  1.00000000E+00  1.00000000E+00
  1.00000000E+00  2.54938145E-02  1.90373109E-01  8.52161486E-01  1.00000000E+00
  1.00000000E+00  1.00000000E+00  1.00000000E+00  2.54938145E-02  1.90373109E-01
  8.52161486E-01  1.00000000E+00  1.00000000E+00  1.00000000E+00  1.00000000E+00
  2.54938145E-02  1.90373109E-01  8.52161486E-01  1.00000000E+00  1.00000000E+00
  1.00000000E+00  1.00000000E+00  2.54938145E-02  1.90373109E-01  8.52161486E-01
  1.00000000E+00  1.00000000E+00  1.00000000E+00  1.00000000E+00  2.54938145E-02
  1.90373109E-01  8.52161486E-01  1.00000000E+00  1.00000000E+00  1.00000000E+00
  1.00000000E+00
P(S=P) Contraction coefficients            R   N=         186
  0.00000000E+00  0.00000000E+00  0.00000000E+00  0.00000000E+00  0.00000000E+00
  0.00000000E+00  3.65113974E-02  2.37152983E-01  8.19701941E-01  1.00000000E+00
  1.00000000E+00  1.00000000E+00  0.00000000E+00  0.00000000E+00  0.00000000E+00
  0.00000000E+00  0.00000000E+00  0.00000000E+00  0.00000000E+00  4.02486927E-02
  2.37593957E-01  8.15853851E-01  1.00000000E+00  1.00000000E+00  1.00000000E+00
  0.00000000E+00  0.00000000E+00  0.00000000E+00  0.00000000E+00  0.00000000E+00
  0.00000000E+00  0.00000000E+00  3.83119186E-02  2.37403116E-01  8.17592398E-01
  1.00000000E+00  1.00000000E+00  1.00000000E+00  0.00000000E+00  0.00000000E+00
  0.00000000E+00  0.00000000E+00  0.00000000E+00  0.00000000E+00  0.00000000E+00
  3.65113974E-02  2.37152983E-01  8.19701941E-01  1.00000000E+00  1.00000000E+00
  1.00000000E+00  0.00000000E+00  0.00000000E+00  0.00000000E+00  0.00000000E+00
  0.00000000E+00  0.00000000E+00  0.00000000E+00  4.02486927E-02  2.37593957E-01
  8.15853851E-01  1.00000000E+00  1.00000000E+00  1.00000000E+00  0.00000000E+00
  0.00000000E+00  0.00000000E+00  0.00000000E+00  0.00000000E+00  0.00000000E+00