 Entering Gaussian System, Link 0=/apps/cent7/gaussian/g16-A.03/g16-haswell/g16/g16
 Initial command:
 /apps/cent7/gaussian/g16-A.03/g16-haswell/g16/l1.exe "/scratch/brown/finej/gaussian/Gau-123209.inp" -scrdir="/scratch/brown/finej/gaussian/"
 Entering Link 1 = /apps/cent7/gaussian/g16-A.03/g16-haswell/g16/l1.exe PID=    123210.
  
 Copyright (c) 1988,1990,1992,1993,1995,1998,2003,2009,2016,
            Gaussian, Inc.  All Rights Reserved.
  
 This is part of the Gaussian(R) 16 program.  It is based on
 the Gaussian(R) 09 system (copyright 2009, Gaussian, Inc.),
 the Gaussian(R) 03 system (copyright 2003, Gaussian, Inc.),
 the Gaussian(R) 98 system (copyright 1998, Gaussian, Inc.),
 the Gaussian(R) 94 system (copyright 1995, Gaussian, Inc.),
 the Gaussian 92(TM) system (copyright 1992, Gaussian, Inc.),
 the Gaussian 90(TM) system (copyright 1990, Gaussian, Inc.),
 the Gaussian 88(TM) system (copyright 1988, Gaussian, Inc.),
 the Gaussian 86(TM) system (copyright 1986, Carnegie Mellon
 University), and the Gaussian 82(TM) system (copyright 1983,
 Carnegie Mellon University). Gaussian is a federally registered
 trademark of Gaussian, Inc.
  
 This software contains proprietary and confidential information,
 including trade secrets, belonging to Gaussian, Inc.
  
 This software is provided under written license and may be
 used, copied, transmitted, or stored only in accord with that
 written license.
  
 The following legend is applicable only to US Government
 contracts under FAR:
  
                    RESTRICTED RIGHTS LEGEND
  
 Use, reproduction and disclosure by the US Government is
 subject to restrictions as set forth in subparagraphs (a)
 and (c) of the Commercial Computer Software - Restricted
 Rights clause in FAR 52.227-19.
  
 Gaussian, Inc.
 340 Quinnipiac St., Bldg. 40, Wallingford CT 06492
  
  
 ---------------------------------------------------------------
 Warning -- This program may not be used in any manner that
 competes with the business of Gaussian, Inc. or will provide
 assistance to any competitor of Gaussian, Inc.  The licensee
 of this program is prohibited from giving any competitor of
 Gaussian, Inc. access to this program.  By using this program,
 the user acknowledges that Gaussian, Inc. is engaged in the
 business of creating and licensing software in the field of
 computational chemistry and represents and warrants to the
 licensee that it is not a competitor of Gaussian, Inc. and that
 it will not use this program in any manner prohibited above.
 ---------------------------------------------------------------
  

 Cite this work as:
 Gaussian 16, Revision A.03,
 M. J. Frisch, G. W. Trucks, H. B. Schlegel, G. E. Scuseria, 
 M. A. Robb, J. R. Cheeseman, G. Scalmani, V. Barone, 
 G. A. Petersson, H. Nakatsuji, X. Li, M. Caricato, A. V. Marenich, 
 J. Bloino, B. G. Janesko, R. Gomperts, B. Mennucci, H. P. Hratchian, 
 J. V. Ortiz, A. F. Izmaylov, J. L. Sonnenberg, D. Williams-Young, 
 F. Ding, F. Lipparini, F. Egidi, J. Goings, B. Peng, A. Petrone, 
 T. Henderson, D. Ranasinghe, V. G. Zakrzewski, J. Gao, N. Rega, 
 G. Zheng, W. Liang, M. Hada, M. Ehara, K. Toyota, R. Fukuda, 
 J. Hasegawa, M. Ishida, T. Nakajima, Y. Honda, O. Kitao, H. Nakai, 
 T. Vreven, K. Throssell, J. A. Montgomery, Jr., J. E. Peralta, 
 F. Ogliaro, M. J. Bearpark, J. J. Heyd, E. N. Brothers, K. N. Kudin, 
 V. N. Staroverov, T. A. Keith, R. Kobayashi, J. Normand, 
 K. Raghavachari, A. P. Rendell, J. C. Burant, S. S. Iyengar, 
 J. Tomasi, M. Cossi, J. M. Millam, M. Klene, C. Adamo, R. Cammi, 
 J. W. Ochterski, R. L. Martin, K. Morokuma, O. Farkas, 
 J. B. Foresman, and D. J. Fox, Gaussian, Inc., Wallingford CT, 2016.
 
 ******************************************
 Gaussian 16:  ES64L-G16RevA.03 25-Dec-2016
                13-Oct-2019 
 ******************************************
 %chk=13_p.chk
 %nprocshared=24
 Will use up to   24 processors via shared memory.
 %mem=80GB
 -------------------------------------------------------------------
 #P opt freq m062x/6-311++g(d,p) geom=connectivity temperature=0.001
 -------------------------------------------------------------------
 1/18=20,19=15,26=3,38=1,57=2,112=-1000/1,3;
 2/9=110,12=2,17=6,18=5,40=1/2;
 3/5=4,6=6,7=1111,11=2,25=1,30=1,71=1,74=-55/1,2,3;
 4//1;
 5/5=2,38=5/2;
 6/7=2,8=2,9=2,10=2,28=1/1;
 7//1,2,3,16;
 1/18=20,19=15,26=3/3(2);
 2/9=110/2;
 99//99;
 2/9=110/2;
 3/5=4,6=6,7=1111,11=2,25=1,30=1,71=1,74=-55/1,2,3;
 4/5=5,16=3,69=1/1;
 5/5=2,38=5/2;
 7//1,2,3,16;
 1/18=20,19=15,26=3/3(-5);
 2/9=110/2;
 6/7=2,8=2,9=2,10=2,19=2,28=1/1;
 99/9=1/99;
 Leave Link    1 at Sun Oct 13 19:53:26 2019, MaxMem= 10737418240 cpu:               1.5 elap:               0.1
 (Enter /apps/cent7/gaussian/g16-A.03/g16-haswell/g16/l101.exe)
 -------------------
 Title Card Required
 -------------------
 Symbolic Z-matrix:
 Charge =  1 Multiplicity = 1
 O                    -2.7858    0.2039    0.1487 
 C                    -2.1146    1.2215   -0.147 
 N                    -2.7705    2.3222   -0.5979 
 O                    -4.068     2.3833   -0.7024 
 C                    -0.6942    1.2081   -0.0384 
 C                     0.0258   -0.0132    0.0116 
 C                     1.4338   -0.0244    0.0462 
 C                     2.1479    1.1861    0.0476 
 C                     1.4539    2.407     0.0441 
 C                     0.0478    2.4167    0.0065 
 H                    -2.49826   3.07805  -0.00244 
 H                    -4.4591    2.4016    0.1742 
 H                    -0.5128   -0.9608    0.0236 
 H                     1.9719   -0.972     0.072 
 H                     3.2379    1.1782    0.0513 
 H                     2.0063    3.3463    0.0706 
 H                    -0.474     3.3736    0.0121 
 H                    -2.40343   2.51812  -1.50723 
 
 ITRead=  0  0  0  0  0  0  0  0  0  0  0  0  0  0  0  0  0  0
 MicOpt= -1 -1 -1 -1 -1 -1 -1 -1 -1 -1 -1 -1 -1 -1 -1 -1 -1 -1
 NAtoms=     18 NQM=       18 NQMF=       0 NMMI=      0 NMMIF=      0
                NMic=       0 NMicF=      0.
                    Isotopes and Nuclear Properties:
 (Nuclear quadrupole moments (NQMom) in fm**2, nuclear magnetic moments (NMagM)
  in nuclear magnetons)

  Atom         1           2           3           4           5           6           7           8           9          10
 IAtWgt=          16          12          14          16          12          12          12          12          12          12
 AtmWgt=  15.9949146  12.0000000  14.0030740  15.9949146  12.0000000  12.0000000  12.0000000  12.0000000  12.0000000  12.0000000
 NucSpn=           0           0           2           0           0           0           0           0           0           0
 AtZEff=  -0.0000000  -0.0000000  -0.0000000  -0.0000000  -0.0000000  -0.0000000  -0.0000000  -0.0000000  -0.0000000  -0.0000000
 NQMom=    0.0000000   0.0000000   2.0440000   0.0000000   0.0000000   0.0000000   0.0000000   0.0000000   0.0000000   0.0000000
 NMagM=    0.0000000   0.0000000   0.4037610   0.0000000   0.0000000   0.0000000   0.0000000   0.0000000   0.0000000   0.0000000
 AtZNuc=   8.0000000   6.0000000   7.0000000   8.0000000   6.0000000   6.0000000   6.0000000   6.0000000   6.0000000   6.0000000

  Atom        11          12          13          14          15          16          17          18
 IAtWgt=           1           1           1           1           1           1           1           1
 AtmWgt=   1.0078250   1.0078250   1.0078250   1.0078250   1.0078250   1.0078250   1.0078250   1.0078250
 NucSpn=           1           1           1           1           1           1           1           1
 AtZEff=  -0.0000000  -0.0000000  -0.0000000  -0.0000000  -0.0000000  -0.0000000  -0.0000000  -0.0000000
 NQMom=    0.0000000   0.0000000   0.0000000   0.0000000   0.0000000   0.0000000   0.0000000   0.0000000
 NMagM=    2.7928460   2.7928460   2.7928460   2.7928460   2.7928460   2.7928460   2.7928460   2.7928460
 AtZNuc=   1.0000000   1.0000000   1.0000000   1.0000000   1.0000000   1.0000000   1.0000000   1.0000000
 Leave Link  101 at Sun Oct 13 19:53:26 2019, MaxMem= 10737418240 cpu:               8.2 elap:               0.4
 (Enter /apps/cent7/gaussian/g16-A.03/g16-haswell/g16/l103.exe)

 GradGradGradGradGradGradGradGradGradGradGradGradGradGradGradGradGradGrad
 Berny optimization.
 Initialization pass.
                           ----------------------------
                           !    Initial Parameters    !
                           ! (Angstroms and Degrees)  !
 --------------------------                            --------------------------
 ! Name  Definition              Value          Derivative Info.                !
 --------------------------------------------------------------------------------
 ! R1    R(1,2)                  1.2544         estimate D2E/DX2                !
 ! R2    R(2,3)                  1.3583         estimate D2E/DX2                !
 ! R3    R(2,5)                  1.4246         estimate D2E/DX2                !
 ! R4    R(3,4)                  1.3031         estimate D2E/DX2                !
 ! R5    R(3,11)                 1.0            estimate D2E/DX2                !
 ! R6    R(3,18)                 1.0            estimate D2E/DX2                !
 ! R7    R(4,12)                 0.9601         estimate D2E/DX2                !
 ! R8    R(5,6)                  1.4186         estimate D2E/DX2                !
 ! R9    R(5,10)                 1.4189         estimate D2E/DX2                !
 ! R10   R(6,7)                  1.4085         estimate D2E/DX2                !
 ! R11   R(6,13)                 1.09           estimate D2E/DX2                !
 ! R12   R(7,8)                  1.4054         estimate D2E/DX2                !
 ! R13   R(7,14)                 1.09           estimate D2E/DX2                !
 ! R14   R(8,9)                  1.4044         estimate D2E/DX2                !
 ! R15   R(8,15)                 1.09           estimate D2E/DX2                !
 ! R16   R(9,10)                 1.4066         estimate D2E/DX2                !
 ! R17   R(9,16)                 1.09           estimate D2E/DX2                !
 ! R18   R(10,17)                1.0899         estimate D2E/DX2                !
 ! A1    A(1,2,3)              118.5059         estimate D2E/DX2                !
 ! A2    A(1,2,5)              120.5244         estimate D2E/DX2                !
 ! A3    A(3,2,5)              120.9556         estimate D2E/DX2                !
 ! A4    A(2,3,4)              123.0519         estimate D2E/DX2                !
 ! A5    A(2,3,11)             106.4615         estimate D2E/DX2                !
 ! A6    A(2,3,18)             106.4615         estimate D2E/DX2                !
 ! A7    A(4,3,11)             106.4615         estimate D2E/DX2                !
 ! A8    A(4,3,18)             106.4615         estimate D2E/DX2                !
 ! A9    A(11,3,18)            107.0647         estimate D2E/DX2                !
 ! A10   A(3,4,12)             109.4681         estimate D2E/DX2                !
 ! A11   A(2,5,6)              121.1193         estimate D2E/DX2                !
 ! A12   A(2,5,10)             121.0505         estimate D2E/DX2                !
 ! A13   A(6,5,10)             117.8256         estimate D2E/DX2                !
 ! A14   A(5,6,7)              121.0027         estimate D2E/DX2                !
 ! A15   A(5,6,13)             119.8692         estimate D2E/DX2                !
 ! A16   A(7,6,13)             119.1281         estimate D2E/DX2                !
 ! A17   A(6,7,8)              120.0731         estimate D2E/DX2                !
 ! A18   A(6,7,14)             120.0653         estimate D2E/DX2                !
 ! A19   A(8,7,14)             119.8616         estimate D2E/DX2                !
 ! A20   A(7,8,9)              119.8471         estimate D2E/DX2                !
 ! A21   A(7,8,15)             120.122          estimate D2E/DX2                !
 ! A22   A(9,8,15)             120.0309         estimate D2E/DX2                !
 ! A23   A(8,9,10)             120.0031         estimate D2E/DX2                !
 ! A24   A(8,9,16)             119.9111         estimate D2E/DX2                !
 ! A25   A(10,9,16)            120.0858         estimate D2E/DX2                !
 ! A26   A(5,10,9)             121.1788         estimate D2E/DX2                !
 ! A27   A(5,10,17)            119.8429         estimate D2E/DX2                !
 ! A28   A(9,10,17)            118.9782         estimate D2E/DX2                !
 ! D1    D(1,2,3,4)              1.9771         estimate D2E/DX2                !
 ! D2    D(1,2,3,11)           124.9882         estimate D2E/DX2                !
 ! D3    D(1,2,3,18)          -121.0339         estimate D2E/DX2                !
 ! D4    D(5,2,3,4)           -179.3811         estimate D2E/DX2                !
 ! D5    D(5,2,3,11)           -56.37           estimate D2E/DX2                !
 ! D6    D(5,2,3,18)            57.6078         estimate D2E/DX2                !
 ! D7    D(1,2,5,6)             18.9137         estimate D2E/DX2                !
 ! D8    D(1,2,5,10)          -161.8799         estimate D2E/DX2                !
 ! D9    D(3,2,5,6)           -159.7006         estimate D2E/DX2                !
 ! D10   D(3,2,5,10)            19.5058         estimate D2E/DX2                !
 ! D11   D(2,3,4,12)            69.8125         estimate D2E/DX2                !
 ! D12   D(11,3,4,12)          -53.1985         estimate D2E/DX2                !
 ! D13   D(18,3,4,12)         -167.1764         estimate D2E/DX2                !
 ! D14   D(2,5,6,7)            176.5406         estimate D2E/DX2                !
 ! D15   D(2,5,6,13)            -3.4556         estimate D2E/DX2                !
 ! D16   D(10,5,6,7)            -2.6906         estimate D2E/DX2                !
 ! D17   D(10,5,6,13)          177.3132         estimate D2E/DX2                !
 ! D18   D(2,5,10,9)          -176.6814         estimate D2E/DX2                !
 ! D19   D(2,5,10,17)            3.3108         estimate D2E/DX2                !
 ! D20   D(6,5,10,9)             2.5504         estimate D2E/DX2                !
 ! D21   D(6,5,10,17)         -177.4574         estimate D2E/DX2                !
 ! D22   D(5,6,7,8)              0.7615         estimate D2E/DX2                !
 ! D23   D(5,6,7,14)          -179.2416         estimate D2E/DX2                !
 ! D24   D(13,6,7,8)          -179.2423         estimate D2E/DX2                !
 ! D25   D(13,6,7,14)            0.7546         estimate D2E/DX2                !
 ! D26   D(6,7,8,9)              1.3962         estimate D2E/DX2                !
 ! D27   D(6,7,8,15)          -178.5981         estimate D2E/DX2                !
 ! D28   D(14,7,8,9)          -178.6006         estimate D2E/DX2                !
 ! D29   D(14,7,8,15)            1.405          estimate D2E/DX2                !
 ! D30   D(7,8,9,10)            -1.5386         estimate D2E/DX2                !
 ! D31   D(7,8,9,16)           178.4583         estimate D2E/DX2                !
 ! D32   D(15,8,9,10)          178.4558         estimate D2E/DX2                !
 ! D33   D(15,8,9,16)           -1.5473         estimate D2E/DX2                !
 ! D34   D(8,9,10,5)            -0.4732         estimate D2E/DX2                !
 ! D35   D(8,9,10,17)          179.5345         estimate D2E/DX2                !
 ! D36   D(16,9,10,5)          179.5299         estimate D2E/DX2                !
 ! D37   D(16,9,10,17)          -0.4624         estimate D2E/DX2                !
 --------------------------------------------------------------------------------
 Trust Radius=3.00D-01 FncErr=1.00D-07 GrdErr=1.00D-06 EigMax=2.50D+02 EigMin=1.00D-04
 Number of steps in this run=     93 maximum allowed number of steps=    108.
 GradGradGradGradGradGradGradGradGradGradGradGradGradGradGradGradGradGrad

 Leave Link  103 at Sun Oct 13 19:53:26 2019, MaxMem= 10737418240 cpu:               0.4 elap:               0.0
 (Enter /apps/cent7/gaussian/g16-A.03/g16-haswell/g16/l202.exe)
                          Input orientation:                          
 ---------------------------------------------------------------------
 Center     Atomic      Atomic             Coordinates (Angstroms)
 Number     Number       Type             X           Y           Z
 ---------------------------------------------------------------------
      1          8           0       -2.785800    0.203900    0.148700
      2          6           0       -2.114600    1.221500   -0.147000
      3          7           0       -2.770500    2.322200   -0.597900
      4          8           0       -4.068000    2.383300   -0.702400
      5          6           0       -0.694200    1.208100   -0.038400
      6          6           0        0.025800   -0.013200    0.011600
      7          6           0        1.433800   -0.024400    0.046200
      8          6           0        2.147900    1.186100    0.047600
      9          6           0        1.453900    2.407000    0.044100
     10          6           0        0.047800    2.416700    0.006500
     11          1           0       -2.498263    3.078052   -0.002438
     12          1           0       -4.459100    2.401600    0.174200
     13          1           0       -0.512800   -0.960800    0.023600
     14          1           0        1.971900   -0.972000    0.072000
     15          1           0        3.237900    1.178200    0.051300
     16          1           0        2.006300    3.346300    0.070600
     17          1           0       -0.474000    3.373600    0.012100
     18          1           0       -2.403435    2.518124   -1.507228
 ---------------------------------------------------------------------
                    Distance matrix (angstroms):
                    1          2          3          4          5
     1  O    0.000000
     2  C    1.254375   0.000000
     3  N    2.246072   1.358328   0.000000
     4  O    2.667994   2.339662   1.303135   0.000000
     5  C    2.327706   1.424609   2.421834   3.633802   0.000000
     6  C    2.823300   2.476076   3.693897   4.797104   1.418617
     7  C    4.227014   3.765732   4.857729   6.052043   2.460609
     8  C    5.031534   4.267087   5.089013   6.374418   2.843486
     9  C    4.779084   3.765119   4.273747   5.572181   2.461402
    10  C    3.598054   2.475488   2.883929   4.176537   1.418906
    11  H    2.892450   1.901284   1.000000   1.853834   2.598587
    12  H    2.762330   2.644331   1.858444   0.960063   3.955264
    13  H    2.557089   2.712434   4.032563   4.934524   2.177356
    14  H    4.901462   4.643155   5.812992   6.952563   3.445738
    15  H    6.102762   5.356347   6.150696   7.442883   3.933237
    16  H    5.731056   4.641545   4.930871   6.198550   3.446227
    17  H    3.925567   2.710796   2.598356   3.795792   2.177253
    18  H    2.871225   1.901284   1.000000   1.853834   2.606742
                    6          7          8          9         10
     6  C    0.000000
     7  C    1.408470   0.000000
     8  C    2.437811   1.405436   0.000000
     9  C    2.810319   2.431484   1.404366   0.000000
    10  C    2.430005   2.807408   2.434437   1.406636   0.000000
    11  H    3.990855   5.008861   5.016853   4.008998   2.630570
    12  H    5.096276   6.374020   6.719071   5.914434   4.510044
    13  H    1.090037   2.160233   3.418930   3.900052   3.423751
    14  H    2.170311   1.090029   2.165402   3.418588   3.897402
    15  H    3.426164   2.168190   1.090035   2.166254   3.422372
    16  H    3.900269   3.419060   2.164958   1.090015   2.168868
    17  H    3.423480   3.897085   3.414788   2.156882   1.089938
    18  H    3.823038   4.858183   4.990634   4.159086   2.882744
                   11         12         13         14         15
    11  H    0.000000
    12  H    2.081747   0.000000
    13  H    4.500562   5.186685   0.000000
    14  H    6.032480   7.262877   2.485197   0.000000
    15  H    6.042838   7.794589   4.317851   2.495304   0.000000
    16  H    4.513134   6.534875   4.989908   4.318437   2.493565
    17  H    2.045776   4.105129   4.334589   4.987009   4.312716
    18  H    1.608385   2.658296   4.245097   5.815366   6.004087
                   16         17         18
    16  H    0.000000
    17  H    2.481140   0.000000
    18  H    4.756173   2.600560   0.000000
 Stoichiometry    C7H8NO2(1+)
 Framework group  C1[X(C7H8NO2)]
 Deg. of freedom    48
 Full point group                 C1      NOp   1
 Largest Abelian subgroup         C1      NOp   1
 Largest concise Abelian subgroup C1      NOp   1
                         Standard orientation:                         
 ---------------------------------------------------------------------
 Center     Atomic      Atomic             Coordinates (Angstroms)
 Number     Number       Type             X           Y           Z
 ---------------------------------------------------------------------
      1          8           0       -1.664264    1.515517   -0.290632
      2          6           0       -1.196460    0.373953   -0.063810
      3          7           0       -2.060446   -0.638690    0.206631
      4          8           0       -3.354854   -0.488140    0.204804
      5          6           0        0.211396    0.156128   -0.062213
      6          6           0        1.120161    1.235707    0.083145
      7          6           0        2.508536    1.010387    0.156845
      8          6           0        3.015301   -0.297658    0.070481
      9          6           0        2.136509   -1.376591   -0.118918
     10          6           0        0.749960   -1.150426   -0.189331
     11          1           0       -1.858832   -1.366012   -0.449384
     12          1           0       -3.659786   -0.351215   -0.695190
     13          1           0        0.744738    2.257510    0.139328
     14          1           0        3.192238    1.850217    0.280942
     15          1           0        4.087818   -0.475168    0.150313
     16          1           0        2.530440   -2.388731   -0.211236
     17          1           0        0.083721   -1.998987   -0.344362
     18          1           0       -1.816699   -0.984807    1.112606
 ---------------------------------------------------------------------
 Rotational constants (GHZ):           3.4639448           0.8111294           0.6675536
 Leave Link  202 at Sun Oct 13 19:53:26 2019, MaxMem= 10737418240 cpu:               0.3 elap:               0.0
 (Enter /apps/cent7/gaussian/g16-A.03/g16-haswell/g16/l301.exe)
 Standard basis: 6-311++G(d,p) (5D, 7F)
 Ernie: Thresh=  0.10000D-02 Tol=  0.10000D-05 Strict=F.
 There are   286 symmetry adapted cartesian basis functions of A   symmetry.
 There are   276 symmetry adapted basis functions of A   symmetry.
   276 basis functions,   432 primitive gaussians,   286 cartesian basis functions
    36 alpha electrons       36 beta electrons
       nuclear repulsion energy       504.6710747297 Hartrees.
 IExCor= 4336 DFT=T Ex+Corr=M062X ExCW=0 ScaHFX=  0.540000
 ScaDFX=  1.000000  1.000000  1.000000  1.000000 ScalE2=  1.000000  1.000000
 IRadAn=      5 IRanWt=     -1 IRanGd=            0 ICorTp=0 IEmpDi=  4
 NAtoms=   18 NActive=   18 NUniq=   18 SFac= 1.00D+00 NAtFMM=   60 NAOKFM=F Big=F
 Integral buffers will be    131072 words long.
 Raffenetti 2 integral format.
 Two-electron integral symmetry is turned on.
 Leave Link  301 at Sun Oct 13 19:53:26 2019, MaxMem= 10737418240 cpu:               1.3 elap:               0.1
 (Enter /apps/cent7/gaussian/g16-A.03/g16-haswell/g16/l302.exe)
 NPDir=0 NMtPBC=     1 NCelOv=     1 NCel=       1 NClECP=     1 NCelD=      1
         NCelK=      1 NCelE2=     1 NClLst=     1 CellRange=     0.0.
 One-electron integrals computed using PRISM.
 One-electron integral symmetry used in STVInt
 NBasis=   276 RedAO= T EigKep=  1.05D-06  NBF=   276
 NBsUse=   276 1.00D-06 EigRej= -1.00D+00 NBFU=   276
 Precomputing XC quadrature grid using
 IXCGrd= 4 IRadAn=           5 IRanWt=          -1 IRanGd=           0 AccXCQ= 0.00D+00.
 Generated NRdTot=       0 NPtTot=           0 NUsed=           0 NTot=          32
 NSgBfM=   286   286   286   286   286 MxSgAt=    18 MxSgA2=    18.
 Leave Link  302 at Sun Oct 13 19:53:26 2019, MaxMem= 10737418240 cpu:               5.0 elap:               0.2
 (Enter /apps/cent7/gaussian/g16-A.03/g16-haswell/g16/l303.exe)
 DipDrv:  MaxL=1.
 Leave Link  303 at Sun Oct 13 19:53:26 2019, MaxMem= 10737418240 cpu:               1.1 elap:               0.1
 (Enter /apps/cent7/gaussian/g16-A.03/g16-haswell/g16/l401.exe)
 ExpMin= 3.60D-02 ExpMax= 8.59D+03 ExpMxC= 1.30D+03 IAcc=3 IRadAn=         5 AccDes= 0.00D+00
 Harris functional with IExCor= 1009 and IRadAn=       5 diagonalized for initial guess.
 HarFok:  IExCor= 1009 AccDes= 0.00D+00 IRadAn=         5 IDoV= 1 UseB2=F ITyADJ=14
 ICtDFT=  3500011 ScaDFX=  1.000000  1.000000  1.000000  1.000000
 FoFCou: FMM=F IPFlag=           0 FMFlag=      100000 FMFlg1=           0
         NFxFlg=           0 DoJE=T BraDBF=F KetDBF=T FulRan=T
         wScrn=  0.000000 ICntrl=       500 IOpCl=  0 I1Cent=   200000004 NGrid=           0
         NMat0=    1 NMatS0=      1 NMatT0=    0 NMatD0=    1 NMtDS0=    0 NMtDT0=    0
 Petite list used in FoFCou.
 Harris En= -476.156544176645    
 JPrj=0 DoOrth=F DoCkMO=F.
 Leave Link  401 at Sun Oct 13 19:53:27 2019, MaxMem= 10737418240 cpu:              10.1 elap:               0.5
 (Enter /apps/cent7/gaussian/g16-A.03/g16-haswell/g16/l502.exe)
 Integral symmetry usage will be decided dynamically.
 Closed shell SCF:
 Using DIIS extrapolation, IDIIS=  1040.
 NGot= 10737418240 LenX= 10737244962 LenY= 10737162725
 Requested convergence on RMS density matrix=1.00D-08 within 128 cycles.
 Requested convergence on MAX density matrix=1.00D-06.
 Requested convergence on             energy=1.00D-06.
 No special actions if energy rises.
 Fock matrices will be formed incrementally for  20 cycles.

 Cycle   1  Pass 1  IDiag  1:
 FoFJK:  IHMeth= 1 ICntrl=       0 DoSepK=F KAlg= 0 I1Cent=           0 FoldK=F
 IRaf= 930000000 NMat=       1 IRICut=       1 DoRegI=T DoRafI=F ISym2E= 0 IDoP0=0 IntGTp=1.
 FoFCou: FMM=F IPFlag=           0 FMFlag=      100000 FMFlg1=           0
         NFxFlg=           0 DoJE=F BraDBF=F KetDBF=F FulRan=T
         wScrn=  0.000000 ICntrl=         0 IOpCl=  0 I1Cent=           0 NGrid=           0
         NMat0=    1 NMatS0=      1 NMatT0=    0 NMatD0=    1 NMtDS0=    0 NMtDT0=    0
 Symmetry not used in FoFCou.
 E= -476.070176230928    
 DIIS: error= 2.64D-02 at cycle   1 NSaved=   1.
 NSaved= 1 IEnMin= 1 EnMin= -476.070176230928     IErMin= 1 ErrMin= 2.64D-02
 ErrMax= 2.64D-02  0.00D+00 EMaxC= 1.00D-01 BMatC= 3.40D-01 BMatP= 3.40D-01
 IDIUse=3 WtCom= 7.36D-01 WtEn= 2.64D-01
 Coeff-Com:  0.100D+01
 Coeff-En:   0.100D+01
 Coeff:      0.100D+01
 Gap=     0.217 Goal=   None    Shift=    0.000
 GapD=    0.217 DampG=1.000 DampE=0.500 DampFc=0.5000 IDamp=-1.
 Damping current iteration by 5.00D-01
 RMSDP=8.62D-02 MaxDP=1.10D+01              OVMax= 2.28D-01

 Cycle   2  Pass 1  IDiag  1:
 RMSU=  3.79D-02    CP:  1.30D+00
 E= -476.166402946898     Delta-E=       -0.096226715970 Rises=F Damp=T
 DIIS: error= 6.68D-03 at cycle   2 NSaved=   2.
 NSaved= 2 IEnMin= 2 EnMin= -476.166402946898     IErMin= 2 ErrMin= 6.68D-03
 ErrMax= 6.68D-03  0.00D+00 EMaxC= 1.00D-01 BMatC= 4.76D-02 BMatP= 3.40D-01
 IDIUse=3 WtCom= 9.33D-01 WtEn= 6.68D-02
 Coeff-Com:  0.793D-01 0.921D+00
 Coeff-En:   0.184D+00 0.816D+00
 Coeff:      0.863D-01 0.914D+00
 Gap=     0.271 Goal=   None    Shift=    0.000
 RMSDP=1.85D-02 MaxDP=2.27D+00 DE=-9.62D-02 OVMax= 1.69D-01

 Cycle   3  Pass 1  IDiag  1:
 RMSU=  1.31D-02    CP:  1.17D+00  7.54D-01
 E= -476.296301991542     Delta-E=       -0.129899044644 Rises=F Damp=F
 DIIS: error= 1.17D-02 at cycle   3 NSaved=   3.
 NSaved= 3 IEnMin= 3 EnMin= -476.296301991542     IErMin= 2 ErrMin= 6.68D-03
 ErrMax= 1.17D-02  0.00D+00 EMaxC= 1.00D-01 BMatC= 3.13D-02 BMatP= 4.76D-02
 IDIUse=3 WtCom= 8.83D-01 WtEn= 1.17D-01
 Coeff-Com: -0.874D-01 0.463D+00 0.624D+00
 Coeff-En:   0.000D+00 0.000D+00 0.100D+01
 Coeff:     -0.772D-01 0.409D+00 0.668D+00
 Gap=     0.252 Goal=   None    Shift=    0.000
 RMSDP=4.16D-03 MaxDP=2.32D-01 DE=-1.30D-01 OVMax= 5.39D-02

 Cycle   4  Pass 1  IDiag  1:
 RMSU=  3.99D-03    CP:  1.18D+00  7.73D-01  9.53D-01
 E= -476.315748669430     Delta-E=       -0.019446677888 Rises=F Damp=F
 DIIS: error= 4.92D-03 at cycle   4 NSaved=   4.
 NSaved= 4 IEnMin= 4 EnMin= -476.315748669430     IErMin= 4 ErrMin= 4.92D-03
 ErrMax= 4.92D-03  0.00D+00 EMaxC= 1.00D-01 BMatC= 6.23D-03 BMatP= 3.13D-02
 IDIUse=3 WtCom= 9.51D-01 WtEn= 4.92D-02
 Coeff-Com: -0.371D-01 0.118D+00 0.368D+00 0.551D+00
 Coeff-En:   0.000D+00 0.000D+00 0.176D+00 0.824D+00
 Coeff:     -0.353D-01 0.112D+00 0.359D+00 0.565D+00
 Gap=     0.242 Goal=   None    Shift=    0.000
 RMSDP=2.24D-03 MaxDP=1.95D-01 DE=-1.94D-02 OVMax= 2.09D-02

 Cycle   5  Pass 1  IDiag  1:
 RMSU=  1.23D-03    CP:  1.16D+00  7.92D-01  9.93D-01  8.22D-01
 E= -476.320708792609     Delta-E=       -0.004960123179 Rises=F Damp=F
 DIIS: error= 6.92D-04 at cycle   5 NSaved=   5.
 NSaved= 5 IEnMin= 5 EnMin= -476.320708792609     IErMin= 5 ErrMin= 6.92D-04
 ErrMax= 6.92D-04  0.00D+00 EMaxC= 1.00D-01 BMatC= 1.35D-04 BMatP= 6.23D-03
 IDIUse=3 WtCom= 9.93D-01 WtEn= 6.92D-03
 Coeff-Com: -0.929D-02 0.157D-01 0.102D+00 0.224D+00 0.667D+00
 Coeff-En:   0.000D+00 0.000D+00 0.000D+00 0.000D+00 0.100D+01
 Coeff:     -0.923D-02 0.156D-01 0.101D+00 0.223D+00 0.670D+00
 Gap=     0.245 Goal=   None    Shift=    0.000
 RMSDP=3.97D-04 MaxDP=3.77D-02 DE=-4.96D-03 OVMax= 4.76D-03

 Cycle   6  Pass 1  IDiag  1:
 RMSU=  2.50D-04    CP:  1.16D+00  7.90D-01  9.99D-01  8.68D-01  9.18D-01
 E= -476.320819281695     Delta-E=       -0.000110489086 Rises=F Damp=F
 DIIS: error= 2.04D-04 at cycle   6 NSaved=   6.
 NSaved= 6 IEnMin= 6 EnMin= -476.320819281695     IErMin= 6 ErrMin= 2.04D-04
 ErrMax= 2.04D-04  0.00D+00 EMaxC= 1.00D-01 BMatC= 1.10D-05 BMatP= 1.35D-04
 IDIUse=3 WtCom= 9.98D-01 WtEn= 2.04D-03
 Coeff-Com: -0.103D-02-0.123D-02 0.162D-01 0.469D-01 0.267D+00 0.672D+00
 Coeff-En:   0.000D+00 0.000D+00 0.000D+00 0.000D+00 0.000D+00 0.100D+01
 Coeff:     -0.103D-02-0.123D-02 0.162D-01 0.468D-01 0.266D+00 0.673D+00
 Gap=     0.244 Goal=   None    Shift=    0.000
 RMSDP=1.45D-04 MaxDP=1.15D-02 DE=-1.10D-04 OVMax= 1.65D-03

 Cycle   7  Pass 1  IDiag  1:
 RMSU=  8.22D-05    CP:  1.16D+00  7.88D-01  9.97D-01  8.73D-01  9.15D-01
                    CP:  9.06D-01
 E= -476.320828957354     Delta-E=       -0.000009675659 Rises=F Damp=F
 DIIS: error= 9.35D-05 at cycle   7 NSaved=   7.
 NSaved= 7 IEnMin= 7 EnMin= -476.320828957354     IErMin= 7 ErrMin= 9.35D-05
 ErrMax= 9.35D-05  0.00D+00 EMaxC= 1.00D-01 BMatC= 1.58D-06 BMatP= 1.10D-05
 IDIUse=1 WtCom= 1.00D+00 WtEn= 0.00D+00
 Coeff-Com:  0.107D-02-0.314D-02-0.646D-02-0.131D-01 0.190D-01 0.256D+00
 Coeff-Com:  0.746D+00
 Coeff:      0.107D-02-0.314D-02-0.646D-02-0.131D-01 0.190D-01 0.256D+00
 Coeff:      0.746D+00
 Gap=     0.244 Goal=   None    Shift=    0.000
 RMSDP=6.97D-05 MaxDP=6.63D-03 DE=-9.68D-06 OVMax= 5.74D-04

 Cycle   8  Pass 1  IDiag  1:
 RMSU=  3.40D-05    CP:  1.16D+00  7.87D-01  1.00D+00  8.76D-01  9.27D-01
                    CP:  9.77D-01  1.19D+00
 E= -476.320830538341     Delta-E=       -0.000001580987 Rises=F Damp=F
 DIIS: error= 3.40D-05 at cycle   8 NSaved=   8.
 NSaved= 8 IEnMin= 8 EnMin= -476.320830538341     IErMin= 8 ErrMin= 3.40D-05
 ErrMax= 3.40D-05  0.00D+00 EMaxC= 1.00D-01 BMatC= 3.33D-07 BMatP= 1.58D-06
 IDIUse=1 WtCom= 1.00D+00 WtEn= 0.00D+00
 Coeff-Com:  0.758D-03-0.152D-02-0.512D-02-0.139D-01-0.297D-01 0.240D-01
 Coeff-Com:  0.364D+00 0.661D+00
 Coeff:      0.758D-03-0.152D-02-0.512D-02-0.139D-01-0.297D-01 0.240D-01
 Coeff:      0.364D+00 0.661D+00
 Gap=     0.244 Goal=   None    Shift=    0.000
 RMSDP=1.98D-05 MaxDP=1.92D-03 DE=-1.58D-06 OVMax= 2.13D-04

 Cycle   9  Pass 1  IDiag  1:
 RMSU=  8.45D-06    CP:  1.16D+00  7.87D-01  1.00D+00  8.77D-01  9.34D-01
                    CP:  9.92D-01  1.20D+00  9.31D-01
 E= -476.320830869117     Delta-E=       -0.000000330776 Rises=F Damp=F
 DIIS: error= 1.12D-05 at cycle   9 NSaved=   9.
 NSaved= 9 IEnMin= 9 EnMin= -476.320830869117     IErMin= 9 ErrMin= 1.12D-05
 ErrMax= 1.12D-05  0.00D+00 EMaxC= 1.00D-01 BMatC= 2.08D-08 BMatP= 3.33D-07
 IDIUse=1 WtCom= 1.00D+00 WtEn= 0.00D+00
 Coeff-Com:  0.178D-03-0.291D-03-0.833D-03-0.328D-02-0.996D-02-0.116D-01
 Coeff-Com:  0.526D-01 0.193D+00 0.780D+00
 Coeff:      0.178D-03-0.291D-03-0.833D-03-0.328D-02-0.996D-02-0.116D-01
 Coeff:      0.526D-01 0.193D+00 0.780D+00
 Gap=     0.244 Goal=   None    Shift=    0.000
 RMSDP=4.69D-06 MaxDP=3.28D-04 DE=-3.31D-07 OVMax= 6.98D-05

 Cycle  10  Pass 1  IDiag  1:
 RMSU=  3.06D-06    CP:  1.16D+00  7.87D-01  1.00D+00  8.77D-01  9.34D-01
                    CP:  9.96D-01  1.21D+00  9.55D-01  9.97D-01
 E= -476.320830890142     Delta-E=       -0.000000021025 Rises=F Damp=F
 DIIS: error= 2.87D-06 at cycle  10 NSaved=  10.
 NSaved=10 IEnMin=10 EnMin= -476.320830890142     IErMin=10 ErrMin= 2.87D-06
 ErrMax= 2.87D-06  0.00D+00 EMaxC= 1.00D-01 BMatC= 3.56D-09 BMatP= 2.08D-08
 IDIUse=1 WtCom= 1.00D+00 WtEn= 0.00D+00
 Coeff-Com: -0.407D-04 0.107D-03 0.536D-03 0.924D-03 0.120D-02-0.839D-02
 Coeff-Com: -0.396D-01-0.451D-01 0.311D+00 0.779D+00
 Coeff:     -0.407D-04 0.107D-03 0.536D-03 0.924D-03 0.120D-02-0.839D-02
 Coeff:     -0.396D-01-0.451D-01 0.311D+00 0.779D+00
 Gap=     0.244 Goal=   None    Shift=    0.000
 RMSDP=2.23D-06 MaxDP=1.96D-04 DE=-2.10D-08 OVMax= 2.39D-05

 Cycle  11  Pass 1  IDiag  1:
 RMSU=  1.04D-06    CP:  1.16D+00  7.87D-01  1.00D+00  8.77D-01  9.34D-01
                    CP:  9.97D-01  1.23D+00  9.82D-01  1.08D+00  1.11D+00
 E= -476.320830894194     Delta-E=       -0.000000004052 Rises=F Damp=F
 DIIS: error= 4.69D-07 at cycle  11 NSaved=  11.
 NSaved=11 IEnMin=11 EnMin= -476.320830894194     IErMin=11 ErrMin= 4.69D-07
 ErrMax= 4.69D-07  0.00D+00 EMaxC= 1.00D-01 BMatC= 1.11D-10 BMatP= 3.56D-09
 IDIUse=1 WtCom= 1.00D+00 WtEn= 0.00D+00
 Coeff-Com: -0.162D-04 0.329D-04 0.149D-03 0.346D-03 0.799D-03-0.104D-02
 Coeff-Com: -0.983D-02-0.215D-01 0.673D-02 0.145D+00 0.879D+00
 Coeff:     -0.162D-04 0.329D-04 0.149D-03 0.346D-03 0.799D-03-0.104D-02
 Coeff:     -0.983D-02-0.215D-01 0.673D-02 0.145D+00 0.879D+00
 Gap=     0.244 Goal=   None    Shift=    0.000
 RMSDP=7.61D-07 MaxDP=7.61D-05 DE=-4.05D-09 OVMax= 9.25D-06

 Cycle  12  Pass 1  IDiag  1:
 RMSU=  2.66D-07    CP:  1.16D+00  7.87D-01  1.00D+00  8.76D-01  9.34D-01
                    CP:  9.97D-01  1.23D+00  9.78D-01  1.10D+00  1.18D+00
                    CP:  9.70D-01
 E= -476.320830894404     Delta-E=       -0.000000000210 Rises=F Damp=F
 DIIS: error= 4.21D-07 at cycle  12 NSaved=  12.
 NSaved=12 IEnMin=12 EnMin= -476.320830894404     IErMin=12 ErrMin= 4.21D-07
 ErrMax= 4.21D-07  0.00D+00 EMaxC= 1.00D-01 BMatC= 2.67D-11 BMatP= 1.11D-10
 IDIUse=1 WtCom= 1.00D+00 WtEn= 0.00D+00
 Coeff-Com: -0.158D-05 0.122D-05 0.300D-05 0.337D-04 0.203D-03 0.373D-03
 Coeff-Com:  0.477D-03-0.373D-02-0.289D-01-0.232D-01 0.344D+00 0.711D+00
 Coeff:     -0.158D-05 0.122D-05 0.300D-05 0.337D-04 0.203D-03 0.373D-03
 Coeff:      0.477D-03-0.373D-02-0.289D-01-0.232D-01 0.344D+00 0.711D+00
 Gap=     0.244 Goal=   None    Shift=    0.000
 RMSDP=2.08D-07 MaxDP=1.34D-05 DE=-2.10D-10 OVMax= 4.12D-06

 Cycle  13  Pass 1  IDiag  1:
 RMSU=  9.51D-08    CP:  1.16D+00  7.87D-01  1.00D+00  8.76D-01  9.34D-01
                    CP:  9.97D-01  1.23D+00  9.76D-01  1.11D+00  1.19D+00
                    CP:  9.98D-01  1.30D+00
 E= -476.320830894453     Delta-E=       -0.000000000049 Rises=F Damp=F
 DIIS: error= 1.33D-07 at cycle  13 NSaved=  13.
 NSaved=13 IEnMin=13 EnMin= -476.320830894453     IErMin=13 ErrMin= 1.33D-07
 ErrMax= 1.33D-07  0.00D+00 EMaxC= 1.00D-01 BMatC= 4.31D-12 BMatP= 2.67D-11
 IDIUse=1 WtCom= 1.00D+00 WtEn= 0.00D+00
 Coeff-Com:  0.232D-05-0.520D-05-0.261D-04-0.542D-04-0.783D-04 0.228D-03
 Coeff-Com:  0.195D-02 0.295D-02-0.958D-02-0.360D-01-0.850D-01 0.203D+00
 Coeff-Com:  0.922D+00
 Coeff:      0.232D-05-0.520D-05-0.261D-04-0.542D-04-0.783D-04 0.228D-03
 Coeff:      0.195D-02 0.295D-02-0.958D-02-0.360D-01-0.850D-01 0.203D+00
 Coeff:      0.922D+00
 Gap=     0.244 Goal=   None    Shift=    0.000
 RMSDP=1.51D-07 MaxDP=1.45D-05 DE=-4.87D-11 OVMax= 3.37D-06

 Cycle  14  Pass 1  IDiag  1:
 RMSU=  5.05D-08    CP:  1.16D+00  7.87D-01  1.00D+00  8.76D-01  9.34D-01
                    CP:  9.97D-01  1.23D+00  9.76D-01  1.11D+00  1.20D+00
                    CP:  1.01D+00  1.57D+00  1.13D+00
 E= -476.320830894475     Delta-E=       -0.000000000022 Rises=F Damp=F
 DIIS: error= 9.80D-08 at cycle  14 NSaved=  14.
 NSaved=14 IEnMin=14 EnMin= -476.320830894475     IErMin=14 ErrMin= 9.80D-08
 ErrMax= 9.80D-08  0.00D+00 EMaxC= 1.00D-01 BMatC= 1.23D-12 BMatP= 4.31D-12
 IDIUse=1 WtCom= 1.00D+00 WtEn= 0.00D+00
 Coeff-Com:  0.120D-05-0.238D-05-0.122D-04-0.302D-04-0.734D-04 0.244D-04
 Coeff-Com:  0.788D-03 0.208D-02 0.147D-02-0.112D-01-0.103D+00-0.322D-01
 Coeff-Com:  0.436D+00 0.705D+00
 Coeff:      0.120D-05-0.238D-05-0.122D-04-0.302D-04-0.734D-04 0.244D-04
 Coeff:      0.788D-03 0.208D-02 0.147D-02-0.112D-01-0.103D+00-0.322D-01
 Coeff:      0.436D+00 0.705D+00
 Gap=     0.244 Goal=   None    Shift=    0.000
 RMSDP=5.83D-08 MaxDP=6.60D-06 DE=-2.21D-11 OVMax= 1.35D-06

 Cycle  15  Pass 1  IDiag  1:
 RMSU=  1.95D-08    CP:  1.16D+00  7.87D-01  1.00D+00  8.76D-01  9.34D-01
                    CP:  9.96D-01  1.23D+00  9.76D-01  1.11D+00  1.20D+00
                    CP:  1.01D+00  1.69D+00  1.36D+00  1.20D+00
 E= -476.320830894470     Delta-E=        0.000000000005 Rises=F Damp=F
 DIIS: error= 2.50D-08 at cycle  15 NSaved=  15.
 NSaved=15 IEnMin=14 EnMin= -476.320830894475     IErMin=15 ErrMin= 2.50D-08
 ErrMax= 2.50D-08  0.00D+00 EMaxC= 1.00D-01 BMatC= 1.63D-13 BMatP= 1.23D-12
 IDIUse=1 WtCom= 1.00D+00 WtEn= 0.00D+00
 Coeff-Com: -0.273D-06 0.692D-06 0.241D-05 0.499D-05-0.543D-05-0.377D-04
 Coeff-Com: -0.259D-03-0.928D-04 0.285D-02 0.604D-02-0.837D-02-0.637D-01
 Coeff-Com: -0.116D+00 0.161D+00 0.102D+01
 Coeff:     -0.273D-06 0.692D-06 0.241D-05 0.499D-05-0.543D-05-0.377D-04
 Coeff:     -0.259D-03-0.928D-04 0.285D-02 0.604D-02-0.837D-02-0.637D-01
 Coeff:     -0.116D+00 0.161D+00 0.102D+01
 Gap=     0.244 Goal=   None    Shift=    0.000
 RMSDP=3.76D-08 MaxDP=3.92D-06 DE= 4.55D-12 OVMax= 8.90D-07

 Cycle  16  Pass 1  IDiag  1:
 RMSU=  8.83D-09    CP:  1.16D+00  7.87D-01  1.00D+00  8.76D-01  9.34D-01
                    CP:  9.96D-01  1.23D+00  9.75D-01  1.11D+00  1.20D+00
                    CP:  9.99D-01  1.77D+00  1.48D+00  1.43D+00  1.49D+00
 E= -476.320830894472     Delta-E=       -0.000000000002 Rises=F Damp=F
 DIIS: error= 6.59D-09 at cycle  16 NSaved=  16.
 NSaved=16 IEnMin=14 EnMin= -476.320830894475     IErMin=16 ErrMin= 6.59D-09
 ErrMax= 6.59D-09  0.00D+00 EMaxC= 1.00D-01 BMatC= 1.39D-14 BMatP= 1.63D-13
 IDIUse=1 WtCom= 1.00D+00 WtEn= 0.00D+00
 Coeff-Com: -0.122D-06 0.275D-06 0.114D-05 0.302D-05 0.177D-05-0.436D-05
 Coeff-Com: -0.111D-03-0.148D-03 0.395D-03 0.200D-02 0.616D-02-0.119D-01
 Coeff-Com: -0.528D-01-0.271D-01 0.232D+00 0.851D+00
 Coeff:     -0.122D-06 0.275D-06 0.114D-05 0.302D-05 0.177D-05-0.436D-05
 Coeff:     -0.111D-03-0.148D-03 0.395D-03 0.200D-02 0.616D-02-0.119D-01
 Coeff:     -0.528D-01-0.271D-01 0.232D+00 0.851D+00
 Gap=     0.244 Goal=   None    Shift=    0.000
 RMSDP=7.60D-09 MaxDP=7.40D-07 DE=-2.16D-12 OVMax= 1.44D-07

 SCF Done:  E(RM062X) =  -476.320830894     A.U. after   16 cycles
            NFock= 16  Conv=0.76D-08     -V/T= 2.0031
 KE= 4.748481342504D+02 PE=-2.107931419780D+03 EE= 6.520913799057D+02
 Leave Link  502 at Sun Oct 13 19:53:43 2019, MaxMem= 10737418240 cpu:             379.4 elap:              15.9
 (Enter /apps/cent7/gaussian/g16-A.03/g16-haswell/g16/l601.exe)
 Copying SCF densities to generalized density rwf, IOpCl= 0 IROHF=0.

 **********************************************************************

            Population analysis using the SCF density.

 **********************************************************************

 Orbital symmetries:
       Occupied  (A) (A) (A) (A) (A) (A) (A) (A) (A) (A) (A) (A)
                 (A) (A) (A) (A) (A) (A) (A) (A) (A) (A) (A) (A)
                 (A) (A) (A) (A) (A) (A) (A) (A) (A) (A) (A) (A)
       Virtual   (A) (A) (A) (A) (A) (A) (A) (A) (A) (A) (A) (A)
                 (A) (A) (A) (A) (A) (A) (A) (A) (A) (A) (A) (A)
                 (A) (A) (A) (A) (A) (A) (A) (A) (A) (A) (A) (A)
                 (A) (A) (A) (A) (A) (A) (A) (A) (A) (A) (A) (A)
                 (A) (A) (A) (A) (A) (A) (A) (A) (A) (A) (A) (A)
                 (A) (A) (A) (A) (A) (A) (A) (A) (A) (A) (A) (A)
                 (A) (A) (A) (A) (A) (A) (A) (A) (A) (A) (A) (A)
                 (A) (A) (A) (A) (A) (A) (A) (A) (A) (A) (A) (A)
                 (A) (A) (A) (A) (A) (A) (A) (A) (A) (A) (A) (A)
                 (A) (A) (A) (A) (A) (A) (A) (A) (A) (A) (A) (A)
                 (A) (A) (A) (A) (A) (A) (A) (A) (A) (A) (A) (A)
                 (A) (A) (A) (A) (A) (A) (A) (A) (A) (A) (A) (A)
                 (A) (A) (A) (A) (A) (A) (A) (A) (A) (A) (A) (A)
                 (A) (A) (A) (A) (A) (A) (A) (A) (A) (A) (A) (A)
                 (A) (A) (A) (A) (A) (A) (A) (A) (A) (A) (A) (A)
                 (A) (A) (A) (A) (A) (A) (A) (A) (A) (A) (A) (A)
                 (A) (A) (A) (A) (A) (A) (A) (A) (A) (A) (A) (A)
                 (A) (A) (A) (A) (A) (A) (A) (A) (A) (A) (A) (A)
                 (A) (A) (A) (A) (A) (A) (A) (A) (A) (A) (A) (A)
                 (A) (A) (A) (A) (A) (A) (A) (A) (A) (A) (A) (A)
 The electronic state is 1-A.
 Alpha  occ. eigenvalues --  -19.91347 -19.82110 -15.15348 -10.86782 -10.74080
 Alpha  occ. eigenvalues --  -10.73528 -10.72225 -10.71359 -10.71161 -10.70671
 Alpha  occ. eigenvalues --   -1.55708  -1.36448  -1.27229  -1.13080  -1.04484
 Alpha  occ. eigenvalues --   -1.00798  -0.99295  -0.96942  -0.91289  -0.88259
 Alpha  occ. eigenvalues --   -0.85377  -0.79343  -0.73887  -0.72562  -0.70887
 Alpha  occ. eigenvalues --   -0.68062  -0.66817  -0.66237  -0.65077  -0.63929
 Alpha  occ. eigenvalues --   -0.59346  -0.58290  -0.56677  -0.55220  -0.47932
 Alpha  occ. eigenvalues --   -0.46921
 Alpha virt. eigenvalues --   -0.22483  -0.18463  -0.15184  -0.13630  -0.12711
 Alpha virt. eigenvalues --   -0.11033  -0.09864  -0.09340  -0.07853  -0.07185
 Alpha virt. eigenvalues --   -0.06100  -0.05412  -0.04963  -0.04727  -0.04111
 Alpha virt. eigenvalues --   -0.03482  -0.02683  -0.01845  -0.01111  -0.00617
 Alpha virt. eigenvalues --   -0.00595   0.00657   0.01032   0.01309   0.02178
 Alpha virt. eigenvalues --    0.02292   0.02689   0.03252   0.03626   0.04123
 Alpha virt. eigenvalues --    0.04560   0.05290   0.05583   0.06394   0.06780
 Alpha virt. eigenvalues --    0.07022   0.07343   0.07938   0.08755   0.10308
 Alpha virt. eigenvalues --    0.10498   0.10632   0.11071   0.11749   0.11871
 Alpha virt. eigenvalues --    0.12597   0.13434   0.14523   0.15355   0.16023
 Alpha virt. eigenvalues --    0.16635   0.17028   0.17597   0.18282   0.18615
 Alpha virt. eigenvalues --    0.19503   0.19993   0.20906   0.21985   0.22237
 Alpha virt. eigenvalues --    0.22985   0.24460   0.25376   0.25878   0.28166
 Alpha virt. eigenvalues --    0.29254   0.33082   0.34914   0.38064   0.39053
 Alpha virt. eigenvalues --    0.40354   0.41671   0.42428   0.43611   0.44123
 Alpha virt. eigenvalues --    0.44832   0.45636   0.46188   0.46835   0.48669
 Alpha virt. eigenvalues --    0.49847   0.50577   0.51629   0.53060   0.53565
 Alpha virt. eigenvalues --    0.55247   0.57057   0.57598   0.59349   0.61220
 Alpha virt. eigenvalues --    0.62565   0.64019   0.65132   0.66712   0.68364
 Alpha virt. eigenvalues --    0.71796   0.72830   0.73418   0.75260   0.75583
 Alpha virt. eigenvalues --    0.77715   0.78013   0.78951   0.79623   0.80813
 Alpha virt. eigenvalues --    0.83119   0.85697   0.89111   0.90209   0.92042
 Alpha virt. eigenvalues --    0.93705   0.95490   0.97138   1.00178   1.01201
 Alpha virt. eigenvalues --    1.03029   1.04133   1.05105   1.08551   1.09064
 Alpha virt. eigenvalues --    1.12335   1.16584   1.20845   1.24471   1.27481
 Alpha virt. eigenvalues --    1.29471   1.34641   1.35778   1.37490   1.38515
 Alpha virt. eigenvalues --    1.39343   1.41056   1.43291   1.45791   1.46440
 Alpha virt. eigenvalues --    1.48631   1.52119   1.53298   1.54028   1.55724
 Alpha virt. eigenvalues --    1.57323   1.60728   1.63389   1.64921   1.66975
 Alpha virt. eigenvalues --    1.67566   1.69270   1.71048   1.75011   1.76782
 Alpha virt. eigenvalues --    1.77772   1.78632   1.80550   1.82566   1.83144
 Alpha virt. eigenvalues --    1.86657   1.87477   1.89225   1.91221   1.93565
 Alpha virt. eigenvalues --    1.94545   1.95464   2.06434   2.07350   2.14208
 Alpha virt. eigenvalues --    2.17669   2.19838   2.23617   2.27725   2.28583
 Alpha virt. eigenvalues --    2.29494   2.34316   2.35094   2.36625   2.46465
 Alpha virt. eigenvalues --    2.50006   2.50951   2.55936   2.57337   2.58654
 Alpha virt. eigenvalues --    2.59620   2.61217   2.62500   2.63717   2.64755
 Alpha virt. eigenvalues --    2.66230   2.68830   2.69664   2.70950   2.71670
 Alpha virt. eigenvalues --    2.75036   2.76405   2.79459   2.80450   2.85232
 Alpha virt. eigenvalues --    2.85926   2.87148   2.96268   2.96907   3.05747
 Alpha virt. eigenvalues --    3.06917   3.11331   3.16182   3.18872   3.20909
 Alpha virt. eigenvalues --    3.23389   3.25793   3.34211   3.39961   3.40363
 Alpha virt. eigenvalues --    3.41500   3.50963   3.51641   3.66973   3.76945
 Alpha virt. eigenvalues --    3.87500   3.92180   4.01716   4.02726   4.19098
 Alpha virt. eigenvalues --    4.36253   4.54959   4.66485   4.68918   4.94230
 Alpha virt. eigenvalues --    4.97885   5.14451   5.32409   5.62001   5.89060
 Alpha virt. eigenvalues --   23.52656  23.77922  23.84594  23.86771  23.93033
 Alpha virt. eigenvalues --   23.96082  24.05165  35.39349  49.79934  49.90196
          Condensed to atoms (all electrons):
               1          2          3          4          5          6
     1  O    7.878769   0.701711  -0.137586   0.031124  -0.210379  -0.094857
     2  C    0.701711  18.690466  -1.445802  -0.050666  -8.534713   3.282548
     3  N   -0.137586  -1.445802   8.091366   0.020184   0.200600  -0.420125
     4  O    0.031124  -0.050666   0.020184   7.516167   0.173713  -0.076056
     5  C   -0.210379  -8.534713   0.200600   0.173713  21.535321  -9.409811
     6  C   -0.094857   3.282548  -0.420125  -0.076056  -9.409811  22.744515
     7  C    0.067668  -0.968750   0.246909  -0.002004   2.898187  -5.303517
     8  C   -0.020865  -0.041075  -0.061942   0.000034  -2.333813   2.154243
     9  C    0.053621   1.309849  -0.149200  -0.022368   1.024837  -1.141132
    10  C   -0.064932  -5.940909   0.284647   0.070748  -1.045618  -5.384743
    11  H   -0.000531   0.017968   0.325322  -0.065448  -0.030815   0.072431
    12  H   -0.013582  -0.033784   0.017914   0.307289   0.003710   0.007653
    13  H   -0.013008  -0.105361  -0.012924   0.001195   0.024896   0.396847
    14  H    0.000931  -0.005042   0.002413  -0.000063   0.035102  -0.063423
    15  H   -0.000310  -0.017170  -0.000155   0.000009   0.005504  -0.034621
    16  H    0.000629   0.025671  -0.002181  -0.000241   0.054269   0.051097
    17  H   -0.007908  -0.280041   0.016333   0.002316  -0.165327  -0.032856
    18  H   -0.006243  -0.114462   0.334325   0.000193   0.096249  -0.172441
               7          8          9         10         11         12
     1  O    0.067668  -0.020865   0.053621  -0.064932  -0.000531  -0.013582
     2  C   -0.968750  -0.041075   1.309849  -5.940909   0.017968  -0.033784
     3  N    0.246909  -0.061942  -0.149200   0.284647   0.325322   0.017914
     4  O   -0.002004   0.000034  -0.022368   0.070748  -0.065448   0.307289
     5  C    2.898187  -2.333813   1.024837  -1.045618  -0.030815   0.003710
     6  C   -5.303517   2.154243  -1.141132  -5.384743   0.072431   0.007653
     7  C    9.110959  -1.461043   1.600698  -0.544036  -0.002184  -0.000498
     8  C   -1.461043   7.395715  -1.603051   2.048779  -0.013149  -0.000543
     9  C    1.600698  -1.603051  11.174419  -6.517614   0.053022   0.000712
    10  C   -0.544036   2.048779  -6.517614  23.344505  -0.099677  -0.012064
    11  H   -0.002184  -0.013149   0.053022  -0.099677   0.422603  -0.018318
    12  H   -0.000498  -0.000543   0.000712  -0.012064  -0.018318   0.389792
    13  H   -0.100399   0.029962  -0.037004   0.141139  -0.000645  -0.000416
    14  H    0.378242  -0.017020   0.011725  -0.015505   0.000228   0.000036
    15  H    0.024738   0.363116  -0.027330   0.027661  -0.000531  -0.000012
    16  H   -0.019825  -0.010090   0.400113  -0.179209   0.002341   0.000026
    17  H    0.013918   0.050963  -0.292767   0.988454   0.007146   0.002032
    18  H    0.021335  -0.009393  -0.032777   0.163211  -0.047411   0.006776
              13         14         15         16         17         18
     1  O   -0.013008   0.000931  -0.000310   0.000629  -0.007908  -0.006243
     2  C   -0.105361  -0.005042  -0.017170   0.025671  -0.280041  -0.114462
     3  N   -0.012924   0.002413  -0.000155  -0.002181   0.016333   0.334325
     4  O    0.001195  -0.000063   0.000009  -0.000241   0.002316   0.000193
     5  C    0.024896   0.035102   0.005504   0.054269  -0.165327   0.096249
     6  C    0.396847  -0.063423  -0.034621   0.051097  -0.032856  -0.172441
     7  C   -0.100399   0.378242   0.024738  -0.019825   0.013918   0.021335
     8  C    0.029962  -0.017020   0.363116  -0.010090   0.050963  -0.009393
     9  C   -0.037004   0.011725  -0.027330   0.400113  -0.292767  -0.032777
    10  C    0.141139  -0.015505   0.027661  -0.179209   0.988454   0.163211
    11  H   -0.000645   0.000228  -0.000531   0.002341   0.007146  -0.047411
    12  H   -0.000416   0.000036  -0.000012   0.000026   0.002032   0.006776
    13  H    0.419222  -0.006327   0.000671   0.000078   0.003092  -0.000200
    14  H   -0.006327   0.409745  -0.001263  -0.000396   0.000412   0.000022
    15  H    0.000671  -0.001263   0.409655  -0.002401   0.001999  -0.000078
    16  H    0.000078  -0.000396  -0.002401   0.419330  -0.014746  -0.000518
    17  H    0.003092   0.000412   0.001999  -0.014746   0.616540  -0.001454
    18  H   -0.000200   0.000022  -0.000078  -0.000518  -0.001454   0.361233
 Mulliken charges:
               1
     1  O   -0.164251
     2  C   -0.490439
     3  N   -0.310098
     4  O    0.093874
     5  C    1.678087
     6  C   -0.575752
     7  C    0.039603
     8  C   -0.470828
     9  C    0.194248
    10  C   -1.264836
    11  H    0.377648
    12  H    0.343276
    13  H    0.259184
    14  H    0.270183
    15  H    0.250519
    16  H    0.276052
    17  H    0.091894
    18  H    0.401637
 Sum of Mulliken charges =   1.00000
 Mulliken charges with hydrogens summed into heavy atoms:
               1
     1  O   -0.164251
     2  C   -0.490439
     3  N    0.469186
     4  O    0.437150
     5  C    1.678087
     6  C   -0.316568
     7  C    0.309786
     8  C   -0.220308
     9  C    0.470301
    10  C   -1.172943
 Electronic spatial extent (au):  <R**2>=           1593.8277
 Charge=              1.0000 electrons
 Dipole moment (field-independent basis, Debye):
    X=             -2.6831    Y=             -4.7327    Z=             -0.2660  Tot=              5.4468
 Quadrupole moment (field-independent basis, Debye-Ang):
   XX=            -22.4643   YY=            -47.7216   ZZ=            -55.5945
   XY=             10.1556   XZ=              4.7589   YZ=              1.8898
 Traceless Quadrupole moment (field-independent basis, Debye-Ang):
   XX=             19.4625   YY=             -5.7948   ZZ=            -13.6677
   XY=             10.1556   XZ=              4.7589   YZ=              1.8898
 Octapole moment (field-independent basis, Debye-Ang**2):
  XXX=            -24.6986  YYY=             -9.6760  ZZZ=              2.2411  XYY=              4.3580
  XXY=            -20.2649  XXZ=            -17.7049  XZZ=            -26.2545  YZZ=             -3.1288
  YYZ=              0.7138  XYZ=             -0.4272
 Hexadecapole moment (field-independent basis, Debye-Ang**3):
 XXXX=          -1098.6333 YYYY=           -367.7745 ZZZZ=            -70.6136 XXXY=             39.3891
 XXXZ=            100.8722 YYYX=             23.7986 YYYZ=              7.7403 ZZZX=             -2.0777
 ZZZY=             -5.6231 XXYY=           -283.0325 XXZZ=           -254.8740 YYZZ=            -83.3009
 XXYZ=             13.8490 YYXZ=             -0.7094 ZZXY=             10.6352
 N-N= 5.046710747297D+02 E-N=-2.107931419885D+03  KE= 4.748481342504D+02
 No NMR shielding tensors so no spin-rotation constants.
 Leave Link  601 at Sun Oct 13 19:53:43 2019, MaxMem= 10737418240 cpu:               2.9 elap:               0.2
 (Enter /apps/cent7/gaussian/g16-A.03/g16-haswell/g16/l701.exe)
 ... and contract with generalized density number  0.
 Compute integral first derivatives.
 Leave Link  701 at Sun Oct 13 19:53:43 2019, MaxMem= 10737418240 cpu:               3.7 elap:               0.2
 (Enter /apps/cent7/gaussian/g16-A.03/g16-haswell/g16/l702.exe)
 L702 exits ... SP integral derivatives will be done elsewhere.
 Leave Link  702 at Sun Oct 13 19:53:43 2019, MaxMem= 10737418240 cpu:               0.4 elap:               0.0
 (Enter /apps/cent7/gaussian/g16-A.03/g16-haswell/g16/l703.exe)
 Integral derivatives from FoFJK, PRISM(SPDF).
 Compute integral first derivatives, UseDBF=F ICtDFT=           0.
 Calling FoFJK, ICntrl=      2127 FMM=F ISym2X=0 I1Cent= 0 IOpClX= 0 NMat=1 NMatS=1 NMatT=0.
 FoFJK:  IHMeth= 1 ICntrl=    2127 DoSepK=F KAlg= 0 I1Cent=           0 FoldK=F
 IRaf=         0 NMat=       1 IRICut=       1 DoRegI=T DoRafI=F ISym2E= 0 IDoP0=0 IntGTp=1.
 FoFCou: FMM=F IPFlag=           0 FMFlag=      100000 FMFlg1=         800
         NFxFlg=           0 DoJE=F BraDBF=F KetDBF=F FulRan=T
         wScrn=  0.000000 ICntrl=      2127 IOpCl=  0 I1Cent=           0 NGrid=           0
         NMat0=    1 NMatS0=      1 NMatT0=    0 NMatD0=    1 NMtDS0=    0 NMtDT0=    0
 Symmetry not used in FoFCou.
 Leave Link  703 at Sun Oct 13 19:53:46 2019, MaxMem= 10737418240 cpu:              56.4 elap:               2.4
 (Enter /apps/cent7/gaussian/g16-A.03/g16-haswell/g16/l716.exe)
 Dipole        =-1.05561972D+00-1.86196875D+00-1.04650698D-01
 ***** Axes restored to original set *****
 -------------------------------------------------------------------
 Center     Atomic                   Forces (Hartrees/Bohr)
 Number     Number              X              Y              Z
 -------------------------------------------------------------------
      1        8           0.025566680    0.070910092   -0.021706106
      2        6          -0.015186378   -0.194053932    0.066833536
      3        7           0.016272571    0.077066932   -0.013190069
      4        8          -0.073609887   -0.010387075   -0.017135626
      5        6           0.049425474    0.020500653   -0.003302413
      6        6           0.006104467   -0.002801122    0.001204716
      7        6          -0.013235440    0.009140286    0.000316941
      8        6          -0.010462590   -0.000131876   -0.000461587
      9        6          -0.010131537   -0.002521170    0.000304480
     10        6           0.009432879   -0.005659428   -0.003835190
     11        1           0.020036528    0.026919682    0.010793478
     12        1          -0.006641952   -0.006816870    0.009411230
     13        1           0.000094001    0.005198257   -0.001721102
     14        1          -0.004279388    0.003891901   -0.000373375
     15        1          -0.004813853    0.000333783    0.000635128
     16        1          -0.003637323   -0.004053193    0.000125380
     17        1           0.005384230    0.001054235    0.000061941
     18        1           0.009681518    0.011408845   -0.027961363
 -------------------------------------------------------------------
 Cartesian Forces:  Max     0.194053932 RMS     0.035175192
 Leave Link  716 at Sun Oct 13 19:53:46 2019, MaxMem= 10737418240 cpu:               0.6 elap:               0.0
 (Enter /apps/cent7/gaussian/g16-A.03/g16-haswell/g16/l103.exe)

 GradGradGradGradGradGradGradGradGradGradGradGradGradGradGradGradGradGrad
 Berny optimization.
 FormGI is forming the generalized inverse of G from B-inverse, IUseBI=4.
 Internal  Forces:  Max     0.108743447 RMS     0.019801517
 Search for a local minimum.
 Step number   1 out of a maximum of   93
 All quantities printed in internal units (Hartrees-Bohrs-Radians)
 RMS Force = .19802D-01 SwitMx=.10000D-02 MixMth= 1
 Mixed Optimization -- RFO/linear search
 Second derivative matrix not updated -- first step.
 ITU=  0
     Eigenvalues ---    0.01763   0.01822   0.01868   0.01906   0.01923
     Eigenvalues ---    0.01965   0.01996   0.02014   0.02017   0.02024
     Eigenvalues ---    0.02048   0.02243   0.02576   0.05878   0.08173
     Eigenvalues ---    0.13159   0.14865   0.16000   0.16000   0.16000
     Eigenvalues ---    0.16000   0.16000   0.16000   0.21995   0.21997
     Eigenvalues ---    0.22265   0.23457   0.24995   0.24997   0.25000
     Eigenvalues ---    0.34808   0.34809   0.34809   0.34811   0.34820
     Eigenvalues ---    0.39940   0.40082   0.41774   0.43091   0.43974
     Eigenvalues ---    0.44390   0.44756   0.47688   0.47688   0.53287
     Eigenvalues ---    0.55460   0.66330   0.81641
 RFO step:  Lambda=-5.94368361D-02 EMin= 1.76323113D-02
 Linear search not attempted -- first point.
 Maximum step size (   0.300) exceeded in Quadratic search.
    -- Step size scaled by   0.863
 Iteration  1 RMS(Cart)=  0.05133246 RMS(Int)=  0.00189871
 Iteration  2 RMS(Cart)=  0.00316061 RMS(Int)=  0.00034270
 Iteration  3 RMS(Cart)=  0.00001073 RMS(Int)=  0.00034266
 Iteration  4 RMS(Cart)=  0.00000001 RMS(Int)=  0.00034266
 ITry= 1 IFail=0 DXMaxC= 2.73D-01 DCOld= 1.00D+10 DXMaxT= 3.00D-01 DXLimC= 3.00D+00 Rises=F
 Variable       Old X    -DE/DX   Delta X   Delta X   Delta X     New X
                                 (Linear)    (Quad)   (Total)
    R1        2.37043  -0.07632   0.00000  -0.07522  -0.07522   2.29520
    R2        2.56687   0.10874   0.00000   0.15849   0.15849   2.72536
    R3        2.69212   0.02304   0.00000   0.04169   0.04169   2.73381
    R4        2.46257   0.07972   0.00000   0.09522   0.09522   2.55779
    R5        1.88973   0.03223   0.00000   0.05187   0.05187   1.94160
    R6        1.88973   0.03121   0.00000   0.05024   0.05024   1.93997
    R7        1.81426   0.01117   0.00000   0.01570   0.01570   1.82996
    R8        2.68080  -0.01606   0.00000  -0.02848  -0.02847   2.65232
    R9        2.68134  -0.00733   0.00000  -0.01272  -0.01271   2.66863
   R10        2.66162  -0.02399   0.00000  -0.04150  -0.04150   2.62012
   R11        2.05987  -0.00459   0.00000  -0.00971  -0.00971   2.05016
   R12        2.65589  -0.00953   0.00000  -0.01651  -0.01652   2.63937
   R13        2.05986  -0.00551   0.00000  -0.01166  -0.01166   2.04819
   R14        2.65387  -0.01087   0.00000  -0.01850  -0.01850   2.63537
   R15        2.05987  -0.00481   0.00000  -0.01020  -0.01020   2.04967
   R16        2.65816  -0.02259   0.00000  -0.03840  -0.03839   2.61977
   R17        2.05983  -0.00533   0.00000  -0.01129  -0.01129   2.04854
   R18        2.05968  -0.00165   0.00000  -0.00350  -0.00350   2.05619
    A1        2.06832  -0.01221   0.00000  -0.03407  -0.03407   2.03425
    A2        2.10355   0.03060   0.00000   0.08538   0.08538   2.18893
    A3        2.11107  -0.01838   0.00000  -0.05126  -0.05126   2.05982
    A4        2.14766  -0.03608   0.00000  -0.10901  -0.10844   2.03922
    A5        1.85810   0.00652   0.00000   0.02210   0.02344   1.88154
    A6        1.85810   0.01435   0.00000   0.04177   0.04077   1.89887
    A7        1.85810   0.01998   0.00000   0.07871   0.07973   1.93783
    A8        1.85810   0.00490   0.00000   0.00128   0.00085   1.85895
    A9        1.86863  -0.00805   0.00000  -0.03136  -0.03198   1.83665
   A10        1.91058   0.00350   0.00000   0.01376   0.01376   1.92434
   A11        2.11393  -0.01537   0.00000  -0.04338  -0.04338   2.07055
   A12        2.11273   0.00706   0.00000   0.01920   0.01919   2.13192
   A13        2.05645   0.00831   0.00000   0.02421   0.02421   2.08066
   A14        2.11190  -0.00578   0.00000  -0.01771  -0.01772   2.09418
   A15        2.09211   0.00027   0.00000  -0.00144  -0.00143   2.09068
   A16        2.07918   0.00551   0.00000   0.01915   0.01915   2.09833
   A17        2.09567   0.00111   0.00000   0.00297   0.00294   2.09861
   A18        2.09553  -0.00241   0.00000  -0.00877  -0.00876   2.08677
   A19        2.09198   0.00130   0.00000   0.00580   0.00582   2.09780
   A20        2.09173   0.00337   0.00000   0.01030   0.01027   2.10200
   A21        2.09652  -0.00137   0.00000  -0.00392  -0.00391   2.09262
   A22        2.09493  -0.00200   0.00000  -0.00638  -0.00636   2.08857
   A23        2.09445  -0.00274   0.00000  -0.00763  -0.00764   2.08681
   A24        2.09284   0.00248   0.00000   0.00819   0.00819   2.10104
   A25        2.09589   0.00026   0.00000  -0.00056  -0.00055   2.09534
   A26        2.11497  -0.00421   0.00000  -0.01155  -0.01156   2.10341
   A27        2.09165   0.00749   0.00000   0.02696   0.02694   2.11860
   A28        2.07656  -0.00328   0.00000  -0.01541  -0.01543   2.06113
    D1        0.03451  -0.00588   0.00000  -0.04269  -0.04267  -0.00816
    D2        2.18146   0.00090   0.00000   0.00618   0.00594   2.18739
    D3       -2.11244   0.00123   0.00000  -0.00045  -0.00015  -2.11259
    D4       -3.13079  -0.00537   0.00000  -0.03906  -0.03909   3.11331
    D5       -0.98384   0.00141   0.00000   0.00981   0.00952  -0.97432
    D6        1.00545   0.00174   0.00000   0.00318   0.00343   1.00888
    D7        0.33011  -0.00143   0.00000  -0.01414  -0.01409   0.31602
    D8       -2.82534  -0.00114   0.00000  -0.01178  -0.01177  -2.83711
    D9       -2.78730  -0.00135   0.00000  -0.01618  -0.01619  -2.80349
   D10        0.34044  -0.00107   0.00000  -0.01381  -0.01387   0.32657
   D11        1.21846  -0.00291   0.00000  -0.02551  -0.02724   1.19122
   D12       -0.92849  -0.00356   0.00000  -0.04864  -0.04749  -0.97598
   D13       -2.91778  -0.00572   0.00000  -0.04934  -0.04876  -2.96654
   D14        3.08122   0.00128   0.00000   0.01351   0.01349   3.09470
   D15       -0.06031   0.00129   0.00000   0.01389   0.01388  -0.04643
   D16       -0.04696   0.00101   0.00000   0.01123   0.01126  -0.03570
   D17        3.09470   0.00101   0.00000   0.01161   0.01165   3.10635
   D18       -3.08367  -0.00128   0.00000  -0.01509  -0.01519  -3.09886
   D19        0.05778  -0.00031   0.00000  -0.00454  -0.00453   0.05326
   D20        0.04451  -0.00119   0.00000  -0.01332  -0.01338   0.03113
   D21       -3.09722  -0.00022   0.00000  -0.00278  -0.00272  -3.09994
   D22        0.01329  -0.00027   0.00000  -0.00254  -0.00250   0.01079
   D23       -3.12836  -0.00026   0.00000  -0.00252  -0.00250  -3.13085
   D24       -3.12837  -0.00027   0.00000  -0.00292  -0.00289  -3.13126
   D25        0.01317  -0.00026   0.00000  -0.00289  -0.00289   0.01028
   D26        0.02437  -0.00047   0.00000  -0.00490  -0.00489   0.01948
   D27       -3.11713  -0.00041   0.00000  -0.00463  -0.00465  -3.12178
   D28       -3.11717  -0.00048   0.00000  -0.00492  -0.00489  -3.12206
   D29        0.02452  -0.00042   0.00000  -0.00465  -0.00466   0.01987
   D30       -0.02685   0.00030   0.00000   0.00281   0.00278  -0.02408
   D31        3.11469   0.00017   0.00000   0.00103   0.00098   3.11566
   D32        3.11464   0.00024   0.00000   0.00255   0.00254   3.11718
   D33       -0.02701   0.00010   0.00000   0.00076   0.00074  -0.02626
   D34       -0.00826   0.00073   0.00000   0.00699   0.00687  -0.00139
   D35        3.13347  -0.00024   0.00000  -0.00348  -0.00345   3.13002
   D36        3.13339   0.00086   0.00000   0.00877   0.00866  -3.14113
   D37       -0.00807  -0.00010   0.00000  -0.00169  -0.00165  -0.00972
         Item               Value     Threshold  Converged?
 Maximum Force            0.108743     0.000450     NO 
 RMS     Force            0.019802     0.000300     NO 
 Maximum Displacement     0.272636     0.001800     NO 
 RMS     Displacement     0.051384     0.001200     NO 
 Predicted change in Energy=-3.216062D-02
 Lowest energy point so far.  Saving SCF results.
 GradGradGradGradGradGradGradGradGradGradGradGradGradGradGradGradGradGrad

 Leave Link  103 at Sun Oct 13 19:53:46 2019, MaxMem= 10737418240 cpu:               1.3 elap:               0.1
 (Enter /apps/cent7/gaussian/g16-A.03/g16-haswell/g16/l202.exe)
                          Input orientation:                          
 ---------------------------------------------------------------------
 Center     Atomic      Atomic             Coordinates (Angstroms)
 Number     Number       Type             X           Y           Z
 ---------------------------------------------------------------------
      1          8           0       -2.805495    0.237500    0.143060
      2          6           0       -2.097740    1.187750   -0.123932
      3          7           0       -2.764903    2.376187   -0.595574
      4          8           0       -4.112698    2.317595   -0.705293
      5          6           0       -0.654237    1.210294   -0.030978
      6          6           0        0.035678   -0.010960    0.019091
      7          6           0        1.421741   -0.023023    0.052094
      8          6           0        2.135937    1.177254    0.048728
      9          6           0        1.463901    2.399155    0.035629
     10          6           0        0.078242    2.417333   -0.003107
     11          1           0       -2.477615    3.157634    0.006472
     12          1           0       -4.518193    2.257327    0.172025
     13          1           0       -0.519044   -0.943232    0.031394
     14          1           0        1.947751   -0.970254    0.080581
     15          1           0        3.220431    1.161093    0.056025
     16          1           0        2.018675    3.330228    0.057271
     17          1           0       -0.421777    3.383726   -0.001475
     18          1           0       -2.406050    2.608670   -1.528878
 ---------------------------------------------------------------------
                    Distance matrix (angstroms):
                    1          2          3          4          5
     1  O    0.000000
     2  C    1.214568   0.000000
     3  N    2.263009   1.442198   0.000000
     4  O    2.599092   2.382139   1.353523   0.000000
     5  C    2.367388   1.446668   2.476486   3.693476   0.000000
     6  C    2.854709   2.451292   3.730889   4.812060   1.403549
     7  C    4.236233   3.726084   4.868641   6.056578   2.416124
     8  C    5.030883   4.237209   5.086334   6.396433   2.791508
     9  C    4.786652   3.765402   4.275714   5.626196   2.429884
    10  C    3.617869   2.502273   2.904510   4.250528   1.412178
    11  H    2.941657   2.010411   1.027449   1.971236   2.668003
    12  H    2.648373   2.662739   1.917645   0.968373   4.008447
    13  H    2.575743   2.656594   4.056539   4.908161   2.158666
    14  H    4.904683   4.589641   5.819361   6.939495   3.396701
    15  H    6.096915   5.321282   6.142088   7.462699   3.875957
    16  H    5.731050   4.644128   4.921282   6.261043   3.412678
    17  H    3.949903   2.765169   2.618840   3.905751   2.186027
    18  H    2.928717   2.021866   1.026587   1.917203   2.695924
                    6          7          8          9         10
     6  C    0.000000
     7  C    1.386509   0.000000
     8  C    2.413259   1.396693   0.000000
     9  C    2.801561   2.422600   1.394577   0.000000
    10  C    2.428768   2.786283   2.403038   1.386320   0.000000
    11  H    4.044352   5.032259   5.020811   4.013937   2.660928
    12  H    5.089819   6.363741   6.742344   5.985330   4.602552
    13  H    1.084896   2.147990   3.397894   3.886340   3.413406
    14  H    2.140105   1.083857   2.155973   3.404269   3.870119
    15  H    3.393777   2.153469   1.084639   2.149095   3.384522
    16  H    3.885521   3.405972   2.156182   1.084039   2.145298
    17  H    3.425431   3.873934   3.378304   2.127567   1.088088
    18  H    3.901372   4.906858   5.016715   4.179486   2.921693
                   11         12         13         14         15
    11  H    0.000000
    12  H    2.236497   0.000000
    13  H    4.544636   5.124114   0.000000
    14  H    6.052174   7.227315   2.467434   0.000000
    15  H    6.037909   7.816744   4.290974   2.482530   0.000000
    16  H    4.499887   6.625325   4.970226   4.301131   2.479792
    17  H    2.068247   4.251999   4.328175   4.957675   4.267210
    18  H    1.632110   2.734532   4.314075   5.861283   6.022016
                   16         17         18
    16  H    0.000000
    17  H    2.441745   0.000000
    18  H    4.755492   2.621261   0.000000
 Stoichiometry    C7H8NO2(1+)
 Framework group  C1[X(C7H8NO2)]
 Deg. of freedom    48
 Full point group                 C1      NOp   1
 RotChk:  IX=0 Diff= 1.13D-02
 Largest Abelian subgroup         C1      NOp   1
 Largest concise Abelian subgroup C1      NOp   1
                         Standard orientation:                         
 ---------------------------------------------------------------------
 Center     Atomic      Atomic             Coordinates (Angstroms)
 Number     Number       Type             X           Y           Z
 ---------------------------------------------------------------------
      1          8           0       -1.697895    1.476030   -0.281361
      2          6           0       -1.174822    0.398796   -0.078540
      3          7           0       -2.060026   -0.706469    0.194841
      4          8           0       -3.386551   -0.437866    0.209272
      5          6           0        0.249861    0.147914   -0.064839
      6          6           0        1.123091    1.236512    0.084742
      7          6           0        2.491065    1.022649    0.157647
      8          6           0        3.006226   -0.272593    0.069840
      9          6           0        2.153938   -1.360828   -0.115071
     10          6           0        0.784872   -1.153641   -0.183008
     11          1           0       -1.842811   -1.455747   -0.473778
     12          1           0       -3.693807   -0.217910   -0.682332
     13          1           0        0.723869    2.243580    0.143353
     14          1           0        3.158442    1.867388    0.283223
     15          1           0        4.075880   -0.435315    0.146030
     16          1           0        2.556574   -2.363100   -0.207133
     17          1           0        0.142891   -2.018243   -0.338757
     18          1           0       -1.830684   -1.093541    1.117587
 ---------------------------------------------------------------------
 Rotational constants (GHZ):           3.4931464           0.8051250           0.6643518
 Leave Link  202 at Sun Oct 13 19:53:46 2019, MaxMem= 10737418240 cpu:               1.6 elap:               0.1
 (Enter /apps/cent7/gaussian/g16-A.03/g16-haswell/g16/l301.exe)
 Standard basis: 6-311++G(d,p) (5D, 7F)
 Ernie: Thresh=  0.10000D-02 Tol=  0.10000D-05 Strict=F.
 There are   286 symmetry adapted cartesian basis functions of A   symmetry.
 There are   276 symmetry adapted basis functions of A   symmetry.
   276 basis functions,   432 primitive gaussians,   286 cartesian basis functions
    36 alpha electrons       36 beta electrons
       nuclear repulsion energy       503.2639070427 Hartrees.
 IExCor= 4336 DFT=T Ex+Corr=M062X ExCW=0 ScaHFX=  0.540000
 ScaDFX=  1.000000  1.000000  1.000000  1.000000 ScalE2=  1.000000  1.000000
 IRadAn=      5 IRanWt=     -1 IRanGd=            0 ICorTp=0 IEmpDi=  4
 NAtoms=   18 NActive=   18 NUniq=   18 SFac= 1.00D+00 NAtFMM=   60 NAOKFM=F Big=F
 Integral buffers will be    131072 words long.
 Raffenetti 2 integral format.
 Two-electron integral symmetry is turned on.
 Leave Link  301 at Sun Oct 13 19:53:46 2019, MaxMem= 10737418240 cpu:               1.7 elap:               0.1
 (Enter /apps/cent7/gaussian/g16-A.03/g16-haswell/g16/l302.exe)
 NPDir=0 NMtPBC=     1 NCelOv=     1 NCel=       1 NClECP=     1 NCelD=      1
         NCelK=      1 NCelE2=     1 NClLst=     1 CellRange=     0.0.
 One-electron integrals computed using PRISM.
 One-electron integral symmetry used in STVInt
 NBasis=   276 RedAO= T EigKep=  2.91D-06  NBF=   276
 NBsUse=   275 1.00D-06 EigRej=  9.67D-07 NBFU=   275
 Precomputing XC quadrature grid using
 IXCGrd= 4 IRadAn=           5 IRanWt=          -1 IRanGd=           0 AccXCQ= 0.00D+00.
 Generated NRdTot=       0 NPtTot=           0 NUsed=           0 NTot=          32
 NSgBfM=   286   286   286   286   286 MxSgAt=    18 MxSgA2=    18.
 Leave Link  302 at Sun Oct 13 19:53:46 2019, MaxMem= 10737418240 cpu:               4.0 elap:               0.2
 (Enter /apps/cent7/gaussian/g16-A.03/g16-haswell/g16/l303.exe)
 DipDrv:  MaxL=1.
 Leave Link  303 at Sun Oct 13 19:53:46 2019, MaxMem= 10737418240 cpu:               0.8 elap:               0.1
 (Enter /apps/cent7/gaussian/g16-A.03/g16-haswell/g16/l401.exe)
 Initial guess from the checkpoint file:  "13_p.chk"
 B after Tr=    -0.000000   -0.000000   -0.000000
         Rot=    0.999997   -0.000896    0.000318   -0.002252 Ang=  -0.28 deg.
 Guess basis will be translated and rotated to current coordinates.
 JPrj=2 DoOrth=T DoCkMO=T.
 Generating alternative initial guess.
 ExpMin= 3.60D-02 ExpMax= 8.59D+03 ExpMxC= 1.30D+03 IAcc=3 IRadAn=         5 AccDes= 0.00D+00
 Harris functional with IExCor= 1009 and IRadAn=       5 diagonalized for initial guess.
 HarFok:  IExCor= 1009 AccDes= 0.00D+00 IRadAn=         5 IDoV= 1 UseB2=F ITyADJ=14
 ICtDFT=  3500011 ScaDFX=  1.000000  1.000000  1.000000  1.000000
 FoFCou: FMM=F IPFlag=           0 FMFlag=      100000 FMFlg1=           0
         NFxFlg=           0 DoJE=T BraDBF=F KetDBF=T FulRan=T
         wScrn=  0.000000 ICntrl=       500 IOpCl=  0 I1Cent=   200000004 NGrid=           0
         NMat0=    1 NMatS0=      1 NMatT0=    0 NMatD0=    1 NMtDS0=    0 NMtDT0=    0
 Petite list used in FoFCou.
 Harris En= -476.194330441040    
 Leave Link  401 at Sun Oct 13 19:53:47 2019, MaxMem= 10737418240 cpu:              12.7 elap:               0.6
 (Enter /apps/cent7/gaussian/g16-A.03/g16-haswell/g16/l502.exe)
 Integral symmetry usage will be decided dynamically.
 Closed shell SCF:
 Using DIIS extrapolation, IDIIS=  1040.
 NGot= 10737418240 LenX= 10737244962 LenY= 10737162725
 Requested convergence on RMS density matrix=1.00D-08 within 128 cycles.
 Requested convergence on MAX density matrix=1.00D-06.
 Requested convergence on             energy=1.00D-06.
 No special actions if energy rises.
 Fock matrices will be formed incrementally for  20 cycles.

 Cycle   1  Pass 1  IDiag  1:
 FoFJK:  IHMeth= 1 ICntrl=       0 DoSepK=F KAlg= 0 I1Cent=           0 FoldK=F
 IRaf= 930000000 NMat=       1 IRICut=       1 DoRegI=T DoRafI=F ISym2E= 0 IDoP0=0 IntGTp=1.
 FoFCou: FMM=F IPFlag=           0 FMFlag=      100000 FMFlg1=           0
         NFxFlg=           0 DoJE=F BraDBF=F KetDBF=F FulRan=T
         wScrn=  0.000000 ICntrl=         0 IOpCl=  0 I1Cent=           0 NGrid=           0
         NMat0=    1 NMatS0=      1 NMatT0=    0 NMatD0=    1 NMtDS0=    0 NMtDT0=    0
 Symmetry not used in FoFCou.
 E= -476.337127302978    
 DIIS: error= 3.80D-03 at cycle   1 NSaved=   1.
 NSaved= 1 IEnMin= 1 EnMin= -476.337127302978     IErMin= 1 ErrMin= 3.80D-03
 ErrMax= 3.80D-03  0.00D+00 EMaxC= 1.00D-01 BMatC= 1.39D-02 BMatP= 1.39D-02
 IDIUse=3 WtCom= 9.62D-01 WtEn= 3.80D-02
 Coeff-Com:  0.100D+01
 Coeff-En:   0.100D+01
 Coeff:      0.100D+01
 Gap=     0.444 Goal=   None    Shift=    0.000
 GapD=    0.444 DampG=2.000 DampE=1.000 DampFc=2.0000 IDamp=-1.
 RMSDP=8.57D-03 MaxDP=4.98D-01              OVMax= 3.54D-02

 Cycle   2  Pass 1  IDiag  1:
 RMSU=  7.97D-03    CP:  9.56D-01
 E= -476.353490576603     Delta-E=       -0.016363273625 Rises=F Damp=F
 DIIS: error= 2.29D-03 at cycle   2 NSaved=   2.
 NSaved= 2 IEnMin= 2 EnMin= -476.353490576603     IErMin= 2 ErrMin= 2.29D-03
 ErrMax= 2.29D-03  0.00D+00 EMaxC= 1.00D-01 BMatC= 2.24D-03 BMatP= 1.39D-02
 IDIUse=3 WtCom= 9.77D-01 WtEn= 2.29D-02
 Coeff-Com:  0.142D+00 0.858D+00
 Coeff-En:   0.000D+00 0.100D+01
 Coeff:      0.139D+00 0.861D+00
 Gap=     0.255 Goal=   None    Shift=    0.000
 RMSDP=3.02D-03 MaxDP=2.98D-01 DE=-1.64D-02 OVMax= 1.89D-02

 Cycle   3  Pass 1  IDiag  1:
 RMSU=  1.55D-03    CP:  9.91D-01  1.06D+00
 E= -476.353336932489     Delta-E=        0.000153644114 Rises=F Damp=F
 DIIS: error= 3.16D-03 at cycle   3 NSaved=   3.
 NSaved= 3 IEnMin= 2 EnMin= -476.353490576603     IErMin= 2 ErrMin= 2.29D-03
 ErrMax= 3.16D-03  0.00D+00 EMaxC= 1.00D-01 BMatC= 2.97D-03 BMatP= 2.24D-03
 IDIUse=3 WtCom= 1.51D-01 WtEn= 8.49D-01
 Coeff-Com: -0.604D-01 0.558D+00 0.503D+00
 Coeff-En:   0.000D+00 0.519D+00 0.481D+00
 Coeff:     -0.912D-02 0.525D+00 0.484D+00
 Gap=     0.255 Goal=   None    Shift=    0.000
 RMSDP=2.14D-03 MaxDP=2.23D-01 DE= 1.54D-04 OVMax= 1.46D-02

 Cycle   4  Pass 1  IDiag  1:
 RMSU=  4.69D-04    CP:  9.65D-01  1.05D+00  4.22D-01
 E= -476.355444664718     Delta-E=       -0.002107732229 Rises=F Damp=F
 DIIS: error= 7.11D-04 at cycle   4 NSaved=   4.
 NSaved= 4 IEnMin= 4 EnMin= -476.355444664718     IErMin= 4 ErrMin= 7.11D-04
 ErrMax= 7.11D-04  0.00D+00 EMaxC= 1.00D-01 BMatC= 9.39D-05 BMatP= 2.24D-03
 IDIUse=3 WtCom= 9.93D-01 WtEn= 7.11D-03
 Coeff-Com: -0.304D-01 0.121D+00 0.210D+00 0.700D+00
 Coeff-En:   0.000D+00 0.000D+00 0.000D+00 0.100D+01
 Coeff:     -0.302D-01 0.120D+00 0.209D+00 0.702D+00
 Gap=     0.256 Goal=   None    Shift=    0.000
 RMSDP=1.82D-04 MaxDP=8.62D-03 DE=-2.11D-03 OVMax= 2.25D-03

 Cycle   5  Pass 1  IDiag  1:
 RMSU=  1.34D-04    CP:  9.66D-01  1.04D+00  4.40D-01  1.11D+00
 E= -476.355524001748     Delta-E=       -0.000079337029 Rises=F Damp=F
 DIIS: error= 1.62D-04 at cycle   5 NSaved=   5.
 NSaved= 5 IEnMin= 5 EnMin= -476.355524001748     IErMin= 5 ErrMin= 1.62D-04
 ErrMax= 1.62D-04  0.00D+00 EMaxC= 1.00D-01 BMatC= 8.56D-06 BMatP= 9.39D-05
 IDIUse=3 WtCom= 9.98D-01 WtEn= 1.62D-03
 Coeff-Com: -0.177D-02-0.443D-01 0.216D-02 0.282D+00 0.762D+00
 Coeff-En:   0.000D+00 0.000D+00 0.000D+00 0.000D+00 0.100D+01
 Coeff:     -0.176D-02-0.443D-01 0.216D-02 0.282D+00 0.762D+00
 Gap=     0.256 Goal=   None    Shift=    0.000
 RMSDP=7.14D-05 MaxDP=4.46D-03 DE=-7.93D-05 OVMax= 1.13D-03

 Cycle   6  Pass 1  IDiag  1:
 RMSU=  4.96D-05    CP:  9.67D-01  1.04D+00  4.65D-01  1.13D+00  8.57D-01
 E= -476.355533424735     Delta-E=       -0.000009422987 Rises=F Damp=F
 DIIS: error= 5.39D-05 at cycle   6 NSaved=   6.
 NSaved= 6 IEnMin= 6 EnMin= -476.355533424735     IErMin= 6 ErrMin= 5.39D-05
 ErrMax= 5.39D-05  0.00D+00 EMaxC= 1.00D-01 BMatC= 6.82D-07 BMatP= 8.56D-06
 IDIUse=1 WtCom= 1.00D+00 WtEn= 0.00D+00
 Coeff-Com:  0.235D-02-0.262D-01-0.212D-01 0.200D-01 0.244D+00 0.781D+00
 Coeff:      0.235D-02-0.262D-01-0.212D-01 0.200D-01 0.244D+00 0.781D+00
 Gap=     0.256 Goal=   None    Shift=    0.000
 RMSDP=2.08D-05 MaxDP=7.90D-04 DE=-9.42D-06 OVMax= 4.31D-04

 Cycle   7  Pass 1  IDiag  1:
 RMSU=  1.28D-05    CP:  9.66D-01  1.04D+00  4.66D-01  1.14D+00  8.74D-01
                    CP:  1.08D+00
 E= -476.355534204458     Delta-E=       -0.000000779723 Rises=F Damp=F
 DIIS: error= 2.94D-05 at cycle   7 NSaved=   7.
 NSaved= 7 IEnMin= 7 EnMin= -476.355534204458     IErMin= 7 ErrMin= 2.94D-05
 ErrMax= 2.94D-05  0.00D+00 EMaxC= 1.00D-01 BMatC= 1.33D-07 BMatP= 6.82D-07
 IDIUse=1 WtCom= 1.00D+00 WtEn= 0.00D+00
[...]
 34,0.3994972,-0.1449489,0.0440066,0.2618062,-0.0479671,0.0107156,-0.00
 3327,-0.0122011,-0.081586,0.1606371,-0.0402045,-0.0161331,-0.0602041,0
 .26185,0.0546058,-0.0777782,0.0897881,0.2531642,0.5138938,0.0407651,0.
 0041299,-0.062967,0.3582789,-0.0038546,0.0161263,0.0020275,0.35629,0.0
 759538,-0.0234451,-0.0011302,-0.0075983,0.1007715,0.0046337,-0.0029776
 ,0.0037474,0.1437403,0.074133,0.0128284,-0.0057234,0.0114996,0.0605473
 ,0.0109557,-0.0055651,0.0110214,0.1476553,0.0591339,0.0014332,-0.00466
 26,0.0010167,0.0951999,0.0051469,-0.0046101,0.0051742,0.1381355,0.0775
 803,-0.0098139,-0.0029177,-0.0155887,0.0487786,0.0108486,-0.0022379,0.
 0111623,0.1482528,0.0228564,0.0803923,-0.0157015,0.0896982,0.0056158,0
 .0201863,-0.0167503,0.019633,0.1326275,0.1503201,-0.0267601,0.0104378,
 -0.0360314,0.2282294,-0.0529561,0.0756019,-0.0865668,0.297226\Polar=13
 2.9389884,-1.1253262,93.2922808,4.854361,-5.1982142,49.9997334\Quadrup
 ole=8.9873583,0.8101776,-9.7975359,-4.5066694,1.597448,-1.5199442\PG=C
 01 [X(C7H8N1O2)]\NImag=0\\0.48751791,0.42412726,0.61311856,-0.02358661
 ,-0.04362754,0.03573220,-0.45887872,-0.38964158,0.02329653,0.87728060,
 -0.36923631,-0.49768054,0.02895960,0.37854406,0.60194029,0.02092460,0.
 02780706,-0.07130677,-0.00550035,-0.02590311,0.19781216,0.01370533,-0.
 00935653,0.00063455,-0.10147190,-0.00730288,-0.00068019,0.54081852,-0.
 02382152,-0.09957578,0.01280209,-0.00645283,0.00403918,-0.00949245,0.1
 4782820,0.51108364,0.00231819,0.01361583,0.02054314,-0.00077338,-0.009
 57405,-0.07339532,-0.02640877,0.03089880,0.70047833,0.00404213,-0.0079
 6386,0.00105441,-0.03514792,0.00402078,-0.00244662,-0.27320827,-0.0075
 9252,-0.01088790,0.41872797,0.02398518,-0.00150662,0.00171758,0.023116
 79,-0.01435641,0.00297607,-0.05873769,-0.11001828,0.00216234,0.0887679
 9,0.57003873,-0.00266112,-0.00007371,0.00155923,-0.00467272,0.00191288
 ,-0.00036572,-0.00492663,0.00503534,-0.06410873,0.01093609,-0.05696953
 ,0.04632206,-0.05215479,-0.03544479,0.00007617,-0.23507411,0.01168892,
 -0.01090605,-0.00538636,0.00841214,-0.00186047,0.00111027,0.00221343,-
 0.00026337,0.64680084,-0.04324782,0.00188270,-0.00039173,-0.01326442,-
 0.09534208,0.00263884,0.03173240,-0.00820243,0.00393862,0.00625232,-0.
 00329374,0.00087725,0.02807799,0.69810763,0.00098038,0.00005116,0.0195
 5864,-0.00799372,0.00405168,-0.06709306,-0.00457696,0.00261338,0.00962
 101,-0.00073357,0.00065540,0.00112223,0.02620422,-0.06508335,0.1334792
 5,0.00578281,0.00819692,-0.00058213,-0.03959364,0.02189153,-0.00468797
 ,-0.00592169,-0.00158958,-0.00033550,-0.00162080,0.00060722,-0.0001815
 2,-0.14215945,0.04488068,-0.00982207,0.71863811,-0.00917082,-0.0084311
 6,0.00037178,0.02717123,0.01007075,0.00017913,-0.00379847,0.00413956,-
 0.00031487,-0.00132850,0.00117265,-0.00017103,0.09413900,-0.27992063,0
 .03081566,0.05310562,0.70652827,0.00143632,0.00135245,-0.00084915,-0.0
 0530177,-0.00012190,-0.00189604,-0.00008117,-0.00018766,0.00332761,0.0
 0004350,-0.00006212,0.00034434,-0.01554691,0.02804183,-0.06445932,0.02
 632561,-0.06258304,0.15083652,-0.00091242,-0.00305872,0.00034492,0.008
 48365,0.00917595,-0.00106247,-0.00034504,0.00148169,-0.00013147,-0.000
 35716,0.00041542,-0.00006314,-0.03066464,0.07366470,-0.01062287,-0.359
 34774,-0.02901177,-0.01328144,0.70130901,-0.00229392,-0.00092610,-0.00
 010935,0.00722242,-0.00250966,0.00168524,0.00236488,0.00058541,-0.0000
 6484,0.00061697,0.00005091,0.00002070,0.02329904,0.03037817,-0.0015283
 4,0.04468327,-0.13273005,0.01051204,-0.04021633,0.73172770,0.00025725,
 -0.00015120,-0.00071677,-0.00084118,0.00179286,0.00822498,-0.00023033,
 -0.00011445,-0.00111563,-0.00008761,0.00000868,-0.00007989,-0.00476613
 ,0.00130859,0.00550472,-0.02184199,0.00636212,-0.06586881,0.03644821,-
 0.07137158,0.14748461,0.00028839,0.00096121,-0.00009391,-0.00017390,-0
 .00106929,0.00019643,-0.00004812,-0.00000890,-0.00002602,0.00002688,-0
 .00013350,0.00002072,-0.00146599,-0.00102288,0.00039423,-0.02817346,-0
 .03057446,0.00174529,-0.19018873,-0.12757806,0.00769956,0.75404783,-0.
 00370998,-0.00124750,-0.00006665,0.00364409,-0.00560693,0.00068469,0.0
 0042116,-0.00058914,0.00014695,0.00026090,-0.00013682,0.00002138,-0.00
 598365,-0.06612280,0.00661124,-0.07961118,0.04212988,-0.00892183,-0.05
 160871,-0.28630304,0.02299578,0.00280854,0.66437011,0.00044868,0.00019
 523,-0.00002730,-0.00035015,0.00042183,-0.00152826,-0.00007706,0.00011
 976,0.00042565,-0.00002495,0.00000020,-0.00007128,0.00096860,0.0068912
 9,-0.00708284,0.00744322,-0.00616053,0.00506179,-0.00112608,0.01871813
 ,-0.06574990,0.03382887,-0.05998441,0.15578366,-0.00777638,-0.00420923
 ,0.00014439,0.01473326,-0.00431011,0.00080761,0.00035218,0.00071906,0.
 00004437,0.00025208,0.00041534,-0.00005546,-0.04281218,-0.06910591,0.0
 0526009,-0.05146187,0.03475514,-0.00669129,0.07499533,0.01859792,0.001
 80434,-0.17764010,0.04186126,-0.01128656,0.70747847,0.00252938,0.00422
 718,-0.00054125,-0.01200906,-0.00803484,0.00133806,-0.00014750,-0.0003
 7156,-0.00018704,-0.00001307,0.00069008,-0.00003746,-0.01627067,0.0337
 3229,-0.00409640,0.02618459,-0.01888733,0.00316145,-0.02631340,-0.0521
 8509,0.00511803,0.11839865,-0.29065141,0.03305687,0.05096018,0.7242246
 6,-0.00063871,-0.00092149,-0.00158456,0.00169956,0.00177238,0.00919121
 ,0.00014564,-0.00013818,-0.00186663,-0.00000477,-0.00001348,0.00037118
 ,-0.00087895,-0.00707233,0.00714582,-0.00569454,0.00364399,-0.00511567
 ,0.00702105,0.00764902,0.00412093,-0.02018082,0.02874597,-0.06802019,0
 .02633736,-0.06566415,0.14354771,0.00379483,0.00830075,-0.00101611,-0.
 04023804,-0.03264705,0.00200308,-0.00204441,0.00001576,-0.00011545,0.0
 0115777,-0.00116002,0.00021786,-0.15143271,-0.06071880,0.00148690,0.05
 926565,-0.02527647,0.00595526,-0.05688649,-0.02601473,0.00004837,-0.02
 145133,0.08599550,-0.01142160,-0.35760388,-0.03647342,-0.01242346,0.69
 275627,0.01233126,0.00533246,0.00062004,-0.01922808,0.00768745,-0.0029
 5403,0.00070383,-0.00137429,0.00020252,0.00028364,-0.00297046,0.000322
 57,-0.10564879,-0.27736877,0.02015852,0.02018227,-0.05642364,0.0083556
 4,-0.03355309,-0.01631973,-0.00046957,0.03220677,0.03516512,-0.0018178
 2,0.03868913,-0.12849132,0.00994780,-0.03164216,0.71224592,-0.00148429
 ,0.00039223,0.00454963,0.00044149,-0.00371282,-0.00794162,-0.00019901,
 0.00016311,-0.00004004,0.00005106,0.00024026,-0.00034702,0.00671143,0.
 02269108,-0.05493332,0.00066973,0.00579666,0.00506256,0.00092683,-0.00
 004312,-0.00403661,-0.00517157,0.00120974,0.00349359,-0.02115818,0.005
 71578,-0.06350253,0.03526082,-0.06920950,0.14192022,-0.00073914,0.0034
 5990,-0.00169768,0.00923609,-0.00051925,0.01114167,-0.06147200,-0.0322
 9862,-0.04065571,-0.02871863,-0.03108185,-0.02627607,-0.00190516,0.001
 13177,-0.00152528,0.00064024,-0.00086193,-0.00017953,-0.00070860,-0.00
 048671,0.00016451,0.00012303,0.00048259,0.00004024,-0.00011014,-0.0005
 6422,0.00034297,-0.00035425,0.00157201,-0.00087732,0.08486794,-0.00032
 439,-0.00411222,0.00298397,-0.00449248,-0.01040907,-0.01753094,-0.0490
 8961,-0.18310258,-0.17118246,-0.00079780,0.00228669,0.00069660,-0.0002
 9722,0.00028263,0.00135937,0.00037788,-0.00068577,0.00062876,-0.000538
 95,-0.00023784,-0.00015676,-0.00002312,0.00044721,-0.00000652,0.000290
 69,-0.00011170,0.00003516,-0.00010774,0.00090973,0.00003176,0.05155185
 ,0.18215621,0.00089606,0.00518135,-0.00231930,0.00599779,-0.00434568,0
 .00953919,-0.05264238,-0.15426320,-0.26716090,-0.00312797,0.00422627,0
 .00843088,-0.00123212,0.00054356,-0.00091735,0.00015487,-0.00042896,-0
 .00023360,-0.00028939,-0.00006498,0.00008966,-0.00015887,-0.00000042,-
 0.00000204,-0.00029037,0.00063916,0.00002918,-0.00023600,-0.00088933,0
 .00025892,0.05558504,0.16959688,0.27300777,0.00788960,0.00040371,0.000
 69121,-0.01198465,-0.00858345,0.00009390,-0.02534540,-0.05202637,0.005
 10818,-0.05439847,-0.02354547,-0.00031676,0.00275979,-0.00005641,0.000
 15905,-0.00019142,0.00088283,-0.00012367,0.00034096,0.00031901,-0.0000
 0933,-0.00002871,0.00015591,-0.00002592,0.00068872,-0.00017854,0.00006
 977,-0.00077864,-0.00149025,0.00010361,-0.00494710,-0.00013405,0.00099
 342,0.09153905,-0.01065404,-0.00788645,-0.00029251,0.01203219,0.019609
 85,-0.00112842,-0.00487198,-0.00223261,-0.00096388,-0.08185281,-0.4447
 5036,0.04731740,-0.00329944,-0.00407769,0.00029330,0.00126391,-0.00022
 408,0.00012050,-0.00016546,-0.00069244,0.00005267,-0.00001791,-0.00018
 641,0.00003401,-0.00063490,0.00003402,-0.00006103,0.00011026,0.0012994
 7,-0.00009193,0.00134073,-0.00144731,0.00081340,0.08421208,0.44242863,
 0.00197598,0.00032565,-0.00522533,-0.00230182,-0.00228429,0.00423405,-
 0.00039554,-0.00361403,-0.00779946,0.00648932,0.05059154,-0.00537569,0
 .00053452,0.00047888,0.00004018,-0.00016894,0.00009803,0.00017472,0.00
 004717,0.00008005,-0.00016539,-0.00000591,0.00004381,0.00010951,0.0001
 2278,-0.00003529,-0.00017338,-0.00008249,-0.00018222,0.00047121,-0.004
 53375,-0.00072801,0.00037019,-0.00510936,-0.04601716,0.01267478,-0.001
 63336,-0.00074155,-0.00002420,0.00158229,0.00286466,-0.00003826,0.0002
 2237,-0.00080696,0.00010207,-0.00003415,-0.00015096,0.00001821,0.01112
 261,0.01380482,-0.00114603,-0.14342345,-0.13231210,0.00958868,-0.00927
 076,-0.02611737,0.00215329,-0.00554587,0.00072696,-0.00085833,-0.00099
 012,0.00089084,-0.00007472,-0.00115773,0.00334024,-0.00078713,0.000125
 75,-0.00002114,0.00004870,-0.00012660,0.00014566,-0.00002646,0.1479464
 2,0.00019965,0.00186616,-0.00016811,-0.00200646,-0.00256499,-0.0002386
 6,-0.00001241,0.00026099,-0.00002183,-0.00000681,0.00018437,-0.0000271
 5,-0.01418601,-0.01709253,0.00153454,-0.13096058,-0.26456396,0.0186061
 4,0.00348810,0.00740772,0.00007508,0.00135315,0.00060969,0.00095636,-0
 .00001085,0.00057698,-0.00024227,0.00405119,-0.00219395,0.00117110,-0.
 00009518,-0.00000095,-0.00001417,0.00021136,-0.00012974,0.00003200,0.1
 3870603,0.27569888,-0.00013347,-0.00022118,0.00034086,0.00052919,0.000
 03616,-0.00362143,0.00000924,-0.00006669,0.00008768,0.00000140,-0.0000
 3519,-0.00004159,0.00210484,0.00311004,0.00275187,0.00942961,0.0185301
 3,-0.04247810,-0.00128361,-0.00159290,0.00647394,-0.00093108,0.0009205
 1,0.00802874,0.00002884,-0.00019086,-0.00147979,-0.00086865,0.00113233
 ,0.00574374,0.00002128,0.00003752,0.00004027,-0.00003423,0.00002839,0.
 00003860,-0.00929348,-0.02107753,0.02888527,-0.00010706,-0.00009914,0.
 00000624,0.00013212,0.00112696,-0.00015668,-0.00060757,0.00019604,-0.0
 0003719,-0.00019397,0.00013404,-0.00002270,-0.00494176,-0.00072933,-0.
 00066660,-0.01048341,0.02780682,-0.00403761,-0.12473413,0.12046001,-0.
 01867840,0.01257660,-0.01679455,0.00241695,-0.00145804,-0.00368915,-0.
 00008906,-0.00074666,-0.00082747,0.00012559,-0.00002983,-0.00003194,-0
 .00003505,0.00005680,0.00005793,-0.00000482,0.00091755,-0.00010979,0.0
 0031131,0.12848250,0.00004525,0.00000158,0.00000063,-0.00002181,0.0001
 9277,0.00004554,-0.00020094,0.00012883,-0.00006791,-0.00006890,0.00003
 060,-0.00001525,-0.00107753,0.00171598,0.00071523,-0.00262046,0.005070
 74,-0.00029032,0.12084162,-0.28126359,0.03465222,0.01359289,-0.0164972
 3,0.00318327,-0.00334064,-0.00263416,0.00101822,-0.00106952,0.00014456
 ,-0.00022481,0.00000610,-0.00003061,0.00000135,0.00001668,0.00002428,0
 .00000067,0.00018523,0.00042255,-0.00054796,-0.12710804,0.29277140,-0.
 00001051,-0.00000768,-0.00001457,-0.00002341,0.00011010,0.00058021,0.0
 0000951,-0.00004508,-0.00035097,0.00000101,-0.00000397,-0.00006681,-0.
 00062637,0.00073411,0.00827091,-0.00050230,0.00142351,0.00364761,-0.01
 872240,0.03462993,-0.04671455,-0.00111440,0.00147264,0.00407656,-0.000
 12933,0.00099868,0.00761968,0.00015419,-0.00021136,-0.00123723,0.00003
 274,-0.00006539,0.00003743,0.00000003,0.00000296,0.00002166,0.00027712
 ,-0.00056423,-0.00430094,0.02043245,-0.03793243,0.03351349,0.00023233,
 0.00020692,-0.00003058,-0.00072706,-0.00010292,0.00006469,-0.00001085,
 -0.00007159,-0.00000894,-0.00000048,-0.00003067,0.00000578,0.00145241,
 -0.00019336,0.00014645,-0.00022255,-0.00240526,-0.00018093,-0.00914219
 ,0.00284885,-0.00120917,-0.34887710,0.00708481,-0.01791268,-0.00766056
 ,-0.00219187,-0.00051742,0.00025958,0.00195625,-0.00065074,0.00003815,
 0.00001289,-0.00000162,-0.00002964,0.00003240,-0.00000583,-0.00042755,
 0.00026432,-0.00001062,0.00056951,0.00002814,0.00024755,0.36439983,-0.
 00003339,0.00017634,0.00001832,0.00009809,-0.00033584,-0.00014913,-0.0
 0005802,0.00006733,0.00002334,0.00000620,0.00009924,-0.00001586,-0.000
 17218,-0.00131089,0.00005515,-0.00337793,-0.00443042,0.00125103,-0.027
 27453,0.00568798,-0.00144415,0.00694166,-0.06047454,0.00218722,0.02807
 761,0.00396016,0.00182443,0.00292769,-0.00435502,0.00157687,-0.0000816
 6,0.00000566,0.00003915,0.00003590,-0.00003891,0.00000731,-0.00126535,
 0.00022741,-0.00018933,0.00038991,0.00071451,-0.00051336,-0.00734172,0
 .05934682,-0.00000281,0.00003182,0.00034601,0.00004223,-0.00016028,-0.
 00164521,-0.00001078,0.00002297,0.00029458,0.00000144,-0.00001789,-0.0
 0003836,0.00014342,0.00005406,-0.00075182,-0.00006831,0.00130617,0.007
 81419,0.00229101,0.00024937,0.00656529,-0.01789387,0.00219551,-0.04627
 909,-0.00403627,0.00012141,0.00582456,-0.00076469,0.00152212,0.0075748
 9,-0.00006479,-0.00001117,-0.00005415,-0.00000620,0.00000708,0.0000053
 5,0.00016748,-0.00010300,-0.00076494,0.00020589,-0.00053375,-0.0038181
 0,0.01979126,-0.00409437,0.02926140,-0.00070531,0.00005479,-0.00001171
 ,-0.00006928,-0.00172772,0.00012576,-0.00006475,0.00010912,-0.00001526
 ,-0.00001502,0.00010135,-0.00001209,-0.00478817,0.00155958,-0.00089518
 ,-0.00052353,0.00080638,-0.00004791,-0.00110693,0.00337158,-0.00087334
 ,0.01265509,0.01476257,-0.00123613,-0.14163856,-0.13119603,0.00952718,
 -0.01232636,-0.02649938,0.00221114,-0.00003973,-0.00007520,-0.00001875
 ,0.00005563,-0.00006789,0.00001065,0.00005178,-0.00007273,0.00005959,0
 .00050383,0.00071495,-0.00004057,0.00054621,-0.00030137,0.00028135,0.1
 4663518,0.00023812,-0.00001642,-0.00005599,0.00017147,0.00053814,0.000
 09462,-0.00002230,-0.00000197,-0.00000364,0.00000546,-0.00002378,0.000
 00204,0.00131316,0.00157057,0.00080782,0.00119066,-0.00010337,-0.00007
 626,0.00319440,-0.00305536,0.00140000,-0.01569915,-0.01663467,0.001529
 87,-0.13189349,-0.26812125,0.01907343,0.00394590,0.00623163,-0.0001424
 8,-0.00000959,0.00001724,-0.00000265,-0.00001596,0.00001650,-0.0000021
 3,-0.00006881,-0.00000574,-0.00010272,-0.00081739,-0.00074602,0.000011
 35,0.00002963,0.00075850,-0.00053123,0.13857094,0.27897558,-0.00003248
 ,-0.00006633,-0.00060799,-0.00009557,-0.00001191,0.00126538,0.00000028
 ,0.00000377,-0.00002329,-0.00000097,0.00000747,-0.00000976,-0.00086588
 ,0.00082177,0.00774151,-0.00009186,-0.00009839,-0.00133064,-0.00085364
 ,0.00140965,0.00723399,0.00230357,0.00324708,0.00388922,0.00960912,0.0
 1911102,-0.04174724,-0.00132737,-0.00185663,0.00323575,0.00001621,-0.0
 0002865,0.00003114,0.00000465,-0.00000503,0.00000671,0.00005920,-0.000
 10288,-0.00084109,0.00013756,0.00009751,-0.00025675,0.00024247,-0.0005
 5008,-0.00375078,-0.00939450,-0.02141964,0.02945683,0.00044763,0.00052
 829,-0.00007016,0.00090045,-0.00011050,0.00028967,-0.00349231,0.000341
 75,-0.00031908,0.00026621,-0.00072102,0.00011845,0.01172279,-0.0142637
 7,0.00230063,-0.00182434,-0.00309214,-0.00009465,-0.00073740,-0.000547
 21,0.00009717,-0.00623859,-0.00096226,-0.00068953,-0.00924455,0.030641
 70,-0.00440479,-0.11176487,0.10600221,-0.01660950,-0.00139352,-0.00020
 448,0.00019009,-0.00024319,0.00003852,-0.00001971,0.00051008,-0.000715
 31,0.00004854,0.00009314,0.00007997,0.00005468,-0.00042891,0.00148710,
 -0.00016613,0.00087029,-0.00011873,0.00031052,0.12181863,-0.00074435,0
 .00057071,-0.00003843,0.00292966,-0.00266389,0.00000923,0.00035389,0.0
 0086110,0.00008781,0.00000484,0.00130657,-0.00019198,0.01310006,-0.014
 74977,0.00249107,-0.00481057,-0.00199998,0.00068484,-0.00003484,0.0005
 6927,-0.00022315,-0.00015615,0.00129766,0.00076950,-0.00120667,0.00230
 110,0.00033379,0.10980661,-0.28060702,0.03465778,-0.00100725,0.0005079
 2,0.00058945,0.00032544,-0.00040004,0.00006804,0.00084663,-0.00069722,
 0.00025952,0.00006662,-0.00003314,-0.00011362,-0.00014015,-0.00009395,
 -0.00006052,-0.00003846,0.00057658,-0.00058076,-0.11816355,0.29298480,
 0.00007795,0.00003442,0.00060267,-0.00006230,-0.00016377,-0.00399504,-
 0.00032193,0.00009141,0.00144303,0.00003407,-0.00023342,-0.00032642,-0
 .00087906,0.00095040,0.00017164,0.00010526,0.00078186,0.00614971,0.000
 03739,-0.00025219,-0.00130360,-0.00078366,0.00072467,0.00786983,-0.000
 70415,0.00212680,0.00546905,-0.01705224,0.03444244,-0.04045049,0.00092
 866,0.00027195,0.00000348,-0.00005288,0.00005150,0.00001675,-0.0001329
 3,0.00017132,0.00109709,0.00005625,-0.00011294,-0.00102748,0.00002283,
 0.00003120,-0.00054901,0.00030148,-0.00058537,-0.00431804,0.01925958,-
 0.03795488,0.02903508,-0.00079376,0.00427566,0.00086468,0.01101078,-0.
 00370337,-0.01016883,-0.07567973,-0.03443487,0.07400235,-0.03188845,-0
 .02419558,0.02813445,-0.00218339,0.00149845,0.00105032,0.00062055,-0.0
 0083509,0.00047223,-0.00072671,-0.00052960,-0.00013524,0.00011409,0.00
 046605,-0.00013759,-0.00010366,-0.00055843,-0.00023628,-0.00044872,0.0
 0162162,0.00043604,0.00538690,0.00390481,-0.00583343,-0.00525673,0.002
 33074,0.00347421,0.00013073,-0.00009767,0.00001129,-0.00002963,-0.0000
 0300,-0.00004000,0.00002889,-0.00005801,0.00008978,-0.00004036,-0.0000
 1430,-0.00002131,-0.00126153,-0.00113174,-0.00083432,0.10112075,-0.000
 21955,-0.00579289,-0.00218246,-0.00781326,-0.00457419,0.01993828,-0.04
 980602,-0.11569740,0.13130432,-0.00059481,0.00119663,0.00129582,0.0001
 3655,-0.00018867,-0.00150543,0.00040575,-0.00071145,-0.00047153,-0.000
 48607,-0.00018426,0.00016484,0.00002054,0.00043083,-0.00009427,0.00034
 547,-0.00025783,0.00006873,-0.00004376,0.00108787,-0.00022171,0.007461
 32,0.01352475,-0.02162117,-0.00053243,-0.00134671,0.00113715,-0.000026
 83,-0.00000567,-0.00003023,-0.00003153,-0.00001306,0.00007382,0.000013
 33,-0.00000436,0.00000173,-0.00007247,0.00002385,0.00002203,-0.0002205
 7,0.00026929,-0.00037540,0.05146433,0.11224328,-0.00076541,-0.00391808
 ,-0.00058063,-0.00409042,0.00722034,0.00194132,0.08975152,0.11617112,-
 0.32036006,-0.00129793,-0.00525022,0.01268136,0.00108211,-0.00053291,-
 0.00017007,-0.00015115,0.00044776,-0.00018771,0.00031993,0.00007318,0.
 00005302,0.00017146,-0.00004666,0.00002236,0.00019272,-0.00063482,0.00
 017068,0.00018157,0.00088647,0.00017834,0.00753680,0.01406793,-0.02115
 076,-0.00154548,-0.00016123,0.00057552,-0.00003321,0.00001331,0.000039
 80,0.00003586,0.00001076,0.00001983,0.00000748,-0.00005774,-0.00003481
 ,0.00002829,0.00000299,0.00002504,-0.00029579,-0.00078767,0.00011174,-
 0.09112834,-0.12750452,0.32666503\\0.00000301,0.00002660,-0.00001599,0
 .00008151,-0.00002013,0.00003478,0.00023560,0.00003481,-0.00001892,-0.
 00018996,-0.00006330,-0.00001017,-0.00015497,-0.00002255,0.00000091,0.
 00004882,-0.00000988,0.00000005,-0.00002543,0.00000368,0.00000302,0.00
 000695,0.00001779,-0.00000068,-0.00000977,0.00001604,-0.00000428,0.000
 07677,-0.00000473,0.00000237,-0.00001556,-0.00000279,-0.00000438,-0.00
 000249,0.00000488,0.00000722,0.00000622,0.00000148,-0.00000152,0.00000
 416,0.00000600,-0.00000022,-0.00000053,-0.00000002,-0.00000351,-0.0000
 0782,0.00000294,0.00000029,-0.00001525,-0.00000524,0.00000151,-0.00004
 126,0.00001442,0.00000952\\\@


 IF MATHEMATICALLY YOU END UP WITH THE INCORRECT ANSWER,
 TRY MULTIPLYING BY THE PAGE NUMBER.
 Job cpu time:       0 days  0 hours 44 minutes 39.0 seconds.
 Elapsed time:       0 days  0 hours  1 minutes 53.7 seconds.
 File lengths (MBytes):  RWF=    132 Int=      0 D2E=      0 Chk=      7 Scr=      1
 Normal termination of Gaussian 16 at Sun Oct 13 19:59:24 2019.
real 358.56
user 8371.37
sys 24.55
Machine:
brown-a080
brown-a080
brown-a080
brown-a080
brown-a080
brown-a080
brown-a080
brown-a080
brown-a080
brown-a080
brown-a080
brown-a080
brown-a080
brown-a080
brown-a080
brown-a080
brown-a080
brown-a080
brown-a080
brown-a080
brown-a080
brown-a080
brown-a080
brown-a080
