 Entering Gaussian System, Link 0=/apps/cent7/gaussian/g16-A.03/g16-haswell/g16/g16
 Initial command:
 /apps/cent7/gaussian/g16-A.03/g16-haswell/g16/l1.exe "/scratch/brown/finej/gaussian/Gau-156358.inp" -scrdir="/scratch/brown/finej/gaussian/"
 Entering Link 1 = /apps/cent7/gaussian/g16-A.03/g16-haswell/g16/l1.exe PID=    156359.
  
 Copyright (c) 1988,1990,1992,1993,1995,1998,2003,2009,2016,
            Gaussian, Inc.  All Rights Reserved.
  
 This is part of the Gaussian(R) 16 program.  It is based on
 the Gaussian(R) 09 system (copyright 2009, Gaussian, Inc.),
 the Gaussian(R) 03 system (copyright 2003, Gaussian, Inc.),
 the Gaussian(R) 98 system (copyright 1998, Gaussian, Inc.),
 the Gaussian(R) 94 system (copyright 1995, Gaussian, Inc.),
 the Gaussian 92(TM) system (copyright 1992, Gaussian, Inc.),
 the Gaussian 90(TM) system (copyright 1990, Gaussian, Inc.),
 the Gaussian 88(TM) system (copyright 1988, Gaussian, Inc.),
 the Gaussian 86(TM) system (copyright 1986, Carnegie Mellon
 University), and the Gaussian 82(TM) system (copyright 1983,
 Carnegie Mellon University). Gaussian is a federally registered
 trademark of Gaussian, Inc.
  
 This software contains proprietary and confidential information,
 including trade secrets, belonging to Gaussian, Inc.
  
 This software is provided under written license and may be
 used, copied, transmitted, or stored only in accord with that
 written license.
  
 The following legend is applicable only to US Government
 contracts under FAR:
  
                    RESTRICTED RIGHTS LEGEND
  
 Use, reproduction and disclosure by the US Government is
 subject to restrictions as set forth in subparagraphs (a)
 and (c) of the Commercial Computer Software - Restricted
 Rights clause in FAR 52.227-19.
  
 Gaussian, Inc.
 340 Quinnipiac St., Bldg. 40, Wallingford CT 06492
  
  
 ---------------------------------------------------------------
 Warning -- This program may not be used in any manner that
 competes with the business of Gaussian, Inc. or will provide
 assistance to any competitor of Gaussian, Inc.  The licensee
 of this program is prohibited from giving any competitor of
 Gaussian, Inc. access to this program.  By using this program,
 the user acknowledges that Gaussian, Inc. is engaged in the
 business of creating and licensing software in the field of
 computational chemistry and represents and warrants to the
 licensee that it is not a competitor of Gaussian, Inc. and that
 it will not use this program in any manner prohibited above.
 ---------------------------------------------------------------
  

 Cite this work as:
 Gaussian 16, Revision A.03,
 M. J. Frisch, G. W. Trucks, H. B. Schlegel, G. E. Scuseria, 
 M. A. Robb, J. R. Cheeseman, G. Scalmani, V. Barone, 
 G. A. Petersson, H. Nakatsuji, X. Li, M. Caricato, A. V. Marenich, 
 J. Bloino, B. G. Janesko, R. Gomperts, B. Mennucci, H. P. Hratchian, 
 J. V. Ortiz, A. F. Izmaylov, J. L. Sonnenberg, D. Williams-Young, 
 F. Ding, F. Lipparini, F. Egidi, J. Goings, B. Peng, A. Petrone, 
 T. Henderson, D. Ranasinghe, V. G. Zakrzewski, J. Gao, N. Rega, 
 G. Zheng, W. Liang, M. Hada, M. Ehara, K. Toyota, R. Fukuda, 
 J. Hasegawa, M. Ishida, T. Nakajima, Y. Honda, O. Kitao, H. Nakai, 
 T. Vreven, K. Throssell, J. A. Montgomery, Jr., J. E. Peralta, 
 F. Ogliaro, M. J. Bearpark, J. J. Heyd, E. N. Brothers, K. N. Kudin, 
 V. N. Staroverov, T. A. Keith, R. Kobayashi, J. Normand, 
 K. Raghavachari, A. P. Rendell, J. C. Burant, S. S. Iyengar, 
 J. Tomasi, M. Cossi, J. M. Millam, M. Klene, C. Adamo, R. Cammi, 
 J. W. Ochterski, R. L. Martin, K. Morokuma, O. Farkas, 
 J. B. Foresman, and D. J. Fox, Gaussian, Inc., Wallingford CT, 2016.
 
 ******************************************
 Gaussian 16:  ES64L-G16RevA.03 25-Dec-2016
                30-Dec-2019 
 ******************************************
 %chk=13_p_b.chk
 %nprocshared=24
 Will use up to   24 processors via shared memory.
 %mem=80GB
 -------------------------------------------------------------------
 #p opt freq m062x/6-311++g(d,p) geom=connectivity temperature=0.001
 -------------------------------------------------------------------
 1/18=20,19=15,26=3,38=1,57=2,112=-1000/1,3;
 2/9=110,12=2,17=6,18=5,40=1/2;
 3/5=4,6=6,7=1111,11=2,25=1,30=1,71=1,74=-55/1,2,3;
 4//1;
 5/5=2,38=5/2;
 6/7=2,8=2,9=2,10=2,28=1/1;
 7//1,2,3,16;
 1/18=20,19=15,26=3/3(2);
 2/9=110/2;
 99//99;
 2/9=110/2;
 3/5=4,6=6,7=1111,11=2,25=1,30=1,71=1,74=-55/1,2,3;
 4/5=5,16=3,69=1/1;
 5/5=2,38=5/2;
 7//1,2,3,16;
 1/18=20,19=15,26=3/3(-5);
 2/9=110/2;
 6/7=2,8=2,9=2,10=2,19=2,28=1/1;
 99/9=1/99;
 Leave Link    1 at Mon Dec 30 16:44:09 2019, MaxMem= 10737418240 cpu:               0.8 elap:               0.0
 (Enter /apps/cent7/gaussian/g16-A.03/g16-haswell/g16/l101.exe)
 -------------------
 Title Card Required
 -------------------
 Symbolic Z-matrix:
 Charge =  1 Multiplicity = 1
 O                    -2.7858    0.2039    0.1487 
 C                    -2.1146    1.2215   -0.147 
 N                    -2.7705    2.3222   -0.5979 
 O                    -4.068     2.3833   -0.7024 
 C                    -0.6942    1.2081   -0.0384 
 C                     0.0258   -0.0132    0.0116 
 C                     1.4338   -0.0244    0.0462 
 C                     2.1479    1.1861    0.0476 
 C                     1.4539    2.407     0.0441 
 C                     0.0478    2.4167    0.0065 
 H                    -2.2603    3.1492   -0.8734 
 H                    -4.47068   1.95659   0.05745 
 H                    -0.5128   -0.9608    0.0236 
 H                     1.9719   -0.972     0.072 
 H                     3.2379    1.1782    0.0513 
 H                     2.0063    3.3463    0.0706 
 H                    -0.474     3.3736    0.0121 
 H                    -4.3458    1.93599  -1.50511 
 
 ITRead=  0  0  0  0  0  0  0  0  0  0  0  0  0  0  0  0  0  0
 MicOpt= -1 -1 -1 -1 -1 -1 -1 -1 -1 -1 -1 -1 -1 -1 -1 -1 -1 -1
 NAtoms=     18 NQM=       18 NQMF=       0 NMMI=      0 NMMIF=      0
                NMic=       0 NMicF=      0.
                    Isotopes and Nuclear Properties:
 (Nuclear quadrupole moments (NQMom) in fm**2, nuclear magnetic moments (NMagM)
  in nuclear magnetons)

  Atom         1           2           3           4           5           6           7           8           9          10
 IAtWgt=          16          12          14          16          12          12          12          12          12          12
 AtmWgt=  15.9949146  12.0000000  14.0030740  15.9949146  12.0000000  12.0000000  12.0000000  12.0000000  12.0000000  12.0000000
 NucSpn=           0           0           2           0           0           0           0           0           0           0
 AtZEff=  -0.0000000  -0.0000000  -0.0000000  -0.0000000  -0.0000000  -0.0000000  -0.0000000  -0.0000000  -0.0000000  -0.0000000
 NQMom=    0.0000000   0.0000000   2.0440000   0.0000000   0.0000000   0.0000000   0.0000000   0.0000000   0.0000000   0.0000000
 NMagM=    0.0000000   0.0000000   0.4037610   0.0000000   0.0000000   0.0000000   0.0000000   0.0000000   0.0000000   0.0000000
 AtZNuc=   8.0000000   6.0000000   7.0000000   8.0000000   6.0000000   6.0000000   6.0000000   6.0000000   6.0000000   6.0000000

  Atom        11          12          13          14          15          16          17          18
 IAtWgt=           1           1           1           1           1           1           1           1
 AtmWgt=   1.0078250   1.0078250   1.0078250   1.0078250   1.0078250   1.0078250   1.0078250   1.0078250
 NucSpn=           1           1           1           1           1           1           1           1
 AtZEff=  -0.0000000  -0.0000000  -0.0000000  -0.0000000  -0.0000000  -0.0000000  -0.0000000  -0.0000000
 NQMom=    0.0000000   0.0000000   0.0000000   0.0000000   0.0000000   0.0000000   0.0000000   0.0000000
 NMagM=    2.7928460   2.7928460   2.7928460   2.7928460   2.7928460   2.7928460   2.7928460   2.7928460
 AtZNuc=   1.0000000   1.0000000   1.0000000   1.0000000   1.0000000   1.0000000   1.0000000   1.0000000
 Leave Link  101 at Mon Dec 30 16:44:09 2019, MaxMem= 10737418240 cpu:               8.2 elap:               0.4
 (Enter /apps/cent7/gaussian/g16-A.03/g16-haswell/g16/l103.exe)

 GradGradGradGradGradGradGradGradGradGradGradGradGradGradGradGradGradGrad
 Berny optimization.
 Initialization pass.
                           ----------------------------
                           !    Initial Parameters    !
                           ! (Angstroms and Degrees)  !
 --------------------------                            --------------------------
 ! Name  Definition              Value          Derivative Info.                !
 --------------------------------------------------------------------------------
 ! R1    R(1,2)                  1.2544         estimate D2E/DX2                !
 ! R2    R(2,3)                  1.3583         estimate D2E/DX2                !
 ! R3    R(2,5)                  1.4246         estimate D2E/DX2                !
 ! R4    R(3,4)                  1.3031         estimate D2E/DX2                !
 ! R5    R(3,11)                 1.01           estimate D2E/DX2                !
 ! R6    R(4,12)                 0.96           estimate D2E/DX2                !
 ! R7    R(4,18)                 0.96           estimate D2E/DX2                !
 ! R8    R(5,6)                  1.4186         estimate D2E/DX2                !
 ! R9    R(5,10)                 1.4189         estimate D2E/DX2                !
 ! R10   R(6,7)                  1.4085         estimate D2E/DX2                !
 ! R11   R(6,13)                 1.09           estimate D2E/DX2                !
 ! R12   R(7,8)                  1.4054         estimate D2E/DX2                !
 ! R13   R(7,14)                 1.09           estimate D2E/DX2                !
 ! R14   R(8,9)                  1.4044         estimate D2E/DX2                !
 ! R15   R(8,15)                 1.09           estimate D2E/DX2                !
 ! R16   R(9,10)                 1.4066         estimate D2E/DX2                !
 ! R17   R(9,16)                 1.09           estimate D2E/DX2                !
 ! R18   R(10,17)                1.0899         estimate D2E/DX2                !
 ! A1    A(1,2,3)              118.5059         estimate D2E/DX2                !
 ! A2    A(1,2,5)              120.5244         estimate D2E/DX2                !
 ! A3    A(3,2,5)              120.9556         estimate D2E/DX2                !
 ! A4    A(2,3,4)              123.0519         estimate D2E/DX2                !
 ! A5    A(2,3,11)             120.6723         estimate D2E/DX2                !
 ! A6    A(4,3,11)             116.2757         estimate D2E/DX2                !
 ! A7    A(3,4,12)             109.4712         estimate D2E/DX2                !
 ! A8    A(3,4,18)             109.4712         estimate D2E/DX2                !
 ! A9    A(12,4,18)            109.4712         estimate D2E/DX2                !
 ! A10   A(2,5,6)              121.1193         estimate D2E/DX2                !
 ! A11   A(2,5,10)             121.0505         estimate D2E/DX2                !
 ! A12   A(6,5,10)             117.8256         estimate D2E/DX2                !
 ! A13   A(5,6,7)              121.0027         estimate D2E/DX2                !
 ! A14   A(5,6,13)             119.8692         estimate D2E/DX2                !
 ! A15   A(7,6,13)             119.1281         estimate D2E/DX2                !
 ! A16   A(6,7,8)              120.0731         estimate D2E/DX2                !
 ! A17   A(6,7,14)             120.0653         estimate D2E/DX2                !
 ! A18   A(8,7,14)             119.8616         estimate D2E/DX2                !
 ! A19   A(7,8,9)              119.8471         estimate D2E/DX2                !
 ! A20   A(7,8,15)             120.122          estimate D2E/DX2                !
 ! A21   A(9,8,15)             120.0309         estimate D2E/DX2                !
 ! A22   A(8,9,10)             120.0031         estimate D2E/DX2                !
 ! A23   A(8,9,16)             119.9111         estimate D2E/DX2                !
 ! A24   A(10,9,16)            120.0858         estimate D2E/DX2                !
 ! A25   A(5,10,9)             121.1788         estimate D2E/DX2                !
 ! A26   A(5,10,17)            119.8429         estimate D2E/DX2                !
 ! A27   A(9,10,17)            118.9782         estimate D2E/DX2                !
 ! D1    D(1,2,3,4)              1.9771         estimate D2E/DX2                !
 ! D2    D(1,2,3,11)          -178.0273         estimate D2E/DX2                !
 ! D3    D(5,2,3,4)           -179.3811         estimate D2E/DX2                !
 ! D4    D(5,2,3,11)             0.6144         estimate D2E/DX2                !
 ! D5    D(1,2,5,6)             18.9137         estimate D2E/DX2                !
 ! D6    D(1,2,5,10)          -161.8799         estimate D2E/DX2                !
 ! D7    D(3,2,5,6)           -159.7006         estimate D2E/DX2                !
 ! D8    D(3,2,5,10)            19.5058         estimate D2E/DX2                !
 ! D9    D(2,3,4,12)            40.3571         estimate D2E/DX2                !
 ! D10   D(2,3,4,18)           -79.6429         estimate D2E/DX2                !
 ! D11   D(11,3,4,12)         -139.6386         estimate D2E/DX2                !
 ! D12   D(11,3,4,18)          100.3614         estimate D2E/DX2                !
 ! D13   D(2,5,6,7)            176.5406         estimate D2E/DX2                !
 ! D14   D(2,5,6,13)            -3.4556         estimate D2E/DX2                !
 ! D15   D(10,5,6,7)            -2.6906         estimate D2E/DX2                !
 ! D16   D(10,5,6,13)          177.3132         estimate D2E/DX2                !
 ! D17   D(2,5,10,9)          -176.6814         estimate D2E/DX2                !
 ! D18   D(2,5,10,17)            3.3108         estimate D2E/DX2                !
 ! D19   D(6,5,10,9)             2.5504         estimate D2E/DX2                !
 ! D20   D(6,5,10,17)         -177.4574         estimate D2E/DX2                !
 ! D21   D(5,6,7,8)              0.7615         estimate D2E/DX2                !
 ! D22   D(5,6,7,14)          -179.2416         estimate D2E/DX2                !
 ! D23   D(13,6,7,8)          -179.2423         estimate D2E/DX2                !
 ! D24   D(13,6,7,14)            0.7546         estimate D2E/DX2                !
 ! D25   D(6,7,8,9)              1.3962         estimate D2E/DX2                !
 ! D26   D(6,7,8,15)          -178.5981         estimate D2E/DX2                !
 ! D27   D(14,7,8,9)          -178.6006         estimate D2E/DX2                !
 ! D28   D(14,7,8,15)            1.405          estimate D2E/DX2                !
 ! D29   D(7,8,9,10)            -1.5386         estimate D2E/DX2                !
 ! D30   D(7,8,9,16)           178.4583         estimate D2E/DX2                !
 ! D31   D(15,8,9,10)          178.4558         estimate D2E/DX2                !
 ! D32   D(15,8,9,16)           -1.5473         estimate D2E/DX2                !
 ! D33   D(8,9,10,5)            -0.4732         estimate D2E/DX2                !
 ! D34   D(8,9,10,17)          179.5345         estimate D2E/DX2                !
 ! D35   D(16,9,10,5)          179.5299         estimate D2E/DX2                !
 ! D36   D(16,9,10,17)          -0.4624         estimate D2E/DX2                !
 --------------------------------------------------------------------------------
 Trust Radius=3.00D-01 FncErr=1.00D-07 GrdErr=1.00D-06 EigMax=2.50D+02 EigMin=1.00D-04
 Number of steps in this run=     91 maximum allowed number of steps=    108.
 GradGradGradGradGradGradGradGradGradGradGradGradGradGradGradGradGradGrad

 Leave Link  103 at Mon Dec 30 16:44:09 2019, MaxMem= 10737418240 cpu:               0.2 elap:               0.0
 (Enter /apps/cent7/gaussian/g16-A.03/g16-haswell/g16/l202.exe)
                          Input orientation:                          
 ---------------------------------------------------------------------
 Center     Atomic      Atomic             Coordinates (Angstroms)
 Number     Number       Type             X           Y           Z
 ---------------------------------------------------------------------
      1          8           0       -2.785800    0.203900    0.148700
      2          6           0       -2.114600    1.221500   -0.147000
      3          7           0       -2.770500    2.322200   -0.597900
      4          8           0       -4.068000    2.383300   -0.702400
      5          6           0       -0.694200    1.208100   -0.038400
      6          6           0        0.025800   -0.013200    0.011600
      7          6           0        1.433800   -0.024400    0.046200
      8          6           0        2.147900    1.186100    0.047600
      9          6           0        1.453900    2.407000    0.044100
     10          6           0        0.047800    2.416700    0.006500
     11          1           0       -2.260300    3.149200   -0.873400
     12          1           0       -4.470681    1.956590    0.057446
     13          1           0       -0.512800   -0.960800    0.023600
     14          1           0        1.971900   -0.972000    0.072000
     15          1           0        3.237900    1.178200    0.051300
     16          1           0        2.006300    3.346300    0.070600
     17          1           0       -0.474000    3.373600    0.012100
     18          1           0       -4.345804    1.935995   -1.505110
 ---------------------------------------------------------------------
                    Distance matrix (angstroms):
                    1          2          3          4          5
     1  O    0.000000
     2  C    1.254375   0.000000
     3  N    2.246072   1.358328   0.000000
     4  O    2.667994   2.339662   1.303135   0.000000
     5  C    2.327706   1.424609   2.421834   3.633802   0.000000
     6  C    2.823300   2.476076   3.693897   4.797104   1.418617
     7  C    4.227014   3.765732   4.857729   6.052043   2.460609
     8  C    5.031534   4.267087   5.089013   6.374418   2.843486
     9  C    4.779084   3.765119   4.273747   5.572181   2.461402
    10  C    3.598054   2.475488   2.883929   4.176537   1.418906
    11  H    3.161587   2.065167   1.010016   1.970691   2.630164
    12  H    2.432915   2.476545   1.858431   0.960000   3.851134
    13  H    2.557089   2.712434   4.032563   4.934524   2.177356
    14  H    4.901462   4.643155   5.812992   6.952563   3.445738
    15  H    6.102762   5.356347   6.150696   7.442883   3.933237
    16  H    5.731056   4.641545   4.930871   6.198550   3.446227
    17  H    3.925567   2.710796   2.598356   3.795792   2.177253
    18  H    2.858120   2.707995   1.858431   0.960000   4.001909
                    6          7          8          9         10
     6  C    0.000000
     7  C    1.408470   0.000000
     8  C    2.437811   1.405436   0.000000
     9  C    2.810319   2.431484   1.404366   0.000000
    10  C    2.430005   2.807408   2.434437   1.406636   0.000000
    11  H    4.001281   4.956186   4.912660   3.897172   2.576452
    12  H    4.909228   6.227949   6.663285   5.941693   4.542133
    13  H    1.090037   2.160233   3.418930   3.900052   3.423751
    14  H    2.170311   1.090029   2.165402   3.418588   3.897402
    15  H    3.426164   2.168190   1.090035   2.166254   3.422372
    16  H    3.900269   3.419060   2.164958   1.090015   2.168868
    17  H    3.423480   3.897085   3.414788   2.156882   1.089938
    18  H    5.021025   6.297105   6.718738   6.021500   4.671166
                   11         12         13         14         15
    11  H    0.000000
    12  H    2.678541   0.000000
    13  H    4.555268   4.917025   0.000000
    14  H    5.982440   7.076984   2.485197   0.000000
    15  H    5.913553   7.747784   4.317851   2.495304   0.000000
    16  H    4.374227   6.624406   4.989908   4.318437   2.493565
    17  H    2.006323   4.240688   4.334589   4.987009   4.312716
    18  H    2.494043   1.567673   5.041854   7.131416   7.778768
                   16         17         18
    16  H    0.000000
    17  H    2.481140   0.000000
    18  H    6.694852   4.399943   0.000000
 Stoichiometry    C7H8NO2(1+)
 Framework group  C1[X(C7H8NO2)]
 Deg. of freedom    48
 Full point group                 C1      NOp   1
 Largest Abelian subgroup         C1      NOp   1
 Largest concise Abelian subgroup C1      NOp   1
                         Standard orientation:                         
 ---------------------------------------------------------------------
 Center     Atomic      Atomic             Coordinates (Angstroms)
 Number     Number       Type             X           Y           Z
 ---------------------------------------------------------------------
      1          8           0       -1.654597    1.484667   -0.310858
      2          6           0       -1.177069    0.346432   -0.087595
      3          7           0       -2.033061   -0.677549    0.164986
      4          8           0       -3.328918   -0.540906    0.149459
      5          6           0        0.232955    0.143743   -0.071519
      6          6           0        1.128251    1.231838    0.092696
      7          6           0        2.518055    1.020872    0.180586
      8          6           0        3.039916   -0.280926    0.089842
      9          6           0        2.175084   -1.367704   -0.118061
     10          6           0        0.787060   -1.155900   -0.202636
     11          1           0       -1.683330   -1.600786    0.378189
     12          1           0       -3.582215    0.025475   -0.583107
     13          1           0        0.741162    2.249070    0.152536
     14          1           0        3.191157    1.866990    0.319083
     15          1           0        4.113313   -0.447529    0.180606
     16          1           0        2.580987   -2.374789   -0.213743
     17          1           0        0.131866   -2.010314   -0.371933
     18          1           0       -3.618911   -0.145501    0.974783
 ---------------------------------------------------------------------
 Rotational constants (GHZ):           3.4905008           0.8000397           0.6601412
 Leave Link  202 at Mon Dec 30 16:44:09 2019, MaxMem= 10737418240 cpu:               0.5 elap:               0.0
 (Enter /apps/cent7/gaussian/g16-A.03/g16-haswell/g16/l301.exe)
 Standard basis: 6-311++G(d,p) (5D, 7F)
 Ernie: Thresh=  0.10000D-02 Tol=  0.10000D-05 Strict=F.
 There are   286 symmetry adapted cartesian basis functions of A   symmetry.
 There are   276 symmetry adapted basis functions of A   symmetry.
   276 basis functions,   432 primitive gaussians,   286 cartesian basis functions
    36 alpha electrons       36 beta electrons
       nuclear repulsion energy       502.7727394248 Hartrees.
 IExCor= 4336 DFT=T Ex+Corr=M062X ExCW=0 ScaHFX=  0.540000
 ScaDFX=  1.000000  1.000000  1.000000  1.000000 ScalE2=  1.000000  1.000000
 IRadAn=      5 IRanWt=     -1 IRanGd=            0 ICorTp=0 IEmpDi=  4
 NAtoms=   18 NActive=   18 NUniq=   18 SFac= 1.00D+00 NAtFMM=   60 NAOKFM=F Big=F
 Integral buffers will be    131072 words long.
 Raffenetti 2 integral format.
 Two-electron integral symmetry is turned on.
 Leave Link  301 at Mon Dec 30 16:44:10 2019, MaxMem= 10737418240 cpu:               1.3 elap:               0.1
 (Enter /apps/cent7/gaussian/g16-A.03/g16-haswell/g16/l302.exe)
 NPDir=0 NMtPBC=     1 NCelOv=     1 NCel=       1 NClECP=     1 NCelD=      1
         NCelK=      1 NCelE2=     1 NClLst=     1 CellRange=     0.0.
 One-electron integrals computed using PRISM.
 One-electron integral symmetry used in STVInt
 NBasis=   276 RedAO= T EigKep=  1.09D-06  NBF=   276
 NBsUse=   276 1.00D-06 EigRej= -1.00D+00 NBFU=   276
 Precomputing XC quadrature grid using
 IXCGrd= 4 IRadAn=           5 IRanWt=          -1 IRanGd=           0 AccXCQ= 0.00D+00.
 Generated NRdTot=       0 NPtTot=           0 NUsed=           0 NTot=          32
 NSgBfM=   286   286   286   286   286 MxSgAt=    18 MxSgA2=    18.
 Leave Link  302 at Mon Dec 30 16:44:10 2019, MaxMem= 10737418240 cpu:               4.2 elap:               0.2
 (Enter /apps/cent7/gaussian/g16-A.03/g16-haswell/g16/l303.exe)
 DipDrv:  MaxL=1.
 Leave Link  303 at Mon Dec 30 16:44:10 2019, MaxMem= 10737418240 cpu:               1.5 elap:               0.1
 (Enter /apps/cent7/gaussian/g16-A.03/g16-haswell/g16/l401.exe)
 ExpMin= 3.60D-02 ExpMax= 8.59D+03 ExpMxC= 1.30D+03 IAcc=3 IRadAn=         5 AccDes= 0.00D+00
 Harris functional with IExCor= 1009 and IRadAn=       5 diagonalized for initial guess.
 HarFok:  IExCor= 1009 AccDes= 0.00D+00 IRadAn=         5 IDoV= 1 UseB2=F ITyADJ=14
 ICtDFT=  3500011 ScaDFX=  1.000000  1.000000  1.000000  1.000000
 FoFCou: FMM=F IPFlag=           0 FMFlag=      100000 FMFlg1=           0
         NFxFlg=           0 DoJE=T BraDBF=F KetDBF=T FulRan=T
         wScrn=  0.000000 ICntrl=       500 IOpCl=  0 I1Cent=   200000004 NGrid=           0
         NMat0=    1 NMatS0=      1 NMatT0=    0 NMatD0=    1 NMtDS0=    0 NMtDT0=    0
 Petite list used in FoFCou.
 Harris En= -476.162038399426    
 JPrj=0 DoOrth=F DoCkMO=F.
 Leave Link  401 at Mon Dec 30 16:44:10 2019, MaxMem= 10737418240 cpu:              11.3 elap:               0.5
 (Enter /apps/cent7/gaussian/g16-A.03/g16-haswell/g16/l502.exe)
 Integral symmetry usage will be decided dynamically.
 Closed shell SCF:
 Using DIIS extrapolation, IDIIS=  1040.
 NGot= 10737418240 LenX= 10737244998 LenY= 10737162761
 Requested convergence on RMS density matrix=1.00D-08 within 128 cycles.
 Requested convergence on MAX density matrix=1.00D-06.
 Requested convergence on             energy=1.00D-06.
 No special actions if energy rises.
 Fock matrices will be formed incrementally for  20 cycles.

 Cycle   1  Pass 1  IDiag  1:
 FoFJK:  IHMeth= 1 ICntrl=       0 DoSepK=F KAlg= 0 I1Cent=           0 FoldK=F
 IRaf= 920000000 NMat=       1 IRICut=       1 DoRegI=T DoRafI=F ISym2E= 0 IDoP0=0 IntGTp=1.
 FoFCou: FMM=F IPFlag=           0 FMFlag=      100000 FMFlg1=           0
         NFxFlg=           0 DoJE=F BraDBF=F KetDBF=F FulRan=T
         wScrn=  0.000000 ICntrl=         0 IOpCl=  0 I1Cent=           0 NGrid=           0
         NMat0=    1 NMatS0=      1 NMatT0=    0 NMatD0=    1 NMtDS0=    0 NMtDT0=    0
 Symmetry not used in FoFCou.
 E= -476.031839646894    
 DIIS: error= 3.30D-02 at cycle   1 NSaved=   1.
 NSaved= 1 IEnMin= 1 EnMin= -476.031839646894     IErMin= 1 ErrMin= 3.30D-02
 ErrMax= 3.30D-02  0.00D+00 EMaxC= 1.00D-01 BMatC= 3.44D-01 BMatP= 3.44D-01
 IDIUse=3 WtCom= 6.70D-01 WtEn= 3.30D-01
 Coeff-Com:  0.100D+01
 Coeff-En:   0.100D+01
 Coeff:      0.100D+01
 Gap=     0.498 Goal=   None    Shift=    0.000
 GapD=    0.498 DampG=2.000 DampE=0.500 DampFc=1.0000 IDamp=-1.
 RMSDP=6.93D-02 MaxDP=7.71D+00              OVMax= 2.43D-01

 Cycle   2  Pass 1  IDiag  1:
 RMSU=  6.78D-02    CP:  1.23D+00
 E= -475.924139129641     Delta-E=        0.107700517253 Rises=F Damp=F
 DIIS: error= 3.53D-02 at cycle   2 NSaved=   2.
 NSaved= 2 IEnMin= 1 EnMin= -476.031839646894     IErMin= 1 ErrMin= 3.30D-02
 ErrMax= 3.53D-02  0.00D+00 EMaxC= 1.00D-01 BMatC= 4.67D-01 BMatP= 3.44D-01
 IDIUse=2 WtCom= 0.00D+00 WtEn= 1.00D+00
 Coeff-En:   0.584D+00 0.416D+00
 Coeff:      0.584D+00 0.416D+00
 Gap=     0.208 Goal=   None    Shift=    0.000
 RMSDP=5.09D-02 MaxDP=5.71D+00 DE= 1.08D-01 OVMax= 1.81D-01

 Cycle   3  Pass 1  IDiag  1:
 RMSU=  1.30D-02    CP:  1.00D+00  3.06D-01
 E= -476.294160817266     Delta-E=       -0.370021687625 Rises=F Damp=F
 DIIS: error= 7.82D-03 at cycle   3 NSaved=   3.
 NSaved= 3 IEnMin= 3 EnMin= -476.294160817266     IErMin= 3 ErrMin= 7.82D-03
 ErrMax= 7.82D-03  0.00D+00 EMaxC= 1.00D-01 BMatC= 1.72D-02 BMatP= 3.44D-01
 IDIUse=3 WtCom= 9.22D-01 WtEn= 7.82D-02
 Coeff-Com:  0.135D+00 0.168D+00 0.697D+00
 Coeff-En:   0.000D+00 0.000D+00 0.100D+01
 Coeff:      0.124D+00 0.155D+00 0.721D+00
 Gap=     0.265 Goal=   None    Shift=    0.000
 RMSDP=3.64D-03 MaxDP=2.03D-01 DE=-3.70D-01 OVMax= 5.31D-02

 Cycle   4  Pass 1  IDiag  1:
 RMSU=  3.13D-03    CP:  9.91D-01  2.84D-01  9.25D-01
 E= -476.304861614136     Delta-E=       -0.010700796870 Rises=F Damp=F
 DIIS: error= 3.76D-03 at cycle   4 NSaved=   4.
 NSaved= 4 IEnMin= 4 EnMin= -476.304861614136     IErMin= 4 ErrMin= 3.76D-03
 ErrMax= 3.76D-03  0.00D+00 EMaxC= 1.00D-01 BMatC= 4.51D-03 BMatP= 1.72D-02
 IDIUse=3 WtCom= 9.62D-01 WtEn= 3.76D-02
 Coeff-Com:  0.943D-02 0.224D-01 0.355D+00 0.613D+00
 Coeff-En:   0.000D+00 0.000D+00 0.196D+00 0.804D+00
 Coeff:      0.907D-02 0.215D-01 0.349D+00 0.620D+00
 Gap=     0.247 Goal=   None    Shift=    0.000
 RMSDP=2.58D-03 MaxDP=2.57D-01 DE=-1.07D-02 OVMax= 1.65D-02

 Cycle   5  Pass 1  IDiag  1:
 RMSU=  1.64D-03    CP:  9.68D-01  2.89D-01  9.90D-01  6.89D-01
 E= -476.308757195668     Delta-E=       -0.003895581532 Rises=F Damp=F
 DIIS: error= 4.88D-04 at cycle   5 NSaved=   5.
 NSaved= 5 IEnMin= 5 EnMin= -476.308757195668     IErMin= 5 ErrMin= 4.88D-04
 ErrMax= 4.88D-04  0.00D+00 EMaxC= 1.00D-01 BMatC= 1.08D-04 BMatP= 4.51D-03
 IDIUse=3 WtCom= 9.95D-01 WtEn= 4.88D-03
 Coeff-Com: -0.592D-02-0.426D-02 0.764D-01 0.203D+00 0.730D+00
 Coeff-En:   0.000D+00 0.000D+00 0.000D+00 0.000D+00 0.100D+01
 Coeff:     -0.589D-02-0.424D-02 0.760D-01 0.202D+00 0.732D+00
 Gap=     0.248 Goal=   None    Shift=    0.000
 RMSDP=4.60D-04 MaxDP=3.63D-02 DE=-3.90D-03 OVMax= 3.36D-03

 Cycle   6  Pass 1  IDiag  1:
 RMSU=  2.82D-04    CP:  9.73D-01  2.88D-01  9.96D-01  7.39D-01  8.96D-01
 E= -476.308864249529     Delta-E=       -0.000107053861 Rises=F Damp=F
 DIIS: error= 1.65D-04 at cycle   6 NSaved=   6.
 NSaved= 6 IEnMin= 6 EnMin= -476.308864249529     IErMin= 6 ErrMin= 1.65D-04
 ErrMax= 1.65D-04  0.00D+00 EMaxC= 1.00D-01 BMatC= 9.67D-06 BMatP= 1.08D-04
 IDIUse=3 WtCom= 9.98D-01 WtEn= 1.65D-03
 Coeff-Com: -0.162D-02-0.322D-02-0.235D-02 0.833D-02 0.205D+00 0.794D+00
 Coeff-En:   0.000D+00 0.000D+00 0.000D+00 0.000D+00 0.000D+00 0.100D+01
 Coeff:     -0.162D-02-0.321D-02-0.235D-02 0.832D-02 0.205D+00 0.794D+00
 Gap=     0.248 Goal=   None    Shift=    0.000
 RMSDP=1.63D-04 MaxDP=1.49D-02 DE=-1.07D-04 OVMax= 1.65D-03

 Cycle   7  Pass 1  IDiag  1:
 RMSU=  9.96D-05    CP:  9.74D-01  2.87D-01  1.00D+00  7.38D-01  9.27D-01
                    CP:  1.08D+00
 E= -476.308877190851     Delta-E=       -0.000012941323 Rises=F Damp=F
 DIIS: error= 1.06D-04 at cycle   7 NSaved=   7.
 NSaved= 7 IEnMin= 7 EnMin= -476.308877190851     IErMin= 7 ErrMin= 1.06D-04
 ErrMax= 1.06D-04  0.00D+00 EMaxC= 1.00D-01 BMatC= 2.27D-06 BMatP= 9.67D-06
 IDIUse=3 WtCom= 9.99D-01 WtEn= 1.06D-03
 Coeff-Com:  0.210D-03-0.119D-02-0.117D-01-0.297D-01-0.395D-01 0.297D+00
 Coeff-Com:  0.785D+00
 Coeff-En:   0.000D+00 0.000D+00 0.000D+00 0.000D+00 0.000D+00 0.000D+00
 Coeff-En:   0.100D+01
 Coeff:      0.210D-03-0.118D-02-0.117D-01-0.297D-01-0.395D-01 0.296D+00
 Coeff:      0.786D+00
 Gap=     0.248 Goal=   None    Shift=    0.000
 RMSDP=5.22D-05 MaxDP=3.39D-03 DE=-1.29D-05 OVMax= 6.20D-04

 Cycle   8  Pass 1  IDiag  1:
 RMSU=  2.79D-05    CP:  9.74D-01  2.87D-01  1.00D+00  7.35D-01  9.37D-01
                    CP:  1.15D+00  1.08D+00
 E= -476.308879921780     Delta-E=       -0.000002730928 Rises=F Damp=F
 DIIS: error= 6.45D-05 at cycle   8 NSaved=   8.
 NSaved= 8 IEnMin= 8 EnMin= -476.308879921780     IErMin= 8 ErrMin= 6.45D-05
 ErrMax= 6.45D-05  0.00D+00 EMaxC= 1.00D-01 BMatC= 4.48D-07 BMatP= 2.27D-06
 IDIUse=1 WtCom= 1.00D+00 WtEn= 0.00D+00
 Coeff-Com:  0.282D-03-0.368D-03-0.510D-02-0.162D-01-0.451D-01 0.615D-01
 Coeff-Com:  0.388D+00 0.617D+00
 Coeff:      0.282D-03-0.368D-03-0.510D-02-0.162D-01-0.451D-01 0.615D-01
 Coeff:      0.388D+00 0.617D+00
 Gap=     0.248 Goal=   None    Shift=    0.000
 RMSDP=1.66D-05 MaxDP=8.80D-04 DE=-2.73D-06 OVMax= 2.83D-04

 Cycle   9  Pass 1  IDiag  1:
 RMSU=  1.00D-05    CP:  9.74D-01  2.87D-01  1.00D+00  7.35D-01  9.43D-01
                    CP:  1.17D+00  1.10D+00  9.79D-01
 E= -476.308880419835     Delta-E=       -0.000000498055 Rises=F Damp=F
 DIIS: error= 1.23D-05 at cycle   9 NSaved=   9.
 NSaved= 9 IEnMin= 9 EnMin= -476.308880419835     IErMin= 9 ErrMin= 1.23D-05
 ErrMax= 1.23D-05  0.00D+00 EMaxC= 1.00D-01 BMatC= 3.12D-08 BMatP= 4.48D-07
 IDIUse=1 WtCom= 1.00D+00 WtEn= 0.00D+00
 Coeff-Com:  0.654D-04 0.268D-04 0.758D-03 0.206D-03-0.570D-02-0.238D-01
 Coeff-Com: -0.245D-01 0.169D+00 0.884D+00
 Coeff:      0.654D-04 0.268D-04 0.758D-03 0.206D-03-0.570D-02-0.238D-01
 Coeff:     -0.245D-01 0.169D+00 0.884D+00
 Gap=     0.248 Goal=   None    Shift=    0.000
 RMSDP=9.86D-06 MaxDP=8.02D-04 DE=-4.98D-07 OVMax= 8.39D-05

 Cycle  10  Pass 1  IDiag  1:
 RMSU=  4.16D-06    CP:  9.74D-01  2.87D-01  1.00D+00  7.34D-01  9.40D-01
                    CP:  1.18D+00  1.13D+00  1.09D+00  8.41D-01
 E= -476.308880456589     Delta-E=       -0.000000036754 Rises=F Damp=F
 DIIS: error= 4.33D-06 at cycle  10 NSaved=  10.
 NSaved=10 IEnMin=10 EnMin= -476.308880456589     IErMin=10 ErrMin= 4.33D-06
 ErrMax= 4.33D-06  0.00D+00 EMaxC= 1.00D-01 BMatC= 3.29D-09 BMatP= 3.12D-08
 IDIUse=1 WtCom= 1.00D+00 WtEn= 0.00D+00
 Coeff-Com:  0.936D-05 0.290D-04 0.613D-03 0.983D-03 0.173D-03-0.142D-01
 Coeff-Com: -0.358D-01 0.277D-01 0.362D+00 0.659D+00
 Coeff:      0.936D-05 0.290D-04 0.613D-03 0.983D-03 0.173D-03-0.142D-01
 Coeff:     -0.358D-01 0.277D-01 0.362D+00 0.659D+00
 Gap=     0.248 Goal=   None    Shift=    0.000
 RMSDP=1.81D-06 MaxDP=1.30D-04 DE=-3.68D-08 OVMax= 1.76D-05

 Cycle  11  Pass 1  IDiag  1:
 RMSU=  8.22D-07    CP:  9.74D-01  2.87D-01  1.00D+00  7.34D-01  9.40D-01
                    CP:  1.18D+00  1.14D+00  1.10D+00  8.51D-01  1.01D+00
 E= -476.308880459764     Delta-E=       -0.000000003175 Rises=F Damp=F
 DIIS: error= 1.89D-06 at cycle  11 NSaved=  11.
 NSaved=11 IEnMin=11 EnMin= -476.308880459764     IErMin=11 ErrMin= 1.89D-06
 ErrMax= 1.89D-06  0.00D+00 EMaxC= 1.00D-01 BMatC= 2.76D-10 BMatP= 3.29D-09
 IDIUse=1 WtCom= 1.00D+00 WtEn= 0.00D+00
 Coeff-Com: -0.359D-05 0.495D-05 0.140D-03 0.310D-03 0.809D-03-0.170D-02
 Coeff-Com: -0.783D-02-0.108D-01 0.999D-02 0.226D+00 0.783D+00
 Coeff:     -0.359D-05 0.495D-05 0.140D-03 0.310D-03 0.809D-03-0.170D-02
 Coeff:     -0.783D-02-0.108D-01 0.999D-02 0.226D+00 0.783D+00
 Gap=     0.248 Goal=   None    Shift=    0.000
 RMSDP=5.10D-07 MaxDP=3.02D-05 DE=-3.18D-09 OVMax= 1.12D-05

 Cycle  12  Pass 1  IDiag  1:
 RMSU=  2.96D-07    CP:  9.74D-01  2.87D-01  1.00D+00  7.34D-01  9.40D-01
                    CP:  1.18D+00  1.14D+00  1.10D+00  8.54D-01  1.06D+00
                    CP:  1.01D+00
 E= -476.308880460063     Delta-E=       -0.000000000299 Rises=F Damp=F
 DIIS: error= 5.68D-07 at cycle  12 NSaved=  12.
 NSaved=12 IEnMin=12 EnMin= -476.308880460063     IErMin=12 ErrMin= 5.68D-07
 ErrMax= 5.68D-07  0.00D+00 EMaxC= 1.00D-01 BMatC= 5.44D-11 BMatP= 2.76D-10
 IDIUse=1 WtCom= 1.00D+00 WtEn= 0.00D+00
 Coeff-Com: -0.224D-05-0.480D-06 0.127D-04 0.586D-04 0.439D-03 0.671D-03
 Coeff-Com: -0.234D-03-0.898D-02-0.352D-01 0.493D-01 0.388D+00 0.605D+00
 Coeff:     -0.224D-05-0.480D-06 0.127D-04 0.586D-04 0.439D-03 0.671D-03
 Coeff:     -0.234D-03-0.898D-02-0.352D-01 0.493D-01 0.388D+00 0.605D+00
 Gap=     0.248 Goal=   None    Shift=    0.000
 RMSDP=2.25D-07 MaxDP=1.80D-05 DE=-2.99D-10 OVMax= 3.49D-06

 Cycle  13  Pass 1  IDiag  1:
 RMSU=  1.08D-07    CP:  9.74D-01  2.87D-01  1.00D+00  7.34D-01  9.40D-01
                    CP:  1.18D+00  1.14D+00  1.10D+00  8.50D-01  1.08D+00
                    CP:  1.14D+00  9.79D-01
 E= -476.308880460122     Delta-E=       -0.000000000059 Rises=F Damp=F
 DIIS: error= 1.58D-07 at cycle  13 NSaved=  13.
 NSaved=13 IEnMin=13 EnMin= -476.308880460122     IErMin=13 ErrMin= 1.58D-07
 ErrMax= 1.58D-07  0.00D+00 EMaxC= 1.00D-01 BMatC= 3.74D-12 BMatP= 5.44D-11
 IDIUse=1 WtCom= 1.00D+00 WtEn= 0.00D+00
 Coeff-Com: -0.202D-06-0.127D-05-0.132D-04-0.289D-04 0.108D-04 0.343D-03
 Coeff-Com:  0.950D-03-0.105D-02-0.119D-01-0.164D-01 0.199D-02 0.184D+00
 Coeff-Com:  0.842D+00
 Coeff:     -0.202D-06-0.127D-05-0.132D-04-0.289D-04 0.108D-04 0.343D-03
 Coeff:      0.950D-03-0.105D-02-0.119D-01-0.164D-01 0.199D-02 0.184D+00
 Coeff:      0.842D+00
 Gap=     0.248 Goal=   None    Shift=    0.000
 RMSDP=8.61D-08 MaxDP=8.72D-06 DE=-5.93D-11 OVMax= 1.68D-06

 Cycle  14  Pass 1  IDiag  1:
 RMSU=  4.36D-08    CP:  9.74D-01  2.87D-01  1.00D+00  7.34D-01  9.40D-01
                    CP:  1.18D+00  1.14D+00  1.10D+00  8.49D-01  1.09D+00
                    CP:  1.16D+00  1.10D+00  1.14D+00
 E= -476.308880460119     Delta-E=        0.000000000003 Rises=F Damp=F
 DIIS: error= 3.56D-08 at cycle  14 NSaved=  14.
 NSaved=14 IEnMin=13 EnMin= -476.308880460122     IErMin=14 ErrMin= 3.56D-08
 ErrMax= 3.56D-08  0.00D+00 EMaxC= 1.00D-01 BMatC= 3.41D-13 BMatP= 3.74D-12
 IDIUse=1 WtCom= 1.00D+00 WtEn= 0.00D+00
 Coeff-Com:  0.369D-07-0.345D-06-0.300D-05-0.100D-04-0.201D-04 0.235D-04
 Coeff-Com:  0.213D-03 0.345D-03-0.535D-03-0.680D-02-0.248D-01 0.261D-02
 Coeff-Com:  0.263D+00 0.766D+00
 Coeff:      0.369D-07-0.345D-06-0.300D-05-0.100D-04-0.201D-04 0.235D-04
 Coeff:      0.213D-03 0.345D-03-0.535D-03-0.680D-02-0.248D-01 0.261D-02
 Coeff:      0.263D+00 0.766D+00
 Gap=     0.248 Goal=   None    Shift=    0.000
 RMSDP=2.74D-08 MaxDP=2.15D-06 DE= 3.07D-12 OVMax= 3.42D-07

 Cycle  15  Pass 1  IDiag  1:
 RMSU=  7.72D-09    CP:  9.74D-01  2.87D-01  1.00D+00  7.34D-01  9.40D-01
                    CP:  1.18D+00  1.14D+00  1.10D+00  8.48D-01  1.09D+00
                    CP:  1.17D+00  1.12D+00  1.22D+00  1.05D+00
 E= -476.308880460123     Delta-E=       -0.000000000004 Rises=F Damp=F
 DIIS: error= 1.97D-08 at cycle  15 NSaved=  15.
 NSaved=15 IEnMin=15 EnMin= -476.308880460123     IErMin=15 ErrMin= 1.97D-08
 ErrMax= 1.97D-08  0.00D+00 EMaxC= 1.00D-01 BMatC= 5.63D-14 BMatP= 3.41D-13
 IDIUse=1 WtCom= 1.00D+00 WtEn= 0.00D+00
 Coeff-Com:  0.524D-07 0.638D-07 0.569D-06-0.332D-07-0.865D-05-0.419D-04
 Coeff-Com: -0.476D-04 0.316D-03 0.155D-02-0.153D-03-0.103D-01-0.336D-01
 Coeff-Com: -0.296D-01 0.294D+00 0.778D+00
 Coeff:      0.524D-07 0.638D-07 0.569D-06-0.332D-07-0.865D-05-0.419D-04
 Coeff:     -0.476D-04 0.316D-03 0.155D-02-0.153D-03-0.103D-01-0.336D-01
 Coeff:     -0.296D-01 0.294D+00 0.778D+00
 Gap=     0.248 Goal=   None    Shift=    0.000
 RMSDP=1.06D-08 MaxDP=7.26D-07 DE=-4.21D-12 OVMax= 2.33D-07

 Cycle  16  Pass 1  IDiag  1:
 RMSU=  4.22D-09    CP:  9.74D-01  2.87D-01  1.00D+00  7.34D-01  9.40D-01
                    CP:  1.18D+00  1.14D+00  1.10D+00  8.48D-01  1.09D+00
                    CP:  1.17D+00  1.13D+00  1.26D+00  1.10D+00  1.27D+00
 E= -476.308880460127     Delta-E=       -0.000000000004 Rises=F Damp=F
 DIIS: error= 6.13D-09 at cycle  16 NSaved=  16.
 NSaved=16 IEnMin=16 EnMin= -476.308880460127     IErMin=16 ErrMin= 6.13D-09
 ErrMax= 6.13D-09  0.00D+00 EMaxC= 1.00D-01 BMatC= 3.90D-15 BMatP= 5.63D-14
 IDIUse=1 WtCom= 1.00D+00 WtEn= 0.00D+00
 Coeff-Com: -0.417D-08 0.554D-07 0.334D-06 0.105D-05 0.141D-05-0.850D-05
 Coeff-Com: -0.252D-04-0.307D-05 0.160D-03 0.918D-03 0.215D-02-0.336D-02
 Coeff-Com: -0.297D-01-0.832D-01 0.516D-01 0.106D+01
 Coeff:     -0.417D-08 0.554D-07 0.334D-06 0.105D-05 0.141D-05-0.850D-05
 Coeff:     -0.252D-04-0.307D-05 0.160D-03 0.918D-03 0.215D-02-0.336D-02
 Coeff:     -0.297D-01-0.832D-01 0.516D-01 0.106D+01
 Gap=     0.248 Goal=   None    Shift=    0.000
 RMSDP=3.59D-09 MaxDP=2.25D-07 DE=-3.98D-12 OVMax= 1.04D-07

 SCF Done:  E(RM062X) =  -476.308880460     A.U. after   16 cycles
            NFock= 16  Conv=0.36D-08     -V/T= 2.0035
 KE= 4.746429406161D+02 PE=-2.104786031715D+03 EE= 6.510614712135D+02
 Leave Link  502 at Mon Dec 30 16:44:26 2019, MaxMem= 10737418240 cpu:             360.9 elap:              15.1
 (Enter /apps/cent7/gaussian/g16-A.03/g16-haswell/g16/l601.exe)
 Copying SCF densities to generalized density rwf, IOpCl= 0 IROHF=0.

 **********************************************************************

            Population analysis using the SCF density.

 **********************************************************************

 Orbital symmetries:
       Occupied  (A) (A) (A) (A) (A) (A) (A) (A) (A) (A) (A) (A)
                 (A) (A) (A) (A) (A) (A) (A) (A) (A) (A) (A) (A)
                 (A) (A) (A) (A) (A) (A) (A) (A) (A) (A) (A) (A)
       Virtual   (A) (A) (A) (A) (A) (A) (A) (A) (A) (A) (A) (A)
                 (A) (A) (A) (A) (A) (A) (A) (A) (A) (A) (A) (A)
                 (A) (A) (A) (A) (A) (A) (A) (A) (A) (A) (A) (A)
                 (A) (A) (A) (A) (A) (A) (A) (A) (A) (A) (A) (A)
                 (A) (A) (A) (A) (A) (A) (A) (A) (A) (A) (A) (A)
                 (A) (A) (A) (A) (A) (A) (A) (A) (A) (A) (A) (A)
                 (A) (A) (A) (A) (A) (A) (A) (A) (A) (A) (A) (A)
                 (A) (A) (A) (A) (A) (A) (A) (A) (A) (A) (A) (A)
                 (A) (A) (A) (A) (A) (A) (A) (A) (A) (A) (A) (A)
                 (A) (A) (A) (A) (A) (A) (A) (A) (A) (A) (A) (A)
                 (A) (A) (A) (A) (A) (A) (A) (A) (A) (A) (A) (A)
                 (A) (A) (A) (A) (A) (A) (A) (A) (A) (A) (A) (A)
                 (A) (A) (A) (A) (A) (A) (A) (A) (A) (A) (A) (A)
                 (A) (A) (A) (A) (A) (A) (A) (A) (A) (A) (A) (A)
                 (A) (A) (A) (A) (A) (A) (A) (A) (A) (A) (A) (A)
                 (A) (A) (A) (A) (A) (A) (A) (A) (A) (A) (A) (A)
                 (A) (A) (A) (A) (A) (A) (A) (A) (A) (A) (A) (A)
                 (A) (A) (A) (A) (A) (A) (A) (A) (A) (A) (A) (A)
                 (A) (A) (A) (A) (A) (A) (A) (A) (A) (A) (A) (A)
                 (A) (A) (A) (A) (A) (A) (A) (A) (A) (A) (A) (A)
 The electronic state is 1-A.
 Alpha  occ. eigenvalues --  -20.06382 -19.78142 -15.05858 -10.84538 -10.71329
 Alpha  occ. eigenvalues --  -10.70782 -10.69804 -10.68973 -10.68792 -10.68427
 Alpha  occ. eigenvalues --   -1.63575  -1.34226  -1.23926  -1.10777  -1.04198
 Alpha  occ. eigenvalues --   -1.03463  -0.98686  -0.97999  -0.92300  -0.86809
 Alpha  occ. eigenvalues --   -0.82910  -0.79649  -0.76116  -0.70854  -0.69537
 Alpha  occ. eigenvalues --   -0.68451  -0.65102  -0.64487  -0.62631  -0.57830
 Alpha  occ. eigenvalues --   -0.56220  -0.55171  -0.54311  -0.52692  -0.45455
 Alpha  occ. eigenvalues --   -0.44580
 Alpha virt. eigenvalues --   -0.19787  -0.18088  -0.14127  -0.13324  -0.12148
 Alpha virt. eigenvalues --   -0.09600  -0.08415  -0.07666  -0.07051  -0.06600
 Alpha virt. eigenvalues --   -0.06460  -0.05554  -0.05332  -0.04347  -0.03868
 Alpha virt. eigenvalues --   -0.03410  -0.01794  -0.01322  -0.01117  -0.00694
 Alpha virt. eigenvalues --   -0.00188   0.01022   0.01556   0.02819   0.03170
 Alpha virt. eigenvalues --    0.03334   0.03602   0.04383   0.04493   0.04749
 Alpha virt. eigenvalues --    0.04866   0.05172   0.05951   0.06508   0.07209
 Alpha virt. eigenvalues --    0.07863   0.08980   0.09343   0.09778   0.09896
 Alpha virt. eigenvalues --    0.10339   0.11154   0.11405   0.12341   0.12552
 Alpha virt. eigenvalues --    0.12884   0.14120   0.14747   0.15564   0.16463
 Alpha virt. eigenvalues --    0.17034   0.17775   0.17927   0.18521   0.19084
 Alpha virt. eigenvalues --    0.19144   0.19963   0.20863   0.22490   0.23739
 Alpha virt. eigenvalues --    0.25105   0.25782   0.26401   0.26908   0.27903
 Alpha virt. eigenvalues --    0.31655   0.31802   0.34778   0.36178   0.40334
 Alpha virt. eigenvalues --    0.40893   0.43177   0.43812   0.45207   0.46661
 Alpha virt. eigenvalues --    0.46731   0.47610   0.48455   0.49048   0.50682
 Alpha virt. eigenvalues --    0.52072   0.52909   0.53941   0.54689   0.56111
 Alpha virt. eigenvalues --    0.57192   0.59443   0.60953   0.63069   0.65135
 Alpha virt. eigenvalues --    0.65310   0.67462   0.69870   0.71781   0.72891
 Alpha virt. eigenvalues --    0.73057   0.74369   0.75390   0.76226   0.77116
 Alpha virt. eigenvalues --    0.78623   0.79620   0.79973   0.80680   0.81803
 Alpha virt. eigenvalues --    0.82169   0.83747   0.88237   0.90220   0.93196
 Alpha virt. eigenvalues --    0.94648   0.94916   0.95307   0.99234   0.99993
 Alpha virt. eigenvalues --    1.02971   1.04505   1.06505   1.07028   1.08583
 Alpha virt. eigenvalues --    1.11865   1.15165   1.18021   1.22470   1.28185
 Alpha virt. eigenvalues --    1.31502   1.35668   1.38535   1.39960   1.41039
 Alpha virt. eigenvalues --    1.42093   1.42164   1.45924   1.47777   1.48455
 Alpha virt. eigenvalues --    1.50022   1.52337   1.53297   1.54972   1.55860
 Alpha virt. eigenvalues --    1.57099   1.60720   1.65135   1.65592   1.66295
 Alpha virt. eigenvalues --    1.67599   1.69903   1.73032   1.73668   1.76046
 Alpha virt. eigenvalues --    1.79441   1.80475   1.82403   1.83888   1.84375
 Alpha virt. eigenvalues --    1.86464   1.88641   1.89155   1.91213   1.93655
 Alpha virt. eigenvalues --    1.96247   1.96834   2.00067   2.07531   2.12883
 Alpha virt. eigenvalues --    2.14116   2.19947   2.22252   2.27050   2.29734
 Alpha virt. eigenvalues --    2.34283   2.35566   2.37533   2.38016   2.39642
 Alpha virt. eigenvalues --    2.43983   2.48862   2.53203   2.57961   2.59209
 Alpha virt. eigenvalues --    2.60798   2.61086   2.63166   2.64802   2.65471
 Alpha virt. eigenvalues --    2.67519   2.68809   2.71635   2.73376   2.75449
 Alpha virt. eigenvalues --    2.78030   2.79029   2.81070   2.82291   2.84082
 Alpha virt. eigenvalues --    2.87762   2.96983   2.99094   3.05128   3.07736
 Alpha virt. eigenvalues --    3.10410   3.12064   3.17415   3.22486   3.24002
 Alpha virt. eigenvalues --    3.27929   3.34073   3.39615   3.42385   3.42977
 Alpha virt. eigenvalues --    3.47964   3.52437   3.54448   3.58263   3.77646
 Alpha virt. eigenvalues --    3.79565   3.89846   3.94381   4.03939   4.05254
 Alpha virt. eigenvalues --    4.22124   4.35135   4.68732   4.77912   4.99738
 Alpha virt. eigenvalues --    5.01510   5.18257   5.41094   5.61895   5.84259
 Alpha virt. eigenvalues --   23.54766  23.78871  23.87022  23.88899  23.95557
 Alpha virt. eigenvalues --   23.98452  24.07565  35.42736  49.67892  49.95239
          Condensed to atoms (all electrons):
               1          2          3          4          5          6
     1  O    8.088805   0.392945  -0.288362   0.121468   0.040580  -0.069985
     2  C    0.392945  15.940351   0.096394   0.015794  -7.891303   0.133525
     3  N   -0.288362   0.096394   9.016848  -0.630699  -1.025782  -0.241211
     4  O    0.121468   0.015794  -0.630699   7.441941   0.326712  -0.028326
     5  C    0.040580  -7.891303  -1.025782   0.326712  18.412734  -4.881614
     6  C   -0.069985   0.133525  -0.241211  -0.028326  -4.881614  17.839497
     7  C    0.077048  -0.154128   0.095385   0.010308   2.457596  -4.503096
     8  C   -0.012480  -0.169897  -0.044818  -0.007179  -1.701906   1.952188
     9  C    0.014451   0.819364  -0.043319   0.026681   1.494574  -1.101139
    10  C   -0.039715  -2.650532   0.214026  -0.071917  -2.733284  -2.696758
    11  H    0.009913  -0.003948   0.229494   0.034808   0.153358   0.023610
    12  H    0.006573   0.006334  -0.047343   0.312040   0.027296   0.014613
    13  H   -0.008211  -0.126872  -0.016580  -0.000001   0.023119   0.464616
    14  H    0.000792   0.012017   0.001214   0.000113   0.027234  -0.040912
    15  H   -0.000138  -0.019424  -0.000482  -0.000044   0.013330  -0.004185
    16  H    0.000300   0.014441  -0.002033   0.000618   0.030926   0.039872
    17  H   -0.007877  -0.041145   0.017578  -0.009427  -0.231497  -0.065060
    18  H   -0.020317  -0.013805   0.058702   0.277793  -0.029002  -0.023575
               7          8          9         10         11         12
     1  O    0.077048  -0.012480   0.014451  -0.039715   0.009913   0.006573
     2  C   -0.154128  -0.169897   0.819364  -2.650532  -0.003948   0.006334
     3  N    0.095385  -0.044818  -0.043319   0.214026   0.229494  -0.047343
     4  O    0.010308  -0.007179   0.026681  -0.071917   0.034808   0.312040
     5  C    2.457596  -1.701906   1.494574  -2.733284   0.153358   0.027296
     6  C   -4.503096   1.952188  -1.101139  -2.696758   0.023610   0.014613
     7  C    8.891351  -1.526889   1.769138  -1.394334   0.015945  -0.001083
     8  C   -1.526889   7.217637  -1.548590   1.886702  -0.015218   0.000528
     9  C    1.769138  -1.548590  10.258331  -5.982371   0.031886  -0.005225
    10  C   -1.394334   1.886702  -5.982371  19.680698  -0.150025  -0.015878
    11  H    0.015945  -0.015218   0.031886  -0.150025   0.330348  -0.004023
    12  H   -0.001083   0.000528  -0.005225  -0.015878  -0.004023   0.321968
    13  H   -0.133987   0.049538  -0.059162   0.124072  -0.001406   0.000231
    14  H    0.358582  -0.015125   0.007428  -0.019371   0.000248   0.000008
    15  H   -0.007993   0.361839  -0.030239   0.027361  -0.000280  -0.000005
    16  H   -0.019096   0.020151   0.369246  -0.127597   0.001246  -0.000013
    17  H   -0.010120   0.018832  -0.141526   0.769143   0.000049   0.001117
    18  H    0.002201  -0.000633  -0.002908   0.026848  -0.007717  -0.025496
              13         14         15         16         17         18
     1  O   -0.008211   0.000792  -0.000138   0.000300  -0.007877  -0.020317
     2  C   -0.126872   0.012017  -0.019424   0.014441  -0.041145  -0.013805
     3  N   -0.016580   0.001214  -0.000482  -0.002033   0.017578   0.058702
     4  O   -0.000001   0.000113  -0.000044   0.000618  -0.009427   0.277793
     5  C    0.023119   0.027234   0.013330   0.030926  -0.231497  -0.029002
     6  C    0.464616  -0.040912  -0.004185   0.039872  -0.065060  -0.023575
     7  C   -0.133987   0.358582  -0.007993  -0.019096  -0.010120   0.002201
     8  C    0.049538  -0.015125   0.361839   0.020151   0.018832  -0.000633
     9  C   -0.059162   0.007428  -0.030239   0.369246  -0.141526  -0.002908
    10  C    0.124072  -0.019371   0.027361  -0.127597   0.769143   0.026848
    11  H   -0.001406   0.000248  -0.000280   0.001246   0.000049  -0.007717
    12  H    0.000231   0.000008  -0.000005  -0.000013   0.001117  -0.025496
    13  H    0.438564  -0.007689   0.001093   0.000066   0.001598  -0.000374
    14  H   -0.007689   0.418386  -0.001084  -0.000829   0.000300   0.000009
    15  H    0.001093  -0.001084   0.420361  -0.000442  -0.000484  -0.000006
    16  H    0.000066  -0.000829  -0.000442   0.425028  -0.008321  -0.000079
    17  H    0.001598   0.000300  -0.000484  -0.008321   0.575183   0.001947
    18  H   -0.000374   0.000009  -0.000006  -0.000079   0.001947   0.337669
 Mulliken charges:
               1
     1  O   -0.305790
     2  C   -0.360111
     3  N   -0.389013
     4  O    0.179316
     5  C    1.486930
     6  C   -0.812059
     7  C    0.073173
     8  C   -0.464680
     9  C    0.123380
    10  C   -0.847068
    11  H    0.351712
    12  H    0.408358
    13  H    0.251385
    14  H    0.258679
    15  H    0.240821
    16  H    0.256514
    17  H    0.129708
    18  H    0.418744
 Sum of Mulliken charges =   1.00000
 Mulliken charges with hydrogens summed into heavy atoms:
               1
     1  O   -0.305790
     2  C   -0.360111
     3  N   -0.037301
     4  O    1.006418
     5  C    1.486930
     6  C   -0.560674
     7  C    0.331852
     8  C   -0.223859
     9  C    0.379895
    10  C   -0.717360
 Electronic spatial extent (au):  <R**2>=           1607.4022
 Charge=              1.0000 electrons
 Dipole moment (field-independent basis, Debye):
    X=             -8.4415    Y=             -3.7492    Z=              1.6510  Tot=              9.3830
 Quadrupole moment (field-independent basis, Debye-Ang):
   XX=              2.1107   YY=            -50.4992   ZZ=            -56.9681
   XY=              7.2128   XZ=             -3.7097   YZ=              1.0157
 Traceless Quadrupole moment (field-independent basis, Debye-Ang):
   XX=             37.2295   YY=            -15.3803   ZZ=            -21.8492
   XY=              7.2128   XZ=             -3.7097   YZ=              1.0157
 Octapole moment (field-independent basis, Debye-Ang**2):
  XXX=           -148.1741  YYY=            -13.4322  ZZZ=              2.7712  XYY=              5.7317
  XXY=            -12.0479  XXZ=             17.1545  XZZ=            -30.1870  YZZ=             -0.4198
  YYZ=              3.2032  XYZ=              3.1529
 Hexadecapole moment (field-independent basis, Debye-Ang**3):
 XXXX=           -703.9837 YYYY=           -373.1611 ZZZZ=            -72.9584 XXXY=             15.5636
 XXXZ=            -34.0193 YYYX=             29.8806 YYYZ=              4.2287 ZZZX=            -11.8923
 ZZZY=             -3.6222 XXYY=           -298.2836 XXZZ=           -238.8228 YYZZ=            -87.5719
 XXYZ=              0.9904 YYXZ=             -6.5403 ZZXY=              5.4474
 N-N= 5.027727394248D+02 E-N=-2.104786031747D+03  KE= 4.746429406161D+02
 No NMR shielding tensors so no spin-rotation constants.
 Leave Link  601 at Mon Dec 30 16:44:26 2019, MaxMem= 10737418240 cpu:               2.7 elap:               0.1
 (Enter /apps/cent7/gaussian/g16-A.03/g16-haswell/g16/l701.exe)
 ... and contract with generalized density number  0.
 Compute integral first derivatives.
 Leave Link  701 at Mon Dec 30 16:44:26 2019, MaxMem= 10737418240 cpu:               3.5 elap:               0.2
 (Enter /apps/cent7/gaussian/g16-A.03/g16-haswell/g16/l702.exe)
 L702 exits ... SP integral derivatives will be done elsewhere.
 Leave Link  702 at Mon Dec 30 16:44:26 2019, MaxMem= 10737418240 cpu:               0.4 elap:               0.0
 (Enter /apps/cent7/gaussian/g16-A.03/g16-haswell/g16/l703.exe)
 Integral derivatives from FoFJK, PRISM(SPDF).
 Compute integral first derivatives, UseDBF=F ICtDFT=           0.
 Calling FoFJK, ICntrl=      2127 FMM=F ISym2X=0 I1Cent= 0 IOpClX= 0 NMat=1 NMatS=1 NMatT=0.
 FoFJK:  IHMeth= 1 ICntrl=    2127 DoSepK=F KAlg= 0 I1Cent=           0 FoldK=F
 IRaf=         0 NMat=       1 IRICut=       1 DoRegI=T DoRafI=F ISym2E= 0 IDoP0=0 IntGTp=1.
 FoFCou: FMM=F IPFlag=           0 FMFlag=      100000 FMFlg1=         800
         NFxFlg=           0 DoJE=F BraDBF=F KetDBF=F FulRan=T
         wScrn=  0.000000 ICntrl=      2127 IOpCl=  0 I1Cent=           0 NGrid=           0
         NMat0=    1 NMatS0=      1 NMatT0=    0 NMatD0=    1 NMtDS0=    0 NMtDT0=    0
 Symmetry not used in FoFCou.
 Leave Link  703 at Mon Dec 30 16:44:28 2019, MaxMem= 10737418240 cpu:              55.0 elap:               2.3
 (Enter /apps/cent7/gaussian/g16-A.03/g16-haswell/g16/l716.exe)
 Dipole        =-3.32113107D+00-1.47504379D+00 6.49552774D-01
 ***** Axes restored to original set *****
 -------------------------------------------------------------------
 Center     Atomic                   Forces (Hartrees/Bohr)
 Number     Number              X              Y              Z
 -------------------------------------------------------------------
      1        8           0.007253920    0.050937346   -0.016291174
      2        6          -0.044732189   -0.101966064    0.029709100
      3        7           0.101100420    0.037639045   -0.005319315
      4        8          -0.050461510    0.008495472   -0.008095544
      5        6           0.056667691    0.020173420   -0.001021464
      6        6           0.003194176    0.000064898    0.000732764
      7        6          -0.011572411    0.010087143    0.000133184
      8        6          -0.010416540   -0.000410793   -0.000292221
      9        6          -0.009419776   -0.004166638    0.000034165
     10        6           0.007917898   -0.007255707   -0.004055633
     11        1          -0.009354106    0.007514820   -0.001545884
     12        1          -0.016337448   -0.013954382    0.025326470
     13        1           0.000071690    0.005347117   -0.001442605
     14        1          -0.004173991    0.003952019   -0.000326755
     15        1          -0.004848689    0.000228399    0.000734227
     16        1          -0.003556863   -0.004069961    0.000045379
     17        1           0.004608368   -0.000576175    0.001738943
     18        1          -0.015940641   -0.012039960   -0.020063637
 -------------------------------------------------------------------
 Cartesian Forces:  Max     0.101966064 RMS     0.026157912
 Leave Link  716 at Mon Dec 30 16:44:28 2019, MaxMem= 10737418240 cpu:               0.6 elap:               0.0
 (Enter /apps/cent7/gaussian/g16-A.03/g16-haswell/g16/l103.exe)

 GradGradGradGradGradGradGradGradGradGradGradGradGradGradGradGradGradGrad
 Berny optimization.
 FormGI is forming the generalized inverse of G from B-inverse, IUseBI=4.
 Internal  Forces:  Max     0.081789630 RMS     0.015234756
 Search for a local minimum.
 Step number   1 out of a maximum of   91
 All quantities printed in internal units (Hartrees-Bohrs-Radians)
 RMS Force = .15235D-01 SwitMx=.10000D-02 MixMth= 1
 Mixed Optimization -- RFO/linear search
 Second derivative matrix not updated -- first step.
 ITU=  0
     Eigenvalues ---    0.01763   0.01822   0.01868   0.01906   0.01923
     Eigenvalues ---    0.01965   0.01996   0.02000   0.02014   0.02017
     Eigenvalues ---    0.02024   0.02243   0.02403   0.02576   0.06707
     Eigenvalues ---    0.16000   0.16000   0.16000   0.16000   0.16000
     Eigenvalues ---    0.16000   0.16000   0.16000   0.21995   0.21997
     Eigenvalues ---    0.22000   0.23457   0.24996   0.24997   0.25000
     Eigenvalues ---    0.34808   0.34809   0.34809   0.34811   0.34820
     Eigenvalues ---    0.39940   0.40082   0.41774   0.43091   0.43974
     Eigenvalues ---    0.44390   0.44756   0.45970   0.53287   0.55473
     Eigenvalues ---    0.55473   0.66330   0.81641
 RFO step:  Lambda=-4.03359191D-02 EMin= 1.76323113D-02
 Linear search not attempted -- first point.
 Maximum step size (   0.300) exceeded in Quadratic search.
    -- Step size scaled by   0.923
 Iteration  1 RMS(Cart)=  0.07725212 RMS(Int)=  0.00289510
 Iteration  2 RMS(Cart)=  0.00546742 RMS(Int)=  0.00020660
 Iteration  3 RMS(Cart)=  0.00001977 RMS(Int)=  0.00020633
 Iteration  4 RMS(Cart)=  0.00000001 RMS(Int)=  0.00020633
 ITry= 1 IFail=0 DXMaxC= 2.58D-01 DCOld= 1.00D+10 DXMaxT= 3.00D-01 DXLimC= 3.00D+00 Rises=F
 Variable       Old X    -DE/DX   Delta X   Delta X   Delta X     New X
                                 (Linear)    (Quad)   (Total)
    R1        2.37043  -0.04904   0.00000  -0.05281  -0.05281   2.31762
    R2        2.56687   0.02127   0.00000   0.03424   0.03424   2.60110
    R3        2.69212   0.02789   0.00000   0.05616   0.05616   2.74828
    R4        2.46257   0.08179   0.00000   0.10723   0.10723   2.56980
    R5        1.90865   0.00185   0.00000   0.00341   0.00341   1.91206
    R6        1.81414   0.03310   0.00000   0.05132   0.05132   1.86546
    R7        1.81414   0.02700   0.00000   0.04186   0.04186   1.85600
    R8        2.68080  -0.01901   0.00000  -0.03766  -0.03764   2.64316
    R9        2.68134  -0.01111   0.00000  -0.02181  -0.02178   2.65957
   R10        2.66162  -0.02254   0.00000  -0.04333  -0.04335   2.61828
   R11        2.05987  -0.00470   0.00000  -0.01117  -0.01117   2.04871
   R12        2.65589  -0.01098   0.00000  -0.02091  -0.02095   2.63494
   R13        2.05986  -0.00550   0.00000  -0.01307  -0.01307   2.04678
   R14        2.65387  -0.01166   0.00000  -0.02188  -0.02190   2.63196
   R15        2.05987  -0.00485   0.00000  -0.01151  -0.01151   2.04835
   R16        2.65816  -0.02146   0.00000  -0.04051  -0.04050   2.61766
   R17        2.05983  -0.00531   0.00000  -0.01260  -0.01260   2.04722
   R18        2.05968  -0.00270   0.00000  -0.00642  -0.00642   2.05327
    A1        2.06832  -0.02207   0.00000  -0.07007  -0.07009   1.99823
    A2        2.10355   0.03130   0.00000   0.09952   0.09951   2.20306
    A3        2.11107  -0.00922   0.00000  -0.02923  -0.02925   2.08183
    A4        2.14766  -0.03880   0.00000  -0.13749  -0.13752   2.01014
    A5        2.10613   0.03069   0.00000   0.12074   0.12071   2.22684
    A6        2.02939   0.00811   0.00000   0.01675   0.01672   2.04612
    A7        1.91063   0.00238   0.00000   0.01427   0.01372   1.92435
    A8        1.91063   0.01271   0.00000   0.06183   0.06130   1.97194
    A9        1.91063  -0.00505   0.00000  -0.01661  -0.01760   1.89304
   A10        2.11393  -0.01646   0.00000  -0.05260  -0.05264   2.06129
   A11        2.11273   0.00816   0.00000   0.02565   0.02561   2.13834
   A12        2.05645   0.00831   0.00000   0.02704   0.02709   2.08354
   A13        2.11190  -0.00517   0.00000  -0.01840  -0.01840   2.09350
   A14        2.09211  -0.00012   0.00000  -0.00325  -0.00325   2.08886
   A15        2.07918   0.00529   0.00000   0.02165   0.02164   2.10082
   A16        2.09567   0.00091   0.00000   0.00307   0.00302   2.09869
   A17        2.09553  -0.00218   0.00000  -0.00949  -0.00947   2.08607
   A18        2.09198   0.00127   0.00000   0.00642   0.00645   2.09843
   A19        2.09173   0.00233   0.00000   0.00875   0.00869   2.10042
   A20        2.09652  -0.00096   0.00000  -0.00344  -0.00342   2.09311
   A21        2.09493  -0.00137   0.00000  -0.00530  -0.00528   2.08965
   A22        2.09445  -0.00241   0.00000  -0.00727  -0.00728   2.08717
   A23        2.09284   0.00224   0.00000   0.00839   0.00838   2.10123
   A24        2.09589   0.00017   0.00000  -0.00112  -0.00112   2.09477
   A25        2.11497  -0.00393   0.00000  -0.01261  -0.01264   2.10233
   A26        2.09165   0.00591   0.00000   0.02445   0.02433   2.11598
   A27        2.07656  -0.00197   0.00000  -0.01183  -0.01195   2.06461
    D1        0.03451   0.00017   0.00000   0.00427   0.00478   0.03928
    D2       -3.10716  -0.00081   0.00000  -0.00975  -0.00972  -3.11688
    D3       -3.13079   0.00125   0.00000   0.01629   0.01626  -3.11453
    D4        0.01072   0.00027   0.00000   0.00227   0.00177   0.01249
    D5        0.33011   0.00003   0.00000   0.00315   0.00346   0.33357
    D6       -2.82534   0.00065   0.00000   0.01167   0.01184  -2.81350
    D7       -2.78730  -0.00034   0.00000  -0.00677  -0.00694  -2.79424
    D8        0.34044   0.00028   0.00000   0.00175   0.00144   0.34188
    D9        0.70436   0.00179   0.00000   0.01653   0.01718   0.72155
   D10       -1.39003  -0.00127   0.00000  -0.00972  -0.00983  -1.39986
   D11       -2.43715   0.00272   0.00000   0.02998   0.03009  -2.40706
   D12        1.75164  -0.00033   0.00000   0.00372   0.00308   1.75471
   D13        3.08122   0.00126   0.00000   0.01855   0.01846   3.09967
   D14       -0.06031   0.00128   0.00000   0.01943   0.01935  -0.04097
   D15       -0.04696   0.00065   0.00000   0.01028   0.01033  -0.03663
   D16        3.09470   0.00067   0.00000   0.01116   0.01123   3.10592
   D17       -3.08367  -0.00124   0.00000  -0.02083  -0.02111  -3.10478
   D18        0.05778   0.00039   0.00000   0.00421   0.00419   0.06197
   D19        0.04451  -0.00083   0.00000  -0.01320  -0.01324   0.03127
   D20       -3.09722   0.00080   0.00000   0.01184   0.01205  -3.08516
   D21        0.01329  -0.00013   0.00000  -0.00125  -0.00124   0.01205
   D22       -3.12836  -0.00022   0.00000  -0.00282  -0.00280  -3.13115
   D23       -3.12837  -0.00015   0.00000  -0.00213  -0.00214  -3.13050
   D24        0.01317  -0.00024   0.00000  -0.00369  -0.00369   0.00947
   D25        0.02437  -0.00041   0.00000  -0.00582  -0.00581   0.01856
   D26       -3.11713  -0.00053   0.00000  -0.00843  -0.00844  -3.12557
   D27       -3.11717  -0.00032   0.00000  -0.00426  -0.00424  -3.12141
   D28        0.02452  -0.00044   0.00000  -0.00687  -0.00687   0.01765
   D29       -0.02685   0.00024   0.00000   0.00292   0.00291  -0.02394
   D30        3.11469  -0.00011   0.00000  -0.00302  -0.00306   3.11162
   D31        3.11464   0.00036   0.00000   0.00553   0.00554   3.12018
   D32       -0.02701   0.00001   0.00000  -0.00042  -0.00044  -0.02745
   D33       -0.00826   0.00058   0.00000   0.00735   0.00718  -0.00108
   D34        3.13347  -0.00104   0.00000  -0.01749  -0.01739   3.11608
   D35        3.13339   0.00093   0.00000   0.01330   0.01313  -3.13666
   D36       -0.00807  -0.00069   0.00000  -0.01153  -0.01143  -0.01950
         Item               Value     Threshold  Converged?
 Maximum Force            0.081790     0.000450     NO 
 RMS     Force            0.015235     0.000300     NO 
 Maximum Displacement     0.257981     0.001800     NO 
 RMS     Displacement     0.079534     0.001200     NO 
 Predicted change in Energy=-2.195332D-02
 Lowest energy point so far.  Saving SCF results.
 GradGradGradGradGradGradGradGradGradGradGradGradGradGradGradGradGradGrad

 Leave Link  103 at Mon Dec 30 16:44:28 2019, MaxMem= 10737418240 cpu:               1.1 elap:               0.1
 (Enter /apps/cent7/gaussian/g16-A.03/g16-haswell/g16/l202.exe)
                          Input orientation:                          
 ---------------------------------------------------------------------
 Center     Atomic      Atomic             Coordinates (Angstroms)
 Number     Number       Type             X           Y           Z
 ---------------------------------------------------------------------
      1          8           0       -2.836084    0.304623    0.092990
      2          6           0       -2.093075    1.243281   -0.173450
      3          7           0       -2.738137    2.368807   -0.633544
      4          8           0       -4.094589    2.281743   -0.675197
      5          6           0       -0.643204    1.250794   -0.059918
      6          6           0        0.020038    0.020424   -0.008379
      7          6           0        1.403841   -0.017524    0.049496
      8          6           0        2.138663    1.167289    0.071102
      9          6           0        1.488451    2.398894    0.057038
     10          6           0        0.105400    2.441409   -0.007435
     11          1           0       -2.320971    3.242419   -0.927746
     12          1           0       -4.432821    1.826390    0.132721
     13          1           0       -0.553686   -0.899431   -0.014907
     14          1           0        1.910747   -0.974227    0.079359
     15          1           0        3.221591    1.131500    0.101373
     16          1           0        2.057536    3.319640    0.101792
     17          1           0       -0.381231    3.412775    0.007138
     18          1           0       -4.423853    1.799477   -1.464897
 ---------------------------------------------------------------------
                    Distance matrix (angstroms):
                    1          2          3          4          5
     1  O    0.000000
     2  C    1.226430   0.000000
     3  N    2.190502   1.376445   0.000000
     4  O    2.466363   2.310024   1.359881   0.000000
     5  C    2.393186   1.454328   2.442896   3.654241   0.000000
     6  C    2.872017   2.447013   3.676039   4.742190   1.398699
     7  C    4.252368   3.723943   4.828778   6.003710   2.410601
     8  C    5.049038   4.239480   5.071819   6.375923   2.786203
     9  C    4.805087   3.770397   4.282739   5.632071   2.423998
    10  C    3.637068   2.509255   2.912556   4.255737   1.407383
    11  H    3.152441   2.148826   1.011821   2.032830   2.744922
    12  H    2.206110   2.430672   1.937351   0.987157   3.837918
    13  H    2.582776   2.643117   3.979436   4.805605   2.152558
    14  H    4.916101   4.583868   5.770289   6.872754   3.390101
    15  H    6.113855   5.322941   6.131019   7.446651   3.869999
    16  H    5.747863   4.649151   4.944015   6.287255   3.405917
    17  H    3.961601   2.769428   2.656191   3.941299   2.178827
    18  H    2.680039   2.722080   1.963905   0.982152   4.070421
                    6          7          8          9         10
     6  C    0.000000
     7  C    1.385532   0.000000
     8  C    2.410433   1.394350   0.000000
     9  C    2.796003   2.417910   1.392775   0.000000
    10  C    2.422490   2.781284   2.400773   1.385206   0.000000
    11  H    4.087397   5.045439   5.019183   4.024056   2.715854
    12  H    4.807221   6.121565   6.604742   5.949365   4.581848
    13  H    1.084128   2.147980   3.395213   3.880005   3.405240
    14  H    2.138179   1.083110   2.153627   3.399526   3.864374
    15  H    3.390646   2.151085   1.083942   2.147564   3.382063
    16  H    3.879222   3.400988   2.154098   1.083345   2.143375
    17  H    3.416037   3.867199   3.375821   2.127477   1.086543
    18  H    5.003464   6.289427   6.769459   6.134405   4.801084
                   11         12         13         14         15
    11  H    0.000000
    12  H    2.754930   0.000000
    13  H    4.594724   4.743372   0.000000
    14  H    6.058201   6.934490   2.467369   0.000000
    15  H    6.019557   7.685953   4.288463   2.480501   0.000000
    16  H    4.498582   6.659991   4.963130   4.296435   2.478504
    17  H    2.160005   4.352903   4.315709   4.950169   4.265376
    18  H    2.606286   1.597870   4.936068   7.085572   7.832766
                   16         17         18
    16  H    0.000000
    17  H    2.442380   0.000000
    18  H    6.839139   4.594825   0.000000
 Stoichiometry    C7H8NO2(1+)
 Framework group  C1[X(C7H8NO2)]
 Deg. of freedom    48
 Full point group                 C1      NOp   1
 RotChk:  IX=0 Diff= 2.50D-02
 Largest Abelian subgroup         C1      NOp   1
 Largest concise Abelian subgroup C1      NOp   1
                         Standard orientation:                         
 ---------------------------------------------------------------------
 Center     Atomic      Atomic             Coordinates (Angstroms)
 Number     Number       Type             X           Y           Z
 ---------------------------------------------------------------------
      1          8           0       -1.742050    1.374730   -0.303094
      2          6           0       -1.166599    0.315347   -0.077943
      3          7           0       -2.004386   -0.743135    0.190997
      4          8           0       -3.332950   -0.462229    0.118291
      5          6           0        0.272474    0.106122   -0.058823
      6          6           0        1.098979    1.224651    0.089979
      7          6           0        2.473255    1.064365    0.163281
      8          6           0        3.037736   -0.207544    0.074837
      9          6           0        2.227885   -1.325490   -0.109993
     10          6           0        0.853024   -1.170463   -0.177216
     11          1           0       -1.743951   -1.693366    0.421246
     12          1           0       -3.517997    0.115645   -0.660360
     13          1           0        0.658643    2.213613    0.148212
     14          1           0        3.106156    1.934386    0.288285
     15          1           0        4.112441   -0.328471    0.147752
     16          1           0        2.667600   -2.310862   -0.206570
     17          1           0        0.242823   -2.053494   -0.345994
     18          1           0       -3.675542   -0.017427    0.924146
 ---------------------------------------------------------------------
 Rotational constants (GHZ):           3.6425595           0.7955203           0.6616080
 Leave Link  202 at Mon Dec 30 16:44:28 2019, MaxMem= 10737418240 cpu:               0.3 elap:               0.0
 (Enter /apps/cent7/gaussian/g16-A.03/g16-haswell/g16/l301.exe)
 Standard basis: 6-311++G(d,p) (5D, 7F)
 Ernie: Thresh=  0.10000D-02 Tol=  0.10000D-05 Strict=F.
 There are   286 symmetry adapted cartesian basis functions of A   symmetry.
 There are   276 symmetry adapted basis functions of A   symmetry.
   276 basis functions,   432 primitive gaussians,   286 cartesian basis functions
    36 alpha electrons       36 beta electrons
       nuclear repulsion energy       504.0922092122 Hartrees.
 IExCor= 4336 DFT=T Ex+Corr=M062X ExCW=0 ScaHFX=  0.540000
 ScaDFX=  1.000000  1.000000  1.000000  1.000000 ScalE2=  1.000000  1.000000
 IRadAn=      5 IRanWt=     -1 IRanGd=            0 ICorTp=0 IEmpDi=  4
 NAtoms=   18 NActive=   18 NUniq=   18 SFac= 1.00D+00 NAtFMM=   60 NAOKFM=F Big=F
 Integral buffers will be    131072 words long.
 Raffenetti 2 integral format.
 Two-electron integral symmetry is turned on.
 Leave Link  301 at Mon Dec 30 16:44:29 2019, MaxMem= 10737418240 cpu:               1.3 elap:               0.1
 (Enter /apps/cent7/gaussian/g16-A.03/g16-haswell/g16/l302.exe)
 NPDir=0 NMtPBC=     1 NCelOv=     1 NCel=       1 NClECP=     1 NCelD=      1
         NCelK=      1 NCelE2=     1 NClLst=     1 CellRange=     0.0.
 One-electron integrals computed using PRISM.
 One-electron integral symmetry used in STVInt
 NBasis=   276 RedAO= T EigKep=  1.00D-06  NBF=   276
 NBsUse=   276 1.00D-06 EigRej= -1.00D+00 NBFU=   276
 Precomputing XC quadrature grid using
 IXCGrd= 4 IRadAn=           5 IRanWt=          -1 IRanGd=           0 AccXCQ= 0.00D+00.
 Generated NRdTot=       0 NPtTot=           0 NUsed=           0 NTot=          32
 NSgBfM=   286   286   286   286   286 MxSgAt=    18 MxSgA2=    18.
 Leave Link  302 at Mon Dec 30 16:44:29 2019, MaxMem= 10737418240 cpu:               4.0 elap:               0.2
 (Enter /apps/cent7/gaussian/g16-A.03/g16-haswell/g16/l303.exe)
 DipDrv:  MaxL=1.
 Leave Link  303 at Mon Dec 30 16:44:29 2019, MaxMem= 10737418240 cpu:               0.8 elap:               0.1
 (Enter /apps/cent7/gaussian/g16-A.03/g16-haswell/g16/l401.exe)
 Initial guess from the checkpoint file:  "13_p_b.chk"
 B after Tr=     0.000000    0.000000    0.000000
         Rot=    0.999959    0.005272    0.000467   -0.007361 Ang=   1.04 deg.
 Guess basis will be translated and rotated to current coordinates.
 JPrj=2 DoOrth=T DoCkMO=T.
 Generating alternative initial guess.
 ExpMin= 3.60D-02 ExpMax= 8.59D+03 ExpMxC= 1.30D+03 IAcc=3 IRadAn=         5 AccDes= 0.00D+00
 Harris functional with IExCor= 1009 and IRadAn=       5 diagonalized for initial guess.
 HarFok:  IExCor= 1009 AccDes= 0.00D+00 IRadAn=         5 IDoV= 1 UseB2=F ITyADJ=14
 ICtDFT=  3500011 ScaDFX=  1.000000  1.000000  1.000000  1.000000
 FoFCou: FMM=F IPFlag=           0 FMFlag=      100000 FMFlg1=           0
         NFxFlg=           0 DoJE=T BraDBF=F KetDBF=T FulRan=T
         wScrn=  0.000000 ICntrl=       500 IOpCl=  0 I1Cent=   200000004 NGrid=           0
         NMat0=    1 NMatS0=      1 NMatT0=    0 NMatD0=    1 NMtDS0=    0 NMtDT0=    0
 Petite list used in FoFCou.
 Harris En= -476.182988398382    
 Leave Link  401 at Mon Dec 30 16:44:29 2019, MaxMem= 10737418240 cpu:              12.6 elap:               0.6
 (Enter /apps/cent7/gaussian/g16-A.03/g16-haswell/g16/l502.exe)
 Integral symmetry usage will be decided dynamically.
 Closed shell SCF:
 Using DIIS extrapolation, IDIIS=  1040.
 NGot= 10737418240 LenX= 10737244998 LenY= 10737162761
 Requested convergence on RMS density matrix=1.00D-08 within 128 cycles.
 Requested convergence on MAX density matrix=1.00D-06.
 Requested convergence on             energy=1.00D-06.
 No special actions if energy rises.
 Fock matrices will be formed incrementally for  20 cycles.

 Cycle   1  Pass 1  IDiag  1:
 FoFJK:  IHMeth= 1 ICntrl=       0 DoSepK=F KAlg= 0 I1Cent=           0 FoldK=F
 IRaf= 930000000 NMat=       1 IRICut=       1 DoRegI=T DoRafI=F ISym2E= 0 IDoP0=0 IntGTp=1.
 FoFCou: FMM=F IPFlag=           0 FMFlag=      100000 FMFlg1=           0
         NFxFlg=           0 DoJE=F BraDBF=F KetDBF=F FulRan=T
         wScrn=  0.000000 ICntrl=         0 IOpCl=  0 I1Cent=           0 NGrid=           0
         NMat0=    1 NMatS0=      1 NMatT0=    0 NMatD0=    1 NMtDS0=    0 NMtDT0=    0
 Symmetry not used in FoFCou.
 E= -476.308609089184    
 DIIS: error= 5.06D-03 at cycle   1 NSaved=   1.
 NSaved= 1 IEnMin= 1 EnMin= -476.308609089184     IErMin= 1 ErrMin= 5.06D-03
 ErrMax= 5.06D-03  0.00D+00 EMaxC= 1.00D-01 BMatC= 1.75D-02 BMatP= 1.75D-02
 IDIUse=3 WtCom= 9.49D-01 WtEn= 5.06D-02
 Coeff-Com:  0.100D+01
 Coeff-En:   0.100D+01
 Coeff:      0.100D+01
 Gap=     0.466 Goal=   None    Shift=    0.000
 GapD=    0.466 DampG=2.000 DampE=1.000 DampFc=2.0000 IDamp=-1.
 RMSDP=8.24D-03 MaxDP=4.13D-01              OVMax= 3.19D-02

 Cycle   2  Pass 1  IDiag  1:
 RMSU=  7.87D-03    CP:  1.04D+00
 E= -476.329201428423     Delta-E=       -0.020592339238 Rises=F Damp=F
 DIIS: error= 3.01D-03 at cycle   2 NSaved=   2.
 NSaved= 2 IEnMin= 2 EnMin= -476.329201428423     IErMin= 2 ErrMin= 3.01D-03
 ErrMax= 3.01D-03  0.00D+00 EMaxC= 1.00D-01 BMatC= 2.52D-03 BMatP= 1.75D-02
 IDIUse=3 WtCom= 9.70D-01 WtEn= 3.01D-02
 Coeff-Com:  0.115D+00 0.885D+00
 Coeff-En:   0.000D+00 0.100D+01
 Coeff:      0.111D+00 0.889D+00
 Gap=     0.252 Goal=   None    Shift=    0.000
 RMSDP=3.14D-03 MaxDP=3.76D-01 DE=-2.06D-02 OVMax= 2.57D-02

 Cycle   3  Pass 1  IDiag  1:
 RMSU=  2.41D-03    CP:  1.07D+00  1.02D+00
 E= -476.328977517867     Delta-E=        0.000223910556 Rises=F Damp=F
 DIIS: error= 3.69D-03 at cycle   3 NSaved=   3.
 NSaved= 3 IEnMin= 2 EnMin= -476.329201428423     IErMin= 2 ErrMin= 3.01D-03
 ErrMax= 3.69D-03  0.00D+00 EMaxC= 1.00D-01 BMatC= 3.36D-03 BMatP= 2.52D-03
 IDIUse=3 WtCom= 1.41D-01 WtEn= 8.59D-01
 Coeff-Com: -0.624D-01 0.562D+00 0.501D+00
 Coeff-En:   0.000D+00 0.525D+00 0.475D+00
 Coeff:     -0.881D-02 0.530D+00 0.479D+00
 Gap=     0.254 Goal=   None    Shift=    0.000
 RMSDP=1.80D-03 MaxDP=1.62D-01 DE= 2.24D-04 OVMax= 1.66D-02

 Cycle   4  Pass 1  IDiag  1:
 RMSU=  7.96D-04    CP:  1.06D+00  1.07D+00  3.77D-01
 E= -476.331369757982     Delta-E=       -0.002392240115 Rises=F Damp=F
 DIIS: error= 5.25D-04 at cycle   4 NSaved=   4.
 NSaved= 4 IEnMin= 4 EnMin= -476.331369757982     IErMin= 4 ErrMin= 5.25D-04
 ErrMax= 5.25D-04  0.00D+00 EMaxC= 1.00D-01 BMatC= 7.52D-05 BMatP= 2.52D-03
 IDIUse=3 WtCom= 9.95D-01 WtEn= 5.25D-03
 Coeff-Com: -0.278D-01 0.103D+00 0.183D+00 0.742D+00
 Coeff-En:   0.000D+00 0.000D+00 0.000D+00 0.100D+01
 Coeff:     -0.276D-01 0.102D+00 0.182D+00 0.744D+00
 Gap=     0.256 Goal=   None    Shift=    0.000
 RMSDP=3.15D-04 MaxDP=3.14D-02 DE=-2.39D-03 OVMax= 1.99D-03

 Cycle   5  Pass 1  IDiag  1:
 RMSU=  2.20D-04    CP:  1.06D+00  1.07D+00  3.86D-01  1.00D+00
 E= -476.331430586396     Delta-E=       -0.000060828414 Rises=F Damp=F
 DIIS: error= 1.38D-04 at cycle   5 NSaved=   5.
 NSaved= 5 IEnMin= 5 EnMin= -476.331430586396     IErMin= 5 ErrMin= 1.38D-04
 ErrMax= 1.38D-04  0.00D+00 EMaxC= 1.00D-01 BMatC= 7.16D-06 BMatP= 7.52D-05
 IDIUse=3 WtCom= 9.99D-01 WtEn= 1.38D-03
 Coeff-Com: -0.333D-02-0.262D-01 0.133D-01 0.305D+00 0.711D+00
 Coeff-En:   0.000D+00 0.000D+00 0.000D+00 0.000D+00 0.100D+01
 Coeff:     -0.333D-02-0.261D-01 0.133D-01 0.305D+00 0.711D+00
 Gap=     0.255 Goal=   None    Shift=    0.000
 RMSDP=7.19D-05 MaxDP=5.05D-03 DE=-6.08D-05 OVMax= 8.41D-04

 Cycle   6  Pass 1  IDiag  1:
 RMSU=  5.44D-05    CP:  1.06D+00  1.07D+00  3.90D-01  1.03D+00  9.32D-01
 E= -476.331436832635     Delta-E=       -0.000006246239 Rises=F Damp=F
 DIIS: error= 7.67D-05 at cycle   6 NSaved=   6.
 NSaved= 6 IEnMin= 6 EnMin= -476.331436832635     IErMin= 6 ErrMin= 7.67D-05
 ErrMax= 7.67D-05  0.00D+00 EMaxC= 1.00D-01 BMatC= 7.56D-07 BMatP= 7.16D-06
 IDIUse=1 WtCom= 1.00D+00 WtEn= 0.00D+00
 Coeff-Com:  0.882D-03-0.198D-01-0.110D-01 0.597D-01 0.303D+00 0.667D+00
 Coeff:      0.882D-03-0.198D-01-0.110D-01 0.597D-01 0.303D+00 0.667D+00
 Gap=     0.255 Goal=   None    Shift=    0.000
 RMSDP=2.99D-05 MaxDP=2.34D-03 DE=-6.25D-06 OVMax= 3.51D-04

 Cycle   7  Pass 1  IDiag  1:
 RMSU=  2.24D-05    CP:  1.06D+00  1.07D+00  3.94D-01  1.05D+00  8.99D-01
                    CP:  1.03D+00
 E= -476.331437504679     Delta-E=       -0.000000672044 Rises=F Damp=F
 DIIS: error= 3.03D-05 at cycle   7 NSaved=   7.
 NSaved= 7 IEnMin= 7 EnMin= -476.331437504679     IErMin= 7 ErrMin= 3.03D-05
 ErrMax= 3.03D-05  0.00D+00 EMaxC= 1.00D-01 BMatC= 8.47D-08 BMatP= 7.56D-07
 IDIUse=1 WtCom= 1.00D+00 WtEn= 0.00D+00
 Coeff-Com:  0.687D-03-0.560D-02-0.624D-02-0.740D-02 0.586D-01 0.289D+00
 Coeff-Com:  0.671D+00
 Coeff:      0.687D-03-0.560D-02-0.624D-02-0.740D-02 0.586D-01 0.289D+00
 Coeff:      0.671D+00
 Gap=     0.255 Goal=   None    Shift=    0.000
 RMSDP=1.18D-05 MaxDP=8.38D-04 DE=-6.72D-07 OVMax= 1.75D-04

 Cycle   8  Pass 1  IDiag  1:
[...]
 ,-0.0642823,0.0239772,-0.0970991,0.0170221,-0.1093259,0.3461396,-0.167
 1708,0.102695,0.3048699,-0.0805703,0.0118012,0.0988336,-0.0531111,-0.0
 535628,0.0811211,0.0363952,-0.0235568,-0.12988,0.3967023,0.0127416,0.0
 251477,-0.0270548,0.3123294,0.5385843,0.1057423,0.0292,0.0705989,0.368
 4142,-0.0007479,0.0467395,0.0078259,0.3651035,0.0730602,-0.0244648,-0.
 0016194,-0.0198326,0.0879937,0.0123173,0.0115353,0.0040079,0.14224,0.0
 726534,0.0117772,-0.0116819,0.0155134,0.0519497,0.0234805,-0.0056755,0
 .0231645,0.1417641,0.0477218,0.0004129,-0.0120444,0.0003019,0.0954912,
 0.0103019,-0.0107562,0.0081216,0.134598,0.0723612,-0.017838,-0.0052013
 ,-0.0241194,0.0501435,0.0196327,-0.0151027,0.027663,0.1402089,0.045354
 8,0.0573847,-0.0245179,0.048893,0.0332611,0.0280483,-0.0360827,0.03077
 89,0.1265323,0.3783583,-0.0898298,0.0823069,-0.1692036,0.3954017,0.027
 8938,0.1265299,-0.0082677,0.3482523\Polar=135.4285248,-7.2212776,94.21
 35301,10.7672507,-6.948705,52.0838971\Quadrupole=14.313627,-1.1327874,
 -13.1808395,-4.8754481,6.2291908,-2.979948\PG=C01 [X(C7H8N1O2)]\NImag=
 0\\0.70141776,0.08821450,0.49767842,0.03393724,0.08362012,0.06598072,-
 0.20879783,-0.10267469,-0.02791151,0.76879570,-0.14997244,-0.34891167,
 -0.05548219,0.00162526,0.82050227,-0.03752864,-0.05720946,-0.07798111,
 0.06329416,0.08690114,0.22023388,0.01313772,-0.02183594,-0.00080492,-0
 .21543932,0.16232203,-0.00589853,0.69482006,-0.00354743,-0.09572137,-0
 .01932618,0.10044764,-0.33770787,-0.02922786,-0.04291259,0.82092663,0.
 00410434,-0.01578746,0.02094505,0.00529634,-0.05245567,-0.06536170,0.1
 0415861,0.23616664,0.18517682,0.00530910,-0.00077457,0.00103352,-0.044
 79203,-0.00819428,0.00103881,-0.32300410,-0.01881827,-0.00904241,0.459
 01262,0.01321426,0.00147014,0.00450989,0.03717404,-0.00231157,0.000517
 33,-0.01193615,-0.08727249,0.00068161,-0.05411217,0.23408543,0.0015147
 3,-0.00102218,-0.00293202,-0.00765533,0.00168553,-0.00206369,-0.032648
 70,0.00259813,-0.05124926,0.12602175,-0.23180509,0.39345583,-0.0377112
 9,-0.02749767,-0.00683184,-0.23226781,-0.00013331,-0.01684772,-0.02659
 484,0.03453200,-0.00493629,0.00015689,0.00167851,-0.00224658,0.6518921
 9,-0.04482567,0.00029868,-0.00505071,0.00874843,-0.10958655,0.00627293
 ,0.03369473,0.00528878,0.00260430,0.00443986,-0.00495586,0.00052971,0.
 01970967,0.68804229,-0.01027083,-0.00331246,0.00544307,-0.01587315,0.0
 0135878,-0.07392995,-0.00069276,0.00620542,0.00779245,-0.00294492,-0.0
 0193953,0.00731098,0.05501852,-0.10183394,0.16772927,0.00050697,0.0052
 4594,-0.00086578,-0.03732001,0.03208389,-0.00862734,-0.00135624,-0.010
 23179,-0.00104044,-0.00085488,0.00078911,0.00079735,-0.13801229,0.0376
 1460,-0.02006794,0.70980071,-0.00542477,-0.00744017,-0.00091346,0.0259
 9451,0.00801310,0.00149706,-0.00502138,0.00660019,-0.00018326,-0.00272
 940,0.00124209,-0.00010898,0.08761069,-0.27955558,0.05553915,0.0624064
 8,0.69319445,-0.00071603,0.00144563,-0.00046904,-0.00458469,0.00122753
 ,-0.00294790,0.00060601,-0.00039810,0.00167755,-0.00005226,-0.00045149
 ,0.00163365,-0.03320392,0.04971587,-0.07523583,0.05999877,-0.11070617,
 0.17313380,-0.00017687,-0.00162419,0.00093256,0.01024477,0.00482686,-0
 .00262921,-0.00243681,0.00429922,0.00066399,-0.00080127,0.00067654,-0.
 00064310,-0.02715138,0.07549574,-0.01913922,-0.35016922,-0.02755318,-0
 .03268897,0.68917976,-0.00127370,-0.00017524,0.00013656,0.00829420,-0.
 00661409,0.00280245,0.00002098,0.00424332,-0.00009598,0.00012208,0.000
 18788,-0.00077242,0.02401623,0.02803568,0.00008746,0.04590369,-0.13066
 297,0.02002747,-0.02424881,0.71652080,0.00129065,-0.00004316,-0.000052
 85,-0.00223761,0.00430948,0.00692717,-0.00074925,-0.00091385,-0.000528
 76,0.00010962,0.00037113,-0.00078739,-0.00925746,0.00339755,0.00512554
 ,-0.04801802,0.01192166,-0.07330493,0.07829599,-0.12937914,0.17466003,
 -0.00021607,0.00038682,-0.00008932,0.00041887,-0.00038298,0.00024665,0
 .00014884,-0.00039678,-0.00002878,-0.00017781,-0.00002882,-0.00003714,
 -0.00204444,-0.00391381,0.00149246,-0.03181695,-0.02739821,0.00128591,
 -0.19655652,-0.13244429,0.01147307,0.74735271,-0.00257075,-0.00147144,
 -0.00112219,0.00234419,-0.00510499,0.00303169,0.00095113,-0.00021791,-
 0.00144220,0.00006082,-0.00040350,0.00064520,-0.00669211,-0.06661543,0
 .00988797,-0.07753719,0.04319839,-0.01821266,-0.05773934,-0.27755835,0
 .03854376,0.01370893,0.64827354,0.00063494,0.00043070,0.00041724,-0.00
 039555,0.00102752,-0.00190907,-0.00034723,0.00006441,0.00052848,-0.000
 07183,0.00000392,-0.00005541,0.00251170,0.01252751,-0.00963320,0.01238
 806,-0.01228179,0.00893866,-0.00547366,0.02884015,-0.07026960,0.075310
 71,-0.10840461,0.17970665,-0.00518712,-0.00346074,-0.00113888,0.013137
 76,-0.00721617,0.00333273,-0.00009202,0.00369463,-0.00166902,-0.000620
 42,0.00016013,0.00032718,-0.04395060,-0.06827476,0.00708236,-0.0503175
 6,0.03463814,-0.01372260,0.07429015,0.01573805,0.00513163,-0.17060935,
 0.03388473,-0.02036759,0.70658929,0.00122716,0.00335199,0.00012162,-0.
 01200571,-0.00421657,0.00048019,0.00070165,-0.00249701,0.00050351,0.00
 056891,0.00035925,-0.00001545,-0.01523525,0.03586740,-0.00661891,0.027
 10713,-0.01976468,0.00721257,-0.02961417,-0.05087975,0.00818269,0.1087
 5652,-0.28455626,0.06330208,0.06230648,0.69944399,0.00033472,-0.000941
 40,-0.00063426,0.00280268,0.00236110,0.00827649,-0.00112762,0.00058234
 ,-0.00141788,-0.00037958,-0.00010943,0.00018178,-0.00226376,-0.0164034
 0,0.00991302,-0.01197727,0.00789604,-0.00875531,0.01538406,0.01417137,
 0.00393039,-0.03781420,0.05493223,-0.08041663,0.05743004,-0.12417445,0
 .17117495,-0.00001862,0.00643806,0.00078157,-0.04095822,-0.02430143,-0
 .00056287,-0.00002212,-0.00687270,0.00198786,0.00103924,-0.00082586,-0
 .00026531,-0.15863126,-0.06111587,0.00283045,0.05989958,-0.02852025,0.
 01445125,-0.05886250,-0.02545547,-0.00140112,-0.01624896,0.08501526,-0
 .02214480,-0.35669993,-0.03136574,-0.03037986,0.69232594,0.00826165,0.
 00427373,0.00224538,-0.02071846,0.01173922,-0.00582365,0.00357530,-0.0
 0842843,0.00192206,0.00149560,-0.00139393,0.00037144,-0.10830202,-0.26
 277757,0.03094517,0.01755163,-0.05499846,0.01609085,-0.03305869,-0.015
 49832,-0.00179788,0.03344760,0.03338390,-0.00257984,0.04151941,-0.1278
 3380,0.02084053,-0.02256796,0.68652252,-0.00290970,0.00050879,0.002673
 58,-0.00297252,-0.00579304,-0.00364782,0.00061159,-0.00095392,0.000925
 43,0.00051067,0.00087598,-0.00072979,0.01543356,0.04105063,-0.06593446
 ,0.00397887,0.00936069,0.00598242,-0.00061634,-0.00161701,-0.00500596,
 -0.01077097,0.00600377,0.00227760,-0.04612969,0.01061626,-0.07131193,0
 .07942566,-0.14004797,0.18302081,-0.00098941,0.00700218,-0.00141865,0.
 02230852,0.00650516,0.01058937,-0.10660403,-0.09412788,-0.06481876,-0.
 02554649,-0.02506680,-0.01637909,-0.00409026,0.00115760,-0.00039108,0.
 00147782,-0.00167172,0.00029789,-0.00134100,-0.00100137,0.00001981,0.0
 0008903,0.00076743,-0.00001996,-0.00030170,-0.00047433,0.00006351,0.00
 000534,0.00254150,-0.00076428,0.11995537,0.00464465,0.00196993,-0.0012
 0826,-0.00551844,-0.02641708,-0.00976416,-0.10637443,-0.30457766,-0.16
 097565,0.00311646,0.00729902,0.00510822,-0.00431292,0.00021313,0.00056
 590,0.00154561,-0.00174509,0.00066021,-0.00139254,-0.00089822,-0.00005
 581,-0.00004538,0.00078213,-0.00018814,0.00000928,0.00003627,0.0002804
 4,0.00026019,0.00203673,-0.00037299,0.10823475,0.31885621,-0.00273444,
 0.00027824,0.00685514,-0.00113717,0.01395550,-0.00390122,-0.07060771,-
 0.18592742,-0.10458312,0.00233747,0.00866961,0.00051130,0.00235504,-0.
 00018720,-0.00103978,-0.00081694,0.00065879,-0.00039247,0.00050917,0.0
 0053599,0.00008471,-0.00023334,-0.00034929,0.00001471,-0.00016700,0.00
 061495,-0.00031366,-0.00029431,-0.00213414,0.00023649,0.07150061,0.165
 10128,0.10401673,-0.46443177,0.05106144,0.00443722,-0.03016101,-0.0193
 4248,-0.00410785,0.00018202,0.01023182,0.00013006,-0.00148523,0.000601
 28,0.00037782,0.00435466,-0.00101452,0.00060361,-0.00011265,0.00064332
 ,0.00022927,0.00026121,0.00038945,-0.00018508,0.00005129,0.00025407,-0
 .00007411,0.00073253,-0.00065602,0.00021293,-0.00125350,-0.00060693,-0
 .00044023,-0.00184203,-0.00031065,0.00051723,0.49382876,0.09078797,-0.
 05771307,-0.00664165,-0.04697812,0.01037545,0.00015769,-0.00372554,-0.
 00763211,-0.00018754,0.00056301,0.00269774,0.00064055,-0.00061147,-0.0
 0545125,-0.00132140,0.00053688,-0.00014142,0.00024156,0.00007399,0.000
 17254,0.00013151,0.00010518,-0.00013780,-0.00000779,-0.00021962,-0.000
 24163,0.00031644,-0.00072873,0.00046117,-0.00066665,0.00040436,0.00051
 274,-0.00070962,-0.04181892,0.05685352,0.01430693,-0.00567335,-0.01793
 500,-0.01275389,-0.00025518,-0.00019702,0.00030192,0.00021730,-0.00201
 722,-0.00051821,-0.00175915,-0.00403346,0.00080349,-0.00234807,0.00531
 481,0.00015715,0.00026964,-0.00047291,-0.00013765,0.00005996,-0.000029
 41,0.00004306,0.00039287,-0.00002873,0.00055471,-0.00081123,-0.0002210
 0,-0.00147842,0.00011457,0.00065093,0.00021296,-0.00011185,-0.00053551
 ,-0.00179459,0.00752110,0.01809019,-0.00312211,0.00038400,-0.00087018,
 0.00169074,0.00176777,0.00055744,0.00000904,-0.00041402,-0.00003462,0.
 00003342,-0.00011246,-0.00008429,0.01084102,0.01202817,-0.00167908,-0.
 14971296,-0.13528724,0.01640526,-0.00999632,-0.02563072,0.00346170,-0.
 00529613,0.00063628,-0.00193511,-0.00100809,0.00090290,-0.00010175,-0.
 00075973,0.00316533,-0.00152891,0.00013633,0.00000676,-0.00001691,-0.0
 0019984,0.00004090,-0.00005270,0.15650866,-0.00026174,0.00128831,-0.00
 000126,-0.00203601,-0.00260236,-0.00083165,0.00013839,0.00024330,-0.00
 005810,-0.00007741,0.00019228,0.00007183,-0.01459577,-0.01618436,0.002
 13253,-0.13403023,-0.25610452,0.03019299,0.00335710,0.00723552,0.00019
 792,0.00116045,0.00101538,0.00161338,0.00018148,0.00046489,-0.00036527
 ,0.00380643,-0.00205898,0.00224494,-0.00013240,-0.00003708,0.00005531,
 0.00028978,0.00044945,-0.00011574,0.14271874,0.26634663,-0.00142921,0.
 00012323,-0.00037188,0.00059193,-0.00026681,-0.00308950,0.00021273,-0.
 00057539,0.00007569,0.00005138,-0.00017217,0.00022498,0.00548968,0.005
 92411,0.00247160,0.01564577,0.03023294,-0.04452632,-0.00316218,-0.0037
 1073,0.00652931,-0.00203542,0.00186309,0.00724526,0.00024372,-0.000213
 08,-0.00114483,-0.00176729,0.00209926,0.00518997,0.00013634,0.00009926
 ,-0.00005788,-0.00002486,-0.00030492,0.00004818,-0.01485294,-0.0340882
 7,0.03196106,-0.00007425,-0.00017383,-0.00000056,-0.00000830,0.0016554
 8,-0.00037581,-0.00039870,-0.00015373,-0.00004627,-0.00024589,0.000152
 41,0.00005023,-0.00489654,-0.00087410,-0.00152201,-0.00932892,0.027425
 66,-0.00772423,-0.11477029,0.11004225,-0.03348207,0.01226101,-0.017173
 14,0.00476850,-0.00155223,-0.00378026,-0.00039228,-0.00077343,-0.00079
 462,0.00014066,-0.00004065,-0.00004618,-0.00001364,0.00003461,0.000036
 57,-0.00001712,0.00083388,-0.00000928,0.00068655,0.11787859,0.00003525
 ,-0.00001520,0.00000827,-0.00023014,0.00037932,0.00000641,-0.00005388,
 -0.00009533,0.00000622,-0.00007053,0.00003050,-0.00001977,-0.00098309,
 0.00207055,0.00103806,-0.00230876,0.00447506,-0.00048623,0.11049419,-0
 .27763380,0.06606008,0.01260216,-0.01596362,0.00603829,-0.00359031,-0.
 00223883,0.00170563,-0.00103531,0.00007899,-0.00039532,0.00000823,-0.0
 0001313,0.00000636,0.00000886,0.00002085,-0.00000105,0.00029945,0.0003
 0589,-0.00093056,-0.11606000,0.28886020,-0.00008318,-0.00001028,0.0000
 0769,-0.00024310,0.00030759,0.00062279,-0.00000793,-0.00020842,-0.0001
 3230,0.00002325,0.00002055,-0.00014909,-0.00127210,0.00154754,0.007213
 45,-0.00109628,0.00341747,0.00287024,-0.03351082,0.06595635,-0.0594069
 6,-0.00164352,0.00201974,0.00356044,-0.00054713,0.00158333,0.00723118,
 0.00009833,-0.00037768,-0.00091232,0.00002804,-0.00000849,0.00001726,-
 0.00000002,0.00000932,0.00001746,0.00063358,-0.00100444,-0.00404116,0.
 03699418,-0.07206010,0.04797788,0.00013695,0.00016179,-0.00000957,-0.0
 0072417,0.00004118,0.00009694,0.00002892,-0.00021594,0.00001522,0.0000
 4022,-0.00002138,0.00002295,0.00135475,-0.00022007,0.00027168,-0.00026
 665,-0.00268219,-0.00041110,-0.01004580,0.00305191,-0.00275643,-0.3438
 9212,0.01127366,-0.04098848,-0.00671792,-0.00207459,-0.00115292,0.0005
 8814,0.00167461,-0.00133873,0.00006531,0.00005250,-0.00004459,-0.00001
 799,0.00001226,-0.00002177,-0.00049381,0.00027969,-0.00004493,0.000534
 48,0.00010365,0.00054715,0.35930204,-0.00006936,0.00011721,-0.00001472
 ,0.00013261,-0.00036925,-0.00023081,0.00003415,0.00014411,-0.00002566,
 -0.00001208,0.00005688,0.00001536,-0.00020489,-0.00127817,0.00007252,-
 0.00357774,-0.00396330,0.00206217,-0.02648980,0.00606012,-0.00333896,0
 .01120359,-0.06041220,0.00500001,0.02758912,0.00379510,0.00392886,0.00
 250772,-0.00416192,0.00299181,-0.00010044,-0.00002011,0.00007555,0.000
 03026,0.00000603,0.00001699,-0.00121902,0.00019096,-0.00034107,0.00049
 149,0.00056518,-0.00091401,-0.01149324,0.05875627,-0.00025475,-0.00005
 323,0.00002961,0.00019640,-0.00038233,-0.00135950,0.00024432,0.0000658
 4,0.00018718,0.00001945,-0.00001369,0.00002260,0.00022626,0.00047884,-
 0.00053946,-0.00030875,0.00192564,0.00743394,0.00351074,0.00049470,0.0
 0658313,-0.04089621,0.00497001,-0.05108326,-0.00763686,0.00052411,0.00
 487522,-0.00131438,0.00270235,0.00672266,-0.00002430,-0.00003684,0.000
 00007,0.00001924,-0.00004474,0.00002301,0.00030956,-0.00014324,-0.0005
 8855,0.00046636,-0.00098948,-0.00367695,0.04520555,-0.00830311,0.03539
 684,-0.00065937,-0.00000080,-0.00002575,-0.00005333,-0.00142451,0.0001
 2145,-0.00002921,0.00009111,-0.00007325,-0.00009887,0.00008430,-0.0000
 0063,-0.00458880,0.00134456,-0.00165006,-0.00048195,0.00085135,-0.0001
 0348,-0.00074608,0.00304899,-0.00162844,0.01240864,0.01350380,-0.00216
 354,-0.15043810,-0.13487612,0.01821564,-0.01283305,-0.02572881,0.00420
 156,-0.00005739,-0.00011498,0.00000144,-0.00001045,-0.00009120,-0.0000
 5930,0.00003712,-0.00006138,0.00011762,0.00047372,0.00068483,-0.000023
 36,0.00048518,-0.00023179,0.00056009,0.15579314,0.00018929,-0.00001439
 ,-0.00001114,0.00022393,0.00043180,0.00010796,-0.00003549,0.00001133,0
 .00000960,0.00001263,-0.00001629,-0.00000603,0.00114091,0.00182401,0.0
 0154855,0.00113048,-0.00013675,-0.00010799,0.00295718,-0.00275256,0.00
 275822,-0.01628517,-0.01600668,0.00276859,-0.13547111,-0.25427072,0.03
 451954,0.00408767,0.00643789,-0.00028660,-0.00000651,0.00001431,0.0000
 0354,0.00002792,0.00002998,0.00000410,-0.00004753,-0.00003686,-0.00022
 532,-0.00081788,-0.00074642,-0.00002718,0.00017647,0.00057129,-0.00105
 494,0.14275200,0.26436722,-0.00013069,-0.00015949,-0.00034863,0.000146
 14,-0.00023774,0.00107441,0.00005858,0.00011132,-0.00008263,-0.0000157
 2,0.00000914,-0.00001688,-0.00232389,0.00144736,0.00727356,-0.00032909
 ,-0.00000689,-0.00116292,-0.00142613,0.00272762,0.00658439,0.00492217,
 0.00563733,0.00329862,0.01795027,0.03518629,-0.04616808,-0.00246646,-0
 .00345243,0.00394741,-0.00000014,-0.00002906,0.00008389,0.00005808,0.0
 0001820,-0.00009780,0.00012115,-0.00019047,-0.00087838,0.00029477,0.00
 021563,-0.00022813,0.00053231,-0.00103247,-0.00347094,-0.01815963,-0.0
 3888616,0.03422874,0.00042771,0.00045915,0.00000345,0.00084501,-0.0003
 4193,0.00074624,-0.00194156,0.00038865,0.00028432,-0.00003415,-0.00010
 898,-0.00001295,0.01127439,-0.01494840,0.00503274,-0.00184500,-0.00339
 794,-0.00049937,-0.00084680,-0.00054710,0.00018867,-0.00591626,-0.0009
 2625,-0.00159965,-0.00749853,0.02876352,-0.00901725,-0.10666290,0.0985
 8651,-0.03650463,-0.00195663,-0.00074440,0.00106986,-0.00005870,0.0000
 0181,0.00001428,0.00053477,-0.00078558,0.00010908,0.00007002,0.0001021
 0,0.00014201,-0.00037532,0.00141250,-0.00033016,0.00079642,-0.00002941
 ,0.00076616,0.11325151,-0.00037844,0.00032149,-0.00009434,0.00279540,-
 0.00244759,-0.00048678,0.00024483,0.00138670,-0.00019509,0.00008767,0.
 00065868,-0.00018294,0.01136279,-0.01542276,0.00595054,-0.00470774,-0.
 00152025,0.00147571,-0.00000152,0.00049739,-0.00043883,-0.00043727,0.0
 0162314,0.00188825,-0.00139303,0.00308825,0.00047704,0.10057825,-0.268
 54680,0.07638136,-0.00098453,0.00040468,0.00092118,0.00000572,-0.00014
 206,0.00004860,0.00070559,-0.00066002,0.00047132,0.00010904,-0.0000775
 1,-0.00026643,-0.00014033,-0.00004975,-0.00012604,0.00021115,0.0002832
 3,-0.00134162,-0.10790304,0.28059046,-0.00049368,-0.00057811,-0.000125
 92,0.00076327,-0.00076266,-0.00313345,0.00092562,0.00053241,0.00054862
 ,-0.00011856,-0.00028131,-0.00028640,-0.00322421,0.00129731,0.00108366
 ,-0.00001588,0.00113784,0.00562072,0.00004615,-0.00027547,-0.00111192,
 -0.00126620,0.00151764,0.00742781,-0.00087568,0.00366869,0.00469512,-0
 .03732333,0.07913198,-0.06400084,0.00140460,0.00016557,0.00024170,0.00
 005285,-0.00004957,0.00020497,-0.00031706,0.00025803,0.00096996,0.0001
 3302,-0.00020831,-0.00098022,0.00008122,0.00003857,-0.00054849,0.00064
 481,-0.00111218,-0.00405877,0.03962180,-0.08442116,0.05335238,0.000448
 48,-0.00131144,-0.00115862,-0.00691934,0.00048192,-0.00344582,-0.03040
 767,0.02400605,-0.03495088,-0.06793033,0.03768204,-0.06913888,0.000065
 60,0.00095383,0.00189924,-0.00008978,0.00011613,0.00043229,-0.00007504
 ,-0.00002638,-0.00025568,0.00004421,0.00023849,-0.00003240,0.00024383,
 -0.00025208,0.00016291,-0.00013402,-0.00004167,-0.00032659,-0.00126812
 ,0.00098973,-0.00222474,0.00012808,0.00161065,0.00043916,-0.00003599,0
 .00005774,0.00003202,0.00000287,-0.00000668,-0.00003911,-0.00000223,-0
 .00000308,0.00000742,0.00000239,-0.00000537,0.00000212,-0.00006398,-0.
 00015452,-0.00003873,0.10599105,0.00174958,0.00069267,-0.00077574,0.00
 238136,-0.00515157,0.00179951,-0.00978782,0.00530581,-0.01048735,0.074
 32167,-0.15192623,0.22226687,-0.00148231,0.00018701,-0.00030581,0.0004
 7799,-0.00069008,0.00001006,-0.00045860,-0.00027994,0.00009364,-0.0000
 3851,0.00017171,-0.00004263,-0.00009570,0.00009213,-0.00001761,0.00009
 574,0.00076405,0.00009928,-0.00305522,0.00158324,-0.00156862,0.0002055
 8,-0.00012012,0.00243049,0.00005511,-0.00004843,0.00001511,-0.00002986
 ,-0.00000271,0.00001516,0.00002003,-0.00000846,-0.00001386,-0.00004251
 ,0.00000961,-0.00001655,0.00001879,0.00001273,-0.00005929,-0.06433535,
 0.14940857,0.00042760,-0.00161612,-0.00150141,0.00267360,0.00250145,0.
 00238718,0.00576526,-0.00901264,0.00751562,-0.11800242,0.22087268,-0.3
 4103772,0.00056952,-0.00097033,-0.00035873,0.00019777,0.00034363,-0.00
 002336,0.00008461,0.00001065,0.00007313,0.00004106,0.00008563,-0.00001
 958,0.00020181,-0.00016317,0.00010544,-0.00017697,-0.00024999,-0.00008
 417,-0.00043689,0.00077037,-0.00123836,-0.00001159,0.00089749,0.001218
 51,-0.00001512,0.00003149,-0.00001750,0.00003973,0.00000586,0.00000873
 ,-0.00000448,-0.00000102,-0.00000710,0.00002483,-0.00000256,0.00002215
 ,-0.00001460,-0.00006078,0.00010106,0.10863628,-0.21344265,0.33285612\
 \0.00003676,0.00002552,-0.00000488,0.00001438,0.00002328,0.00001555,-0
 .00000365,-0.00000546,0.00000404,-0.00000280,-0.00003717,-0.00001717,-
 0.00001348,-0.00002017,0.00000273,0.00000190,0.00000746,0.00000140,-0.
 00000112,0.00000805,-0.00000235,-0.00001230,-0.00001324,-0.00000002,-0
 .00001114,0.00000403,-0.00000494,0.00001621,-0.00001119,0.00000674,0.0
 0001819,0.00000164,-0.00001828,-0.00005028,0.00000921,0.00000119,0.000
 00579,0.00000135,0.00000025,-0.00000875,-0.00000050,-0.00000185,-0.000
 00271,-0.00000296,-0.00000179,-0.00000123,-0.00000801,0.00000022,0.000
 00870,0.00000457,-0.00000111,0.00000555,0.00001359,0.00002028\\\@


 SIC AS THE CAWSE OF EWERY THING IS, SIC WILBE THE EFFECT.
 -- PROVERBS AND REASONS OF THE YEAR 1585
           AS REPRINTED IN PAISLEY MAGAZINE 1828.
 Job cpu time:       0 days  0 hours 45 minutes  1.5 seconds.
 Elapsed time:       0 days  0 hours  1 minutes 53.4 seconds.
 File lengths (MBytes):  RWF=    133 Int=      0 D2E=      0 Chk=      8 Scr=      1
 Normal termination of Gaussian 16 at Mon Dec 30 16:54:21 2019.
real 612.23
user 14298.08
sys 54.82
Machine:
brown-a526
brown-a526
brown-a526
brown-a526
brown-a526
brown-a526
brown-a526
brown-a526
brown-a526
brown-a526
brown-a526
brown-a526
brown-a526
brown-a526
brown-a526
brown-a526
brown-a526
brown-a526
brown-a526
brown-a526
