Title Card Required                                                     
Freq      RM062X                                                      6-311++G(d,p)       
Number of atoms                            I               18
Info1-9                                    I   N=           9
          46          46        1002           0           0         100
           6          18        -502
Full Title                                 C   N=           2
Title Card Required     
Route                                      C   N=           6
#P opt freq m062x/6-311++g(d,p) geom=connectivity temperatur
e=0.001     
Charge                                     I                1
Multiplicity                               I                1
Number of electrons                        I               72
Number of alpha electrons                  I               36
Number of beta electrons                   I               36
Number of basis functions                  I              276
Number of independent functions            I              275
Number of point charges in /Mol/           I                0
Number of translation vectors              I                0
Atomic numbers                             I   N=          18
           8           6           7           8           6           6
           6           6           6           6           1           1
           1           1           1           1           1           1
Nuclear charges                            R   N=          18
  8.00000000E+00  6.00000000E+00  7.00000000E+00  8.00000000E+00  6.00000000E+00
  6.00000000E+00  6.00000000E+00  6.00000000E+00  6.00000000E+00  6.00000000E+00
  1.00000000E+00  1.00000000E+00  1.00000000E+00  1.00000000E+00  1.00000000E+00
  1.00000000E+00  1.00000000E+00  1.00000000E+00
Current cartesian coordinates              R   N=          54
 -3.28390293E+00  2.78704970E+00  1.23475851E-04 -2.13731832E+00  8.78428146E-01
  1.51987693E-05 -3.95957983E+00 -1.54657033E+00  5.67485590E-04 -6.46787590E+00
 -8.42642391E-01 -3.36247819E-04  5.29673379E-01  2.90524198E-01 -2.49501008E-04
  2.18606827E+00  2.36281228E+00 -5.79800803E-05  4.76607832E+00  1.93642816E+00
  2.14867738E-05  5.68872190E+00 -5.30664550E-01  1.16446901E-04  4.04469133E+00
 -2.59192765E+00 -6.80500711E-05  1.46065407E+00 -2.19352136E+00 -2.76176523E-04
 -3.63121739E+00 -2.62453016E+00 -1.58014616E+00 -6.44406000E+00  1.01028116E+00
 -1.20497081E-03  1.42511160E+00  4.26353726E+00  7.12384046E-05  6.06060753E+00
  3.52007724E+00  1.49778430E-04  7.71015546E+00 -8.56213204E-01  4.07947811E-04
  4.78454205E+00 -4.49855310E+00 -7.68621115E-05  2.27151109E-01 -3.83253225E+00
 -4.82754643E-04 -3.63241457E+00 -2.62380843E+00  1.58200301E+00
Number of symbols in /Mol/                 I                0
Force Field                                I                0
Atom Types                                 C   N=          18
                                                            
                                                            
                                                            
                                    
Int Atom Types                             I   N=          18
           0           0           0           0           0           0
           0           0           0           0           0           0
           0           0           0           0           0           0
MM charges                                 R   N=          18
  0.00000000E+00  0.00000000E+00  0.00000000E+00  0.00000000E+00  0.00000000E+00
  0.00000000E+00  0.00000000E+00  0.00000000E+00  0.00000000E+00  0.00000000E+00
  0.00000000E+00  0.00000000E+00  0.00000000E+00  0.00000000E+00  0.00000000E+00
  0.00000000E+00  0.00000000E+00  0.00000000E+00
Integer atomic weights                     I   N=          18
          16          12          14          16          12          12
          12          12          12          12           1           1
           1           1           1           1           1           1
Real atomic weights                        R   N=          18
  1.59949146E+01  1.20000000E+01  1.40030740E+01  1.59949146E+01  1.20000000E+01
  1.20000000E+01  1.20000000E+01  1.20000000E+01  1.20000000E+01  1.20000000E+01
  1.00782504E+00  1.00782504E+00  1.00782504E+00  1.00782504E+00  1.00782504E+00
  1.00782504E+00  1.00782504E+00  1.00782504E+00
Atom fragment info                         I   N=          18
           0           0           0           0           0           0
           0           0           0           0           0           0
           0           0           0           0           0           0
Atom residue num                           I   N=          18
           0           0           0           0           0           0
           0           0           0           0           0           0
           0           0           0           0           0           0
Nuclear spins                              I   N=          18
           0           0           2           0           0           0
           0           0           0           0           1           1
           1           1           1           1           1           1
Nuclear ZEff                               R   N=          18
 -5.60000000E+00 -3.60000000E+00 -4.55000000E+00 -5.60000000E+00 -3.60000000E+00
 -3.60000000E+00 -3.60000000E+00 -3.60000000E+00 -3.60000000E+00 -3.60000000E+00
 -1.00000000E+00 -1.00000000E+00 -1.00000000E+00 -1.00000000E+00 -1.00000000E+00
 -1.00000000E+00 -1.00000000E+00 -1.00000000E+00
Nuclear ZNuc                               R   N=          18
  8.00000000E+00  6.00000000E+00  7.00000000E+00  8.00000000E+00  6.00000000E+00
  6.00000000E+00  6.00000000E+00  6.00000000E+00  6.00000000E+00  6.00000000E+00
  1.00000000E+00  1.00000000E+00  1.00000000E+00  1.00000000E+00  1.00000000E+00
  1.00000000E+00  1.00000000E+00  1.00000000E+00
Nuclear QMom                               R   N=          18
  0.00000000E+00  0.00000000E+00  2.04400000E+00  0.00000000E+00  0.00000000E+00
  0.00000000E+00  0.00000000E+00  0.00000000E+00  0.00000000E+00  0.00000000E+00
  0.00000000E+00  0.00000000E+00  0.00000000E+00  0.00000000E+00  0.00000000E+00
  0.00000000E+00  0.00000000E+00  0.00000000E+00
Nuclear GFac                               R   N=          18
  0.00000000E+00  0.00000000E+00  4.03761000E-01  0.00000000E+00  0.00000000E+00
  0.00000000E+00  0.00000000E+00  0.00000000E+00  0.00000000E+00  0.00000000E+00
  2.79284600E+00  2.79284600E+00  2.79284600E+00  2.79284600E+00  2.79284600E+00
  2.79284600E+00  2.79284600E+00  2.79284600E+00
MicOpt                                     I   N=          18
          -1          -1          -1          -1          -1          -1
          -1          -1          -1          -1          -1          -1
          -1          -1          -1          -1          -1          -1
Number of residues                         I                0
Number of secondary structures             I                0
Redundant internal dimensions              I   N=           4
          83          18          28          37
Redundant internal coordinate indices      I   N=         332
           1           2           0           0           2           3
           0           0           2           5           0           0
           3           4           0           0           3          11
           0           0           3          18           0           0
           4          12           0           0           5           6
           0           0           5          10           0           0
           6           7           0           0           6          13
           0           0           7           8           0           0
           7          14           0           0           8           9
           0           0           8          15           0           0
           9          10           0           0           9          16
           0           0          10          17           0           0
           1           2           3           0           1           2
           5           0           3           2           5           0
           2           3           4           0           2           3
          11           0           2           3          18           0
           4           3          11           0           4           3
          18           0          11           3          18           0
           3           4          12           0           2           5
           6           0           2           5          10           0
           6           5          10           0           5           6
           7           0           5           6          13           0
           7           6          13           0           6           7
           8           0           6           7          14           0
           8           7          14           0           7           8
           9           0           7           8          15           0
           9           8          15           0           8           9
          10           0           8           9          16           0
          10           9          16           0           5          10
           9           0           5          10          17           0
           9          10          17           0           1           2
           3           4           1           2           3          11
           1           2           3          18           5           2
           3           4           5           2           3          11
           5           2           3          18           1           2
           5           6           1           2           5          10
           3           2           5           6           3           2
           5          10           2           3           4          12
          11           3           4          12          18           3
           4          12           2           5           6           7
           2           5           6          13          10           5
           6           7          10           5           6          13
           2           5          10           9           2           5
          10          17           6           5          10           9
           6           5          10          17           5           6
           7           8           5           6           7          14
          13           6           7           8          13           6
           7          14           6           7           8           9
           6           7           8          15          14           7
           8           9          14           7           8          15
           7           8           9          10           7           8
           9          16          15           8           9          10
          15           8           9          16           8           9
          10           5           8           9          10          17
          16           9          10           5          16           9
          10          17
Redundant internal coordinates             R   N=          83
  2.22654272E+00  3.03335704E+00  2.73102103E+00  2.60519952E+00  1.94125602E+00
  1.94124119E+00  1.85307680E+00  2.65292706E+00  2.65277352E+00  2.61500579E+00
  2.04739115E+00  2.63397373E+00  2.04542179E+00  2.63659669E+00  2.04748032E+00
  2.61456998E+00  2.04514051E+00  2.05131331E+00  1.95620195E+00  2.32872670E+00
  1.99825665E+00  1.94162177E+00  1.92001080E+00  1.92040721E+00  1.88874138E+00
  1.88860792E+00  1.90360540E+00  1.83154598E+00  2.02814751E+00  2.14634487E+00
  2.10869292E+00  2.08133061E+00  2.08646555E+00  2.11538915E+00  2.09245665E+00
  2.09229384E+00  2.09843481E+00  2.11045038E+00  2.08834987E+00  2.08438506E+00
  2.09108717E+00  2.09817116E+00  2.09392697E+00  2.08235289E+00  2.13785476E+00
  2.06297766E+00  5.69331306E-04  2.09328066E+00 -2.09223588E+00 -3.14112610E+00
 -1.04841478E+00  1.04925400E+00  1.52943226E-04  3.14156653E+00 -3.14130857E+00
  1.05020531E-04  6.24142123E-05 -2.11109543E+00  2.11162404E+00  3.14145470E+00
 -1.11928259E-04  3.69607076E-05 -3.14152967E+00 -3.14138671E+00  2.22000954E-04
  1.88703483E-05 -3.14155773E+00 -8.98402341E-05  3.14158181E+00  3.14147634E+00
 -3.73173454E-05  8.88317312E-05 -3.14146368E+00 -3.14158310E+00  4.96978903E-05
 -3.22865733E-05  3.14154448E+00  3.14152032E+00 -8.82199939E-05 -2.11822404E-05
  3.14155611E+00  3.14158732E+00 -2.07032585E-05
ZRed-IntVec                                I   N=          83
           0           0           0           0           0           0
           0           0           0           0           0           0
           0           0           0           0           0           0
           0           0           0           0           0           0
           0           0           0           0           0           0
           0           0           0           0           0           0
           0           0           0           0           0           0
           0           0           0           0           0           0
           0           0           0           0           0           0
           0           0           0           0           0           0
           0           0           0           0           0           0
           0           0           0           0           0           0
           0           0           0           0           0           0
           0           0           0           0           0
ZRed-FPVec                                 R   N=          83
  0.00000000E+00  0.00000000E+00  0.00000000E+00  0.00000000E+00  0.00000000E+00
  0.00000000E+00  0.00000000E+00  0.00000000E+00  0.00000000E+00  0.00000000E+00
  0.00000000E+00  0.00000000E+00  0.00000000E+00  0.00000000E+00  0.00000000E+00
  0.00000000E+00  0.00000000E+00  0.00000000E+00  0.00000000E+00  0.00000000E+00
  0.00000000E+00  0.00000000E+00  0.00000000E+00  0.00000000E+00  0.00000000E+00
  0.00000000E+00  0.00000000E+00  0.00000000E+00  0.00000000E+00  0.00000000E+00
  0.00000000E+00  0.00000000E+00  0.00000000E+00  0.00000000E+00  0.00000000E+00
  0.00000000E+00  0.00000000E+00  0.00000000E+00  0.00000000E+00  0.00000000E+00
  0.00000000E+00  0.00000000E+00  0.00000000E+00  0.00000000E+00  0.00000000E+00
  0.00000000E+00  0.00000000E+00  0.00000000E+00  0.00000000E+00  0.00000000E+00
  0.00000000E+00  0.00000000E+00  0.00000000E+00  0.00000000E+00  0.00000000E+00
  0.00000000E+00  0.00000000E+00  0.00000000E+00  0.00000000E+00  0.00000000E+00
  0.00000000E+00  0.00000000E+00  0.00000000E+00  0.00000000E+00  0.00000000E+00
  0.00000000E+00  0.00000000E+00  0.00000000E+00  0.00000000E+00  0.00000000E+00
  0.00000000E+00  0.00000000E+00  0.00000000E+00  0.00000000E+00  0.00000000E+00
  0.00000000E+00  0.00000000E+00  0.00000000E+00  0.00000000E+00  0.00000000E+00
  0.00000000E+00  0.00000000E+00  0.00000000E+00
ZRed-Constraint1                           R   N=          83
  2.22654272E+00  3.03335704E+00  2.73102103E+00  2.60519952E+00  1.94125602E+00
  1.94124119E+00  1.85307680E+00  2.65292706E+00  2.65277352E+00  2.61500579E+00
  2.04739115E+00  2.63397373E+00  2.04542179E+00  2.63659669E+00  2.04748032E+00
  2.61456998E+00  2.04514051E+00  2.05131331E+00  1.95620195E+00  2.32872670E+00
  1.99825665E+00  1.94162177E+00  1.92001080E+00  1.92040721E+00  1.88874138E+00
  1.88860792E+00  1.90360540E+00  1.83154598E+00  2.02814751E+00  2.14634487E+00
  2.10869292E+00  2.08133061E+00  2.08646555E+00  2.11538915E+00  2.09245665E+00
  2.09229384E+00  2.09843481E+00  2.11045038E+00  2.08834987E+00  2.08438506E+00
  2.09108717E+00  2.09817116E+00  2.09392697E+00  2.08235289E+00  2.13785476E+00
  2.06297766E+00  5.69331306E-04  2.09328066E+00 -2.09223588E+00 -3.14112610E+00
 -1.04841478E+00  1.04925400E+00  1.52943223E-04  3.14156653E+00 -3.14130857E+00
  1.05020531E-04  6.24142105E-05 -2.11109543E+00  2.11162404E+00  3.14145470E+00
 -1.11928257E-04  3.69607136E-05 -3.14152967E+00 -3.14138671E+00  2.22000953E-04
  1.88703425E-05 -3.14155773E+00 -8.98402378E-05  3.14158181E+00  3.14147634E+00
 -3.73173484E-05  8.88317337E-05 -3.14146368E+00 -3.14158310E+00  4.96978925E-05
 -3.22865802E-05  3.14154448E+00  3.14152032E+00 -8.82199964E-05 -2.11822404E-05
  3.14155611E+00  3.14158732E+00 -2.07032585E-05
ZRed-Constraint2                           R   N=          83
  2.37042600E+00  2.56686871E+00  2.69212010E+00  2.46256744E+00  1.88972612E+00
  1.88972613E+00  1.81425682E+00  2.68079727E+00  2.68134356E+00  2.66162179E+00
  2.05987058E+00  2.65588958E+00  2.05985610E+00  2.65386792E+00  2.05986744E+00
  2.65815695E+00  2.05982965E+00  2.05968376E+00  2.06831842E+00  2.10354759E+00
  2.11107346E+00  2.14766115E+00  1.85810429E+00  1.85810430E+00  1.85810431E+00
  1.85810429E+00  1.86863165E+00  1.91057821E+00  2.11393073E+00  2.11273003E+00
  2.05644500E+00  2.11189626E+00  2.09211145E+00  2.07917760E+00  2.09567103E+00
  2.09553442E+00  2.09197986E+00  2.09172674E+00  2.09652492E+00  2.09493365E+00
  2.09444858E+00  2.09284404E+00  2.09589268E+00  2.11496953E+00  2.09165384E+00
  2.07656193E+00  3.45076503E-02  2.18145600E+00 -2.11244069E+00 -3.13079127E+00
 -9.83842925E-01  1.00544570E+00  3.30106556E-01 -2.82533641E+00 -2.78730213E+00
  3.40440210E-01  1.21845862E+00 -9.28489722E-01 -2.91777835E+00  3.08121506E+00
 -6.03108030E-02 -4.69604816E-02  3.09469896E+00 -3.08367210E+00  5.77846111E-02
  4.45131511E-02 -3.09721544E+00  1.32906880E-02 -3.12835664E+00 -3.12836827E+00
  1.31697150E-02  2.43687679E-02 -3.11712533E+00 -3.11716932E+00  2.45218821E-02
 -2.68533657E-02  3.11468554E+00  3.11464083E+00 -2.70055782E-02 -8.25883217E-03
  3.13346861E+00  3.13338767E+00 -8.07020010E-03
SymInf integers                            I   N=          26
           1           1           1           1           1           0
           0           0           0           0           0           0
           0           0           0           0           0           0
           0           0           0           0           0           0
           0           0
RotTr to input orientation                 R   N=          12
  9.80257340E-01 -1.82343680E-01  7.64612886E-02 -1.89655893E-01 -9.76452160E-01
  1.02819363E-01  5.59123293E-02 -1.15290770E-01 -9.91756951E-01 -1.65925051E+00
  2.68165499E+00 -2.50588895E-01
Number of contracted shells                I              100
Number of primitive shells                 I              186
Pure/Cartesian d shells                    I                0
Pure/Cartesian f shells                    I                0
Highest angular momentum                   I                2
Largest degree of contraction              I                6
Shell types                                I   N=         100
           0          -1          -1          -1          -1          -2
           0          -1          -1          -1          -1          -2
           0          -1          -1          -1          -1          -2
           0          -1          -1          -1          -1          -2
           0          -1          -1          -1          -1          -2
           0          -1          -1          -1          -1          -2
           0          -1          -1          -1          -1          -2
           0          -1          -1          -1          -1          -2
           0          -1          -1          -1          -1          -2
           0          -1          -1          -1          -1          -2
           0           0           0           0           1           0
           0           0           0           1           0           0
           0           0           1           0           0           0
           0           1           0           0           0           0
           1           0           0           0           0           1
           0           0           0           0           1           0
           0           0           0           1
Number of primitives per shell             I   N=         100
           6           3           1           1           1           1
           6           3           1           1           1           1
           6           3           1           1           1           1
           6           3           1           1           1           1
           6           3           1           1           1           1
           6           3           1           1           1           1
           6           3           1           1           1           1
           6           3           1           1           1           1
           6           3           1           1           1           1
           6           3           1           1           1           1
           3           1           1           1           1           3
           1           1           1           1           3           1
           1           1           1           3           1           1
           1           1           3           1           1           1
           1           3           1           1           1           1
           3           1           1           1           1           3
           1           1           1           1
Shell to atom map                          I   N=         100
           1           1           1           1           1           1
           2           2           2           2           2           2
           3           3           3           3           3           3
           4           4           4           4           4           4
           5           5           5           5           5           5
           6           6           6           6           6           6
           7           7           7           7           7           7
           8           8           8           8           8           8
           9           9           9           9           9           9
          10          10          10          10          10          10
          11          11          11          11          11          12
          12          12          12          12          13          13
          13          13          13          14          14          14
          14          14          15          15          15          15
          15          16          16          16          16          16
          17          17          17          17          17          18
          18          18          18          18
Primitive exponents                        R   N=         186
  8.58850000E+03  1.29723000E+03  2.99296000E+02  8.73771000E+01  2.56789000E+01
  3.74004000E+00  4.21175000E+01  9.62837000E+00  2.85332000E+00  9.05661000E-01
  2.55611000E-01  8.45000000E-02  1.29200000E+00  4.56324000E+03  6.82024000E+02
  1.54973000E+02  4.44553000E+01  1.30290000E+01  1.82773000E+00  2.09642000E+01
  4.80331000E+00  1.45933000E+00  4.83456000E-01  1.45585000E-01  4.38000000E-02
  6.26000000E-01  6.29348000E+03  9.49044000E+02  2.18776000E+02  6.36916000E+01
  1.88282000E+01  2.72023000E+00  3.06331000E+01  7.02614000E+00  2.11205000E+00
  6.84009000E-01  2.00878000E-01  6.39000000E-02  9.13000000E-01  8.58850000E+03
  1.29723000E+03  2.99296000E+02  8.73771000E+01  2.56789000E+01  3.74004000E+00
  4.21175000E+01  9.62837000E+00  2.85332000E+00  9.05661000E-01  2.55611000E-01
  8.45000000E-02  1.29200000E+00  4.56324000E+03  6.82024000E+02  1.54973000E+02
  4.44553000E+01  1.30290000E+01  1.82773000E+00  2.09642000E+01  4.80331000E+00
  1.45933000E+00  4.83456000E-01  1.45585000E-01  4.38000000E-02  6.26000000E-01
  4.56324000E+03  6.82024000E+02  1.54973000E+02  4.44553000E+01  1.30290000E+01
  1.82773000E+00  2.09642000E+01  4.80331000E+00  1.45933000E+00  4.83456000E-01
  1.45585000E-01  4.38000000E-02  6.26000000E-01  4.56324000E+03  6.82024000E+02
  1.54973000E+02  4.44553000E+01  1.30290000E+01  1.82773000E+00  2.09642000E+01
  4.80331000E+00  1.45933000E+00  4.83456000E-01  1.45585000E-01  4.38000000E-02
  6.26000000E-01  4.56324000E+03  6.82024000E+02  1.54973000E+02  4.44553000E+01
  1.30290000E+01  1.82773000E+00  2.09642000E+01  4.80331000E+00  1.45933000E+00
  4.83456000E-01  1.45585000E-01  4.38000000E-02  6.26000000E-01  4.56324000E+03
  6.82024000E+02  1.54973000E+02  4.44553000E+01  1.30290000E+01  1.82773000E+00
  2.09642000E+01  4.80331000E+00  1.45933000E+00  4.83456000E-01  1.45585000E-01
  4.38000000E-02  6.26000000E-01  4.56324000E+03  6.82024000E+02  1.54973000E+02
  4.44553000E+01  1.30290000E+01  1.82773000E+00  2.09642000E+01  4.80331000E+00
  1.45933000E+00  4.83456000E-01  1.45585000E-01  4.38000000E-02  6.26000000E-01
  3.38650000E+01  5.09479000E+00  1.15879000E+00  3.25840000E-01  1.02741000E-01
  3.60000000E-02  7.50000000E-01  3.38650000E+01  5.09479000E+00  1.15879000E+00
  3.25840000E-01  1.02741000E-01  3.60000000E-02  7.50000000E-01  3.38650000E+01
  5.09479000E+00  1.15879000E+00  3.25840000E-01  1.02741000E-01  3.60000000E-02
  7.50000000E-01  3.38650000E+01  5.09479000E+00  1.15879000E+00  3.25840000E-01
  1.02741000E-01  3.60000000E-02  7.50000000E-01  3.38650000E+01  5.09479000E+00
  1.15879000E+00  3.25840000E-01  1.02741000E-01  3.60000000E-02  7.50000000E-01
  3.38650000E+01  5.09479000E+00  1.15879000E+00  3.25840000E-01  1.02741000E-01
  3.60000000E-02  7.50000000E-01  3.38650000E+01  5.09479000E+00  1.15879000E+00
  3.25840000E-01  1.02741000E-01  3.60000000E-02  7.50000000E-01  3.38650000E+01
  5.09479000E+00  1.15879000E+00  3.25840000E-01  1.02741000E-01  3.60000000E-02
  7.50000000E-01
Contraction coefficients                   R   N=         186
  1.89515008E-03  1.43859006E-02  7.07320031E-02  2.40001011E-01  5.94797026E-01
  2.80802012E-01  1.13889012E-01  9.20811101E-01 -3.27447036E-03  1.00000000E+00
  1.00000000E+00  1.00000000E+00  1.00000000E+00  1.96665025E-03  1.52306019E-02
  7.61269097E-02  2.60801033E-01  6.16462078E-01  2.21006028E-01  1.14660081E-01
  9.19999648E-01 -3.03068213E-03  1.00000000E+00  1.00000000E+00  1.00000000E+00
  1.00000000E+00  1.96978815E-03  1.49612859E-02  7.35005308E-02  2.48936766E-01
  6.02459433E-01  2.56201759E-01  1.11906080E-01  9.21666655E-01 -2.56919183E-03
  1.00000000E+00  1.00000000E+00  1.00000000E+00  1.00000000E+00  1.89515008E-03
  1.43859006E-02  7.07320031E-02  2.40001011E-01  5.94797026E-01  2.80802012E-01
  1.13889012E-01  9.20811101E-01 -3.27447036E-03  1.00000000E+00  1.00000000E+00
  1.00000000E+00  1.00000000E+00  1.96665025E-03  1.52306019E-02  7.61269097E-02
  2.60801033E-01  6.16462078E-01  2.21006028E-01  1.14660081E-01  9.19999648E-01
 -3.03068213E-03  1.00000000E+00  1.00000000E+00  1.00000000E+00  1.00000000E+00
  1.96665025E-03  1.52306019E-02  7.61269097E-02  2.60801033E-01  6.16462078E-01
  2.21006028E-01  1.14660081E-01  9.19999648E-01 -3.03068213E-03  1.00000000E+00
  1.00000000E+00  1.00000000E+00  1.00000000E+00  1.96665025E-03  1.52306019E-02
  7.61269097E-02  2.60801033E-01  6.16462078E-01  2.21006028E-01  1.14660081E-01
  9.19999648E-01 -3.03068213E-03  1.00000000E+00  1.00000000E+00  1.00000000E+00
  1.00000000E+00  1.96665025E-03  1.52306019E-02  7.61269097E-02  2.60801033E-01
  6.16462078E-01  2.21006028E-01  1.14660081E-01  9.19999648E-01 -3.03068213E-03
  1.00000000E+00  1.00000000E+00  1.00000000E+00  1.00000000E+00  1.96665025E-03
  1.52306019E-02  7.61269097E-02  2.60801033E-01  6.16462078E-01  2.21006028E-01
  1.14660081E-01  9.19999648E-01 -3.03068213E-03  1.00000000E+00  1.00000000E+00
  1.00000000E+00  1.00000000E+00  1.96665025E-03  1.52306019E-02  7.61269097E-02
  2.60801033E-01  6.16462078E-01  2.21006028E-01  1.14660081E-01  9.19999648E-01
 -3.03068213E-03  1.00000000E+00  1.00000000E+00  1.00000000E+00  1.00000000E+00
  2.54938145E-02  1.90373109E-01  8.52161486E-01  1.00000000E+00  1.00000000E+00
  1.00000000E+00  1.00000000E+00  2.54938145E-02  1.90373109E-01  8.52161486E-01
  1.00000000E+00  1.00000000E+00  1.00000000E+00  1.00000000E+00  2.54938145E-02
  1.90373109E-01  8.52161486E-01  1.00000000E+00  1.00000000E+00  1.00000000E+00
  1.00000000E+00  2.54938145E-02  1.90373109E-01  8.52161486E-01  1.00000000E+00
  1.00000000E+00  1.00000000E+00  1.00000000E+00  2.54938145E-02  1.90373109E-01
  8.52161486E-01  1.00000000E+00  1.00000000E+00  1.00000000E+00  1.00000000E+00
  2.54938145E-02  1.90373109E-01  8.52161486E-01  1.00000000E+00  1.00000000E+00
  1.00000000E+00  1.00000000E+00  2.54938145E-02  1.90373109E-01  8.52161486E-01
  1.00000000E+00  1.00000000E+00  1.00000000E+00  1.00000000E+00  2.54938145E-02
  1.90373109E-01  8.52161486E-01  1.00000000E+00  1.00000000E+00  1.00000000E+00
  1.00000000E+00
P(S=P) Contraction coefficients            R   N=         186
  0.00000000E+00  0.00000000E+00  0.00000000E+00  0.00000000E+00  0.00000000E+00
  0.00000000E+00  3.65113974E-02  2.37152983E-01  8.19701941E-01  1.00000000E+00
  1.00000000E+00  1.00000000E+00  0.00000000E+00  0.00000000E+00  0.00000000E+00
  0.00000000E+00  0.00000000E+00  0.00000000E+00  0.00000000E+00  4.02486927E-02
  2.37593957E-01  8.15853851E-01  1.00000000E+00  1.00000000E+00  1.00000000E+00
  0.00000000E+00  0.00000000E+00  0.00000000E+00  0.00000000E+00  0.00000000E+00
  0.00000000E+00  0.00000000E+00  3.83119186E-02  2.37403116E-01  8.17592398E-01
  1.00000000E+00  1.00000000E+00  1.00000000E+00  0.00000000E+00  0.00000000E+00
  0.00000000E+00  0.00000000E+00  0.00000000E+00  0.00000000E+00  0.00000000E+00
  3.65113974E-02  2.37152983E-01  8.19701941E-01  1.00000000E+00  1.00000000E+00
  1.00000000E+00  0.00000000E+00  0.00000000E+00  0.00000000E+00  0.00000000E+00