Title Card Required                                                     
Freq      RM062X                                                      6-311++G(d,p)       
Number of atoms                            I               15
Info1-9                                    I   N=           9
          40          40        1002           0           0         100
           6          18        -502
Full Title                                 C   N=           2
Title Card Required     
Route                                      C   N=           6
#P opt freq m062x/6-311++g(d,p) geom=connectivity temperatur
e=0.001     
Charge                                     I                0
Multiplicity                               I                1
Number of electrons                        I               64
Number of alpha electrons                  I               32
Number of beta electrons                   I               32
Number of basis functions                  I              240
Number of independent functions            I              240
Number of point charges in /Mol/           I                0
Number of translation vectors              I                0
Atomic numbers                             I   N=          15
           8           6           6           6           6           6
           6           6           8           1           1           1
           1           1           1
Nuclear charges                            R   N=          15
  8.00000000E+00  6.00000000E+00  6.00000000E+00  6.00000000E+00  6.00000000E+00
  6.00000000E+00  6.00000000E+00  6.00000000E+00  8.00000000E+00  1.00000000E+00
  1.00000000E+00  1.00000000E+00  1.00000000E+00  1.00000000E+00  1.00000000E+00
Current cartesian coordinates              R   N=          45
 -4.35128300E+00 -2.04501457E+00  1.14934734E-03 -3.21338229E+00  2.33836873E-01
 -1.33989920E-04 -4.07313283E-01  5.79784917E-02 -3.78058473E-05  8.37661077E-01
 -2.26491238E+00 -4.82013762E-04  3.46287117E+00 -2.32931890E+00 -5.09717264E-04
  4.83492378E+00 -8.55865866E-02  3.40663524E-05  3.58789542E+00  2.23218284E+00
  5.26975233E-04  9.66107850E-01  2.30677217E+00  4.34343482E-04 -4.39124185E+00
  2.17575675E+00 -1.13957946E-03 -6.15162414E+00 -1.74239368E+00  9.15249366E-04
 -2.50977660E-01 -3.99646962E+00 -8.16697304E-04  4.43839090E+00 -4.12884619E+00
 -9.10916866E-04  6.88209494E+00 -1.42453002E-01  7.82907130E-05  4.66086287E+00
  3.97528428E+00  9.50195043E-04 -5.11304508E-02  4.08322581E+00  7.14586334E-04
Number of symbols in /Mol/                 I                0
Force Field                                I                0
Atom Types                                 C   N=          15
                                                            
                                                            
                                                            
Int Atom Types                             I   N=          15
           0           0           0           0           0           0
           0           0           0           0           0           0
           0           0           0
MM charges                                 R   N=          15
  0.00000000E+00  0.00000000E+00  0.00000000E+00  0.00000000E+00  0.00000000E+00
  0.00000000E+00  0.00000000E+00  0.00000000E+00  0.00000000E+00  0.00000000E+00
  0.00000000E+00  0.00000000E+00  0.00000000E+00  0.00000000E+00  0.00000000E+00
Integer atomic weights                     I   N=          15
          16          12          12          12          12          12
          12          12          16           1           1           1
           1           1           1
Real atomic weights                        R   N=          15
  1.59949146E+01  1.20000000E+01  1.20000000E+01  1.20000000E+01  1.20000000E+01
  1.20000000E+01  1.20000000E+01  1.20000000E+01  1.59949146E+01  1.00782504E+00
  1.00782504E+00  1.00782504E+00  1.00782504E+00  1.00782504E+00  1.00782504E+00
Atom fragment info                         I   N=          15
           0           0           0           0           0           0
           0           0           0           0           0           0
           0           0           0
Atom residue num                           I   N=          15
           0           0           0           0           0           0
           0           0           0           0           0           0
           0           0           0
Nuclear spins                              I   N=          15
           0           0           0           0           0           0
           0           0           0           1           1           1
           1           1           1
Nuclear ZEff                               R   N=          15
 -5.60000000E+00 -3.60000000E+00 -3.60000000E+00 -3.60000000E+00 -3.60000000E+00
 -3.60000000E+00 -3.60000000E+00 -3.60000000E+00 -5.60000000E+00 -1.00000000E+00
 -1.00000000E+00 -1.00000000E+00 -1.00000000E+00 -1.00000000E+00 -1.00000000E+00
Nuclear ZNuc                               R   N=          15
  8.00000000E+00  6.00000000E+00  6.00000000E+00  6.00000000E+00  6.00000000E+00
  6.00000000E+00  6.00000000E+00  6.00000000E+00  8.00000000E+00  1.00000000E+00
  1.00000000E+00  1.00000000E+00  1.00000000E+00  1.00000000E+00  1.00000000E+00
Nuclear QMom                               R   N=          15
  0.00000000E+00  0.00000000E+00  0.00000000E+00  0.00000000E+00  0.00000000E+00
  0.00000000E+00  0.00000000E+00  0.00000000E+00  0.00000000E+00  0.00000000E+00
  0.00000000E+00  0.00000000E+00  0.00000000E+00  0.00000000E+00  0.00000000E+00
Nuclear GFac                               R   N=          15
  0.00000000E+00  0.00000000E+00  0.00000000E+00  0.00000000E+00  0.00000000E+00
  0.00000000E+00  0.00000000E+00  0.00000000E+00  0.00000000E+00  2.79284600E+00
  2.79284600E+00  2.79284600E+00  2.79284600E+00  2.79284600E+00  2.79284600E+00
MicOpt                                     I   N=          15
          -1          -1          -1          -1          -1          -1
          -1          -1          -1          -1          -1          -1
          -1          -1          -1
Number of residues                         I                0
Number of secondary structures             I                0
Redundant internal dimensions              I   N=           4
          67          15          22          30
Redundant internal coordinate indices      I   N=         268
           1           2           0           0           1          10
           0           0           2           3           0           0
           2           9           0           0           3           4
           0           0           3           8           0           0
           4           5           0           0           4          11
           0           0           5           6           0           0
           5          12           0           0           6           7
           0           0           6          13           0           0
           7           8           0           0           7          14
           0           0           8          15           0           0
           2           1          10           0           1           2
           3           0           1           2           9           0
           3           2           9           0           2           3
           4           0           2           3           8           0
           4           3           8           0           3           4
           5           0           3           4          11           0
           5           4          11           0           4           5
           6           0           4           5          12           0
           6           5          12           0           5           6
           7           0           5           6          13           0
           7           6          13           0           6           7
           8           0           6           7          14           0
           8           7          14           0           3           8
           7           0           3           8          15           0
           7           8          15           0          10           1
           2           3          10           1           2           9
           1           2           3           4           1           2
           3           8           9           2           3           4
           9           2           3           8           2           3
           4           5           2           3           4          11
           8           3           4           5           8           3
           4          11           2           3           8           7
           2           3           8          15           4           3
           8           7           4           3           8          15
           3           4           5           6           3           4
           5          12          11           4           5           6
          11           4           5          12           4           5
           6           7           4           5           6          13
          12           5           6           7          12           5
           6          13           5           6           7           8
           5           6           7          14          13           6
           7           8          13           6           7          14
           6           7           8           3           6           7
           8          15          14           7           8           3
          14           7           8          15
Redundant internal coordinates             R   N=          67
  2.54715205E+00  1.82559790E+00  2.81157420E+00  2.27121266E+00  2.63548541E+00
  2.63502539E+00  2.62600004E+00  2.04534224E+00  2.62999303E+00  2.04693366E+00
  2.63194512E+00  2.04796083E+00  2.62284838E+00  2.04686637E+00  2.04708607E+00
  1.86737426E+00  1.97131949E+00  2.13326341E+00  2.17860241E+00  2.12538451E+00
  2.05648431E+00  2.10131649E+00  2.08732459E+00  2.08833417E+00  2.10752655E+00
  2.09510322E+00  2.09208125E+00  2.09600083E+00  2.09915044E+00  2.09186126E+00
  2.09217361E+00  2.09284483E+00  2.09621079E+00  2.09412969E+00  2.09063105E+00
  2.07326971E+00  2.11928455E+00 -3.14155508E+00  8.22764967E-05  7.81075132E-04
 -3.14084648E+00 -3.14085765E+00  7.00107477E-04  3.14153160E+00 -5.23104919E-05
 -2.52666798E-05  3.14157613E+00 -3.14158669E+00  1.84287065E-06 -2.84370576E-05
  3.14156010E+00  5.71020216E-05 -3.14156054E+00 -3.14154439E+00  2.32790049E-05
 -3.55959081E-05  3.14155468E+00  3.14158210E+00 -1.29363966E-05 -1.83912568E-05
  3.14159232E+00  3.14157665E+00  2.05214473E-06  5.01349895E-05 -3.14153829E+00
 -3.14156056E+00  3.63255684E-05
ZRed-IntVec                                I   N=          67
           0           0           0           0           0           0
           0           0           0           0           0           0
           0           0           0           0           0           0
           0           0           0           0           0           0
           0           0           0           0           0           0
           0           0           0           0           0           0
           0           0           0           0           0           0
           0           0           0           0           0           0
           0           0           0           0           0           0
           0           0           0           0           0           0
           0           0           0           0           0           0
           0
ZRed-FPVec                                 R   N=          67
  0.00000000E+00  0.00000000E+00  0.00000000E+00  0.00000000E+00  0.00000000E+00
  0.00000000E+00  0.00000000E+00  0.00000000E+00  0.00000000E+00  0.00000000E+00
  0.00000000E+00  0.00000000E+00  0.00000000E+00  0.00000000E+00  0.00000000E+00
  0.00000000E+00  0.00000000E+00  0.00000000E+00  0.00000000E+00  0.00000000E+00
  0.00000000E+00  0.00000000E+00  0.00000000E+00  0.00000000E+00  0.00000000E+00
  0.00000000E+00  0.00000000E+00  0.00000000E+00  0.00000000E+00  0.00000000E+00
  0.00000000E+00  0.00000000E+00  0.00000000E+00  0.00000000E+00  0.00000000E+00
  0.00000000E+00  0.00000000E+00  0.00000000E+00  0.00000000E+00  0.00000000E+00
  0.00000000E+00  0.00000000E+00  0.00000000E+00  0.00000000E+00  0.00000000E+00
  0.00000000E+00  0.00000000E+00  0.00000000E+00  0.00000000E+00  0.00000000E+00
  0.00000000E+00  0.00000000E+00  0.00000000E+00  0.00000000E+00  0.00000000E+00
  0.00000000E+00  0.00000000E+00  0.00000000E+00  0.00000000E+00  0.00000000E+00
  0.00000000E+00  0.00000000E+00  0.00000000E+00  0.00000000E+00  0.00000000E+00
  0.00000000E+00  0.00000000E+00
ZRed-Constraint1                           R   N=          67
  2.54715205E+00  1.82559790E+00  2.81157420E+00  2.27121266E+00  2.63548541E+00
  2.63502539E+00  2.62600004E+00  2.04534224E+00  2.62999303E+00  2.04693366E+00
  2.63194512E+00  2.04796083E+00  2.62284838E+00  2.04686637E+00  2.04708607E+00
  1.86737426E+00  1.97131949E+00  2.13326341E+00  2.17860241E+00  2.12538451E+00
  2.05648431E+00  2.10131649E+00  2.08732459E+00  2.08833417E+00  2.10752655E+00
  2.09510322E+00  2.09208125E+00  2.09600083E+00  2.09915044E+00  2.09186126E+00
  2.09217361E+00  2.09284483E+00  2.09621079E+00  2.09412969E+00  2.09063105E+00
  2.07326971E+00  2.11928455E+00 -3.14155508E+00  8.22764967E-05  7.81075132E-04
 -3.14084648E+00 -3.14085765E+00  7.00107477E-04  3.14153160E+00 -5.23104876E-05
 -2.52666798E-05  3.14157613E+00 -3.14158669E+00  1.84287065E-06 -2.84370498E-05
  3.14156010E+00  5.71020177E-05 -3.14156054E+00 -3.14154439E+00  2.32790049E-05
 -3.55958987E-05  3.14155468E+00  3.14158210E+00 -1.29364223E-05 -1.83912568E-05
  3.14159232E+00  3.14157665E+00  2.05214473E-06  5.01349851E-05 -3.14153829E+00
 -3.14156056E+00  3.63255684E-05
ZRed-Constraint2                           R   N=          67
  2.56231654E+00  1.81408100E+00  2.68216413E+00  2.36756909E+00  2.67897515E+00
  2.67945552E+00  2.65973477E+00  2.05982542E+00  2.65726068E+00  2.05979018E+00
  2.65598536E+00  2.05978839E+00  2.65716873E+00  2.05979403E+00  2.05979295E+00
  1.91074124E+00  2.12320091E+00  2.03205648E+00  2.12759966E+00  2.10891337E+00
  2.11020227E+00  2.06402321E+00  2.10805284E+00  2.09377918E+00  2.08135329E+00
  2.09625631E+00  2.09439757E+00  2.09253143E+00  2.09215497E+00  2.09594545E+00
  2.09508488E+00  2.09506964E+00  2.09370754E+00  2.09440811E+00  2.11051933E+00
  2.09366309E+00  2.07900288E+00  1.55232449E+00 -1.56222923E+00  1.35407841E-01
 -2.99564569E+00 -3.03470654E+00  1.17425234E-01 -3.10771062E+00  3.38613308E-02
  2.36156791E-02 -3.11799768E+00  3.10671737E+00 -3.49614842E-02 -2.46010150E-02
  3.11690544E+00 -6.73576901E-03  3.13484482E+00  3.13487744E+00 -6.72727921E-03
 -9.80429239E-03  3.13185890E+00  3.13180042E+00 -9.72169588E-03  8.85554764E-03
 -3.13289467E+00 -3.13280761E+00  8.62747535E-03  8.65475345E-03 -3.13285241E+00
 -3.13278027E+00  8.89787103E-03
SymInf integers                            I   N=          26
           1           1           1           1           1           0
           0           0           0           0           0           0
           0           0           0           0           0           0
           0           0           0           0           0           0
           0           0
RotTr to input orientation                 R   N=          12
  9.89979829E-01  6.95456683E-02 -1.22895643E-01 -7.42740175E-02  9.96647273E-01
 -3.43159313E-02  1.20097083E-01  4.31000329E-02  9.91826133E-01 -6.41492251E-01
  2.12888731E+00  3.06026599E-01
Number of contracted shells                I               84
Number of primitive shells                 I              159
Pure/Cartesian d shells                    I                0
Pure/Cartesian f shells                    I                0
Highest angular momentum                   I                2
Largest degree of contraction              I                6
Shell types                                I   N=          84
           0          -1          -1          -1          -1          -2
           0          -1          -1          -1          -1          -2
           0          -1          -1          -1          -1          -2
           0          -1          -1          -1          -1          -2
           0          -1          -1          -1          -1          -2
           0          -1          -1          -1          -1          -2
           0          -1          -1          -1          -1          -2
           0          -1          -1          -1          -1          -2
           0          -1          -1          -1          -1          -2
           0           0           0           0           1           0
           0           0           0           1           0           0
           0           0           1           0           0           0
           0           1           0           0           0           0
           1           0           0           0           0           1
Number of primitives per shell             I   N=          84
           6           3           1           1           1           1
           6           3           1           1           1           1
           6           3           1           1           1           1
           6           3           1           1           1           1
           6           3           1           1           1           1
           6           3           1           1           1           1
           6           3           1           1           1           1
           6           3           1           1           1           1
           6           3           1           1           1           1
           3           1           1           1           1           3
           1           1           1           1           3           1
           1           1           1           3           1           1
           1           1           3           1           1           1
           1           3           1           1           1           1
Shell to atom map                          I   N=          84
           1           1           1           1           1           1
           2           2           2           2           2           2
           3           3           3           3           3           3
           4           4           4           4           4           4
           5           5           5           5           5           5
           6           6           6           6           6           6
           7           7           7           7           7           7
           8           8           8           8           8           8
           9           9           9           9           9           9
          10          10          10          10          10          11
          11          11          11          11          12          12
          12          12          12          13          13          13
          13          13          14          14          14          14
          14          15          15          15          15          15
Primitive exponents                        R   N=         159
  8.58850000E+03  1.29723000E+03  2.99296000E+02  8.73771000E+01  2.56789000E+01
  3.74004000E+00  4.21175000E+01  9.62837000E+00  2.85332000E+00  9.05661000E-01
  2.55611000E-01  8.45000000E-02  1.29200000E+00  4.56324000E+03  6.82024000E+02
  1.54973000E+02  4.44553000E+01  1.30290000E+01  1.82773000E+00  2.09642000E+01
  4.80331000E+00  1.45933000E+00  4.83456000E-01  1.45585000E-01  4.38000000E-02
  6.26000000E-01  4.56324000E+03  6.82024000E+02  1.54973000E+02  4.44553000E+01
  1.30290000E+01  1.82773000E+00  2.09642000E+01  4.80331000E+00  1.45933000E+00
  4.83456000E-01  1.45585000E-01  4.38000000E-02  6.26000000E-01  4.56324000E+03
  6.82024000E+02  1.54973000E+02  4.44553000E+01  1.30290000E+01  1.82773000E+00
  2.09642000E+01  4.80331000E+00  1.45933000E+00  4.83456000E-01  1.45585000E-01
  4.38000000E-02  6.26000000E-01  4.56324000E+03  6.82024000E+02  1.54973000E+02
  4.44553000E+01  1.30290000E+01  1.82773000E+00  2.09642000E+01  4.80331000E+00
  1.45933000E+00  4.83456000E-01  1.45585000E-01  4.38000000E-02  6.26000000E-01
  4.56324000E+03  6.82024000E+02  1.54973000E+02  4.44553000E+01  1.30290000E+01
  1.82773000E+00  2.09642000E+01  4.80331000E+00  1.45933000E+00  4.83456000E-01
  1.45585000E-01  4.38000000E-02  6.26000000E-01  4.56324000E+03  6.82024000E+02
  1.54973000E+02  4.44553000E+01  1.30290000E+01  1.82773000E+00  2.09642000E+01
  4.80331000E+00  1.45933000E+00  4.83456000E-01  1.45585000E-01  4.38000000E-02
  6.26000000E-01  4.56324000E+03  6.82024000E+02  1.54973000E+02  4.44553000E+01
  1.30290000E+01  1.82773000E+00  2.09642000E+01  4.80331000E+00  1.45933000E+00
  4.83456000E-01  1.45585000E-01  4.38000000E-02  6.26000000E-01  8.58850000E+03
  1.29723000E+03  2.99296000E+02  8.73771000E+01  2.56789000E+01  3.74004000E+00
  4.21175000E+01  9.62837000E+00  2.85332000E+00  9.05661000E-01  2.55611000E-01
  8.45000000E-02  1.29200000E+00  3.38650000E+01  5.09479000E+00  1.15879000E+00
  3.25840000E-01  1.02741000E-01  3.60000000E-02  7.50000000E-01  3.38650000E+01
  5.09479000E+00  1.15879000E+00  3.25840000E-01  1.02741000E-01  3.60000000E-02
  7.50000000E-01  3.38650000E+01  5.09479000E+00  1.15879000E+00  3.25840000E-01
  1.02741000E-01  3.60000000E-02  7.50000000E-01  3.38650000E+01  5.09479000E+00
  1.15879000E+00  3.25840000E-01  1.02741000E-01  3.60000000E-02  7.50000000E-01
  3.38650000E+01  5.09479000E+00  1.15879000E+00  3.25840000E-01  1.02741000E-01
  3.60000000E-02  7.50000000E-01  3.38650000E+01  5.09479000E+00  1.15879000E+00
  3.25840000E-01  1.02741000E-01  3.60000000E-02  7.50000000E-01
Contraction coefficients                   R   N=         159
  1.89515008E-03  1.43859006E-02  7.07320031E-02  2.40001011E-01  5.94797026E-01
  2.80802012E-01  1.13889012E-01  9.20811101E-01 -3.27447036E-03  1.00000000E+00
  1.00000000E+00  1.00000000E+00  1.00000000E+00  1.96665025E-03  1.52306019E-02
  7.61269097E-02  2.60801033E-01  6.16462078E-01  2.21006028E-01  1.14660081E-01
  9.19999648E-01 -3.03068213E-03  1.00000000E+00  1.00000000E+00  1.00000000E+00
  1.00000000E+00  1.96665025E-03  1.52306019E-02  7.61269097E-02  2.60801033E-01
  6.16462078E-01  2.21006028E-01  1.14660081E-01  9.19999648E-01 -3.03068213E-03
  1.00000000E+00  1.00000000E+00  1.00000000E+00  1.00000000E+00  1.96665025E-03
  1.52306019E-02  7.61269097E-02  2.60801033E-01  6.16462078E-01  2.21006028E-01
  1.14660081E-01  9.19999648E-01 -3.03068213E-03  1.00000000E+00  1.00000000E+00
  1.00000000E+00  1.00000000E+00  1.96665025E-03  1.52306019E-02  7.61269097E-02
  2.60801033E-01  6.16462078E-01  2.21006028E-01  1.14660081E-01  9.19999648E-01
 -3.03068213E-03  1.00000000E+00  1.00000000E+00  1.00000000E+00  1.00000000E+00
  1.96665025E-03  1.52306019E-02  7.61269097E-02  2.60801033E-01  6.16462078E-01
  2.21006028E-01  1.14660081E-01  9.19999648E-01 -3.03068213E-03  1.00000000E+00
  1.00000000E+00  1.00000000E+00  1.00000000E+00  1.96665025E-03  1.52306019E-02
  7.61269097E-02  2.60801033E-01  6.16462078E-01  2.21006028E-01  1.14660081E-01
  9.19999648E-01 -3.03068213E-03  1.00000000E+00  1.00000000E+00  1.00000000E+00
  1.00000000E+00  1.96665025E-03  1.52306019E-02  7.61269097E-02  2.60801033E-01
  6.16462078E-01  2.21006028E-01  1.14660081E-01  9.19999648E-01 -3.03068213E-03
  1.00000000E+00  1.00000000E+00  1.00000000E+00  1.00000000E+00  1.89515008E-03
  1.43859006E-02  7.07320031E-02  2.40001011E-01  5.94797026E-01  2.80802012E-01
  1.13889012E-01  9.20811101E-01 -3.27447036E-03  1.00000000E+00  1.00000000E+00
  1.00000000E+00  1.00000000E+00  2.54938145E-02  1.90373109E-01  8.52161486E-01
  1.00000000E+00  1.00000000E+00  1.00000000E+00  1.00000000E+00  2.54938145E-02
  1.90373109E-01  8.52161486E-01  1.00000000E+00  1.00000000E+00  1.00000000E+00
  1.00000000E+00  2.54938145E-02  1.90373109E-01  8.52161486E-01  1.00000000E+00
  1.00000000E+00  1.00000000E+00  1.00000000E+00  2.54938145E-02  1.90373109E-01
  8.52161486E-01  1.00000000E+00  1.00000000E+00  1.00000000E+00  1.00000000E+00
  2.54938145E-02  1.90373109E-01  8.52161486E-01  1.00000000E+00  1.00000000E+00
  1.00000000E+00  1.00000000E+00  2.54938145E-02  1.90373109E-01  8.52161486E-01
  1.00000000E+00  1.00000000E+00  1.00000000E+00  1.00000000E+00
P(S=P) Contraction coefficients            R   N=         159
  0.00000000E+00  0.00000000E+00  0.00000000E+00  0.00000000E+00  0.00000000E+00
  0.00000000E+00  3.65113974E-02  2.37152983E-01  8.19701941E-01  1.00000000E+00
  1.00000000E+00  1.00000000E+00  0.00000000E+00  0.00000000E+00  0.00000000E+00
  0.00000000E+00  0.00000000E+00  0.00000000E+00  0.00000000E+00  4.02486927E-02
  2.37593957E-01  8.15853851E-01  1.00000000E+00  1.00000000E+00  1.00000000E+00
  0.00000000E+00  0.00000000E+00  0.00000000E+00  0.00000000E+00  0.00000000E+00
  0.00000000E+00  0.00000000E+00  4.02486927E-02  2.37593957E-01  8.15853851E-01
  1.00000000E+00  1.00000000E+00  1.00000000E+00  0.00000000E+00  0.00000000E+00
  0.00000000E+00  0.00000000E+00  0.00000000E+00  0.00000000E+00  0.00000000E+00
  4.02486927E-02  2.37593957E-01  8.15853851E-01  1.00000000E+00  1.00000000E+00
  1.00000000E+00  0.00000000E+00  0.00000000E+00  0.00000000E+00  0.00000000E+00
  0.00000000E+00  0.00000000E+00  0.00000000E+00  4.02486927E-02  2.37593957E-01
  8.15853851E-01  1.00000000E+00  1.00000000E+00  1.00000000E+00  0.00000000E+00
  0.00000000E+00  0.00000000E+00  0.00000000E+00  0.00000000E+00  0.00000000E+00
  0.00000000E+00  4.02486927E-02  2.37593957E-01  8.15853851E-01  1.00000000E+00
  1.00000000E+00  1.00000000E+00  0.00000000E+00  0.00000000E+00  0.00000000E+00
  0.00000000E+00  0.00000000E+00  0.00000000E+00  0.00000000E+00  4.02486927E-02
  2.37593957E-01  8.15853851E-01  1.00000000E+00  1.00000000E+00  1.00000000E+00
  0.00000000E+00  0.00000000E+00  0.00000000E+00  0.00000000E+00  0.00000000E+00
  0.00000000E+00  0.00000000E+00  4.02486927E-02  2.37593957E-01  8.15853851E-01
  1.00000000E+00  1.00000000E+00  1.00000000E+00  0.00000000E+00  0.00000000E+00
  0.00000000E+00  0.00000000E+00  0.00000000E+00  0.00000000E+00  0.00000000E+00
  3.65113974E-02  2.37152983E-01  8.19701941E-01  1.00000000E+00  1.00000000E+00
  1.00000000E+00  0.00000000E+00  0.00000000E+00  0.00000000E+00  0.00000000E+00
  0.00000000E+00  0.00000000E+00  0.00000000E+00  0.00000000E+00  0.00000000E+00
  0.00000000E+00  0.00000000E+00  0.00000000E+00  0.00000000E+00  0.00000000E+00
  0.00000000E+00  0.00000000E+00  0.00000000E+00  0.00000000E+00  0.00000000E+00
  0.00000000E+00  0.00000000E+00  0.00000000E+00  0.00000000E+00  0.00000000E+00
  0.00000000E+00  0.00000000E+00  0.00000000E+00  0.00000000E+00  0.00000000E+00
  0.00000000E+00  0.00000000E+00  0.00000000E+00  0.00000000E+00  0.00000000E+00
  0.00000000E+00  0.00000000E+00  0.00000000E+00  0.00000000E+00  0.00000000E+00
  0.00000000E+00  0.00000000E+00  0.00000000E+00  0.00000000E+00
Coordinates of each shell                  R   N=         252
 -4.35128300E+00 -2.04501457E+00  1.14934734E-03 -4.35128300E+00 -2.04501457E+00
  1.14934734E-03 -4.35128300E+00 -2.04501457E+00  1.14934734E-03 -4.35128300E+00
 -2.04501457E+00  1.14934734E-03 -4.35128300E+00 -2.04501457E+00  1.14934734E-03
 -4.35128300E+00 -2.04501457E+00  1.14934734E-03 -3.21338229E+00  2.33836873E-01
 -1.33989920E-04 -3.21338229E+00  2.33836873E-01 -1.33989920E-04 -3.21338229E+00
  2.33836873E-01 -1.33989920E-04 -3.21338229E+00  2.33836873E-01 -1.33989920E-04
 -3.21338229E+00  2.33836873E-01 -1.33989920E-04 -3.21338229E+00  2.33836873E-01
 -1.33989920E-04 -4.07313283E-01  5.79784917E-02 -3.78058473E-05 -4.07313283E-01
  5.79784917E-02 -3.78058473E-05 -4.07313283E-01  5.79784917E-02 -3.78058473E-05
 -4.07313283E-01  5.79784917E-02 -3.78058473E-05 -4.07313283E-01  5.79784917E-02
 -3.78058473E-05 -4.07313283E-01  5.79784917E-02 -3.78058473E-05  8.37661077E-01
 -2.26491238E+00 -4.82013762E-04  8.37661077E-01 -2.26491238E+00 -4.82013762E-04
  8.37661077E-01 -2.26491238E+00 -4.82013762E-04  8.37661077E-01 -2.26491238E+00
 -4.82013762E-04  8.37661077E-01 -2.26491238E+00 -4.82013762E-04  8.37661077E-01
 -2.26491238E+00 -4.82013762E-04  3.46287117E+00 -2.32931890E+00 -5.09717264E-04
  3.46287117E+00 -2.32931890E+00 -5.09717264E-04  3.46287117E+00 -2.32931890E+00
 -5.09717264E-04  3.46287117E+00 -2.32931890E+00 -5.09717264E-04  3.46287117E+00
 -2.32931890E+00 -5.09717264E-04  3.46287117E+00 -2.32931890E+00 -5.09717264E-04
  4.83492378E+00 -8.55865866E-02  3.40663524E-05  4.83492378E+00 -8.55865866E-02
  3.40663524E-05  4.83492378E+00 -8.55865866E-02  3.40663524E-05  4.83492378E+00
 -8.55865866E-02  3.40663524E-05  4.83492378E+00 -8.55865866E-02  3.40663524E-05
  4.83492378E+00 -8.55865866E-02  3.40663524E-05  3.58789542E+00  2.23218284E+00
  5.26975233E-04  3.58789542E+00  2.23218284E+00  5.26975233E-04  3.58789542E+00
  2.23218284E+00  5.26975233E-04  3.58789542E+00  2.23218284E+00  5.26975233E-04
  3.58789542E+00  2.23218284E+00  5.26975233E-04  3.58789542E+00  2.23218284E+00
  5.26975233E-04  9.66107850E-01  2.30677217E+00  4.34343482E-04  9.66107850E-01
  2.30677217E+00  4.34343482E-04  9.66107850E-01  2.30677217E+00  4.34343482E-04
  9.66107850E-01  2.30677217E+00  4.34343482E-04  9.66107850E-01  2.30677217E+00
  4.34343482E-04  9.66107850E-01  2.30677217E+00  4.34343482E-04 -4.39124185E+00
  2.17575675E+00 -1.13957946E-03 -4.39124185E+00  2.17575675E+00 -1.13957946E-03
 -4.39124185E+00  2.17575675E+00 -1.13957946E-03 -4.39124185E+00  2.17575675E+00