 Entering Gaussian System, Link 0=/apps/cent7/gaussian/g16-A.03/g16-haswell/g16/g16
 Initial command:
 /apps/cent7/gaussian/g16-A.03/g16-haswell/g16/l1.exe "/scratch/brown/finej/gaussian/Gau-39523.inp" -scrdir="/scratch/brown/finej/gaussian/"
 Entering Link 1 = /apps/cent7/gaussian/g16-A.03/g16-haswell/g16/l1.exe PID=     39525.
  
 Copyright (c) 1988,1990,1992,1993,1995,1998,2003,2009,2016,
            Gaussian, Inc.  All Rights Reserved.
  
 This is part of the Gaussian(R) 16 program.  It is based on
 the Gaussian(R) 09 system (copyright 2009, Gaussian, Inc.),
 the Gaussian(R) 03 system (copyright 2003, Gaussian, Inc.),
 the Gaussian(R) 98 system (copyright 1998, Gaussian, Inc.),
 the Gaussian(R) 94 system (copyright 1995, Gaussian, Inc.),
 the Gaussian 92(TM) system (copyright 1992, Gaussian, Inc.),
 the Gaussian 90(TM) system (copyright 1990, Gaussian, Inc.),
 the Gaussian 88(TM) system (copyright 1988, Gaussian, Inc.),
 the Gaussian 86(TM) system (copyright 1986, Carnegie Mellon
 University), and the Gaussian 82(TM) system (copyright 1983,
 Carnegie Mellon University). Gaussian is a federally registered
 trademark of Gaussian, Inc.
  
 This software contains proprietary and confidential information,
 including trade secrets, belonging to Gaussian, Inc.
  
 This software is provided under written license and may be
 used, copied, transmitted, or stored only in accord with that
 written license.
  
 The following legend is applicable only to US Government
 contracts under FAR:
  
                    RESTRICTED RIGHTS LEGEND
  
 Use, reproduction and disclosure by the US Government is
 subject to restrictions as set forth in subparagraphs (a)
 and (c) of the Commercial Computer Software - Restricted
 Rights clause in FAR 52.227-19.
  
 Gaussian, Inc.
 340 Quinnipiac St., Bldg. 40, Wallingford CT 06492
  
  
 ---------------------------------------------------------------
 Warning -- This program may not be used in any manner that
 competes with the business of Gaussian, Inc. or will provide
 assistance to any competitor of Gaussian, Inc.  The licensee
 of this program is prohibited from giving any competitor of
 Gaussian, Inc. access to this program.  By using this program,
 the user acknowledges that Gaussian, Inc. is engaged in the
 business of creating and licensing software in the field of
 computational chemistry and represents and warrants to the
 licensee that it is not a competitor of Gaussian, Inc. and that
 it will not use this program in any manner prohibited above.
 ---------------------------------------------------------------
  

 Cite this work as:
 Gaussian 16, Revision A.03,
 M. J. Frisch, G. W. Trucks, H. B. Schlegel, G. E. Scuseria, 
 M. A. Robb, J. R. Cheeseman, G. Scalmani, V. Barone, 
 G. A. Petersson, H. Nakatsuji, X. Li, M. Caricato, A. V. Marenich, 
 J. Bloino, B. G. Janesko, R. Gomperts, B. Mennucci, H. P. Hratchian, 
 J. V. Ortiz, A. F. Izmaylov, J. L. Sonnenberg, D. Williams-Young, 
 F. Ding, F. Lipparini, F. Egidi, J. Goings, B. Peng, A. Petrone, 
 T. Henderson, D. Ranasinghe, V. G. Zakrzewski, J. Gao, N. Rega, 
 G. Zheng, W. Liang, M. Hada, M. Ehara, K. Toyota, R. Fukuda, 
 J. Hasegawa, M. Ishida, T. Nakajima, Y. Honda, O. Kitao, H. Nakai, 
 T. Vreven, K. Throssell, J. A. Montgomery, Jr., J. E. Peralta, 
 F. Ogliaro, M. J. Bearpark, J. J. Heyd, E. N. Brothers, K. N. Kudin, 
 V. N. Staroverov, T. A. Keith, R. Kobayashi, J. Normand, 
 K. Raghavachari, A. P. Rendell, J. C. Burant, S. S. Iyengar, 
 J. Tomasi, M. Cossi, J. M. Millam, M. Klene, C. Adamo, R. Cammi, 
 J. W. Ochterski, R. L. Martin, K. Morokuma, O. Farkas, 
 J. B. Foresman, and D. J. Fox, Gaussian, Inc., Wallingford CT, 2016.
 
 ******************************************
 Gaussian 16:  ES64L-G16RevA.03 25-Dec-2016
                13-Oct-2019 
 ******************************************
 %chk=14.chk
 %nprocshared=24
 Will use up to   24 processors via shared memory.
 %mem=80GB
 -------------------------------------------------------------------
 #P opt freq m062x/6-311++g(d,p) geom=connectivity temperature=0.001
 -------------------------------------------------------------------
 1/18=20,19=15,26=3,38=1,57=2,112=-1000/1,3;
 2/9=110,12=2,17=6,18=5,40=1/2;
 3/5=4,6=6,7=1111,11=2,25=1,30=1,71=1,74=-55/1,2,3;
 4//1;
 5/5=2,38=5/2;
 6/7=2,8=2,9=2,10=2,28=1/1;
 7//1,2,3,16;
 1/18=20,19=15,26=3/3(2);
 2/9=110/2;
 99//99;
 2/9=110/2;
 3/5=4,6=6,7=1111,11=2,25=1,30=1,71=1,74=-55/1,2,3;
 4/5=5,16=3,69=1/1;
 5/5=2,38=5/2;
 7//1,2,3,16;
 1/18=20,19=15,26=3/3(-5);
 2/9=110/2;
 6/7=2,8=2,9=2,10=2,19=2,28=1/1;
 99/9=1/99;
 Leave Link    1 at Sun Oct 13 19:54:43 2019, MaxMem= 10737418240 cpu:               0.9 elap:               0.0
 (Enter /apps/cent7/gaussian/g16-A.03/g16-haswell/g16/l101.exe)
 -------------------
 Title Card Required
 -------------------
 Symbolic Z-matrix:
 Charge =  0 Multiplicity = 1
 O                    -2.7352   -0.0303    0.3728 
 C                    -2.0671    1.1299    0.1581 
 C                    -0.6515    1.1674    0.0622 
 C                     0.1062   -0.0302    0.025 
 C                     1.5121    0.0083   -0.0292 
 C                     2.1834    1.2436   -0.0553 
 C                     1.4473    2.4408   -0.0391 
 C                     0.0427    2.4028    0.0139 
 O                    -2.7638    2.1682    0.0793 
 H                    -2.8214   -0.18      1.3171 
 H                    -0.4001   -0.9954    0.0383 
 H                     2.0823   -0.9204   -0.051 
 H                     3.2725    1.2731   -0.0881 
 H                     1.9659    3.3991   -0.0675 
 H                    -0.5135    3.3402    0.0175 
 
 ITRead=  0  0  0  0  0  0  0  0  0  0  0  0  0  0  0
 MicOpt= -1 -1 -1 -1 -1 -1 -1 -1 -1 -1 -1 -1 -1 -1 -1
 NAtoms=     15 NQM=       15 NQMF=       0 NMMI=      0 NMMIF=      0
                NMic=       0 NMicF=      0.
                    Isotopes and Nuclear Properties:
 (Nuclear quadrupole moments (NQMom) in fm**2, nuclear magnetic moments (NMagM)
  in nuclear magnetons)

  Atom         1           2           3           4           5           6           7           8           9          10
 IAtWgt=          16          12          12          12          12          12          12          12          16           1
 AtmWgt=  15.9949146  12.0000000  12.0000000  12.0000000  12.0000000  12.0000000  12.0000000  12.0000000  15.9949146   1.0078250
 NucSpn=           0           0           0           0           0           0           0           0           0           1
 AtZEff=  -0.0000000  -0.0000000  -0.0000000  -0.0000000  -0.0000000  -0.0000000  -0.0000000  -0.0000000  -0.0000000  -0.0000000
 NQMom=    0.0000000   0.0000000   0.0000000   0.0000000   0.0000000   0.0000000   0.0000000   0.0000000   0.0000000   0.0000000
 NMagM=    0.0000000   0.0000000   0.0000000   0.0000000   0.0000000   0.0000000   0.0000000   0.0000000   0.0000000   2.7928460
 AtZNuc=   8.0000000   6.0000000   6.0000000   6.0000000   6.0000000   6.0000000   6.0000000   6.0000000   8.0000000   1.0000000

  Atom        11          12          13          14          15
 IAtWgt=           1           1           1           1           1
 AtmWgt=   1.0078250   1.0078250   1.0078250   1.0078250   1.0078250
 NucSpn=           1           1           1           1           1
 AtZEff=  -0.0000000  -0.0000000  -0.0000000  -0.0000000  -0.0000000
 NQMom=    0.0000000   0.0000000   0.0000000   0.0000000   0.0000000
 NMagM=    2.7928460   2.7928460   2.7928460   2.7928460   2.7928460
 AtZNuc=   1.0000000   1.0000000   1.0000000   1.0000000   1.0000000
 Leave Link  101 at Sun Oct 13 19:54:43 2019, MaxMem= 10737418240 cpu:               8.6 elap:               0.4
 (Enter /apps/cent7/gaussian/g16-A.03/g16-haswell/g16/l103.exe)

 GradGradGradGradGradGradGradGradGradGradGradGradGradGradGradGradGradGrad
 Berny optimization.
 Initialization pass.
                           ----------------------------
                           !    Initial Parameters    !
                           ! (Angstroms and Degrees)  !
 --------------------------                            --------------------------
 ! Name  Definition              Value          Derivative Info.                !
 --------------------------------------------------------------------------------
 ! R1    R(1,2)                  1.3559         estimate D2E/DX2                !
 ! R2    R(1,10)                 0.96           estimate D2E/DX2                !
 ! R3    R(2,3)                  1.4193         estimate D2E/DX2                !
 ! R4    R(2,9)                  1.2529         estimate D2E/DX2                !
 ! R5    R(3,4)                  1.4177         estimate D2E/DX2                !
 ! R6    R(3,8)                  1.4179         estimate D2E/DX2                !
 ! R7    R(4,5)                  1.4075         estimate D2E/DX2                !
 ! R8    R(4,11)                 1.09           estimate D2E/DX2                !
 ! R9    R(5,6)                  1.4062         estimate D2E/DX2                !
 ! R10   R(5,12)                 1.09           estimate D2E/DX2                !
 ! R11   R(6,7)                  1.4055         estimate D2E/DX2                !
 ! R12   R(6,13)                 1.09           estimate D2E/DX2                !
 ! R13   R(7,8)                  1.4061         estimate D2E/DX2                !
 ! R14   R(7,14)                 1.09           estimate D2E/DX2                !
 ! R15   R(8,15)                 1.09           estimate D2E/DX2                !
 ! A1    A(2,1,10)             109.4774         estimate D2E/DX2                !
 ! A2    A(1,2,3)              121.6505         estimate D2E/DX2                !
 ! A3    A(1,2,9)              116.4283         estimate D2E/DX2                !
 ! A4    A(3,2,9)              121.9025         estimate D2E/DX2                !
 ! A5    A(2,3,4)              120.8318         estimate D2E/DX2                !
 ! A6    A(2,3,8)              120.9057         estimate D2E/DX2                !
 ! A7    A(4,3,8)              118.2598         estimate D2E/DX2                !
 ! A8    A(3,4,5)              120.7825         estimate D2E/DX2                !
 ! A9    A(3,4,11)             119.9647         estimate D2E/DX2                !
 ! A10   A(5,4,11)             119.2528         estimate D2E/DX2                !
 ! A11   A(4,5,6)              120.1066         estimate D2E/DX2                !
 ! A12   A(4,5,12)             120.0001         estimate D2E/DX2                !
 ! A13   A(6,5,12)             119.8932         estimate D2E/DX2                !
 ! A14   A(5,6,7)              119.8717         estimate D2E/DX2                !
 ! A15   A(5,6,13)             120.0888         estimate D2E/DX2                !
 ! A16   A(7,6,13)             120.0395         estimate D2E/DX2                !
 ! A17   A(6,7,8)              120.0386         estimate D2E/DX2                !
 ! A18   A(6,7,14)             119.9606         estimate D2E/DX2                !
 ! A19   A(8,7,14)             120.0007         estimate D2E/DX2                !
 ! A20   A(3,8,7)              120.9238         estimate D2E/DX2                !
 ! A21   A(3,8,15)             119.9581         estimate D2E/DX2                !
 ! A22   A(7,8,15)             119.1181         estimate D2E/DX2                !
 ! D1    D(10,1,2,3)            88.9416         estimate D2E/DX2                !
 ! D2    D(10,1,2,9)           -89.5091         estimate D2E/DX2                !
 ! D3    D(1,2,3,4)              7.7583         estimate D2E/DX2                !
 ! D4    D(1,2,3,8)           -171.6379         estimate D2E/DX2                !
 ! D5    D(9,2,3,4)           -173.8759         estimate D2E/DX2                !
 ! D6    D(9,2,3,8)              6.728          estimate D2E/DX2                !
 ! D7    D(2,3,4,5)           -178.0587         estimate D2E/DX2                !
 ! D8    D(2,3,4,11)             1.9401         estimate D2E/DX2                !
 ! D9    D(8,3,4,5)              1.3531         estimate D2E/DX2                !
 ! D10   D(8,3,4,11)          -178.6481         estimate D2E/DX2                !
 ! D11   D(2,3,8,7)            178.0018         estimate D2E/DX2                !
 ! D12   D(2,3,8,15)            -2.0031         estimate D2E/DX2                !
 ! D13   D(4,3,8,7)             -1.4095         estimate D2E/DX2                !
 ! D14   D(4,3,8,15)           178.5855         estimate D2E/DX2                !
 ! D15   D(3,4,5,6)             -0.3859         estimate D2E/DX2                !
 ! D16   D(3,4,5,12)           179.6134         estimate D2E/DX2                !
 ! D17   D(11,4,5,6)           179.6152         estimate D2E/DX2                !
 ! D18   D(11,4,5,12)           -0.3854         estimate D2E/DX2                !
 ! D19   D(4,5,6,7)             -0.5617         estimate D2E/DX2                !
 ! D20   D(4,5,6,13)           179.4423         estimate D2E/DX2                !
 ! D21   D(12,5,6,7)           179.4389         estimate D2E/DX2                !
 ! D22   D(12,5,6,13)           -0.557          estimate D2E/DX2                !
 ! D23   D(5,6,7,8)              0.5074         estimate D2E/DX2                !
 ! D24   D(5,6,7,14)          -179.5016         estimate D2E/DX2                !
 ! D25   D(13,6,7,8)          -179.4967         estimate D2E/DX2                !
 ! D26   D(13,6,7,14)            0.4943         estimate D2E/DX2                !
 ! D27   D(6,7,8,3)              0.4959         estimate D2E/DX2                !
 ! D28   D(6,7,8,15)          -179.4992         estimate D2E/DX2                !
 ! D29   D(14,7,8,3)          -179.4951         estimate D2E/DX2                !
 ! D30   D(14,7,8,15)            0.5098         estimate D2E/DX2                !
 --------------------------------------------------------------------------------
 Trust Radius=3.00D-01 FncErr=1.00D-07 GrdErr=1.00D-06 EigMax=2.50D+02 EigMin=1.00D-04
 Number of steps in this run=     77 maximum allowed number of steps=    100.
 GradGradGradGradGradGradGradGradGradGradGradGradGradGradGradGradGradGrad

 Leave Link  103 at Sun Oct 13 19:54:43 2019, MaxMem= 10737418240 cpu:               0.5 elap:               0.0
 (Enter /apps/cent7/gaussian/g16-A.03/g16-haswell/g16/l202.exe)
                          Input orientation:                          
 ---------------------------------------------------------------------
 Center     Atomic      Atomic             Coordinates (Angstroms)
 Number     Number       Type             X           Y           Z
 ---------------------------------------------------------------------
      1          8           0       -2.735200   -0.030300    0.372800
      2          6           0       -2.067100    1.129900    0.158100
      3          6           0       -0.651500    1.167400    0.062200
      4          6           0        0.106200   -0.030200    0.025000
      5          6           0        1.512100    0.008300   -0.029200
      6          6           0        2.183400    1.243600   -0.055300
      7          6           0        1.447300    2.440800   -0.039100
      8          6           0        0.042700    2.402800    0.013900
      9          8           0       -2.763800    2.168200    0.079300
     10          1           0       -2.821400   -0.180000    1.317100
     11          1           0       -0.400100   -0.995400    0.038300
     12          1           0        2.082300   -0.920400   -0.051000
     13          1           0        3.272500    1.273100   -0.088100
     14          1           0        1.965900    3.399100   -0.067500
     15          1           0       -0.513500    3.340200    0.017500
 ---------------------------------------------------------------------
                    Distance matrix (angstroms):
                    1          2          3          4          5
     1  O    0.000000
     2  C    1.355920   0.000000
     3  C    2.423378   1.419340   0.000000
     4  C    2.862607   2.467140   1.417653   0.000000
     5  C    4.266457   3.755495   2.456223   1.407471   0.000000
     6  C    5.098894   4.257372   2.838357   2.437986   1.406162
     7  C    4.875377   3.756109   2.456984   2.812205   2.433383
     8  C    3.710190   2.468263   1.417907   2.433854   2.809737
     9  O    2.218189   1.252864   2.337457   3.615634   4.791687
    10  H    0.959970   1.904754   2.845826   3.203561   4.541718
    11  H    2.548725   2.703727   2.177493   1.090013   2.160666
    12  H    4.917336   4.633031   3.441713   2.168687   1.089994
    13  H    6.164717   5.347191   3.928300   3.425907   2.168455
    14  H    5.835665   4.633061   3.442105   3.902197   3.421246
    15  H    4.052463   2.705341   2.177637   3.426905   3.899589
                    6          7          8          9         10
     6  C    0.000000
     7  C    1.405487   0.000000
     8  C    2.435391   1.406113   0.000000
     9  O    5.034659   4.221575   2.817047   0.000000
    10  H    5.381277   5.189381   4.070903   2.655091   0.000000
    11  H    3.419993   3.902095   3.427015   3.949319   2.857079
    12  H    2.166365   3.420677   3.899723   5.748140   5.144528
    13  H    1.089993   2.167321   3.423191   6.104600   6.420413
    14  H    2.166480   1.089996   2.167473   4.889451   6.135578
    15  H    3.416768   2.157976   1.089995   2.537962   4.405357
                   11         12         13         14         15
    11  H    0.000000
    12  H    2.485138   0.000000
    13  H    4.318572   2.495876   0.000000
    14  H    4.992072   4.321100   2.495497   0.000000
    15  H    4.337133   4.989547   4.314841   2.481556   0.000000
 Stoichiometry    C7H6O2
 Framework group  C1[X(C7H6O2)]
 Deg. of freedom    39
 Full point group                 C1      NOp   1
 Largest Abelian subgroup         C1      NOp   1
 Largest concise Abelian subgroup C1      NOp   1
                         Standard orientation:                         
 ---------------------------------------------------------------------
 Center     Atomic      Atomic             Coordinates (Angstroms)
 Number     Number       Type             X           Y           Z
 ---------------------------------------------------------------------
      1          8           0       -2.428651   -1.028287    0.057701
      2          6           0       -1.675284    0.094480   -0.044032
      3          6           0       -0.256901    0.042427   -0.041489
      4          6           0        0.424688   -1.199419   -0.096219
      5          6           0        1.830502   -1.252043   -0.052741
      6          6           0        2.578323   -0.064678    0.037923
      7          6           0        1.919709    1.176442    0.073176
      8          6           0        0.515305    1.229541    0.028619
      9          8           0       -2.297893    1.179694   -0.109889
     10          1           0       -2.591249   -1.221829    0.983793
     11          1           0       -0.140978   -2.128005   -0.172890
     12          1           0        2.341256   -2.214269   -0.089339
     13          1           0        3.666681   -0.106255    0.080736
     14          1           0        2.498262    2.098134    0.135242
     15          1           0        0.020334    2.200467    0.048540
 ---------------------------------------------------------------------
 Rotational constants (GHZ):           3.8282355           1.2139660           0.9269261
 Leave Link  202 at Sun Oct 13 19:54:43 2019, MaxMem= 10737418240 cpu:               0.3 elap:               0.0
 (Enter /apps/cent7/gaussian/g16-A.03/g16-haswell/g16/l301.exe)
 Standard basis: 6-311++G(d,p) (5D, 7F)
 Ernie: Thresh=  0.10000D-02 Tol=  0.10000D-05 Strict=F.
 There are   249 symmetry adapted cartesian basis functions of A   symmetry.
 There are   240 symmetry adapted basis functions of A   symmetry.
   240 basis functions,   378 primitive gaussians,   249 cartesian basis functions
    32 alpha electrons       32 beta electrons
       nuclear repulsion energy       402.9558508281 Hartrees.
 IExCor= 4336 DFT=T Ex+Corr=M062X ExCW=0 ScaHFX=  0.540000
 ScaDFX=  1.000000  1.000000  1.000000  1.000000 ScalE2=  1.000000  1.000000
 IRadAn=      5 IRanWt=     -1 IRanGd=            0 ICorTp=0 IEmpDi=  4
 NAtoms=   15 NActive=   15 NUniq=   15 SFac= 1.00D+00 NAtFMM=   60 NAOKFM=F Big=F
 Integral buffers will be    131072 words long.
 Raffenetti 2 integral format.
 Two-electron integral symmetry is turned on.
 Leave Link  301 at Sun Oct 13 19:54:43 2019, MaxMem= 10737418240 cpu:               1.3 elap:               0.1
 (Enter /apps/cent7/gaussian/g16-A.03/g16-haswell/g16/l302.exe)
 NPDir=0 NMtPBC=     1 NCelOv=     1 NCel=       1 NClECP=     1 NCelD=      1
         NCelK=      1 NCelE2=     1 NClLst=     1 CellRange=     0.0.
 One-electron integrals computed using PRISM.
 One-electron integral symmetry used in STVInt
 NBasis=   240 RedAO= T EigKep=  1.20D-06  NBF=   240
 NBsUse=   240 1.00D-06 EigRej= -1.00D+00 NBFU=   240
 Precomputing XC quadrature grid using
 IXCGrd= 4 IRadAn=           5 IRanWt=          -1 IRanGd=           0 AccXCQ= 0.00D+00.
 Generated NRdTot=       0 NPtTot=           0 NUsed=           0 NTot=          32
 NSgBfM=   249   249   249   249   249 MxSgAt=    15 MxSgA2=    15.
 Leave Link  302 at Sun Oct 13 19:54:44 2019, MaxMem= 10737418240 cpu:               3.9 elap:               0.2
 (Enter /apps/cent7/gaussian/g16-A.03/g16-haswell/g16/l303.exe)
 DipDrv:  MaxL=1.
 Leave Link  303 at Sun Oct 13 19:54:44 2019, MaxMem= 10737418240 cpu:               0.7 elap:               0.1
 (Enter /apps/cent7/gaussian/g16-A.03/g16-haswell/g16/l401.exe)
 ExpMin= 3.60D-02 ExpMax= 8.59D+03 ExpMxC= 1.30D+03 IAcc=3 IRadAn=         5 AccDes= 0.00D+00
 Harris functional with IExCor= 1009 and IRadAn=       5 diagonalized for initial guess.
 HarFok:  IExCor= 1009 AccDes= 0.00D+00 IRadAn=         5 IDoV= 1 UseB2=F ITyADJ=14
 ICtDFT=  3500011 ScaDFX=  1.000000  1.000000  1.000000  1.000000
 FoFCou: FMM=F IPFlag=           0 FMFlag=      100000 FMFlg1=           0
         NFxFlg=           0 DoJE=T BraDBF=F KetDBF=T FulRan=T
         wScrn=  0.000000 ICntrl=       500 IOpCl=  0 I1Cent=   200000004 NGrid=           0
         NMat0=    1 NMatS0=      1 NMatT0=    0 NMatD0=    1 NMtDS0=    0 NMtDT0=    0
 Petite list used in FoFCou.
 Harris En= -420.550698784955    
 JPrj=0 DoOrth=F DoCkMO=F.
 Leave Link  401 at Sun Oct 13 19:54:44 2019, MaxMem= 10737418240 cpu:               8.3 elap:               0.4
 (Enter /apps/cent7/gaussian/g16-A.03/g16-haswell/g16/l502.exe)
 Integral symmetry usage will be decided dynamically.
 Closed shell SCF:
 Using DIIS extrapolation, IDIIS=  1040.
 NGot= 10737418240 LenX= 10737285837 LenY= 10737223395
 Requested convergence on RMS density matrix=1.00D-08 within 128 cycles.
 Requested convergence on MAX density matrix=1.00D-06.
 Requested convergence on             energy=1.00D-06.
 No special actions if energy rises.
 Fock matrices will be formed incrementally for  20 cycles.

 Cycle   1  Pass 1  IDiag  1:
 FoFJK:  IHMeth= 1 ICntrl=       0 DoSepK=F KAlg= 0 I1Cent=           0 FoldK=F
 IRaf= 950000000 NMat=       1 IRICut=       1 DoRegI=T DoRafI=F ISym2E= 0 IDoP0=0 IntGTp=1.
 FoFCou: FMM=F IPFlag=           0 FMFlag=      100000 FMFlg1=           0
         NFxFlg=           0 DoJE=F BraDBF=F KetDBF=F FulRan=T
         wScrn=  0.000000 ICntrl=         0 IOpCl=  0 I1Cent=           0 NGrid=           0
         NMat0=    1 NMatS0=      1 NMatT0=    0 NMatD0=    1 NMtDS0=    0 NMtDT0=    0
 Symmetry not used in FoFCou.
 E= -420.518905898631    
 DIIS: error= 3.31D-02 at cycle   1 NSaved=   1.
 NSaved= 1 IEnMin= 1 EnMin= -420.518905898631     IErMin= 1 ErrMin= 3.31D-02
 ErrMax= 3.31D-02  0.00D+00 EMaxC= 1.00D-01 BMatC= 3.17D-01 BMatP= 3.17D-01
 IDIUse=3 WtCom= 6.69D-01 WtEn= 3.31D-01
 Coeff-Com:  0.100D+01
 Coeff-En:   0.100D+01
 Coeff:      0.100D+01
 Gap=     0.254 Goal=   None    Shift=    0.000
 GapD=    0.254 DampG=1.000 DampE=0.500 DampFc=0.5000 IDamp=-1.
 Damping current iteration by 5.00D-01
 RMSDP=3.27D-02 MaxDP=2.08D+00              OVMax= 1.79D-01

 Cycle   2  Pass 1  IDiag  1:
 RMSU=  1.59D-02    CP:  1.07D+00
 E= -420.620775226662     Delta-E=       -0.101869328031 Rises=F Damp=T
 DIIS: error= 6.64D-03 at cycle   2 NSaved=   2.
 NSaved= 2 IEnMin= 2 EnMin= -420.620775226662     IErMin= 2 ErrMin= 6.64D-03
 ErrMax= 6.64D-03  0.00D+00 EMaxC= 1.00D-01 BMatC= 2.97D-02 BMatP= 3.17D-01
 IDIUse=3 WtCom= 9.34D-01 WtEn= 6.64D-02
 Coeff-Com: -0.138D-02 0.100D+01
 Coeff-En:   0.242D-01 0.976D+00
 Coeff:      0.318D-03 0.100D+01
 Gap=     0.359 Goal=   None    Shift=    0.000
 RMSDP=1.01D-02 MaxDP=7.42D-01 DE=-1.02D-01 OVMax= 1.41D-01

 Cycle   3  Pass 1  IDiag  1:
 RMSU=  8.72D-03    CP:  9.80D-01  9.65D-01
 E= -420.725532604544     Delta-E=       -0.104757377882 Rises=F Damp=F
 DIIS: error= 9.54D-03 at cycle   3 NSaved=   3.
 NSaved= 3 IEnMin= 3 EnMin= -420.725532604544     IErMin= 2 ErrMin= 6.64D-03
 ErrMax= 9.54D-03  0.00D+00 EMaxC= 1.00D-01 BMatC= 2.22D-02 BMatP= 2.97D-02
 IDIUse=3 WtCom= 9.05D-01 WtEn= 9.54D-02
 Coeff-Com: -0.914D-01 0.496D+00 0.595D+00
 Coeff-En:   0.000D+00 0.000D+00 0.100D+01
 Coeff:     -0.827D-01 0.449D+00 0.634D+00
 Gap=     0.278 Goal=   None    Shift=    0.000
 RMSDP=3.83D-03 MaxDP=2.05D-01 DE=-1.05D-01 OVMax= 5.80D-02

 Cycle   4  Pass 1  IDiag  1:
 RMSU=  2.26D-03    CP:  9.62D-01  9.99D-01  6.70D-01
 E= -420.738778063683     Delta-E=       -0.013245459138 Rises=F Damp=F
 DIIS: error= 3.94D-03 at cycle   4 NSaved=   4.
 NSaved= 4 IEnMin= 4 EnMin= -420.738778063683     IErMin= 4 ErrMin= 3.94D-03
 ErrMax= 3.94D-03  0.00D+00 EMaxC= 1.00D-01 BMatC= 4.88D-03 BMatP= 2.22D-02
 IDIUse=3 WtCom= 9.61D-01 WtEn= 3.94D-02
 Coeff-Com: -0.382D-01 0.115D+00 0.363D+00 0.560D+00
 Coeff-En:   0.000D+00 0.000D+00 0.191D+00 0.809D+00
 Coeff:     -0.367D-01 0.110D+00 0.356D+00 0.570D+00
 Gap=     0.276 Goal=   None    Shift=    0.000
 RMSDP=1.79D-03 MaxDP=1.32D-01 DE=-1.32D-02 OVMax= 1.48D-02

 Cycle   5  Pass 1  IDiag  1:
 RMSU=  8.67D-04    CP:  9.44D-01  1.01D+00  7.88D-01  7.28D-01
 E= -420.742472245593     Delta-E=       -0.003694181910 Rises=F Damp=F
 DIIS: error= 5.09D-04 at cycle   5 NSaved=   5.
 NSaved= 5 IEnMin= 5 EnMin= -420.742472245593     IErMin= 5 ErrMin= 5.09D-04
 ErrMax= 5.09D-04  0.00D+00 EMaxC= 1.00D-01 BMatC= 8.71D-05 BMatP= 4.88D-03
 IDIUse=3 WtCom= 9.95D-01 WtEn= 5.09D-03
 Coeff-Com: -0.949D-02 0.191D-01 0.111D+00 0.225D+00 0.654D+00
 Coeff-En:   0.000D+00 0.000D+00 0.000D+00 0.000D+00 0.100D+01
 Coeff:     -0.945D-02 0.190D-01 0.110D+00 0.224D+00 0.656D+00
 Gap=     0.276 Goal=   None    Shift=    0.000
 RMSDP=2.40D-04 MaxDP=1.48D-02 DE=-3.69D-03 OVMax= 2.36D-03

 Cycle   6  Pass 1  IDiag  1:
 RMSU=  1.79D-04    CP:  9.44D-01  1.00D+00  7.82D-01  7.32D-01  8.89D-01
 E= -420.742536655963     Delta-E=       -0.000064410371 Rises=F Damp=F
 DIIS: error= 1.59D-04 at cycle   6 NSaved=   6.
 NSaved= 6 IEnMin= 6 EnMin= -420.742536655963     IErMin= 6 ErrMin= 1.59D-04
 ErrMax= 1.59D-04  0.00D+00 EMaxC= 1.00D-01 BMatC= 8.75D-06 BMatP= 8.71D-05
 IDIUse=3 WtCom= 9.98D-01 WtEn= 1.59D-03
 Coeff-Com: -0.106D-02-0.265D-03 0.201D-01 0.474D-01 0.278D+00 0.656D+00
 Coeff-En:   0.000D+00 0.000D+00 0.000D+00 0.000D+00 0.000D+00 0.100D+01
 Coeff:     -0.106D-02-0.264D-03 0.200D-01 0.473D-01 0.278D+00 0.656D+00
 Gap=     0.276 Goal=   None    Shift=    0.000
 RMSDP=1.20D-04 MaxDP=7.90D-03 DE=-6.44D-05 OVMax= 7.85D-04

 Cycle   7  Pass 1  IDiag  1:
 RMSU=  6.56D-05    CP:  9.45D-01  9.97D-01  7.86D-01  7.26D-01  8.46D-01
                    CP:  9.96D-01
 E= -420.742544345125     Delta-E=       -0.000007689162 Rises=F Damp=F
 DIIS: error= 4.71D-05 at cycle   7 NSaved=   7.
 NSaved= 7 IEnMin= 7 EnMin= -420.742544345125     IErMin= 7 ErrMin= 4.71D-05
 ErrMax= 4.71D-05  0.00D+00 EMaxC= 1.00D-01 BMatC= 7.63D-07 BMatP= 8.75D-06
 IDIUse=1 WtCom= 1.00D+00 WtEn= 0.00D+00
 Coeff-Com:  0.113D-02-0.301D-02-0.724D-02-0.163D-01 0.181D-02 0.170D+00
 Coeff-Com:  0.853D+00
 Coeff:      0.113D-02-0.301D-02-0.724D-02-0.163D-01 0.181D-02 0.170D+00
 Coeff:      0.853D+00
 Gap=     0.276 Goal=   None    Shift=    0.000
 RMSDP=4.49D-05 MaxDP=2.31D-03 DE=-7.69D-06 OVMax= 4.36D-04

 Cycle   8  Pass 1  IDiag  1:
 RMSU=  2.70D-05    CP:  9.45D-01  9.97D-01  7.89D-01  7.19D-01  8.61D-01
                    CP:  1.05D+00  1.10D+00
 E= -420.742545225325     Delta-E=       -0.000000880200 Rises=F Damp=F
 DIIS: error= 3.99D-05 at cycle   8 NSaved=   8.
 NSaved= 8 IEnMin= 8 EnMin= -420.742545225325     IErMin= 8 ErrMin= 3.99D-05
 ErrMax= 3.99D-05  0.00D+00 EMaxC= 1.00D-01 BMatC= 2.14D-07 BMatP= 7.63D-07
 IDIUse=1 WtCom= 1.00D+00 WtEn= 0.00D+00
 Coeff-Com:  0.759D-03-0.157D-02-0.607D-02-0.153D-01-0.375D-01-0.139D-01
 Coeff-Com:  0.415D+00 0.659D+00
 Coeff:      0.759D-03-0.157D-02-0.607D-02-0.153D-01-0.375D-01-0.139D-01
 Coeff:      0.415D+00 0.659D+00
 Gap=     0.276 Goal=   None    Shift=    0.000
 RMSDP=1.73D-05 MaxDP=1.10D-03 DE=-8.80D-07 OVMax= 2.10D-04

 Cycle   9  Pass 1  IDiag  1:
 RMSU=  8.00D-06    CP:  9.45D-01  9.97D-01  7.90D-01  7.17D-01  8.67D-01
                    CP:  1.08D+00  1.13D+00  1.13D+00
 E= -420.742545456199     Delta-E=       -0.000000230874 Rises=F Damp=F
 DIIS: error= 1.17D-05 at cycle   9 NSaved=   9.
 NSaved= 9 IEnMin= 9 EnMin= -420.742545456199     IErMin= 9 ErrMin= 1.17D-05
 ErrMax= 1.17D-05  0.00D+00 EMaxC= 1.00D-01 BMatC= 1.74D-08 BMatP= 2.14D-07
 IDIUse=1 WtCom= 1.00D+00 WtEn= 0.00D+00
 Coeff-Com:  0.163D-03-0.272D-03-0.116D-02-0.378D-02-0.130D-01-0.221D-01
 Coeff-Com:  0.628D-01 0.238D+00 0.740D+00
 Coeff:      0.163D-03-0.272D-03-0.116D-02-0.378D-02-0.130D-01-0.221D-01
 Coeff:      0.628D-01 0.238D+00 0.740D+00
 Gap=     0.276 Goal=   None    Shift=    0.000
 RMSDP=7.12D-06 MaxDP=4.58D-04 DE=-2.31D-07 OVMax= 7.53D-05

 Cycle  10  Pass 1  IDiag  1:
 RMSU=  2.24D-06    CP:  9.45D-01  9.97D-01  7.91D-01  7.16D-01  8.66D-01
                    CP:  1.08D+00  1.16D+00  1.19D+00  9.48D-01
 E= -420.742545476502     Delta-E=       -0.000000020303 Rises=F Damp=F
 DIIS: error= 3.89D-06 at cycle  10 NSaved=  10.
 NSaved=10 IEnMin=10 EnMin= -420.742545476502     IErMin=10 ErrMin= 3.89D-06
 ErrMax= 3.89D-06  0.00D+00 EMaxC= 1.00D-01 BMatC= 2.61D-09 BMatP= 1.74D-08
 IDIUse=1 WtCom= 1.00D+00 WtEn= 0.00D+00
 Coeff-Com: -0.603D-04 0.146D-03 0.624D-03 0.109D-02 0.133D-02-0.655D-02
 Coeff-Com: -0.464D-01-0.317D-01 0.285D+00 0.797D+00
 Coeff:     -0.603D-04 0.146D-03 0.624D-03 0.109D-02 0.133D-02-0.655D-02
 Coeff:     -0.464D-01-0.317D-01 0.285D+00 0.797D+00
 Gap=     0.276 Goal=   None    Shift=    0.000
 RMSDP=2.83D-06 MaxDP=1.44D-04 DE=-2.03D-08 OVMax= 2.02D-05

 Cycle  11  Pass 1  IDiag  1:
 RMSU=  7.18D-07    CP:  9.45D-01  9.97D-01  7.91D-01  7.15D-01  8.66D-01
                    CP:  1.08D+00  1.17D+00  1.25D+00  1.02D+00  9.56D-01
 E= -420.742545479785     Delta-E=       -0.000000003283 Rises=F Damp=F
 DIIS: error= 5.64D-07 at cycle  11 NSaved=  11.
 NSaved=11 IEnMin=11 EnMin= -420.742545479785     IErMin=11 ErrMin= 5.64D-07
 ErrMax= 5.64D-07  0.00D+00 EMaxC= 1.00D-01 BMatC= 6.31D-11 BMatP= 2.61D-09
 IDIUse=1 WtCom= 1.00D+00 WtEn= 0.00D+00
 Coeff-Com: -0.118D-04 0.244D-04 0.130D-03 0.286D-03 0.717D-03 0.913D-04
 Coeff-Com: -0.747D-02-0.176D-01-0.811D-02 0.121D+00 0.911D+00
 Coeff:     -0.118D-04 0.244D-04 0.130D-03 0.286D-03 0.717D-03 0.913D-04
 Coeff:     -0.747D-02-0.176D-01-0.811D-02 0.121D+00 0.911D+00
 Gap=     0.276 Goal=   None    Shift=    0.000
 RMSDP=4.90D-07 MaxDP=2.30D-05 DE=-3.28D-09 OVMax= 9.37D-06

 Cycle  12  Pass 1  IDiag  1:
 RMSU=  1.78D-07    CP:  9.45D-01  9.97D-01  7.91D-01  7.15D-01  8.66D-01
                    CP:  1.08D+00  1.17D+00  1.25D+00  1.03D+00  1.02D+00
                    CP:  9.73D-01
 E= -420.742545479882     Delta-E=       -0.000000000097 Rises=F Damp=F
 DIIS: error= 2.83D-07 at cycle  12 NSaved=  12.
 NSaved=12 IEnMin=12 EnMin= -420.742545479882     IErMin=12 ErrMin= 2.83D-07
 ErrMax= 2.83D-07  0.00D+00 EMaxC= 1.00D-01 BMatC= 2.32D-11 BMatP= 6.31D-11
 IDIUse=1 WtCom= 1.00D+00 WtEn= 0.00D+00
 Coeff-Com: -0.214D-05 0.319D-05 0.292D-04 0.844D-04 0.321D-03 0.475D-03
 Coeff-Com: -0.896D-03-0.784D-02-0.270D-01 0.532D-02 0.483D+00 0.547D+00
 Coeff:     -0.214D-05 0.319D-05 0.292D-04 0.844D-04 0.321D-03 0.475D-03
 Coeff:     -0.896D-03-0.784D-02-0.270D-01 0.532D-02 0.483D+00 0.547D+00
 Gap=     0.276 Goal=   None    Shift=    0.000
 RMSDP=9.80D-08 MaxDP=5.68D-06 DE=-9.71D-11 OVMax= 1.92D-06

 Cycle  13  Pass 1  IDiag  1:
 RMSU=  5.31D-08    CP:  9.45D-01  9.97D-01  7.91D-01  7.15D-01  8.66D-01
                    CP:  1.08D+00  1.17D+00  1.25D+00  1.03D+00  1.04D+00
                    CP:  1.01D+00  1.05D+00
 E= -420.742545479907     Delta-E=       -0.000000000025 Rises=F Damp=F
 DIIS: error= 1.30D-07 at cycle  13 NSaved=  13.
 NSaved=13 IEnMin=13 EnMin= -420.742545479907     IErMin=13 ErrMin= 1.30D-07
 ErrMax= 1.30D-07  0.00D+00 EMaxC= 1.00D-01 BMatC= 9.78D-13 BMatP= 2.32D-11
 IDIUse=1 WtCom= 1.00D+00 WtEn= 0.00D+00
 Coeff-Com:  0.186D-05-0.425D-05-0.148D-04-0.286D-04-0.195D-04 0.118D-03
 Coeff-Com:  0.127D-02 0.106D-02-0.719D-02-0.222D-01-0.142D-01 0.836D-01
 Coeff-Com:  0.958D+00
 Coeff:      0.186D-05-0.425D-05-0.148D-04-0.286D-04-0.195D-04 0.118D-03
 Coeff:      0.127D-02 0.106D-02-0.719D-02-0.222D-01-0.142D-01 0.836D-01
 Coeff:      0.958D+00
 Gap=     0.276 Goal=   None    Shift=    0.000
 RMSDP=3.83D-08 MaxDP=1.93D-06 DE=-2.49D-11 OVMax= 1.30D-06

 Cycle  14  Pass 1  IDiag  1:
 RMSU=  2.49D-08    CP:  9.45D-01  9.97D-01  7.91D-01  7.15D-01  8.66D-01
                    CP:  1.08D+00  1.17D+00  1.25D+00  1.03D+00  1.04D+00
                    CP:  1.03D+00  1.10D+00  1.02D+00
 E= -420.742545479908     Delta-E=       -0.000000000001 Rises=F Damp=F
 DIIS: error= 7.41D-08 at cycle  14 NSaved=  14.
 NSaved=14 IEnMin=14 EnMin= -420.742545479908     IErMin=14 ErrMin= 7.41D-08
 ErrMax= 7.41D-08  0.00D+00 EMaxC= 1.00D-01 BMatC= 2.82D-13 BMatP= 9.78D-13
 IDIUse=1 WtCom= 1.00D+00 WtEn= 0.00D+00
 Coeff-Com:  0.753D-06-0.161D-05-0.710D-05-0.156D-04-0.280D-04-0.368D-05
 Coeff-Com:  0.487D-03 0.971D-03-0.495D-03-0.761D-02-0.391D-01-0.284D-01
 Coeff-Com:  0.400D+00 0.674D+00
 Coeff:      0.753D-06-0.161D-05-0.710D-05-0.156D-04-0.280D-04-0.368D-05
 Coeff:      0.487D-03 0.971D-03-0.495D-03-0.761D-02-0.391D-01-0.284D-01
 Coeff:      0.400D+00 0.674D+00
 Gap=     0.276 Goal=   None    Shift=    0.000
 RMSDP=1.12D-08 MaxDP=3.73D-07 DE=-1.48D-12 OVMax= 4.60D-07

 Cycle  15  Pass 1  IDiag  1:
 RMSU=  6.05D-09    CP:  9.45D-01  9.97D-01  7.91D-01  7.15D-01  8.66D-01
                    CP:  1.08D+00  1.17D+00  1.25D+00  1.03D+00  1.04D+00
                    CP:  1.03D+00  1.12D+00  1.14D+00  1.01D+00
 E= -420.742545479908     Delta-E=        0.000000000000 Rises=F Damp=F
 DIIS: error= 1.38D-08 at cycle  15 NSaved=  15.
 NSaved=15 IEnMin=14 EnMin= -420.742545479908     IErMin=15 ErrMin= 1.38D-08
 ErrMax= 1.38D-08  0.00D+00 EMaxC= 1.00D-01 BMatC= 4.45D-14 BMatP= 2.82D-13
 IDIUse=1 WtCom= 1.00D+00 WtEn= 0.00D+00
 Coeff-Com: -0.188D-06 0.428D-06 0.572D-06 0.102D-05-0.533D-05-0.247D-04
 Coeff-Com: -0.115D-03 0.112D-03 0.132D-02 0.260D-02-0.100D-01-0.369D-01
 Coeff-Com: -0.943D-01 0.223D+00 0.914D+00
 Coeff:     -0.188D-06 0.428D-06 0.572D-06 0.102D-05-0.533D-05-0.247D-04
 Coeff:     -0.115D-03 0.112D-03 0.132D-02 0.260D-02-0.100D-01-0.369D-01
 Coeff:     -0.943D-01 0.223D+00 0.914D+00
 Gap=     0.276 Goal=   None    Shift=    0.000
 RMSDP=5.93D-09 MaxDP=2.56D-07 DE= 3.41D-13 OVMax= 2.27D-07

 SCF Done:  E(RM062X) =  -420.742545480     A.U. after   15 cycles
            NFock= 15  Conv=0.59D-08     -V/T= 2.0043
 KE= 4.189262556946D+02 PE=-1.788102308738D+03 EE= 5.454776567349D+02
 Leave Link  502 at Sun Oct 13 19:54:54 2019, MaxMem= 10737418240 cpu:             249.0 elap:              10.4
 (Enter /apps/cent7/gaussian/g16-A.03/g16-haswell/g16/l601.exe)
 Copying SCF densities to generalized density rwf, IOpCl= 0 IROHF=0.

 **********************************************************************

            Population analysis using the SCF density.

 **********************************************************************

 Orbital symmetries:
       Occupied  (A) (A) (A) (A) (A) (A) (A) (A) (A) (A) (A) (A)
                 (A) (A) (A) (A) (A) (A) (A) (A) (A) (A) (A) (A)
                 (A) (A) (A) (A) (A) (A) (A) (A)
       Virtual   (A) (A) (A) (A) (A) (A) (A) (A) (A) (A) (A) (A)
                 (A) (A) (A) (A) (A) (A) (A) (A) (A) (A) (A) (A)
                 (A) (A) (A) (A) (A) (A) (A) (A) (A) (A) (A) (A)
                 (A) (A) (A) (A) (A) (A) (A) (A) (A) (A) (A) (A)
                 (A) (A) (A) (A) (A) (A) (A) (A) (A) (A) (A) (A)
                 (A) (A) (A) (A) (A) (A) (A) (A) (A) (A) (A) (A)
                 (A) (A) (A) (A) (A) (A) (A) (A) (A) (A) (A) (A)
                 (A) (A) (A) (A) (A) (A) (A) (A) (A) (A) (A) (A)
                 (A) (A) (A) (A) (A) (A) (A) (A) (A) (A) (A) (A)
                 (A) (A) (A) (A) (A) (A) (A) (A) (A) (A) (A) (A)
                 (A) (A) (A) (A) (A) (A) (A) (A) (A) (A) (A) (A)
                 (A) (A) (A) (A) (A) (A) (A) (A) (A) (A) (A) (A)
                 (A) (A) (A) (A) (A) (A) (A) (A) (A) (A) (A) (A)
                 (A) (A) (A) (A) (A) (A) (A) (A) (A) (A) (A) (A)
                 (A) (A) (A) (A) (A) (A) (A) (A) (A) (A) (A) (A)
                 (A) (A) (A) (A) (A) (A) (A) (A) (A) (A) (A) (A)
                 (A) (A) (A) (A) (A) (A) (A) (A) (A) (A) (A) (A)
                 (A) (A) (A) (A)
 The electronic state is 1-A.
 Alpha  occ. eigenvalues --  -19.66081 -19.61794 -10.68613 -10.57777 -10.57671
 Alpha  occ. eigenvalues --  -10.57532 -10.57439 -10.57023 -10.56937  -1.22881
 Alpha  occ. eigenvalues --   -1.12517  -0.98114  -0.88581  -0.86235  -0.76170
 Alpha  occ. eigenvalues --   -0.71236  -0.68848  -0.63874  -0.58864  -0.55807
 Alpha  occ. eigenvalues --   -0.55170  -0.53111  -0.51769  -0.50737  -0.46406
 Alpha  occ. eigenvalues --   -0.44600  -0.42690  -0.41867  -0.41206  -0.35697
 Alpha  occ. eigenvalues --   -0.32968  -0.32605
 Alpha virt. eigenvalues --   -0.05039  -0.01099  -0.00383   0.00076   0.00945
 Alpha virt. eigenvalues --    0.02317   0.03493   0.04496   0.05561   0.06387
 Alpha virt. eigenvalues --    0.06616   0.07651   0.07895   0.08682   0.09479
 Alpha virt. eigenvalues --    0.10978   0.11577   0.12018   0.12217   0.12735
 Alpha virt. eigenvalues --    0.13233   0.13823   0.14454   0.14574   0.14997
 Alpha virt. eigenvalues --    0.15536   0.15798   0.16334   0.17416   0.18143
 Alpha virt. eigenvalues --    0.19634   0.19827   0.21334   0.22101   0.22196
 Alpha virt. eigenvalues --    0.23425   0.24279   0.24784   0.25216   0.26020
 Alpha virt. eigenvalues --    0.26883   0.27780   0.29107   0.30194   0.30523
 Alpha virt. eigenvalues --    0.31533   0.32099   0.33273   0.33313   0.34602
 Alpha virt. eigenvalues --    0.35472   0.35862   0.37428   0.37573   0.39873
 Alpha virt. eigenvalues --    0.42575   0.43989   0.48033   0.50538   0.52791
 Alpha virt. eigenvalues --    0.53896   0.55201   0.55946   0.56867   0.57796
 Alpha virt. eigenvalues --    0.58382   0.59585   0.61110   0.61908   0.63634
 Alpha virt. eigenvalues --    0.65394   0.67632   0.68185   0.68936   0.70337
 Alpha virt. eigenvalues --    0.71091   0.74918   0.75518   0.78314   0.80542
 Alpha virt. eigenvalues --    0.82459   0.84839   0.86029   0.87150   0.89046
 Alpha virt. eigenvalues --    0.90474   0.90656   0.91877   0.92890   0.92989
 Alpha virt. eigenvalues --    0.97947   1.00221   1.02049   1.04061   1.05530
 Alpha virt. eigenvalues --    1.07693   1.10470   1.11476   1.13265   1.14924
 Alpha virt. eigenvalues --    1.16784   1.18599   1.22153   1.26061   1.26442
 Alpha virt. eigenvalues --    1.30856   1.33285   1.36637   1.42578   1.44199
 Alpha virt. eigenvalues --    1.50791   1.51167   1.53057   1.55103   1.55810
 Alpha virt. eigenvalues --    1.57664   1.59042   1.59245   1.65242   1.66558
 Alpha virt. eigenvalues --    1.66779   1.69716   1.72258   1.74196   1.78172
 Alpha virt. eigenvalues --    1.79129   1.79518   1.81049   1.84769   1.90718
 Alpha virt. eigenvalues --    1.93023   1.93946   1.94340   1.95395   1.96949
 Alpha virt. eigenvalues --    1.99112   2.01646   2.04446   2.07053   2.07907
 Alpha virt. eigenvalues --    2.11488   2.14339   2.23887   2.30201   2.32935
 Alpha virt. eigenvalues --    2.41929   2.42414   2.47706   2.48207   2.57029
 Alpha virt. eigenvalues --    2.60030   2.64494   2.65087   2.69675   2.71133
 Alpha virt. eigenvalues --    2.72428   2.72865   2.75595   2.76137   2.79160
 Alpha virt. eigenvalues --    2.82774   2.83091   2.84967   2.86585   2.91634
 Alpha virt. eigenvalues --    2.93392   2.93827   2.97129   3.00065   3.06281
 Alpha virt. eigenvalues --    3.10821   3.14531   3.21781   3.26442   3.32922
 Alpha virt. eigenvalues --    3.36050   3.39119   3.40492   3.43381   3.50710
 Alpha virt. eigenvalues --    3.51848   3.55427   3.58604   3.69150   3.75403
 Alpha virt. eigenvalues --    3.86554   4.01123   4.05200   4.13466   4.17057
 Alpha virt. eigenvalues --    4.19328   4.37149   4.81086   5.15769   5.21079
 Alpha virt. eigenvalues --    5.32239   5.45344   5.71236   5.94729  23.65149
 Alpha virt. eigenvalues --   23.90715  23.99271  24.02682  24.08313  24.10646
 Alpha virt. eigenvalues --   24.19467  49.99853  50.11601
          Condensed to atoms (all electrons):
               1          2          3          4          5          6
     1  O    7.985065   0.326994  -0.201710  -0.158986  -0.010631  -0.004965
     2  C    0.326994   8.732017  -1.426033  -1.265667   0.119083  -0.095897
     3  C   -0.201710  -1.426033  10.640654  -2.441815   1.548040  -1.705939
     4  C   -0.158986  -1.265667  -2.441815  14.023689  -3.829188   1.381498
     5  C   -0.010631   0.119083   1.548040  -3.829188   8.485818  -1.117978
     6  C   -0.004965  -0.095897  -1.705939   1.381498  -1.117978   7.196038
     7  C    0.052283   0.422434   1.822187  -1.440160   1.605275  -1.763807
     8  C    0.088973  -1.154528  -3.208400   0.214312  -1.240446   2.206632
     9  O   -0.113387   0.557493  -0.229429  -0.011290   0.045297  -0.013343
    10  H    0.312351   0.023661   0.009110  -0.001469  -0.011982  -0.003456
    11  H   -0.000932  -0.036027  -0.065091   0.510645  -0.093747   0.022897
    12  H   -0.000366   0.008648   0.016449  -0.031109   0.327449   0.003845
    13  H    0.000181  -0.005359   0.014162  -0.015374  -0.004107   0.348597
    14  H    0.000308   0.012231   0.023925   0.009316  -0.002626  -0.005117
    15  H   -0.002002  -0.054082  -0.045115   0.063528  -0.024740   0.036714
               7          8          9         10         11         12
     1  O    0.052283   0.088973  -0.113387   0.312351  -0.000932  -0.000366
     2  C    0.422434  -1.154528   0.557493   0.023661  -0.036027   0.008648
     3  C    1.822187  -3.208400  -0.229429   0.009110  -0.065091   0.016449
     4  C   -1.440160   0.214312  -0.011290  -0.001469   0.510645  -0.031109
     5  C    1.605275  -1.240446   0.045297  -0.011982  -0.093747   0.327449
     6  C   -1.763807   2.206632  -0.013343  -0.003456   0.022897   0.003845
     7  C   10.479904  -5.587579   0.137203   0.007936  -0.019929  -0.005493
     8  C   -5.587579  15.126174  -0.141028  -0.029516   0.031374   0.003297
     9  O    0.137203  -0.141028   8.045239  -0.004841  -0.002807   0.000082
    10  H    0.007936  -0.029516  -0.004841   0.393294  -0.005674  -0.000074
    11  H   -0.019929   0.031374  -0.002807  -0.005674   0.448766  -0.003495
    12  H   -0.005493   0.003297   0.000082  -0.000074  -0.003495   0.457975
    13  H   -0.019013   0.018793  -0.000150  -0.000020  -0.000313  -0.000628
    14  H    0.403093  -0.115648   0.001383   0.000085   0.000283  -0.000967
    15  H   -0.151944   0.517451  -0.007091  -0.000635   0.000638   0.000254
              13         14         15
     1  O    0.000181   0.000308  -0.002002
     2  C   -0.005359   0.012231  -0.054082
     3  C    0.014162   0.023925  -0.045115
     4  C   -0.015374   0.009316   0.063528
     5  C   -0.004107  -0.002626  -0.024740
     6  C    0.348597  -0.005117   0.036714
     7  C   -0.019013   0.403093  -0.151944
     8  C    0.018793  -0.115648   0.517451
     9  O   -0.000150   0.001383  -0.007091
    10  H   -0.000020   0.000085  -0.000635
    11  H   -0.000313   0.000283   0.000638
    12  H   -0.000628  -0.000967   0.000254
    13  H    0.458791  -0.001673   0.000582
    14  H   -0.001673   0.458260  -0.006986
    15  H    0.000582  -0.006986   0.437983
 Mulliken charges:
               1
     1  O   -0.273176
     2  C   -0.164969
     3  C    1.249006
     4  C   -1.007929
     5  C    0.204484
     6  C   -0.485721
     7  C    0.057610
     8  C   -0.729861
     9  O   -0.263331
    10  H    0.311230
    11  H    0.213413
    12  H    0.224136
    13  H    0.205531
    14  H    0.224133
    15  H    0.235445
 Sum of Mulliken charges =  -0.00000
 Mulliken charges with hydrogens summed into heavy atoms:
               1
     1  O    0.038054
     2  C   -0.164969
     3  C    1.249006
     4  C   -0.794516
     5  C    0.428620
     6  C   -0.280190
     7  C    0.281742
     8  C   -0.494415
     9  O   -0.263331
 Electronic spatial extent (au):  <R**2>=           1186.7029
 Charge=             -0.0000 electrons
 Dipole moment (field-independent basis, Debye):
    X=              3.5096    Y=             -1.8864    Z=              1.7085  Tot=              4.3353
 Quadrupole moment (field-independent basis, Debye-Ang):
   XX=            -53.5619   YY=            -49.0147   ZZ=            -53.0282
   XY=              5.5652   XZ=             -4.7757   YZ=             -1.4973
 Traceless Quadrupole moment (field-independent basis, Debye-Ang):
   XX=             -1.6936   YY=              2.8535   ZZ=             -1.1600
   XY=              5.5652   XZ=             -4.7757   YZ=             -1.4973
 Octapole moment (field-independent basis, Debye-Ang**2):
  XXX=             25.6979  YYY=             -3.9069  ZZZ=              2.8495  XYY=              7.3404
  XXY=            -13.9847  XXZ=             14.6741  XZZ=            -18.2585  YZZ=             -2.7539
  YYZ=              3.3638  XYZ=              6.2880
 Hexadecapole moment (field-independent basis, Debye-Ang**3):
 XXXX=          -1067.4184 YYYY=           -370.1018 ZZZZ=            -61.8070 XXXY=             39.2139
 XXXZ=            -35.9185 YYYX=             13.8606 YYYZ=             -2.1578 ZZZX=             -8.5380
 ZZZY=             -5.2736 XXYY=           -244.8772 XXZZ=           -187.9840 YYZZ=            -81.0036
 XXYZ=            -14.7053 YYXZ=             -9.8024 ZZXY=              8.3573
 N-N= 4.029558508281D+02 E-N=-1.788102308378D+03  KE= 4.189262556946D+02
 No NMR shielding tensors so no spin-rotation constants.
 Leave Link  601 at Sun Oct 13 19:54:55 2019, MaxMem= 10737418240 cpu:               2.5 elap:               0.1
 (Enter /apps/cent7/gaussian/g16-A.03/g16-haswell/g16/l701.exe)
 ... and contract with generalized density number  0.
 Compute integral first derivatives.
 Leave Link  701 at Sun Oct 13 19:54:55 2019, MaxMem= 10737418240 cpu:               6.1 elap:               0.3
 (Enter /apps/cent7/gaussian/g16-A.03/g16-haswell/g16/l702.exe)
 L702 exits ... SP integral derivatives will be done elsewhere.
 Leave Link  702 at Sun Oct 13 19:54:55 2019, MaxMem= 10737418240 cpu:               0.5 elap:               0.0
 (Enter /apps/cent7/gaussian/g16-A.03/g16-haswell/g16/l703.exe)
 Integral derivatives from FoFJK, PRISM(SPDF).
 Compute integral first derivatives, UseDBF=F ICtDFT=           0.
 Calling FoFJK, ICntrl=      2127 FMM=F ISym2X=0 I1Cent= 0 IOpClX= 0 NMat=1 NMatS=1 NMatT=0.
 FoFJK:  IHMeth= 1 ICntrl=    2127 DoSepK=F KAlg= 0 I1Cent=           0 FoldK=F
 IRaf=         0 NMat=       1 IRICut=       1 DoRegI=T DoRafI=F ISym2E= 0 IDoP0=0 IntGTp=1.
 FoFCou: FMM=F IPFlag=           0 FMFlag=      100000 FMFlg1=         800
         NFxFlg=           0 DoJE=F BraDBF=F KetDBF=F FulRan=T
         wScrn=  0.000000 ICntrl=      2127 IOpCl=  0 I1Cent=           0 NGrid=           0
         NMat0=    1 NMatS0=      1 NMatT0=    0 NMatD0=    1 NMtDS0=    0 NMtDT0=    0
 Symmetry not used in FoFCou.
 Leave Link  703 at Sun Oct 13 19:54:57 2019, MaxMem= 10737418240 cpu:              39.1 elap:               1.7
 (Enter /apps/cent7/gaussian/g16-A.03/g16-haswell/g16/l716.exe)
 Dipole        = 1.38076575D+00-7.42184203D-01 6.72164110D-01
 ***** Axes restored to original set *****
 -------------------------------------------------------------------
 Center     Atomic                   Forces (Hartrees/Bohr)
 Number     Number              X              Y              Z
 -------------------------------------------------------------------
      1        8           0.012710724   -0.017449005   -0.003058747
      2        6          -0.091194296    0.081616020    0.002997285
      3        6           0.062006273   -0.011482826   -0.005662049
      4        6           0.007228938    0.006698631    0.001289031
      5        6          -0.006653761    0.008625598   -0.000043691
      6        6          -0.009990993   -0.002388064    0.000470427
      7        6          -0.009572538   -0.009431844    0.000330323
      8        6           0.006334330   -0.002858488   -0.000828211
      9        8           0.042365761   -0.051067627    0.001097074
     10        1          -0.002241206   -0.000688569    0.002526739
     11        1           0.000394174    0.005001651    0.000042926
     12        1          -0.003147420    0.003869572   -0.000053819
     13        1          -0.004465071   -0.000326155   -0.000095910
     14        1          -0.003222347   -0.004017658    0.000184548
     15        1          -0.000552568   -0.006101236    0.000804075
 -------------------------------------------------------------------
 Cartesian Forces:  Max     0.091194296 RMS     0.023368649
 Leave Link  716 at Sun Oct 13 19:54:57 2019, MaxMem= 10737418240 cpu:               0.5 elap:               0.0
 (Enter /apps/cent7/gaussian/g16-A.03/g16-haswell/g16/l103.exe)

 GradGradGradGradGradGradGradGradGradGradGradGradGradGradGradGradGradGrad
 Berny optimization.
 FormGI is forming the generalized inverse of G from B-inverse, IUseBI=4.
 Internal  Forces:  Max     0.065946465 RMS     0.011499475
 Search for a local minimum.
 Step number   1 out of a maximum of   77
 All quantities printed in internal units (Hartrees-Bohrs-Radians)
 RMS Force = .11499D-01 SwitMx=.10000D-02 MixMth= 1
 Mixed Optimization -- RFO/linear search
 Second derivative matrix not updated -- first step.
 ITU=  0
     Eigenvalues ---    0.01833   0.01849   0.01880   0.01918   0.01933
     Eigenvalues ---    0.01972   0.01973   0.01998   0.02009   0.02011
     Eigenvalues ---    0.02013   0.02275   0.16000   0.16000   0.16000
     Eigenvalues ---    0.16000   0.16000   0.16000   0.21998   0.22000
     Eigenvalues ---    0.23465   0.24996   0.24999   0.25000   0.34811
     Eigenvalues ---    0.34813   0.34813   0.34813   0.34813   0.39993
     Eigenvalues ---    0.40184   0.42560   0.43219   0.43918   0.44502
     Eigenvalues ---    0.44657   0.53781   0.55480   0.82188
 RFO step:  Lambda=-1.78594143D-02 EMin= 1.83292290D-02
 Linear search not attempted -- first point.
 Iteration  1 RMS(Cart)=  0.03835548 RMS(Int)=  0.00172509
 Iteration  2 RMS(Cart)=  0.00224264 RMS(Int)=  0.00043592
 Iteration  3 RMS(Cart)=  0.00000454 RMS(Int)=  0.00043590
 Iteration  4 RMS(Cart)=  0.00000000 RMS(Int)=  0.00043590
 ITry= 1 IFail=0 DXMaxC= 1.29D-01 DCOld= 1.00D+10 DXMaxT= 3.00D-01 DXLimC= 3.00D+00 Rises=F
 Variable       Old X    -DE/DX   Delta X   Delta X   Delta X     New X
                                 (Linear)    (Quad)   (Total)
    R1        2.56232   0.01027   0.00000   0.01848   0.01848   2.58080
    R2        1.81408   0.00279   0.00000   0.00488   0.00488   1.81896
    R3        2.68216   0.03817   0.00000   0.08608   0.08608   2.76824
    R4        2.36757  -0.06595   0.00000  -0.07853  -0.07853   2.28904
    R5        2.67898  -0.01612   0.00000  -0.03630  -0.03627   2.64271
    R6        2.67946  -0.01814   0.00000  -0.04089  -0.04087   2.63859
    R7        2.65973  -0.01803   0.00000  -0.03900  -0.03900   2.62074
    R8        2.05983  -0.00461   0.00000  -0.01260  -0.01260   2.04723
    R9        2.65726  -0.01428   0.00000  -0.03059  -0.03062   2.62664
   R10        2.05979  -0.00494   0.00000  -0.01350  -0.01350   2.04629
   R11        2.65599  -0.01094   0.00000  -0.02339  -0.02341   2.63257
   R12        2.05979  -0.00447   0.00000  -0.01221  -0.01221   2.04758
   R13        2.65717  -0.01911   0.00000  -0.04121  -0.04121   2.61596
   R14        2.05979  -0.00507   0.00000  -0.01386  -0.01386   2.04594
   R15        2.05979  -0.00496   0.00000  -0.01356  -0.01356   2.04623
    A1        1.91074   0.00223   0.00000   0.01252   0.01252   1.92326
    A2        2.12320  -0.02460   0.00000  -0.09112  -0.09282   2.03038
    A3        2.03206   0.02070   0.00000   0.07802   0.07626   2.10832
    A4        2.12760   0.00399   0.00000   0.01563   0.01398   2.14158
    A5        2.10891   0.00042   0.00000   0.00166   0.00163   2.11054
    A6        2.11020  -0.00608   0.00000  -0.02262  -0.02265   2.08756
    A7        2.06402   0.00566   0.00000   0.02100   0.02105   2.08507
    A8        2.10805  -0.00184   0.00000  -0.00748  -0.00748   2.10058
    A9        2.09378  -0.00112   0.00000  -0.00773  -0.00776   2.08602
   A10        2.08135   0.00296   0.00000   0.01521   0.01518   2.09653
   A11        2.09626  -0.00149   0.00000  -0.00538  -0.00541   2.09085
   A12        2.09440   0.00007   0.00000  -0.00112  -0.00110   2.09329
   A13        2.09253   0.00142   0.00000   0.00650   0.00651   2.09904
   A14        2.09215   0.00082   0.00000   0.00455   0.00449   2.09665
   A15        2.09595  -0.00063   0.00000  -0.00350  -0.00347   2.09248
   A16        2.09508  -0.00019   0.00000  -0.00106  -0.00103   2.09406
   A17        2.09507   0.00034   0.00000   0.00209   0.00206   2.09713
   A18        2.09371   0.00078   0.00000   0.00426   0.00428   2.09799
   A19        2.09441  -0.00111   0.00000  -0.00636  -0.00634   2.08807
   A20        2.11052  -0.00347   0.00000  -0.01454  -0.01452   2.09600
   A21        2.09366  -0.00199   0.00000  -0.01366  -0.01367   2.07999
   A22        2.07900   0.00546   0.00000   0.02820   0.02819   2.10720
    D1        1.55232   0.00327   0.00000   0.08605   0.08716   1.63948
    D2       -1.56223  -0.00053   0.00000  -0.01847  -0.01958  -1.58181
    D3        0.13541  -0.00237   0.00000  -0.06322  -0.06266   0.07275
    D4       -2.99565  -0.00258   0.00000  -0.06767  -0.06703  -3.06267
    D5       -3.03471   0.00186   0.00000   0.04787   0.04722  -2.98748
    D6        0.11743   0.00166   0.00000   0.04341   0.04285   0.16028
    D7       -3.10771  -0.00058   0.00000  -0.01665  -0.01669  -3.12440
    D8        0.03386  -0.00016   0.00000  -0.00537  -0.00550   0.02836
    D9        0.02362  -0.00045   0.00000  -0.01256  -0.01259   0.01103
   D10       -3.11800  -0.00003   0.00000  -0.00128  -0.00139  -3.11939
   D11        3.10672   0.00050   0.00000   0.01319   0.01313   3.11985
   D12       -0.03496   0.00056   0.00000   0.01519   0.01515  -0.01981
   D13       -0.02460   0.00033   0.00000   0.00895   0.00894  -0.01566
   D14        3.11691   0.00039   0.00000   0.01095   0.01096   3.12786
   D15       -0.00674   0.00033   0.00000   0.00782   0.00774   0.00100
   D16        3.13484   0.00038   0.00000   0.00950   0.00945  -3.13889
   D17        3.13488  -0.00009   0.00000  -0.00338  -0.00352   3.13135
   D18       -0.00673  -0.00004   0.00000  -0.00171  -0.00181  -0.00854
   D19       -0.00980   0.00007   0.00000   0.00137   0.00132  -0.00849
   D20        3.13186   0.00006   0.00000   0.00171   0.00171   3.13357
   D21        3.13180   0.00002   0.00000  -0.00031  -0.00040   3.13140
   D22       -0.00972   0.00001   0.00000   0.00003  -0.00001  -0.00974
   D23        0.00886  -0.00021   0.00000  -0.00503  -0.00501   0.00385
   D24       -3.13289  -0.00015   0.00000  -0.00340  -0.00336  -3.13625
   D25       -3.13281  -0.00020   0.00000  -0.00537  -0.00540  -3.13821
   D26        0.00863  -0.00014   0.00000  -0.00373  -0.00375   0.00488
   D27        0.00865  -0.00004   0.00000  -0.00040  -0.00035   0.00830
   D28       -3.13285  -0.00010   0.00000  -0.00239  -0.00240  -3.13525
   D29       -3.13278  -0.00010   0.00000  -0.00204  -0.00199  -3.13478
   D30        0.00890  -0.00015   0.00000  -0.00402  -0.00404   0.00485
         Item               Value     Threshold  Converged?
 Maximum Force            0.065946     0.000450     NO 
 RMS     Force            0.011499     0.000300     NO 
 Maximum Displacement     0.128507     0.001800     NO 
 RMS     Displacement     0.039343     0.001200     NO 
 Predicted change in Energy=-9.480224D-03
 Lowest energy point so far.  Saving SCF results.
 GradGradGradGradGradGradGradGradGradGradGradGradGradGradGradGradGradGrad

 Leave Link  103 at Sun Oct 13 19:54:57 2019, MaxMem= 10737418240 cpu:               1.0 elap:               0.1
 (Enter /apps/cent7/gaussian/g16-A.03/g16-haswell/g16/l202.exe)
                          Input orientation:                          
 ---------------------------------------------------------------------
 Center     Atomic      Atomic             Coordinates (Angstroms)
 Number     Number       Type             X           Y           Z
 ---------------------------------------------------------------------
      1          8           0       -2.667197   -0.050620    0.337269
      2          6           0       -2.080575    1.173367    0.186070
      3          6           0       -0.619233    1.185505    0.084871
      4          6           0        0.109086   -0.007968    0.055471
      5          6           0        1.493626    0.017610   -0.020036
      6          6           0        2.160482    1.236308   -0.065506
      7          6           0        1.440310    2.428649   -0.045569
      8          6           0        0.057965    2.405063    0.024194
      9          8           0       -2.753775    2.172224    0.058216
     10          1           0       -2.804418   -0.240272    1.270923
     11          1           0       -0.416572   -0.954878    0.081600
     12          1           0        2.050703   -0.910619   -0.044936
     13          1           0        3.242573    1.258131   -0.116980
     14          1           0        1.958215    3.378547   -0.085927
     15          1           0       -0.511391    3.326055    0.034340
 ---------------------------------------------------------------------
                    Distance matrix (angstroms):
                    1          2          3          4          5
     1  O    0.000000
     2  C    1.365698   0.000000
     3  C    2.405383   1.464892   0.000000
     4  C    2.790874   2.491430   1.398460   0.000000
     5  C    4.176694   3.762069   2.416435   1.386833   0.000000
     6  C    5.012474   4.248978   2.784243   2.402307   1.389959
     7  C    4.812999   3.745133   2.409179   2.778393   2.411763
     8  C    3.681699   2.473182   1.396281   2.413774   2.786217
     9  O    2.241965   1.211306   2.351722   3.598503   4.763287
    10  H    0.962553   1.923339   2.866111   3.165406   4.495138
    11  H    2.438926   2.703561   2.149959   1.083346   2.145908
    12  H    4.810848   4.632905   3.396931   2.143533   1.082850
    13  H    6.069971   5.332440   3.867759   3.384004   2.146416
    14  H    5.773450   4.609623   3.388487   3.861056   3.393535
    15  H    4.017612   2.668225   2.143861   3.391334   3.868960
                    6          7          8          9         10
     6  C    0.000000
     7  C    1.393098   0.000000
     8  C    2.407200   1.384306   0.000000
     9  O    5.004115   4.203199   2.821570   0.000000
    10  H    5.349445   5.184015   4.092110   2.700623   0.000000
    11  H    3.385874   3.861663   3.393771   3.904079   2.761695
    12  H    2.149830   3.394598   3.869048   5.709428   5.074746
    13  H    1.083534   2.150200   3.387788   6.068150   6.382600
    14  H    2.151863   1.082663   2.137931   4.866092   6.133479
    15  H    3.393511   2.149618   1.082818   2.521941   4.416537
                   11         12         13         14         15
    11  H    0.000000
    12  H    2.470914   0.000000
    13  H    4.280909   2.475727   0.000000
    14  H    4.944315   4.290359   2.479254   0.000000
    15  H    4.282244   4.951769   4.288525   2.473090   0.000000
 Stoichiometry    C7H6O2
 Framework group  C1[X(C7H6O2)]
 Deg. of freedom    39
 Full point group                 C1      NOp   1
 RotChk:  IX=0 Diff= 7.35D-03
 Largest Abelian subgroup         C1      NOp   1
 Largest concise Abelian subgroup C1      NOp   1
                         Standard orientation:                         
 ---------------------------------------------------------------------
 Center     Atomic      Atomic             Coordinates (Angstroms)
 Number     Number       Type             X           Y           Z
 ---------------------------------------------------------------------
      1          8           0       -2.365541   -1.059225    0.026485
      2          6           0       -1.696077    0.130550   -0.010718
      3          6           0       -0.233241    0.053143   -0.015967
      4          6           0        0.420927   -1.181635   -0.071461
      5          6           0        1.806346   -1.242117   -0.055275
      6          6           0        2.548122   -0.068904    0.017707
      7          6           0        1.902648    1.164758    0.064234
      8          6           0        0.519930    1.227410    0.042592
      9          8           0       -2.296483    1.176866   -0.120252
     10          1           0       -2.577878   -1.292726    0.935824
     11          1           0       -0.162280   -2.092187   -0.137818
     12          1           0        2.305930   -2.201744   -0.101070
     13          1           0        3.630495   -0.114780    0.037977
     14          1           0        2.479294    2.079607    0.116101
     15          1           0        0.008689    2.181473    0.072450
 ---------------------------------------------------------------------
 Rotational constants (GHZ):           3.8446428           1.2398945           0.9421999
 Leave Link  202 at Sun Oct 13 19:54:57 2019, MaxMem= 10737418240 cpu:               0.2 elap:               0.0
 (Enter /apps/cent7/gaussian/g16-A.03/g16-haswell/g16/l301.exe)
 Standard basis: 6-311++G(d,p) (5D, 7F)
 Ernie: Thresh=  0.10000D-02 Tol=  0.10000D-05 Strict=F.
 There are   249 symmetry adapted cartesian basis functions of A   symmetry.
 There are   240 symmetry adapted basis functions of A   symmetry.
   240 basis functions,   378 primitive gaussians,   249 cartesian basis functions
    32 alpha electrons       32 beta electrons
       nuclear repulsion energy       406.0566237862 Hartrees.
 IExCor= 4336 DFT=T Ex+Corr=M062X ExCW=0 ScaHFX=  0.540000
 ScaDFX=  1.000000  1.000000  1.000000  1.000000 ScalE2=  1.000000  1.000000
 IRadAn=      5 IRanWt=     -1 IRanGd=            0 ICorTp=0 IEmpDi=  4
 NAtoms=   15 NActive=   15 NUniq=   15 SFac= 1.00D+00 NAtFMM=   60 NAOKFM=F Big=F
 Integral buffers will be    131072 words long.
 Raffenetti 2 integral format.
 Two-electron integral symmetry is turned on.
 Leave Link  301 at Sun Oct 13 19:54:57 2019, MaxMem= 10737418240 cpu:               1.4 elap:               0.1
 (Enter /apps/cent7/gaussian/g16-A.03/g16-haswell/g16/l302.exe)
 NPDir=0 NMtPBC=     1 NCelOv=     1 NCel=       1 NClECP=     1 NCelD=      1
         NCelK=      1 NCelE2=     1 NClLst=     1 CellRange=     0.0.
 One-electron integrals computed using PRISM.
 One-electron integral symmetry used in STVInt
 NBasis=   240 RedAO= T EigKep=  1.08D-06  NBF=   240
 NBsUse=   240 1.00D-06 EigRej= -1.00D+00 NBFU=   240
 Precomputing XC quadrature grid using
 IXCGrd= 4 IRadAn=           5 IRanWt=          -1 IRanGd=           0 AccXCQ= 0.00D+00.
 Generated NRdTot=       0 NPtTot=           0 NUsed=           0 NTot=          32
 NSgBfM=   249   249   249   249   249 MxSgAt=    15 MxSgA2=    15.
 Leave Link  302 at Sun Oct 13 19:54:57 2019, MaxMem= 10737418240 cpu:               3.5 elap:               0.2
 (Enter /apps/cent7/gaussian/g16-A.03/g16-haswell/g16/l303.exe)
 DipDrv:  MaxL=1.
 Leave Link  303 at Sun Oct 13 19:54:57 2019, MaxMem= 10737418240 cpu:               0.9 elap:               0.1
 (Enter /apps/cent7/gaussian/g16-A.03/g16-haswell/g16/l401.exe)
 Initial guess from the checkpoint file:  "14.chk"
 B after Tr=    -0.000000    0.000000    0.000000
         Rot=    0.999998   -0.001474   -0.000145   -0.001155 Ang=  -0.22 deg.
 Guess basis will be translated and rotated to current coordinates.
 JPrj=2 DoOrth=T DoCkMO=T.
 Generating alternative initial guess.
 ExpMin= 3.60D-02 ExpMax= 8.59D+03 ExpMxC= 1.30D+03 IAcc=3 IRadAn=         5 AccDes= 0.00D+00
 Harris functional with IExCor= 1009 and IRadAn=       5 diagonalized for initial guess.
 HarFok:  IExCor= 1009 AccDes= 0.00D+00 IRadAn=         5 IDoV= 1 UseB2=F ITyADJ=14
 ICtDFT=  3500011 ScaDFX=  1.000000  1.000000  1.000000  1.000000
 FoFCou: FMM=F IPFlag=           0 FMFlag=      100000 FMFlg1=           0
         NFxFlg=           0 DoJE=T BraDBF=F KetDBF=T FulRan=T
         wScrn=  0.000000 ICntrl=       500 IOpCl=  0 I1Cent=   200000004 NGrid=           0
         NMat0=    1 NMatS0=      1 NMatT0=    0 NMatD0=    1 NMtDS0=    0 NMtDT0=    0
 Petite list used in FoFCou.
 Harris En= -420.570273754695    
 Leave Link  401 at Sun Oct 13 19:54:58 2019, MaxMem= 10737418240 cpu:              10.0 elap:               0.4
 (Enter /apps/cent7/gaussian/g16-A.03/g16-haswell/g16/l502.exe)
 Integral symmetry usage will be decided dynamically.
 Closed shell SCF:
 Using DIIS extrapolation, IDIIS=  1040.
 NGot= 10737418240 LenX= 10737285837 LenY= 10737223395
 Requested convergence on RMS density matrix=1.00D-08 within 128 cycles.
 Requested convergence on MAX density matrix=1.00D-06.
 Requested convergence on             energy=1.00D-06.
 No special actions if energy rises.
 Fock matrices will be formed incrementally for  20 cycles.

 Cycle   1  Pass 1  IDiag  1:
 FoFJK:  IHMeth= 1 ICntrl=       0 DoSepK=F KAlg= 0 I1Cent=           0 FoldK=F
 IRaf= 960000000 NMat=       1 IRICut=       1 DoRegI=T DoRafI=F ISym2E= 0 IDoP0=0 IntGTp=1.
 FoFCou: FMM=F IPFlag=           0 FMFlag=      100000 FMFlg1=           0
         NFxFlg=           0 DoJE=F BraDBF=F KetDBF=F FulRan=T
         wScrn=  0.000000 ICntrl=         0 IOpCl=  0 I1Cent=           0 NGrid=           0
         NMat0=    1 NMatS0=      1 NMatT0=    0 NMatD0=    1 NMtDS0=    0 NMtDT0=    0
 Symmetry not used in FoFCou.
 E= -420.743169364820    
 DIIS: error= 4.06D-03 at cycle   1 NSaved=   1.
 NSaved= 1 IEnMin= 1 EnMin= -420.743169364820     IErMin= 1 ErrMin= 4.06D-03
 ErrMax= 4.06D-03  0.00D+00 EMaxC= 1.00D-01 BMatC= 7.41D-03 BMatP= 7.41D-03
 IDIUse=3 WtCom= 9.59D-01 WtEn= 4.06D-02
 Coeff-Com:  0.100D+01
 Coeff-En:   0.100D+01
 Coeff:      0.100D+01
 Gap=     0.484 Goal=   None    Shift=    0.000
 GapD=    0.484 DampG=2.000 DampE=1.000 DampFc=2.0000 IDamp=-1.
 RMSDP=7.79D-03 MaxDP=4.27D-01              OVMax= 2.54D-02

 Cycle   2  Pass 1  IDiag  1:
 RMSU=  7.46D-03    CP:  1.04D+00
 E= -420.752200735252     Delta-E=       -0.009031370433 Rises=F Damp=F
 DIIS: error= 1.86D-03 at cycle   2 NSaved=   2.
 NSaved= 2 IEnMin= 2 EnMin= -420.752200735252     IErMin= 2 ErrMin= 1.86D-03
 ErrMax= 1.86D-03  0.00D+00 EMaxC= 1.00D-01 BMatC= 1.18D-03 BMatP= 7.41D-03
 IDIUse=3 WtCom= 9.81D-01 WtEn= 1.86D-02
 Coeff-Com:  0.137D+00 0.863D+00
 Coeff-En:   0.000D+00 0.100D+01
 Coeff:      0.134D+00 0.866D+00
 Gap=     0.288 Goal=   None    Shift=    0.000
 RMSDP=1.27D-03 MaxDP=7.41D-02 DE=-9.03D-03 OVMax= 1.37D-02

 Cycle   3  Pass 1  IDiag  1:
 RMSU=  1.26D-03    CP:  1.04D+00  1.02D+00
 E= -420.752340061719     Delta-E=       -0.000139326467 Rises=F Damp=F
 DIIS: error= 2.07D-03 at cycle   3 NSaved=   3.
 NSaved= 3 IEnMin= 3 EnMin= -420.752340061719     IErMin= 2 ErrMin= 1.86D-03
 ErrMax= 2.07D-03  0.00D+00 EMaxC= 1.00D-01 BMatC= 1.25D-03 BMatP= 1.18D-03
 IDIUse=3 WtCom= 9.79D-01 WtEn= 2.07D-02
 Coeff-Com: -0.595D-01 0.525D+00 0.535D+00
 Coeff-En:   0.000D+00 0.459D+00 0.541D+00
 Coeff:     -0.583D-01 0.524D+00 0.535D+00
 Gap=     0.288 Goal=   None    Shift=    0.000
 RMSDP=6.37D-04 MaxDP=3.51D-02 DE=-1.39D-04 OVMax= 1.04D-02

 Cycle   4  Pass 1  IDiag  1:
 RMSU=  5.00D-04    CP:  1.04D+00  1.03D+00  7.02D-01
 E= -420.753211618050     Delta-E=       -0.000871556330 Rises=F Damp=F
 DIIS: error= 4.19D-04 at cycle   4 NSaved=   4.
 NSaved= 4 IEnMin= 4 EnMin= -420.753211618050     IErMin= 4 ErrMin= 4.19D-04
 ErrMax= 4.19D-04  0.00D+00 EMaxC= 1.00D-01 BMatC= 4.67D-05 BMatP= 1.18D-03
 IDIUse=3 WtCom= 9.96D-01 WtEn= 4.19D-03
 Coeff-Com: -0.309D-01 0.132D+00 0.228D+00 0.671D+00
 Coeff-En:   0.000D+00 0.000D+00 0.000D+00 0.100D+01
 Coeff:     -0.308D-01 0.132D+00 0.227D+00 0.673D+00
 Gap=     0.288 Goal=   None    Shift=    0.000
 RMSDP=2.28D-04 MaxDP=1.34D-02 DE=-8.72D-04 OVMax= 1.68D-03

 Cycle   5  Pass 1  IDiag  1:
 RMSU=  1.96D-04    CP:  1.04D+00  1.02D+00  7.69D-01  1.05D+00
 E= -420.753253400897     Delta-E=       -0.000041782847 Rises=F Damp=F
 DIIS: error= 1.01D-04 at cycle   5 NSaved=   5.
 NSaved= 5 IEnMin= 5 EnMin= -420.753253400897     IErMin= 5 ErrMin= 1.01D-04
 ErrMax= 1.01D-04  0.00D+00 EMaxC= 1.00D-01 BMatC= 3.01D-06 BMatP= 4.67D-05
 IDIUse=3 WtCom= 9.99D-01 WtEn= 1.01D-03
 Coeff-Com: -0.188D-02-0.258D-01 0.502D-02 0.213D+00 0.810D+00
 Coeff-En:   0.000D+00 0.000D+00 0.000D+00 0.000D+00 0.100D+01
 Coeff:     -0.187D-02-0.257D-01 0.502D-02 0.212D+00 0.810D+00
 Gap=     0.288 Goal=   None    Shift=    0.000
 RMSDP=6.67D-05 MaxDP=4.04D-03 DE=-4.18D-05 OVMax= 8.11D-04

 Cycle   6  Pass 1  IDiag  1:
 RMSU=  4.22D-05    CP:  1.04D+00  1.02D+00  7.95D-01  1.03D+00  8.90D-01
 E= -420.753257508225     Delta-E=       -0.000004107328 Rises=F Damp=F
 DIIS: error= 4.75D-05 at cycle   6 NSaved=   6.
 NSaved= 6 IEnMin= 6 EnMin= -420.753257508225     IErMin= 6 ErrMin= 4.75D-05
 ErrMax= 4.75D-05  0.00D+00 EMaxC= 1.00D-01 BMatC= 3.47D-07 BMatP= 3.01D-06
 IDIUse=1 WtCom= 1.00D+00 WtEn= 0.00D+00
 Coeff-Com:  0.197D-02-0.214D-01-0.194D-01 0.255D-01 0.292D+00 0.722D+00
 Coeff:      0.197D-02-0.214D-01-0.194D-01 0.255D-01 0.292D+00 0.722D+00
 Gap=     0.288 Goal=   None    Shift=    0.000
 RMSDP=2.01D-05 MaxDP=1.38D-03 DE=-4.11D-06 OVMax= 3.86D-04

 Cycle   7  Pass 1  IDiag  1:
 RMSU=  1.28D-05    CP:  1.04D+00  1.02D+00  7.95D-01  1.04D+00  9.34D-01
                    CP:  1.16D+00
 E= -420.753258056294     Delta-E=       -0.000000548069 Rises=F Damp=F
 DIIS: error= 1.76D-05 at cycle   7 NSaved=   7.
 NSaved= 7 IEnMin= 7 EnMin= -420.753258056294     IErMin= 7 ErrMin= 1.76D-05
 ErrMax= 1.76D-05  0.00D+00 EMaxC= 1.00D-01 BMatC= 6.48D-08 BMatP= 3.47D-07
 IDIUse=1 WtCom= 1.00D+00 WtEn= 0.00D+00
 Coeff-Com:  0.102D-02-0.382D-02-0.909D-02-0.248D-01-0.274D-01 0.274D+00
 Coeff-Com:  0.790D+00
 Coeff:      0.102D-02-0.382D-02-0.909D-02-0.248D-01-0.274D-01 0.274D+00
 Coeff:      0.790D+00
 Gap=     0.288 Goal=   None    Shift=    0.000
 RMSDP=7.47D-06 MaxDP=4.08D-04 DE=-5.48D-07 OVMax= 2.54D-04

 Cycle   8  Pass 1  IDiag  1:
 RMSU=  5.93D-06    CP:  1.04D+00  1.02D+00  7.95D-01  1.05D+00  9.40D-01
                    CP:  1.19D+00  9.48D-01
 E= -420.753258194843     Delta-E=       -0.000000138549 Rises=F Damp=F
 DIIS: error= 7.20D-06 at cycle   8 NSaved=   8.
 NSaved= 8 IEnMin= 8 EnMin= -420.753258194843     IErMin= 8 ErrMin= 7.20D-06
 ErrMax= 7.20D-06  0.00D+00 EMaxC= 1.00D-01 BMatC= 9.80D-09 BMatP= 6.48D-08
 IDIUse=1 WtCom= 1.00D+00 WtEn= 0.00D+00
 Coeff-Com: -0.480D-04 0.297D-02 0.702D-03-0.132D-01-0.642D-01-0.378D-01
 Coeff-Com:  0.256D+00 0.856D+00
 Coeff:     -0.480D-04 0.297D-02 0.702D-03-0.132D-01-0.642D-01-0.378D-01
 Coeff:      0.256D+00 0.856D+00
 Gap=     0.288 Goal=   None    Shift=    0.000
 RMSDP=4.59D-06 MaxDP=1.97D-04 DE=-1.39D-07 OVMax= 1.48D-04

 Cycle   9  Pass 1  IDiag  1:
 RMSU=  2.32D-06    CP:  1.04D+00  1.02D+00  7.95D-01  1.04D+00  9.33D-01
                    CP:  1.23D+00  1.00D+00  1.30D+00
 E= -420.753258221010     Delta-E=       -0.000000026167 Rises=F Damp=F
 DIIS: error= 3.23D-06 at cycle   9 NSaved=   9.
 NSaved= 9 IEnMin= 9 EnMin= -420.753258221010     IErMin= 9 ErrMin= 3.23D-06
 ErrMax= 3.23D-06  0.00D+00 EMaxC= 1.00D-01 BMatC= 2.40D-09 BMatP= 9.80D-09
 IDIUse=1 WtCom= 1.00D+00 WtEn= 0.00D+00
 Coeff-Com: -0.181D-03 0.182D-02 0.199D-02-0.352D-03-0.191D-01-0.652D-01
 Coeff-Com: -0.432D-01 0.384D+00 0.740D+00
 Coeff:     -0.181D-03 0.182D-02 0.199D-02-0.352D-03-0.191D-01-0.652D-01
 Coeff:     -0.432D-01 0.384D+00 0.740D+00
 Gap=     0.288 Goal=   None    Shift=    0.000
 RMSDP=1.46D-06 MaxDP=1.20D-04 DE=-2.62D-08 OVMax= 5.74D-05

 Cycle  10  Pass 1  IDiag  1:
 RMSU=  1.05D-06    CP:  1.04D+00  1.02D+00  7.95D-01  1.04D+00  9.34D-01
                    CP:  1.24D+00  1.04D+00  1.37D+00  9.07D-01
 E= -420.753258226010     Delta-E=       -0.000000005000 Rises=F Damp=F
 DIIS: error= 7.72D-07 at cycle  10 NSaved=  10.
 NSaved=10 IEnMin=10 EnMin= -420.753258226010     IErMin=10 ErrMin= 7.72D-07
 ErrMax= 7.72D-07  0.00D+00 EMaxC= 1.00D-01 BMatC= 1.56D-10 BMatP= 2.40D-09
 IDIUse=1 WtCom= 1.00D+00 WtEn= 0.00D+00
 Coeff-Com: -0.359D-04 0.314D-04 0.337D-03 0.125D-02 0.312D-02-0.783D-02
 Coeff-Com: -0.382D-01-0.472D-01 0.112D+00 0.977D+00
 Coeff:     -0.359D-04 0.314D-04 0.337D-03 0.125D-02 0.312D-02-0.783D-02
 Coeff:     -0.382D-01-0.472D-01 0.112D+00 0.977D+00
 Gap=     0.288 Goal=   None    Shift=    0.000
 RMSDP=7.15D-07 MaxDP=3.77D-05 DE=-5.00D-09 OVMax= 2.61D-05

 Cycle  11  Pass 1  IDiag  1:
 RMSU=  3.18D-07    CP:  1.04D+00  1.02D+00  7.96D-01  1.04D+00  9.35D-01
                    CP:  1.24D+00  1.04D+00  1.41D+00  9.87D-01  1.19D+00
 E= -420.753258226559     Delta-E=       -0.000000000548 Rises=F Damp=F
 DIIS: error= 3.77D-07 at cycle  11 NSaved=  11.
 NSaved=11 IEnMin=11 EnMin= -420.753258226559     IErMin=11 ErrMin= 3.77D-07
 ErrMax= 3.77D-07  0.00D+00 EMaxC= 1.00D-01 BMatC= 5.10D-11 BMatP= 1.56D-10
 IDIUse=1 WtCom= 1.00D+00 WtEn= 0.00D+00
 Coeff-Com:  0.108D-04-0.258D-03-0.150D-03 0.615D-03 0.441D-02 0.616D-02
 Coeff-Com: -0.110D-01-0.760D-01-0.534D-01 0.447D+00 0.683D+00
 Coeff:      0.108D-04-0.258D-03-0.150D-03 0.615D-03 0.441D-02 0.616D-02
 Coeff:     -0.110D-01-0.760D-01-0.534D-01 0.447D+00 0.683D+00
 Gap=     0.288 Goal=   None    Shift=    0.000
 RMSDP=2.23D-07 MaxDP=1.07D-05 DE=-5.48D-10 OVMax= 6.38D-06

 Cycle  12  Pass 1  IDiag  1:
 RMSU=  1.05D-07    CP:  1.04D+00  1.02D+00  7.96D-01  1.04D+00  9.35D-01
                    CP:  1.24D+00  1.04D+00  1.42D+00  1.01D+00  1.31D+00
                    CP:  9.71D-01
 E= -420.753258226634     Delta-E=       -0.000000000076 Rises=F Damp=F
 DIIS: error= 1.20D-07 at cycle  12 NSaved=  12.
 NSaved=12 IEnMin=12 EnMin= -420.753258226634     IErMin=12 ErrMin= 1.20D-07
 ErrMax= 1.20D-07  0.00D+00 EMaxC= 1.00D-01 BMatC= 3.50D-12 BMatP= 5.10D-11
 IDIUse=1 WtCom= 1.00D+00 WtEn= 0.00D+00
 Coeff-Com:  0.650D-05-0.632D-04-0.821D-04-0.198D-04 0.700D-03 0.256D-02
 Coeff-Com:  0.241D-02-0.125D-01-0.308D-01-0.192D-01 0.180D+00 0.877D+00
 Coeff:      0.650D-05-0.632D-04-0.821D-04-0.198D-04 0.700D-03 0.256D-02
 Coeff:      0.241D-02-0.125D-01-0.308D-01-0.192D-01 0.180D+00 0.877D+00
 Gap=     0.288 Goal=   None    Shift=    0.000
 RMSDP=1.05D-07 MaxDP=3.52D-06 DE=-7.57D-11 OVMax= 1.93D-06

 Cycle  13  Pass 1  IDiag  1:
 RMSU=  3.51D-08    CP:  1.04D+00  1.02D+00  7.96D-01  1.04D+00  9.35D-01
                    CP:  1.24D+00  1.04D+00  1.42D+00  1.01D+00  1.32D+00
                    CP:  1.12D+00  1.10D+00
 E= -420.753258226641     Delta-E=       -0.000000000006 Rises=F Damp=F
 DIIS: error= 8.71D-08 at cycle  13 NSaved=  13.
 NSaved=13 IEnMin=13 EnMin= -420.753258226641     IErMin=13 ErrMin= 8.71D-08
 ErrMax= 8.71D-08  0.00D+00 EMaxC= 1.00D-01 BMatC= 8.06D-13 BMatP= 3.50D-12
 IDIUse=1 WtCom= 1.00D+00 WtEn= 0.00D+00
 Coeff-Com:  0.171D-05-0.551D-06-0.188D-04-0.700D-04-0.135D-03 0.394D-03
 Coeff-Com:  0.210D-02 0.302D-02-0.801D-02-0.572D-01 0.456D-02 0.400D+00
 Coeff-Com:  0.656D+00
 Coeff:      0.171D-05-0.551D-06-0.188D-04-0.700D-04-0.135D-03 0.394D-03
 Coeff:      0.210D-02 0.302D-02-0.801D-02-0.572D-01 0.456D-02 0.400D+00
 Coeff:      0.656D+00
 Gap=     0.288 Goal=   None    Shift=    0.000
 RMSDP=3.26D-08 MaxDP=1.56D-06 DE=-6.37D-12 OVMax= 4.86D-07

 Cycle  14  Pass 1  IDiag  1:
 RMSU=  1.29D-08    CP:  1.04D+00  1.02D+00  7.96D-01  1.04D+00  9.35D-01
                    CP:  1.24D+00  1.04D+00  1.42D+00  1.00D+00  1.33D+00
                    CP:  1.13D+00  1.15D+00  1.04D+00
 E= -420.753258226643     Delta-E=       -0.000000000003 Rises=F Damp=F
 DIIS: error= 2.76D-08 at cycle  14 NSaved=  14.
 NSaved=14 IEnMin=14 EnMin= -420.753258226643     IErMin=14 ErrMin= 2.76D-08
 ErrMax= 2.76D-08  0.00D+00 EMaxC= 1.00D-01 BMatC= 7.73D-14 BMatP= 8.06D-13
 IDIUse=1 WtCom= 1.00D+00 WtEn= 0.00D+00
 Coeff-Com: -0.480D-06 0.102D-04 0.738D-05-0.245D-04-0.167D-03-0.290D-03
 Coeff-Com:  0.378D-03 0.310D-02 0.173D-02-0.156D-01-0.273D-01-0.865D-03
 Coeff-Com:  0.235D+00 0.804D+00
 Coeff:     -0.480D-06 0.102D-04 0.738D-05-0.245D-04-0.167D-03-0.290D-03
 Coeff:      0.378D-03 0.310D-02 0.173D-02-0.156D-01-0.273D-01-0.865D-03
 Coeff:      0.235D+00 0.804D+00
 Gap=     0.288 Goal=   None    Shift=    0.000
 RMSDP=8.29D-09 MaxDP=2.58D-07 DE=-2.50D-12 OVMax= 1.81D-07

 SCF Done:  E(RM062X) =  -420.753258227     A.U. after   14 cycles
            NFock= 14  Conv=0.83D-08     -V/T= 2.0035
 KE= 4.192772870761D+02 PE=-1.794639442982D+03 EE= 5.485522738927D+02
 Leave Link  502 at Sun Oct 13 19:55:07 2019, MaxMem= 10737418240 cpu:             226.2 elap:               9.5
 (Enter /apps/cent7/gaussian/g16-A.03/g16-haswell/g16/l701.exe)
 ... and contract with generalized density number  0.
 Compute integral first derivatives.
 Leave Link  701 at Sun Oct 13 19:55:08 2019, MaxMem= 10737418240 cpu:               3.4 elap:               0.2
 (Enter /apps/cent7/gaussian/g16-A.03/g16-haswell/g16/l702.exe)
 L702 exits ... SP integral derivatives will be done elsewhere.
 Leave Link  702 at Sun Oct 13 19:55:08 2019, MaxMem= 10737418240 cpu:               0.5 elap:               0.0
 (Enter /apps/cent7/gaussian/g16-A.03/g16-haswell/g16/l703.exe)
 Integral derivatives from FoFJK, PRISM(SPDF).
 Compute integral first derivatives, UseDBF=F ICtDFT=           0.
 Calling FoFJK, ICntrl=      2127 FMM=F ISym2X=0 I1Cent= 0 IOpClX= 0 NMat=1 NMatS=1 NMatT=0.
 FoFJK:  IHMeth= 1 ICntrl=    2127 DoSepK=F KAlg= 0 I1Cent=           0 FoldK=F
 IRaf=         0 NMat=       1 IRICut=       1 DoRegI=T DoRafI=F ISym2E= 0 IDoP0=0 IntGTp=1.
 FoFCou: FMM=F IPFlag=           0 FMFlag=      100000 FMFlg1=         800
         NFxFlg=           0 DoJE=F BraDBF=F KetDBF=F FulRan=T
         wScrn=  0.000000 ICntrl=      2127 IOpCl=  0 I1Cent=           0 NGrid=           0
         NMat0=    1 NMatS0=      1 NMatT0=    0 NMatD0=    1 NMtDS0=    0 NMtDT0=    0
 Symmetry not used in FoFCou.
 Leave Link  703 at Sun Oct 13 19:55:09 2019, MaxMem= 10737418240 cpu:              39.4 elap:               1.7
 (Enter /apps/cent7/gaussian/g16-A.03/g16-haswell/g16/l716.exe)
 Dipole        = 1.16072466D+00-6.83901088D-01 6.85497744D-01
 ***** Axes restored to original set *****
 -------------------------------------------------------------------
 Center     Atomic                   Forces (Hartrees/Bohr)
 Number     Number              X              Y              Z
 -------------------------------------------------------------------
      1        8           0.002343961   -0.006761754    0.003206254
      2        6          -0.026050176    0.029972536   -0.009862732
[...]
 ! D29   D(14,7,8,3)          -179.9982         -DE/DX =    0.0                 !
 ! D30   D(14,7,8,15)            0.0021         -DE/DX =    0.0                 !
 --------------------------------------------------------------------------------
 GradGradGradGradGradGradGradGradGradGradGradGradGradGradGradGradGradGrad

 Leave Link  103 at Sun Oct 13 19:58:41 2019, MaxMem= 10737418240 cpu:               0.7 elap:               0.1
 (Enter /apps/cent7/gaussian/g16-A.03/g16-haswell/g16/l9999.exe)

 ----------------------------------------------------------------------

 Electric dipole moment (input orientation):
 (Debye = 10**-18 statcoulomb cm , SI units = C m)
                  (au)            (Debye)         (10**-30 SI)
   Tot        0.794932D+00      0.202052D+01      0.673972D+01
   x          0.608452D+00      0.154653D+01      0.515867D+01
   y         -0.508991D+00     -0.129373D+01     -0.431541D+01
   z         -0.512983D-01     -0.130387D+00     -0.434925D+00

 Dipole polarizability, Alpha (input orientation).
 (esu units = cm**3 , SI units = C**2 m**2 J**-1)
 Alpha(0;0):
               (au)            (10**-24 esu)      (10**-40 SI)
   iso        0.830537D+02      0.123073D+02      0.136937D+02
   aniso      0.565036D+02      0.837298D+01      0.931619D+01
   xx         0.109665D+03      0.162507D+02      0.180814D+02
   yx        -0.790216D+00     -0.117098D+00     -0.130289D+00
   yy         0.914760D+02      0.135553D+02      0.150824D+02
   zx        -0.754913D+01     -0.111867D+01     -0.124468D+01
   zy        -0.183323D+01     -0.271657D+00     -0.302259D+00
   zz         0.480197D+02      0.711579D+01      0.791738D+01

 ----------------------------------------------------------------------

 Dipole orientation:
     8         -2.60193707         -2.04820211         -3.59502264
     6         -0.84506532         -0.36695955         -4.35318403
     6          0.46769954          0.88954174         -2.20776975
     6         -0.11831610          0.32653651          0.29929908
     6          1.16204488          1.55192364          2.23707575
     6          3.01655728          3.32912712          1.67210237
     6          3.59884475          3.88862813         -0.83289963
     6          2.32558161          2.66987452         -2.77526268
     8         -0.42280942          0.03705417         -6.54792315
     1         -3.34525721         -2.75978200         -5.10298050
     1         -1.56446531         -1.05919180          0.71382819
     1          0.71363090          1.12101793          4.18725075
     1          4.01149515          4.28143275          3.18780557
     1          5.04309998          5.27267367         -1.26672761
     1          2.74118650          3.06919546         -4.73953780

 Electric dipole moment (dipole orientation):
 (Debye = 10**-18 statcoulomb cm , SI units = C m)
                  (au)            (Debye)         (10**-30 SI)
   Tot        0.794932D+00      0.202052D+01      0.673972D+01
   x          0.000000D+00      0.000000D+00      0.000000D+00
   y          0.000000D+00      0.000000D+00      0.000000D+00
   z          0.794932D+00      0.202052D+01      0.673972D+01

 Dipole polarizability, Alpha (dipole orientation).
 (esu units = cm**3 , SI units = C**2 m**2 J**-1)
 Alpha(0;0):
               (au)            (10**-24 esu)      (10**-40 SI)
   iso        0.830537D+02      0.123073D+02      0.136937D+02
   aniso      0.565036D+02      0.837298D+01      0.931619D+01
   xx         0.740371D+02      0.109712D+02      0.122071D+02
   yx         0.258701D+02      0.383355D+01      0.426540D+01
   yy         0.718037D+02      0.106402D+02      0.118388D+02
   zx         0.669723D+01      0.992427D+00      0.110422D+01
   zy         0.638828D+01      0.946645D+00      0.105328D+01
   zz         0.103320D+03      0.153105D+02      0.170352D+02

 ----------------------------------------------------------------------
 1\1\GINC-BROWN-A480\Freq\RM062X\6-311++G(d,p)\C7H6O2\FINEJ\13-Oct-2019
 \0\\#P Geom=AllCheck Guess=TCheck SCRF=Check GenChk RM062X/6-311++G(d,
 p) Freq\\Title Card Required\\0,1\O,-2.5385398998,-0.1120978491,0.4826
 608694\C,-2.0320722405,1.1316230283,0.3666034189\C,-0.5551254265,1.142
 1458832,0.1873586544\C,0.1883561684,-0.0371463946,0.1483422396\C,1.566
 1671681,0.0254977167,-0.0212295234\C,2.1967975472,1.2593555841,-0.1509
 180059\C,1.4524443008,2.4358723147,-0.1116494497\C,0.0760184017,2.3787
 218586,0.0574516643\O,-2.7255124909,2.1124269412,0.407412321\H,-3.4936
 023178,-0.0187561402,0.5941252654\H,-0.3139181349,-0.990446617,0.25040
 83574\H,2.1479206739,-0.8876865097,-0.0522036364\H,3.2714967514,1.3047
 050309,-0.2829970021\H,1.9460607048,3.3946862662,-0.2128595728\H,-0.52
 6691206,3.2781988863,0.0914943997\\Version=ES64L-G16RevA.03\State=1-A\
 HF=-420.7735883\RMSD=3.768e-09\RMSF=1.102e-05\ZeroPoint=0.1165963\Ther
 mal=0.1165963\Dipole=0.6084519,-0.5089912,-0.0512983\DipoleDeriv=-0.85
 63718,-0.5003133,0.078901,-0.4892874,-1.1299396,0.0919831,0.0785363,0.
 0933295,-0.4002797,2.1099939,0.0536611,-0.2177956,0.0965626,1.7404054,
 -0.0738699,-0.2197581,-0.0686059,0.3599621,-0.5664184,-0.0232995,0.067
 73,-0.0280963,-0.0460825,0.0047901,0.0679528,0.004253,-0.0238037,0.083
 9347,0.1207144,-0.0287956,-0.078393,-0.0207357,0.0055969,-0.0201689,-0
 .0185816,-0.1073398,-0.1175796,-0.1754159,0.0048265,-0.1361267,-0.0016
 91,0.0104953,0.0031798,0.0152758,-0.1413828,0.086291,0.0011054,-0.0248
 813,0.0089371,0.0696811,-0.0092368,-0.0252346,-0.0082929,-0.1153954,-0
 .1218463,0.1726398,-0.0096317,0.1103123,0.0199734,-0.0202539,-0.006928
 1,-0.0277905,-0.1376718,0.0623219,-0.1168491,-0.0154416,0.0920204,-0.0
 240055,-0.0147343,-0.0245449,0.0104874,-0.1045366,-1.183534,0.380886,0
 .0815888,0.3152911,-0.9744474,-0.0115665,0.0845408,-0.0195402,-0.38036
 19,0.3308088,0.0757466,-0.0011416,0.1154066,0.2889018,-0.0113267,-0.00
 29644,-0.0065498,0.349622,0.0915335,-0.0323208,0.0075639,-0.0352835,0.
 0197921,0.0095729,0.0076622,0.009229,0.1411536,0.0241105,0.0582054,0.0
 118838,0.0656367,-0.0247807,-0.0006949,0.011551,0.0002078,0.1416256,-0
 .0660025,-0.0060037,0.0251579,-0.0059536,0.0775386,0.0034044,0.0251563
 ,0.0034085,0.1364402,0.0359604,-0.0512563,0.0152529,-0.0586703,-0.0319
 177,0.0146909,0.0155812,0.0137961,0.1411604,0.0867978,0.0425001,0.0047
 825,0.027644,0.0373078,0.0011495,0.0054385,-0.0006263,0.1408078\Polar=
 109.6652887,-0.7902161,91.4760165,-7.5491315,-1.8332321,48.0197138\Qua
 drupole=3.4702883,0.2297491,-3.7000374,4.2973501,-1.0764781,-0.6947442
 \PG=C01 [X(C7H6O2)]\NImag=0\\0.66475263,0.01829408,0.41959427,-0.07674
 270,-0.01904106,0.04743790,-0.16080244,-0.04564537,0.01352761,0.770310
 64,-0.07481726,-0.24498095,0.01694966,-0.20557507,0.86892309,0.0148125
 0,0.01341739,-0.06804929,-0.05815149,-0.00384069,0.22245995,-0.0251005
 7,-0.01410678,0.00516068,-0.20650741,-0.01348590,0.01554810,0.65031646
 ,-0.04341071,-0.00673361,0.00609792,-0.00229348,-0.09948674,0.00098453
 ,-0.00964483,0.72537667,0.00644867,0.00254856,0.01151246,0.01505529,0.
 00234327,-0.08489899,-0.06093902,-0.02403744,0.15198501,-0.00478462,0.
 00155346,0.00047299,-0.01969688,0.02507572,0.00127643,-0.17829775,0.05
 506226,0.01146273,0.69371761,-0.00130742,-0.00442365,0.00033774,0.0127
 4585,0.01123718,-0.00204039,0.12257310,-0.28032713,-0.00548119,0.03779
 140,0.73391221,0.00060055,-0.00000947,-0.00039150,0.00180139,-0.003532
 40,-0.00028517,0.00854452,0.00268972,-0.06515054,-0.06829198,-0.030124
 20,0.15288846,0.00056714,-0.00128110,-0.00002827,0.00518628,0.00602741
 ,0.00014242,-0.03316443,0.07934987,0.00156136,-0.34289368,-0.04657184,
 0.03559554,0.69151592,-0.00073475,0.00059591,0.00005805,0.00389781,-0.
 00553349,0.00013591,0.02263607,0.04306920,-0.00425722,0.02964152,-0.13
 360771,-0.00064817,-0.04171444,0.73164910,-0.00005276,0.00012324,-0.00
 012078,0.00023621,-0.00012077,0.00850083,0.00401396,-0.01111758,0.0080
 7496,0.03229672,0.00857730,-0.06992332,-0.06536840,-0.02066007,0.14565
 034,-0.00053453,-0.00032939,0.00006381,0.00166161,0.00080225,-0.000331
 09,-0.00252486,0.00320349,-0.00078316,-0.01931488,-0.03265852,0.004589
 72,-0.17531416,-0.12155347,0.01873392,0.74512558,-0.00132743,0.0000004
 9,0.00015590,0.00041166,-0.00478719,0.00012461,0.00341836,-0.07851719,
 0.00264525,-0.08997752,0.03669169,0.00960602,-0.04453790,-0.29860026,0
 .01553370,0.00135800,0.67241477,0.00010660,0.00003439,-0.00014300,-0.0
 0031372,0.00007578,-0.00074605,-0.00079211,0.00266659,-0.00786660,0.00
 706796,0.00266782,0.00595325,0.01540390,0.02485898,-0.06693156,-0.0732
 5307,-0.02315355,0.15047234,-0.00230565,-0.00074720,0.00026358,0.00581
 621,-0.00624703,0.00049709,-0.02299224,-0.08459238,0.00733941,-0.06473
 133,0.03365985,0.00565194,0.07546820,0.03430781,-0.00980123,-0.1915501
 7,0.05486302,0.01314248,0.68762766,-0.00144684,0.00114461,0.00010746,-
 0.00328499,-0.00626499,0.00100174,-0.02820326,0.03437714,0.00224465,0.
 03190573,-0.01798470,-0.00334645,-0.02205728,-0.05804100,0.00547349,0.
 13179054,-0.28199415,-0.00650866,0.03415104,0.73599631,0.00029068,0.00
 002277,-0.00044063,0.00036761,0.00135959,0.00757369,0.00489951,0.00907
 886,0.00640930,0.00572762,-0.00355838,-0.00656527,-0.00736286,-0.00135
 111,0.00772738,0.00981696,0.00280558,-0.06473081,-0.06829122,-0.030083
 65,0.14529722,-0.00532967,0.00044493,0.00078645,-0.02456112,-0.0266391
 7,0.00436021,-0.16070350,-0.04253307,0.01342104,0.07171245,-0.02174735
 ,-0.00693676,-0.05782411,-0.03503604,0.00780761,-0.03052632,0.08363675
 ,0.00084054,-0.34723625,-0.04714637,0.03634784,0.71192296,0.00530676,0
 .00227559,-0.00068622,-0.01761061,0.00992681,0.00178460,-0.11044491,-0
 .29319733,0.02324721,0.03375490,-0.05926017,-0.00123616,-0.03736675,-0
 .02413955,0.00531490,0.02699840,0.04706830,-0.00503172,0.02829236,-0.1
 3412045,-0.00038741,-0.04425891,0.72163999,0.00057741,-0.00009473,0.00
 125864,0.00397697,0.00288061,0.00136833,0.01635780,0.01502146,-0.06764
 535,-0.00933584,0.00548434,0.00755238,0.00790835,0.00503176,-0.0070373
 0,0.00328908,-0.01189176,0.00640105,0.03308257,0.00874946,-0.06820427,
 -0.06708502,-0.01972086,0.15091195,0.03745141,0.00532900,-0.00118830,-
 0.34720581,0.30480256,0.01896409,-0.03750725,0.04433727,0.00520125,-0.
 00461956,-0.00776958,0.00121669,-0.00350163,0.00084503,0.00017381,-0.0
 0087410,0.00157432,0.00004782,0.00033594,0.00094936,-0.00016489,-0.000
 12328,0.00434462,-0.00016966,0.35748552,0.01769922,-0.11476877,0.00420
 831,0.31258094,-0.52911245,-0.01807901,0.02569071,-0.00355157,-0.00200
 634,-0.00031317,0.00247388,0.00004576,0.00081865,0.00114272,-0.0002273
 7,-0.00030149,0.00036772,0.00002454,0.00193811,0.00127251,-0.00032087,
 -0.00509576,-0.00703862,0.00092319,-0.36181642,0.64395608,-0.00173193,
 0.00570718,0.02953729,0.01862340,-0.01714032,-0.08129210,0.00601944,-0
 .00426230,0.02100569,0.00089242,0.00094588,0.00251268,0.00017193,-0.00
 022779,-0.00179316,0.00012906,-0.00020300,0.00007453,-0.00020948,-0.00
 020016,-0.00066157,0.00024468,-0.00021636,0.00002807,-0.02326062,0.016
 96579,0.03593133,-0.49925791,0.03581006,0.05710906,-0.02765179,-0.0093
 5493,0.00431490,0.00202785,-0.00247370,0.00036404,0.00078881,-0.000097
 06,-0.00008800,0.00002197,0.00013348,-0.00001603,0.00010483,0.00011083
 ,-0.00001128,0.00024204,-0.00045949,-0.00004412,-0.00069292,0.00022717
 ,0.00011554,0.00173993,0.00881698,-0.00129720,0.52278069,0.08267197,-0
 .05522662,-0.00820374,-0.05588268,0.00575682,0.00671331,-0.00073564,-0
 .00646316,0.00055505,0.00090421,-0.00048758,-0.00008695,0.00009457,0.0
 0040318,-0.00003237,0.00021368,-0.00007934,-0.00002004,-0.00009428,-0.
 00050503,0.00002026,-0.00136935,0.00045453,0.00016100,0.00718914,0.001
 53064,-0.00119170,-0.03269969,0.05398599,0.05504413,-0.00253241,-0.020
 85481,0.00636496,0.00108062,0.00378364,0.00028713,0.00076587,0.0040744
 3,-0.00013215,0.00003376,0.00004275,-0.00001334,-0.00003609,-0.0000592
 3,-0.00001600,-0.00000876,0.00005299,-0.00006081,0.00006643,-0.0002817
 2,0.00018658,-0.00003241,0.00031388,-0.00122590,-0.00138824,-0.0055642
 1,-0.06044357,0.00208234,0.01862397,-0.00383115,-0.00013862,0.00051276
 ,0.00163610,0.00175405,-0.00075542,0.01187447,0.01446357,-0.00165319,-
 0.11924122,-0.11902939,0.01475016,-0.00772886,-0.02737714,0.00268322,-
 0.00533434,0.00062452,0.00156297,-0.00096078,0.00079468,-0.00004133,-0
 .00150340,0.00379041,0.00083581,0.00016387,-0.00094774,0.00009537,-0.0
 0003037,-0.00017389,-0.00002455,0.12390942,-0.00089995,0.00129452,0.00
 006713,-0.00185329,-0.00253568,0.00016393,-0.01387933,-0.01802877,0.00
 260754,-0.11679185,-0.28587012,0.02478202,0.00234931,0.00458105,-0.000
 28137,0.00068694,0.00150172,0.00018893,0.00058969,0.00037509,-0.000131
 52,0.00415574,-0.00248838,-0.00010343,0.00021604,0.00091622,-0.0000401
 3,0.00010020,0.00067308,-0.00005375,0.12638746,0.29987664,0.00054588,-
 0.00002487,0.00027061,-0.00059707,-0.00027432,-0.00387818,-0.00042941,
 -0.00082540,0.00347623,0.01465599,0.02505352,-0.04280007,0.00139657,0.
 00331806,0.00433589,0.00156004,0.00019651,0.00759511,-0.00003208,-0.00
 015678,-0.00100669,0.00081981,-0.00005962,0.00665475,0.00004286,0.0001
 0304,0.00059545,-0.00003632,-0.00002050,-0.00028756,-0.01721997,-0.027
 11708,0.03011422,-0.00024172,-0.00035743,0.00004147,0.00077628,0.00162
 644,-0.00010799,-0.00528763,-0.00151297,0.00164043,-0.01144490,0.02766
 554,0.00060423,-0.14143107,0.12986784,0.00689351,0.01175129,-0.0138040
 8,-0.00041582,-0.00042885,-0.00318431,0.00109335,-0.00078859,-0.000990
 61,0.00002133,-0.00104103,0.00023564,0.00007831,0.00001681,0.00003185,
 0.00000031,0.00087882,-0.00037431,-0.00060860,0.14625908,0.00015755,0.
 00007503,-0.00002362,-0.00047185,0.00021356,0.00006808,-0.00089528,0.0
 0171957,0.00036764,-0.00316554,0.00544598,0.00029584,0.12996206,-0.263
 08392,-0.00601485,0.01721449,-0.01749850,-0.00118152,-0.00367123,-0.00
 339076,0.00091361,-0.00105766,0.00005256,0.00008407,0.00002783,-0.0000
 3469,-0.00001517,-0.00001957,-0.00001154,0.00000422,0.00034571,0.00051
 400,-0.00024912,-0.13907771,0.27612496,0.00001921,0.00003886,-0.000032
 04,-0.00001737,-0.00018617,0.00047528,0.00161349,0.00044256,0.00750033
 ,0.00193712,-0.00343797,0.00333598,0.00688930,-0.00600309,-0.03871715,
 -0.00175661,0.00257437,0.00349218,0.00111409,0.00085486,0.00729110,0.0
 0002405,0.00007622,-0.00097222,0.00008802,-0.00004031,-0.00031523,0.00
 000257,-0.00000200,0.00003067,-0.00063991,-0.00016215,-0.00419577,-0.0
 0851578,0.00604242,0.02705539,-0.00013190,-0.00004119,0.00002825,-0.00
 004669,0.00002166,-0.00016871,0.00091216,0.00012479,-0.00018129,0.0007
 7280,-0.00272376,0.00093462,-0.00901753,0.00249677,0.00150668,-0.33943
 156,-0.01168629,0.03673629,-0.01128064,-0.00380365,0.00205114,0.000206
 23,0.00329804,0.00073916,-0.00012823,-0.00004888,0.00004066,0.00002133
 ,0.00002670,-0.00000389,-0.00049359,0.00021633,0.00003160,0.00054644,-
 0.00027264,-0.00054662,0.35807171,-0.00004294,0.00020221,0.00000004,0.
 00004970,-0.00041158,-0.00004982,0.00010416,-0.00159140,0.00003288,-0.
 00255218,-0.00483447,0.00084319,-0.02831560,0.00408638,0.00343820,-0.0
 1164494,-0.06037145,0.00228202,0.02693148,0.00622817,-0.00334419,0.003
 13805,-0.00435898,0.00013226,0.00000229,0.00030032,-0.00000515,0.00001
 188,0.00003563,-0.00000304,-0.00131774,0.00011532,0.00014792,0.0005106
 1,0.00081164,-0.00027264,0.01247950,0.05876652,0.00002855,0.00000014,0
 .00008271,-0.00017004,-0.00004689,-0.00140979,-0.00018021,0.00002949,-
 0.00051981,0.00092724,0.00086409,0.00737067,0.00283887,-0.00029195,0.0
 0398678,0.03673428,0.00228661,-0.04473266,0.00072253,0.00037740,0.0041
 9869,0.00074606,0.00011302,0.00739350,0.00003823,0.00000137,0.00018604
 ,-0.00000331,-0.00000476,-0.00000078,0.00009780,-0.00003785,-0.0001657
 1,-0.00058054,-0.00017778,-0.00398788,-0.04066360,-0.00289796,0.031720
 89,-0.00085290,-0.00020060,0.00008942,0.00073397,-0.00162456,0.0000283
 8,-0.00539265,0.00093558,0.00156207,-0.00099987,0.00089602,-0.00002994
 ,-0.00108711,0.00349984,0.00088244,0.01184140,0.01648002,-0.00173605,-
 0.11825592,-0.11557238,0.01467310,-0.00897931,-0.02895260,0.00275727,-
 0.00031526,0.00034775,0.00002728,-0.00004178,-0.00012189,0.00000239,0.
 00003954,-0.00010083,-0.00013583,0.00042173,0.00085558,-0.00007908,0.0
 0057077,-0.00058280,-0.00052976,0.12140555,-0.00007672,-0.00004623,0.0
 0000317,0.00046997,0.00008769,-0.00004390,0.00035928,0.00185970,0.0002
 1547,0.00092279,0.00023794,-0.00016210,0.00398383,-0.00274673,-0.00004
 151,-0.01446325,-0.01751464,0.00265458,-0.11565674,-0.28410950,0.02462
 804,0.00181135,0.00328932,-0.00021210,-0.00020953,0.00005654,0.0000243
 8,0.00003478,0.00001664,-0.00000784,-0.00007371,-0.00001818,-0.0000386
 4,-0.00072813,-0.00093788,0.00013188,0.00021132,0.00078745,-0.00023305
 ,0.12376545,0.29855186,0.00008378,0.00001811,-0.00019882,-0.00006238,0
 .00020969,0.00038524,0.00158737,0.00014544,0.00765021,-0.00003116,-0.0
 0015853,-0.00091654,0.00086179,0.00001732,0.00734596,-0.00039831,-0.00
 109213,0.00348180,0.01467642,0.02461821,-0.04116320,0.00142766,0.00351
 243,0.00313189,0.00005132,-0.00004301,0.00003109,-0.00000465,0.0000111
 2,-0.00006671,-0.00013705,-0.00003543,-0.00110032,-0.00001063,-0.00005
 985,0.00007782,-0.00056407,-0.00013690,-0.00393838,-0.01686005,-0.0267
 5230,0.02953102,0.00040187,0.00141615,-0.00009680,0.00035105,-0.002366
 16,-0.00042941,0.01234735,-0.01101569,-0.00049960,-0.00096698,-0.00342
 683,0.00105729,-0.00079693,-0.00091032,0.00001034,-0.00507978,-0.00114
 425,0.00161348,-0.00974821,0.02556722,0.00063660,-0.14557316,0.1336117
 2,0.00692926,-0.00186050,0.00039545,0.00017667,-0.00006949,-0.00005470
 ,0.00003471,0.00062150,-0.00080214,0.00000654,0.00001333,0.00006826,-0
 .00013249,-0.00057130,0.00122854,-0.00000611,0.00091184,-0.00035069,-0
 .00062003,0.15001942,-0.00006555,0.00099720,-0.00003075,0.00246141,-0.
 00303209,-0.00034026,0.01661426,-0.01850537,-0.00102534,-0.00381171,-0
 .00320336,0.00088334,-0.00074077,0.00022513,0.00003506,-0.00131672,0.0
 0131804,0.00044184,-0.00372451,0.00701675,0.00034842,0.13169685,-0.260
 10361,-0.00644526,0.00017806,0.00248947,-0.00014116,-0.00014094,-0.000
 08323,0.00002931,0.00089782,-0.00090651,-0.00005270,0.00009162,-0.0000
 0002,-0.00005685,-0.00029870,0.00023425,0.00001812,0.00037542,0.000486
 02,-0.00025417,-0.14221655,0.27306734,-0.00003056,-0.00020810,0.000131
 24,-0.00064137,0.00024232,-0.00398739,-0.00169124,0.00232026,0.0043926
 8,0.00107391,0.00083619,0.00637625,0.00000284,0.00005543,-0.00103964,0
 .00162136,0.00042065,0.00762743,0.00190471,-0.00319799,0.00455677,0.00
 700925,-0.00667762,-0.04115532,0.00018530,-0.00016683,-0.00027590,0.00
 003836,0.00001898,0.00019268,-0.00006666,0.00015316,0.00039204,-0.0001
 3358,-0.00005395,-0.00103846,0.00005979,-0.00016682,-0.00018428,-0.000
 65165,-0.00016607,-0.00425103,-0.00868046,0.00659039,0.02826290\\-0.00
 001289,-0.00002946,0.00000753,0.00002285,0.00000980,-0.00000849,0.0000
 0849,0.00002396,-0.00000007,-0.00001242,-0.00000208,-0.00000113,-0.000
 00547,-0.00000023,-0.00000059,0.00000486,-0.00000261,-0.00000067,0.000
 01536,-0.00001174,-0.00000021,-0.00002427,-0.00001662,0.00000588,-0.00
 000535,0.00002531,-0.00000149,0.00000669,0.00001662,-0.00000144,-0.000
 00302,-0.00000209,0.00000102,-0.00000955,-0.00000949,0.00000154,-0.000
 00072,-0.00000738,0.00000080,0.00000077,-0.00000221,-0.00000015,0.0000
 1468,0.00000823,-0.00000254\\\@


 NO MATTER HOW THIN YOU SLICE IT, IT'S STILL BALONEY

                                   -- ALFRED E. SMITH
 Job cpu time:       0 days  0 hours 29 minutes 38.0 seconds.
 Elapsed time:       0 days  0 hours  1 minutes 15.4 seconds.
 File lengths (MBytes):  RWF=     91 Int=      0 D2E=      0 Chk=      6 Scr=      1
 Normal termination of Gaussian 16 at Sun Oct 13 19:58:41 2019.
real 238.34
user 5450.13
sys 20.66
Machine:
brown-a480
brown-a480
brown-a480
brown-a480
brown-a480
brown-a480
brown-a480
brown-a480
brown-a480
brown-a480
brown-a480
brown-a480
brown-a480
brown-a480
brown-a480
brown-a480
brown-a480
brown-a480
brown-a480
brown-a480
brown-a480
brown-a480
brown-a480
brown-a480
