Title Card Required                                                     
Freq      RM062X                                                      6-311++G(d,p)       
Number of atoms                            I               16
Info1-9                                    I   N=           9
          42          42        1002           0           0         100
           6          18        -502
Full Title                                 C   N=           2
Title Card Required     
Route                                      C   N=           6
#P opt freq m062x/6-311++g(d,p) geom=connectivity temperatur
e=0.001     
Charge                                     I                1
Multiplicity                               I                1
Number of electrons                        I               64
Number of alpha electrons                  I               32
Number of beta electrons                   I               32
Number of basis functions                  I              247
Number of independent functions            I              247
Number of point charges in /Mol/           I                0
Number of translation vectors              I                0
Atomic numbers                             I   N=          16
           8           6           6           6           6           6
           6           6           8           1           1           1
           1           1           1           1
Nuclear charges                            R   N=          16
  8.00000000E+00  6.00000000E+00  6.00000000E+00  6.00000000E+00  6.00000000E+00
  6.00000000E+00  6.00000000E+00  6.00000000E+00  8.00000000E+00  1.00000000E+00
  1.00000000E+00  1.00000000E+00  1.00000000E+00  1.00000000E+00  1.00000000E+00
  1.00000000E+00
Current cartesian coordinates              R   N=          48
 -4.23532482E+00 -2.11764667E+00  2.04986355E-01 -3.05953293E+00 -3.72364524E-03
  4.18058596E-03 -3.48118338E-01  1.68619576E-02  7.89597614E-03  9.42180877E-01
 -2.30495800E+00 -7.88961119E-02  3.55533830E+00 -2.31380561E+00 -9.86387351E-02
  4.87565133E+00 -3.57537021E-02 -1.48880122E-02  3.60118588E+00  2.27326277E+00
  9.25967360E-02  9.92360549E-01  2.31117445E+00  1.06602726E-01 -4.48949580E+00
  1.96554912E+00 -1.86884140E-01 -6.06266521E+00 -1.92262825E+00  1.31643028E-01
 -1.09059314E-01 -4.05875647E+00 -1.50401513E-01  4.56840870E+00 -4.08861747E+00
 -1.78513083E-01  6.92341142E+00 -5.29671336E-02 -2.75832600E-02  4.65065198E+00
  4.02623470E+00  1.79322267E-01  4.64551170E-02  4.12721012E+00  2.40948761E-01
 -3.57303171E+00  3.52795556E+00 -4.53352905E-01
Number of symbols in /Mol/                 I                0
Force Field                                I                0
Atom Types                                 C   N=          16
                                                            
                                                            
                                                            
            
Int Atom Types                             I   N=          16
           0           0           0           0           0           0
           0           0           0           0           0           0
           0           0           0           0
MM charges                                 R   N=          16
  0.00000000E+00  0.00000000E+00  0.00000000E+00  0.00000000E+00  0.00000000E+00
  0.00000000E+00  0.00000000E+00  0.00000000E+00  0.00000000E+00  0.00000000E+00
  0.00000000E+00  0.00000000E+00  0.00000000E+00  0.00000000E+00  0.00000000E+00
  0.00000000E+00
Integer atomic weights                     I   N=          16
          16          12          12          12          12          12
          12          12          16           1           1           1
           1           1           1           1
Real atomic weights                        R   N=          16
  1.59949146E+01  1.20000000E+01  1.20000000E+01  1.20000000E+01  1.20000000E+01
  1.20000000E+01  1.20000000E+01  1.20000000E+01  1.59949146E+01  1.00782504E+00
  1.00782504E+00  1.00782504E+00  1.00782504E+00  1.00782504E+00  1.00782504E+00
  1.00782504E+00
Atom fragment info                         I   N=          16
           0           0           0           0           0           0
           0           0           0           0           0           0
           0           0           0           0
Atom residue num                           I   N=          16
           0           0           0           0           0           0
           0           0           0           0           0           0
           0           0           0           0
Nuclear spins                              I   N=          16
           0           0           0           0           0           0
           0           0           0           1           1           1
           1           1           1           1
Nuclear ZEff                               R   N=          16
 -5.60000000E+00 -3.60000000E+00 -3.60000000E+00 -3.60000000E+00 -3.60000000E+00
 -3.60000000E+00 -3.60000000E+00 -3.60000000E+00 -5.60000000E+00 -1.00000000E+00
 -1.00000000E+00 -1.00000000E+00 -1.00000000E+00 -1.00000000E+00 -1.00000000E+00
 -1.00000000E+00
Nuclear ZNuc                               R   N=          16
  8.00000000E+00  6.00000000E+00  6.00000000E+00  6.00000000E+00  6.00000000E+00
  6.00000000E+00  6.00000000E+00  6.00000000E+00  8.00000000E+00  1.00000000E+00
  1.00000000E+00  1.00000000E+00  1.00000000E+00  1.00000000E+00  1.00000000E+00
  1.00000000E+00
Nuclear QMom                               R   N=          16
  0.00000000E+00  0.00000000E+00  0.00000000E+00  0.00000000E+00  0.00000000E+00
  0.00000000E+00  0.00000000E+00  0.00000000E+00  0.00000000E+00  0.00000000E+00
  0.00000000E+00  0.00000000E+00  0.00000000E+00  0.00000000E+00  0.00000000E+00
  0.00000000E+00
Nuclear GFac                               R   N=          16
  0.00000000E+00  0.00000000E+00  0.00000000E+00  0.00000000E+00  0.00000000E+00
  0.00000000E+00  0.00000000E+00  0.00000000E+00  0.00000000E+00  2.79284600E+00
  2.79284600E+00  2.79284600E+00  2.79284600E+00  2.79284600E+00  2.79284600E+00
  2.79284600E+00
MicOpt                                     I   N=          16
          -1          -1          -1          -1          -1          -1
          -1          -1          -1          -1          -1          -1
          -1          -1          -1          -1
Number of residues                         I                0
Number of secondary structures             I                0
Redundant internal dimensions              I   N=           4
          71          16          23          32
Redundant internal coordinate indices      I   N=         284
           1           2           0           0           1          10
           0           0           2           3           0           0
           2           9           0           0           3           4
           0           0           3           8           0           0
           4           5           0           0           4          11
           0           0           5           6           0           0
           5          12           0           0           6           7
           0           0           6          13           0           0
           7           8           0           0           7          14
           0           0           8          15           0           0
           9          16           0           0           2           1
          10           0           1           2           3           0
           1           2           9           0           3           2
           9           0           2           3           4           0
           2           3           8           0           4           3
           8           0           3           4           5           0
           3           4          11           0           5           4
          11           0           4           5           6           0
           4           5          12           0           6           5
          12           0           5           6           7           0
           5           6          13           0           7           6
          13           0           6           7           8           0
           6           7          14           0           8           7
          14           0           3           8           7           0
           3           8          15           0           7           8
          15           0           2           9          16           0
          10           1           2           3          10           1
           2           9           1           2           3           4
           1           2           3           8           9           2
           3           4           9           2           3           8
           1           2           9          16           3           2
           9          16           2           3           4           5
           2           3           4          11           8           3
           4           5           8           3           4          11
           2           3           8           7           2           3
           8          15           4           3           8           7
           4           3           8          15           3           4
           5           6           3           4           5          12
          11           4           5           6          11           4
           5          12           4           5           6           7
           4           5           6          13          12           5
           6           7          12           5           6          13
           5           6           7           8           5           6
           7          14          13           6           7           8
          13           6           7          14           6           7
           8           3           6           7           8          15
          14           7           8           3          14           7
           8          15
Redundant internal coordinates             R   N=          71
  2.42723713E+00  1.83918033E+00  2.71149528E+00  2.44117487E+00  2.65767809E+00
  2.65904052E+00  2.61324698E+00  2.04597850E+00  2.63434264E+00  2.04515249E+00
  2.63957804E+00  2.04787179E+00  2.60913837E+00  2.04494768E+00  2.05201644E+00
  1.83085388E+00  1.96670850E+00  2.08391877E+00  2.01006816E+00  2.18919821E+00
  2.07009156E+00  2.10680412E+00  2.10628105E+00  2.08138002E+00  2.09503651E+00
  2.10670695E+00  2.09209585E+00  2.09274262E+00  2.09834680E+00  2.11269141E+00
  2.08713505E+00  2.08335443E+00  2.08943762E+00  2.09879784E+00  2.09492004E+00
  2.08440583E+00  2.13371624E+00  2.06475990E+00  1.98951000E+00 -3.11181703E+00
  3.03633100E-02  1.33833168E-01 -3.00333893E+00 -3.00841226E+00  1.37600949E-01
 -3.07123567E+00  7.09853550E-02  3.13184767E+00  2.11834666E-03 -1.41641671E-02
  3.13929181E+00 -3.13493941E+00  3.35822236E-02  1.11658037E-02 -3.10349787E+00
  7.80635951E-03 -3.13407746E+00  3.13745427E+00 -4.42955060E-03  1.42244161E-03
  3.13979856E+00 -3.13987810E+00 -1.50198447E-03 -4.47064179E-03  3.12882780E+00
  3.14033168E+00 -9.55518575E-03 -1.82778345E-03  3.11389927E+00 -3.13514488E+00
 -1.94178200E-02
ZRed-IntVec                                I   N=          71
           0           0           0           0           0           0
           0           0           0           0           0           0
           0           0           0           0           0           0
           0           0           0           0           0           0
           0           0           0           0           0           0
           0           0           0           0           0           0
           0           0           0           0           0           0
           0           0           0           0           0           0
           0           0           0           0           0           0
           0           0           0           0           0           0
           0           0           0           0           0           0
           0           0           0           0           0
ZRed-FPVec                                 R   N=          71
  0.00000000E+00  0.00000000E+00  0.00000000E+00  0.00000000E+00  0.00000000E+00
  0.00000000E+00  0.00000000E+00  0.00000000E+00  0.00000000E+00  0.00000000E+00
  0.00000000E+00  0.00000000E+00  0.00000000E+00  0.00000000E+00  0.00000000E+00
  0.00000000E+00  0.00000000E+00  0.00000000E+00  0.00000000E+00  0.00000000E+00
  0.00000000E+00  0.00000000E+00  0.00000000E+00  0.00000000E+00  0.00000000E+00
  0.00000000E+00  0.00000000E+00  0.00000000E+00  0.00000000E+00  0.00000000E+00
  0.00000000E+00  0.00000000E+00  0.00000000E+00  0.00000000E+00  0.00000000E+00
  0.00000000E+00  0.00000000E+00  0.00000000E+00  0.00000000E+00  0.00000000E+00
  0.00000000E+00  0.00000000E+00  0.00000000E+00  0.00000000E+00  0.00000000E+00
  0.00000000E+00  0.00000000E+00  0.00000000E+00  0.00000000E+00  0.00000000E+00
  0.00000000E+00  0.00000000E+00  0.00000000E+00  0.00000000E+00  0.00000000E+00
  0.00000000E+00  0.00000000E+00  0.00000000E+00  0.00000000E+00  0.00000000E+00
  0.00000000E+00  0.00000000E+00  0.00000000E+00  0.00000000E+00  0.00000000E+00
  0.00000000E+00  0.00000000E+00  0.00000000E+00  0.00000000E+00  0.00000000E+00
  0.00000000E+00
ZRed-Constraint1                           R   N=          71
  2.42723713E+00  1.83918033E+00  2.71149528E+00  2.44117487E+00  2.65767809E+00
  2.65904052E+00  2.61324698E+00  2.04597850E+00  2.63434264E+00  2.04515249E+00
  2.63957804E+00  2.04787179E+00  2.60913837E+00  2.04494768E+00  2.05201644E+00
  1.83085388E+00  1.96670850E+00  2.08391877E+00  2.01006816E+00  2.18919821E+00
  2.07009156E+00  2.10680412E+00  2.10628105E+00  2.08138002E+00  2.09503651E+00
  2.10670695E+00  2.09209585E+00  2.09274262E+00  2.09834680E+00  2.11269141E+00
  2.08713505E+00  2.08335443E+00  2.08943762E+00  2.09879784E+00  2.09492004E+00
  2.08440583E+00  2.13371624E+00  2.06475990E+00  1.98951000E+00 -3.11181703E+00
  3.03633100E-02  1.33833168E-01 -3.00333893E+00 -3.00841226E+00  1.37600949E-01
 -3.07123567E+00  7.09853550E-02  3.13184767E+00  2.11834666E-03 -1.41641671E-02
  3.13929181E+00 -3.13493941E+00  3.35822236E-02  1.11658037E-02 -3.10349787E+00
  7.80635951E-03 -3.13407746E+00  3.13745427E+00 -4.42955060E-03  1.42244161E-03
  3.13979856E+00 -3.13987810E+00 -1.50198447E-03 -4.47064179E-03  3.12882780E+00
  3.14033168E+00 -9.55518575E-03 -1.82778345E-03  3.11389927E+00 -3.13514488E+00
 -1.94178200E-02
ZRed-Constraint2                           R   N=          71
  2.56231654E+00  1.81408100E+00  2.68216413E+00  2.36756909E+00  2.67897515E+00
  2.67945552E+00  2.65973477E+00  2.05982542E+00  2.65726068E+00  2.05979018E+00
  2.65598536E+00  2.05978839E+00  2.65716873E+00  2.05979403E+00  2.05979295E+00
  1.81413708E+00  1.91074124E+00  2.12320091E+00  2.03205648E+00  2.12759966E+00
  2.10891337E+00  2.11020227E+00  2.06402321E+00  2.10805284E+00  2.09377918E+00
  2.08135329E+00  2.09625631E+00  2.09439757E+00  2.09253143E+00  2.09215497E+00
  2.09594545E+00  2.09508488E+00  2.09506964E+00  2.09370754E+00  2.09440811E+00
  2.11051933E+00  2.09366309E+00  2.07900288E+00  2.09439511E+00  1.55232449E+00
 -1.56222923E+00  1.35407841E-01 -2.99564569E+00 -3.03470654E+00  1.17425234E-01
  3.03739844E+00 -7.70814834E-02 -3.10771062E+00  3.38613308E-02  2.36156791E-02
 -3.11799768E+00  3.10671737E+00 -3.49614842E-02 -2.46010150E-02  3.11690544E+00
 -6.73576901E-03  3.13484482E+00  3.13487744E+00 -6.72727921E-03 -9.80429239E-03
  3.13185890E+00  3.13180042E+00 -9.72169588E-03  8.85554764E-03 -3.13289467E+00
 -3.13280761E+00  8.62747535E-03  8.65475345E-03 -3.13285241E+00 -3.13278027E+00
  8.89787103E-03
SymInf integers                            I   N=          26
           1           1           1           1           1           0
           0           0           0           0           0           0
           0           0           0           0           0           0
           0           0           0           0           0           0
           0           0
RotTr to input orientation                 R   N=          12
  9.92472441E-01  4.86303548E-02 -1.12399031E-01 -5.63330262E-02  9.96201575E-01
 -6.64003950E-02  1.08743017E-01  7.22323396E-02  9.91442104E-01 -7.05667219E-01
  2.18832007E+00  2.86277839E-01
Number of contracted shells                I               89
Number of primitive shells                 I              166
Pure/Cartesian d shells                    I                0
Pure/Cartesian f shells                    I                0
Highest angular momentum                   I                2
Largest degree of contraction              I                6
Shell types                                I   N=          89
           0          -1          -1          -1          -1          -2
           0          -1          -1          -1          -1          -2
           0          -1          -1          -1          -1          -2
           0          -1          -1          -1          -1          -2
           0          -1          -1          -1          -1          -2
           0          -1          -1          -1          -1          -2
           0          -1          -1          -1          -1          -2
           0          -1          -1          -1          -1          -2
           0          -1          -1          -1          -1          -2
           0           0           0           0           1           0
           0           0           0           1           0           0
           0           0           1           0           0           0
           0           1           0           0           0           0
           1           0           0           0           0           1
           0           0           0           0           1
Number of primitives per shell             I   N=          89
           6           3           1           1           1           1
           6           3           1           1           1           1
           6           3           1           1           1           1
           6           3           1           1           1           1
           6           3           1           1           1           1
           6           3           1           1           1           1
           6           3           1           1           1           1
           6           3           1           1           1           1
           6           3           1           1           1           1
           3           1           1           1           1           3
           1           1           1           1           3           1
           1           1           1           3           1           1
           1           1           3           1           1           1
           1           3           1           1           1           1
           3           1           1           1           1
Shell to atom map                          I   N=          89
           1           1           1           1           1           1
           2           2           2           2           2           2
           3           3           3           3           3           3
           4           4           4           4           4           4
           5           5           5           5           5           5
           6           6           6           6           6           6
           7           7           7           7           7           7
           8           8           8           8           8           8
           9           9           9           9           9           9
          10          10          10          10          10          11
          11          11          11          11          12          12
          12          12          12          13          13          13
          13          13          14          14          14          14
          14          15          15          15          15          15
          16          16          16          16          16
Primitive exponents                        R   N=         166
  8.58850000E+03  1.29723000E+03  2.99296000E+02  8.73771000E+01  2.56789000E+01
  3.74004000E+00  4.21175000E+01  9.62837000E+00  2.85332000E+00  9.05661000E-01
  2.55611000E-01  8.45000000E-02  1.29200000E+00  4.56324000E+03  6.82024000E+02
  1.54973000E+02  4.44553000E+01  1.30290000E+01  1.82773000E+00  2.09642000E+01
  4.80331000E+00  1.45933000E+00  4.83456000E-01  1.45585000E-01  4.38000000E-02
  6.26000000E-01  4.56324000E+03  6.82024000E+02  1.54973000E+02  4.44553000E+01
  1.30290000E+01  1.82773000E+00  2.09642000E+01  4.80331000E+00  1.45933000E+00
  4.83456000E-01  1.45585000E-01  4.38000000E-02  6.26000000E-01  4.56324000E+03
  6.82024000E+02  1.54973000E+02  4.44553000E+01  1.30290000E+01  1.82773000E+00
  2.09642000E+01  4.80331000E+00  1.45933000E+00  4.83456000E-01  1.45585000E-01
  4.38000000E-02  6.26000000E-01  4.56324000E+03  6.82024000E+02  1.54973000E+02
  4.44553000E+01  1.30290000E+01  1.82773000E+00  2.09642000E+01  4.80331000E+00
  1.45933000E+00  4.83456000E-01  1.45585000E-01  4.38000000E-02  6.26000000E-01
  4.56324000E+03  6.82024000E+02  1.54973000E+02  4.44553000E+01  1.30290000E+01
  1.82773000E+00  2.09642000E+01  4.80331000E+00  1.45933000E+00  4.83456000E-01
  1.45585000E-01  4.38000000E-02  6.26000000E-01  4.56324000E+03  6.82024000E+02
  1.54973000E+02  4.44553000E+01  1.30290000E+01  1.82773000E+00  2.09642000E+01
  4.80331000E+00  1.45933000E+00  4.83456000E-01  1.45585000E-01  4.38000000E-02
  6.26000000E-01  4.56324000E+03  6.82024000E+02  1.54973000E+02  4.44553000E+01
  1.30290000E+01  1.82773000E+00  2.09642000E+01  4.80331000E+00  1.45933000E+00
  4.83456000E-01  1.45585000E-01  4.38000000E-02  6.26000000E-01  8.58850000E+03
  1.29723000E+03  2.99296000E+02  8.73771000E+01  2.56789000E+01  3.74004000E+00
  4.21175000E+01  9.62837000E+00  2.85332000E+00  9.05661000E-01  2.55611000E-01
  8.45000000E-02  1.29200000E+00  3.38650000E+01  5.09479000E+00  1.15879000E+00
  3.25840000E-01  1.02741000E-01  3.60000000E-02  7.50000000E-01  3.38650000E+01
  5.09479000E+00  1.15879000E+00  3.25840000E-01  1.02741000E-01  3.60000000E-02
  7.50000000E-01  3.38650000E+01  5.09479000E+00  1.15879000E+00  3.25840000E-01
  1.02741000E-01  3.60000000E-02  7.50000000E-01  3.38650000E+01  5.09479000E+00
  1.15879000E+00  3.25840000E-01  1.02741000E-01  3.60000000E-02  7.50000000E-01
  3.38650000E+01  5.09479000E+00  1.15879000E+00  3.25840000E-01  1.02741000E-01
  3.60000000E-02  7.50000000E-01  3.38650000E+01  5.09479000E+00  1.15879000E+00
  3.25840000E-01  1.02741000E-01  3.60000000E-02  7.50000000E-01  3.38650000E+01
  5.09479000E+00  1.15879000E+00  3.25840000E-01  1.02741000E-01  3.60000000E-02
  7.50000000E-01
Contraction coefficients                   R   N=         166
  1.89515008E-03  1.43859006E-02  7.07320031E-02  2.40001011E-01  5.94797026E-01
  2.80802012E-01  1.13889012E-01  9.20811101E-01 -3.27447036E-03  1.00000000E+00
  1.00000000E+00  1.00000000E+00  1.00000000E+00  1.96665025E-03  1.52306019E-02
  7.61269097E-02  2.60801033E-01  6.16462078E-01  2.21006028E-01  1.14660081E-01
  9.19999648E-01 -3.03068213E-03  1.00000000E+00  1.00000000E+00  1.00000000E+00
  1.00000000E+00  1.96665025E-03  1.52306019E-02  7.61269097E-02  2.60801033E-01
  6.16462078E-01  2.21006028E-01  1.14660081E-01  9.19999648E-01 -3.03068213E-03
  1.00000000E+00  1.00000000E+00  1.00000000E+00  1.00000000E+00  1.96665025E-03
  1.52306019E-02  7.61269097E-02  2.60801033E-01  6.16462078E-01  2.21006028E-01
  1.14660081E-01  9.19999648E-01 -3.03068213E-03  1.00000000E+00  1.00000000E+00
  1.00000000E+00  1.00000000E+00  1.96665025E-03  1.52306019E-02  7.61269097E-02
  2.60801033E-01  6.16462078E-01  2.21006028E-01  1.14660081E-01  9.19999648E-01
 -3.03068213E-03  1.00000000E+00  1.00000000E+00  1.00000000E+00  1.00000000E+00
  1.96665025E-03  1.52306019E-02  7.61269097E-02  2.60801033E-01  6.16462078E-01
  2.21006028E-01  1.14660081E-01  9.19999648E-01 -3.03068213E-03  1.00000000E+00
  1.00000000E+00  1.00000000E+00  1.00000000E+00  1.96665025E-03  1.52306019E-02
  7.61269097E-02  2.60801033E-01  6.16462078E-01  2.21006028E-01  1.14660081E-01
  9.19999648E-01 -3.03068213E-03  1.00000000E+00  1.00000000E+00  1.00000000E+00
  1.00000000E+00  1.96665025E-03  1.52306019E-02  7.61269097E-02  2.60801033E-01
  6.16462078E-01  2.21006028E-01  1.14660081E-01  9.19999648E-01 -3.03068213E-03
  1.00000000E+00  1.00000000E+00  1.00000000E+00  1.00000000E+00  1.89515008E-03
  1.43859006E-02  7.07320031E-02  2.40001011E-01  5.94797026E-01  2.80802012E-01
  1.13889012E-01  9.20811101E-01 -3.27447036E-03  1.00000000E+00  1.00000000E+00
  1.00000000E+00  1.00000000E+00  2.54938145E-02  1.90373109E-01  8.52161486E-01
  1.00000000E+00  1.00000000E+00  1.00000000E+00  1.00000000E+00  2.54938145E-02
  1.90373109E-01  8.52161486E-01  1.00000000E+00  1.00000000E+00  1.00000000E+00
  1.00000000E+00  2.54938145E-02  1.90373109E-01  8.52161486E-01  1.00000000E+00
  1.00000000E+00  1.00000000E+00  1.00000000E+00  2.54938145E-02  1.90373109E-01
  8.52161486E-01  1.00000000E+00  1.00000000E+00  1.00000000E+00  1.00000000E+00
  2.54938145E-02  1.90373109E-01  8.52161486E-01  1.00000000E+00  1.00000000E+00
  1.00000000E+00  1.00000000E+00  2.54938145E-02  1.90373109E-01  8.52161486E-01
  1.00000000E+00  1.00000000E+00  1.00000000E+00  1.00000000E+00  2.54938145E-02
  1.90373109E-01  8.52161486E-01  1.00000000E+00  1.00000000E+00  1.00000000E+00
  1.00000000E+00
P(S=P) Contraction coefficients            R   N=         166
  0.00000000E+00  0.00000000E+00  0.00000000E+00  0.00000000E+00  0.00000000E+00
  0.00000000E+00  3.65113974E-02  2.37152983E-01  8.19701941E-01  1.00000000E+00
  1.00000000E+00  1.00000000E+00  0.00000000E+00  0.00000000E+00  0.00000000E+00
  0.00000000E+00  0.00000000E+00  0.00000000E+00  0.00000000E+00  4.02486927E-02
  2.37593957E-01  8.15853851E-01  1.00000000E+00  1.00000000E+00  1.00000000E+00
  0.00000000E+00  0.00000000E+00  0.00000000E+00  0.00000000E+00  0.00000000E+00
  0.00000000E+00  0.00000000E+00  4.02486927E-02  2.37593957E-01  8.15853851E-01
  1.00000000E+00  1.00000000E+00  1.00000000E+00  0.00000000E+00  0.00000000E+00
  0.00000000E+00  0.00000000E+00  0.00000000E+00  0.00000000E+00  0.00000000E+00
  4.02486927E-02  2.37593957E-01  8.15853851E-01  1.00000000E+00  1.00000000E+00
  1.00000000E+00  0.00000000E+00  0.00000000E+00  0.00000000E+00  0.00000000E+00
  0.00000000E+00  0.00000000E+00  0.00000000E+00  4.02486927E-02  2.37593957E-01
  8.15853851E-01  1.00000000E+00  1.00000000E+00  1.00000000E+00  0.00000000E+00
  0.00000000E+00  0.00000000E+00  0.00000000E+00  0.00000000E+00  0.00000000E+00
  0.00000000E+00  4.02486927E-02  2.37593957E-01  8.15853851E-01  1.00000000E+00
  1.00000000E+00  1.00000000E+00  0.00000000E+00  0.00000000E+00  0.00000000E+00
  0.00000000E+00  0.00000000E+00  0.00000000E+00  0.00000000E+00  4.02486927E-02
  2.37593957E-01  8.15853851E-01  1.00000000E+00  1.00000000E+00  1.00000000E+00
  0.00000000E+00  0.00000000E+00  0.00000000E+00  0.00000000E+00  0.00000000E+00
  0.00000000E+00  0.00000000E+00  4.02486927E-02  2.37593957E-01  8.15853851E-01
  1.00000000E+00  1.00000000E+00  1.00000000E+00  0.00000000E+00  0.00000000E+00
  0.00000000E+00  0.00000000E+00  0.00000000E+00  0.00000000E+00  0.00000000E+00
  3.65113974E-02  2.37152983E-01  8.19701941E-01  1.00000000E+00  1.00000000E+00
  1.00000000E+00  0.00000000E+00  0.00000000E+00  0.00000000E+00  0.00000000E+00
  0.00000000E+00  0.00000000E+00  0.00000000E+00  0.00000000E+00  0.00000000E+00
  0.00000000E+00  0.00000000E+00  0.00000000E+00  0.00000000E+00  0.00000000E+00
  0.00000000E+00  0.00000000E+00  0.00000000E+00  0.00000000E+00  0.00000000E+00
  0.00000000E+00  0.00000000E+00  0.00000000E+00  0.00000000E+00  0.00000000E+00
  0.00000000E+00  0.00000000E+00  0.00000000E+00  0.00000000E+00  0.00000000E+00
  0.00000000E+00  0.00000000E+00  0.00000000E+00  0.00000000E+00  0.00000000E+00
  0.00000000E+00  0.00000000E+00  0.00000000E+00  0.00000000E+00  0.00000000E+00
  0.00000000E+00  0.00000000E+00  0.00000000E+00  0.00000000E+00  0.00000000E+00
  0.00000000E+00  0.00000000E+00  0.00000000E+00  0.00000000E+00  0.00000000E+00
  0.00000000E+00
Coordinates of each shell                  R   N=         267
 -4.23532482E+00 -2.11764667E+00  2.04986355E-01 -4.23532482E+00 -2.11764667E+00
  2.04986355E-01 -4.23532482E+00 -2.11764667E+00  2.04986355E-01 -4.23532482E+00
 -2.11764667E+00  2.04986355E-01 -4.23532482E+00 -2.11764667E+00  2.04986355E-01
 -4.23532482E+00 -2.11764667E+00  2.04986355E-01 -3.05953293E+00 -3.72364524E-03
  4.18058596E-03 -3.05953293E+00 -3.72364524E-03  4.18058596E-03 -3.05953293E+00
 -3.72364524E-03  4.18058596E-03 -3.05953293E+00 -3.72364524E-03  4.18058596E-03
 -3.05953293E+00 -3.72364524E-03  4.18058596E-03 -3.05953293E+00 -3.72364524E-03
  4.18058596E-03 -3.48118338E-01  1.68619576E-02  7.89597614E-03 -3.48118338E-01
  1.68619576E-02  7.89597614E-03 -3.48118338E-01  1.68619576E-02  7.89597614E-03
 -3.48118338E-01  1.68619576E-02  7.89597614E-03 -3.48118338E-01  1.68619576E-02
  7.89597614E-03 -3.48118338E-01  1.68619576E-02  7.89597614E-03  9.42180877E-01
 -2.30495800E+00 -7.88961119E-02  9.42180877E-01 -2.30495800E+00 -7.88961119E-02
  9.42180877E-01 -2.30495800E+00 -7.88961119E-02  9.42180877E-01 -2.30495800E+00
 -7.88961119E-02  9.42180877E-01 -2.30495800E+00 -7.88961119E-02  9.42180877E-01
 -2.30495800E+00 -7.88961119E-02  3.55533830E+00 -2.31380561E+00 -9.86387351E-02