 Entering Gaussian System, Link 0=/apps/cent7/gaussian/g16-A.03/g16-haswell/g16/g16
 Initial command:
 /apps/cent7/gaussian/g16-A.03/g16-haswell/g16/l1.exe "/scratch/brown/finej/gaussian/Gau-76050.inp" -scrdir="/scratch/brown/finej/gaussian/"
 Entering Link 1 = /apps/cent7/gaussian/g16-A.03/g16-haswell/g16/l1.exe PID=     76052.
  
 Copyright (c) 1988,1990,1992,1993,1995,1998,2003,2009,2016,
            Gaussian, Inc.  All Rights Reserved.
  
 This is part of the Gaussian(R) 16 program.  It is based on
 the Gaussian(R) 09 system (copyright 2009, Gaussian, Inc.),
 the Gaussian(R) 03 system (copyright 2003, Gaussian, Inc.),
 the Gaussian(R) 98 system (copyright 1998, Gaussian, Inc.),
 the Gaussian(R) 94 system (copyright 1995, Gaussian, Inc.),
 the Gaussian 92(TM) system (copyright 1992, Gaussian, Inc.),
 the Gaussian 90(TM) system (copyright 1990, Gaussian, Inc.),
 the Gaussian 88(TM) system (copyright 1988, Gaussian, Inc.),
 the Gaussian 86(TM) system (copyright 1986, Carnegie Mellon
 University), and the Gaussian 82(TM) system (copyright 1983,
 Carnegie Mellon University). Gaussian is a federally registered
 trademark of Gaussian, Inc.
  
 This software contains proprietary and confidential information,
 including trade secrets, belonging to Gaussian, Inc.
  
 This software is provided under written license and may be
 used, copied, transmitted, or stored only in accord with that
 written license.
  
 The following legend is applicable only to US Government
 contracts under FAR:
  
                    RESTRICTED RIGHTS LEGEND
  
 Use, reproduction and disclosure by the US Government is
 subject to restrictions as set forth in subparagraphs (a)
 and (c) of the Commercial Computer Software - Restricted
 Rights clause in FAR 52.227-19.
  
 Gaussian, Inc.
 340 Quinnipiac St., Bldg. 40, Wallingford CT 06492
  
  
 ---------------------------------------------------------------
 Warning -- This program may not be used in any manner that
 competes with the business of Gaussian, Inc. or will provide
 assistance to any competitor of Gaussian, Inc.  The licensee
 of this program is prohibited from giving any competitor of
 Gaussian, Inc. access to this program.  By using this program,
 the user acknowledges that Gaussian, Inc. is engaged in the
 business of creating and licensing software in the field of
 computational chemistry and represents and warrants to the
 licensee that it is not a competitor of Gaussian, Inc. and that
 it will not use this program in any manner prohibited above.
 ---------------------------------------------------------------
  

 Cite this work as:
 Gaussian 16, Revision A.03,
 M. J. Frisch, G. W. Trucks, H. B. Schlegel, G. E. Scuseria, 
 M. A. Robb, J. R. Cheeseman, G. Scalmani, V. Barone, 
 G. A. Petersson, H. Nakatsuji, X. Li, M. Caricato, A. V. Marenich, 
 J. Bloino, B. G. Janesko, R. Gomperts, B. Mennucci, H. P. Hratchian, 
 J. V. Ortiz, A. F. Izmaylov, J. L. Sonnenberg, D. Williams-Young, 
 F. Ding, F. Lipparini, F. Egidi, J. Goings, B. Peng, A. Petrone, 
 T. Henderson, D. Ranasinghe, V. G. Zakrzewski, J. Gao, N. Rega, 
 G. Zheng, W. Liang, M. Hada, M. Ehara, K. Toyota, R. Fukuda, 
 J. Hasegawa, M. Ishida, T. Nakajima, Y. Honda, O. Kitao, H. Nakai, 
 T. Vreven, K. Throssell, J. A. Montgomery, Jr., J. E. Peralta, 
 F. Ogliaro, M. J. Bearpark, J. J. Heyd, E. N. Brothers, K. N. Kudin, 
 V. N. Staroverov, T. A. Keith, R. Kobayashi, J. Normand, 
 K. Raghavachari, A. P. Rendell, J. C. Burant, S. S. Iyengar, 
 J. Tomasi, M. Cossi, J. M. Millam, M. Klene, C. Adamo, R. Cammi, 
 J. W. Ochterski, R. L. Martin, K. Morokuma, O. Farkas, 
 J. B. Foresman, and D. J. Fox, Gaussian, Inc., Wallingford CT, 2016.
 
 ******************************************
 Gaussian 16:  ES64L-G16RevA.03 25-Dec-2016
                13-Oct-2019 
 ******************************************
 %chk=14_p.chk
 %nprocshared=24
 Will use up to   24 processors via shared memory.
 %mem=80GB
 -------------------------------------------------------------------
 #P opt freq m062x/6-311++g(d,p) geom=connectivity temperature=0.001
 -------------------------------------------------------------------
 1/18=20,19=15,26=3,38=1,57=2,112=-1000/1,3;
 2/9=110,12=2,17=6,18=5,40=1/2;
 3/5=4,6=6,7=1111,11=2,25=1,30=1,71=1,74=-55/1,2,3;
 4//1;
 5/5=2,38=5/2;
 6/7=2,8=2,9=2,10=2,28=1/1;
 7//1,2,3,16;
 1/18=20,19=15,26=3/3(2);
 2/9=110/2;
 99//99;
 2/9=110/2;
 3/5=4,6=6,7=1111,11=2,25=1,30=1,71=1,74=-55/1,2,3;
 4/5=5,16=3,69=1/1;
 5/5=2,38=5/2;
 7//1,2,3,16;
 1/18=20,19=15,26=3/3(-5);
 2/9=110/2;
 6/7=2,8=2,9=2,10=2,19=2,28=1/1;
 99/9=1/99;
 Leave Link    1 at Sun Oct 13 19:58:43 2019, MaxMem= 10737418240 cpu:               1.4 elap:               0.1
 (Enter /apps/cent7/gaussian/g16-A.03/g16-haswell/g16/l101.exe)
 -------------------
 Title Card Required
 -------------------
 Symbolic Z-matrix:
 Charge =  1 Multiplicity = 1
 O                    -2.7352   -0.0303    0.3728 
 C                    -2.0671    1.1299    0.1581 
 C                    -0.6515    1.1674    0.0622 
 C                     0.1062   -0.0302    0.025 
 C                     1.5121    0.0083   -0.0292 
 C                     2.1834    1.2436   -0.0553 
 C                     1.4473    2.4408   -0.0391 
 C                     0.0427    2.4028    0.0139 
 O                    -2.7638    2.1682    0.0793 
 H                    -2.8214   -0.18      1.3171 
 H                    -0.4001   -0.9954    0.0383 
 H                     2.0823   -0.9204   -0.051 
 H                     3.2725    1.2731   -0.0881 
 H                     1.9659    3.3991   -0.0675 
 H                    -0.5135    3.3402    0.0175 
 H                    -2.33974   3.02699   0.01412 
 
 ITRead=  0  0  0  0  0  0  0  0  0  0  0  0  0  0  0  0
 MicOpt= -1 -1 -1 -1 -1 -1 -1 -1 -1 -1 -1 -1 -1 -1 -1 -1
 NAtoms=     16 NQM=       16 NQMF=       0 NMMI=      0 NMMIF=      0
                NMic=       0 NMicF=      0.
                    Isotopes and Nuclear Properties:
 (Nuclear quadrupole moments (NQMom) in fm**2, nuclear magnetic moments (NMagM)
  in nuclear magnetons)

  Atom         1           2           3           4           5           6           7           8           9          10
 IAtWgt=          16          12          12          12          12          12          12          12          16           1
 AtmWgt=  15.9949146  12.0000000  12.0000000  12.0000000  12.0000000  12.0000000  12.0000000  12.0000000  15.9949146   1.0078250
 NucSpn=           0           0           0           0           0           0           0           0           0           1
 AtZEff=  -0.0000000  -0.0000000  -0.0000000  -0.0000000  -0.0000000  -0.0000000  -0.0000000  -0.0000000  -0.0000000  -0.0000000
 NQMom=    0.0000000   0.0000000   0.0000000   0.0000000   0.0000000   0.0000000   0.0000000   0.0000000   0.0000000   0.0000000
 NMagM=    0.0000000   0.0000000   0.0000000   0.0000000   0.0000000   0.0000000   0.0000000   0.0000000   0.0000000   2.7928460
 AtZNuc=   8.0000000   6.0000000   6.0000000   6.0000000   6.0000000   6.0000000   6.0000000   6.0000000   8.0000000   1.0000000

  Atom        11          12          13          14          15          16
 IAtWgt=           1           1           1           1           1           1
 AtmWgt=   1.0078250   1.0078250   1.0078250   1.0078250   1.0078250   1.0078250
 NucSpn=           1           1           1           1           1           1
 AtZEff=  -0.0000000  -0.0000000  -0.0000000  -0.0000000  -0.0000000  -0.0000000
 NQMom=    0.0000000   0.0000000   0.0000000   0.0000000   0.0000000   0.0000000
 NMagM=    2.7928460   2.7928460   2.7928460   2.7928460   2.7928460   2.7928460
 AtZNuc=   1.0000000   1.0000000   1.0000000   1.0000000   1.0000000   1.0000000
 Leave Link  101 at Sun Oct 13 19:58:43 2019, MaxMem= 10737418240 cpu:               9.0 elap:               0.4
 (Enter /apps/cent7/gaussian/g16-A.03/g16-haswell/g16/l103.exe)

 GradGradGradGradGradGradGradGradGradGradGradGradGradGradGradGradGradGrad
 Berny optimization.
 Initialization pass.
                           ----------------------------
                           !    Initial Parameters    !
                           ! (Angstroms and Degrees)  !
 --------------------------                            --------------------------
 ! Name  Definition              Value          Derivative Info.                !
 --------------------------------------------------------------------------------
 ! R1    R(1,2)                  1.3559         estimate D2E/DX2                !
 ! R2    R(1,10)                 0.96           estimate D2E/DX2                !
 ! R3    R(2,3)                  1.4193         estimate D2E/DX2                !
 ! R4    R(2,9)                  1.2529         estimate D2E/DX2                !
 ! R5    R(3,4)                  1.4177         estimate D2E/DX2                !
 ! R6    R(3,8)                  1.4179         estimate D2E/DX2                !
 ! R7    R(4,5)                  1.4075         estimate D2E/DX2                !
 ! R8    R(4,11)                 1.09           estimate D2E/DX2                !
 ! R9    R(5,6)                  1.4062         estimate D2E/DX2                !
 ! R10   R(5,12)                 1.09           estimate D2E/DX2                !
 ! R11   R(6,7)                  1.4055         estimate D2E/DX2                !
 ! R12   R(6,13)                 1.09           estimate D2E/DX2                !
 ! R13   R(7,8)                  1.4061         estimate D2E/DX2                !
 ! R14   R(7,14)                 1.09           estimate D2E/DX2                !
 ! R15   R(8,15)                 1.09           estimate D2E/DX2                !
 ! R16   R(9,16)                 0.96           estimate D2E/DX2                !
 ! A1    A(2,1,10)             109.4774         estimate D2E/DX2                !
 ! A2    A(1,2,3)              121.6505         estimate D2E/DX2                !
 ! A3    A(1,2,9)              116.4283         estimate D2E/DX2                !
 ! A4    A(3,2,9)              121.9025         estimate D2E/DX2                !
 ! A5    A(2,3,4)              120.8318         estimate D2E/DX2                !
 ! A6    A(2,3,8)              120.9057         estimate D2E/DX2                !
 ! A7    A(4,3,8)              118.2598         estimate D2E/DX2                !
 ! A8    A(3,4,5)              120.7825         estimate D2E/DX2                !
 ! A9    A(3,4,11)             119.9647         estimate D2E/DX2                !
 ! A10   A(5,4,11)             119.2528         estimate D2E/DX2                !
 ! A11   A(4,5,6)              120.1066         estimate D2E/DX2                !
 ! A12   A(4,5,12)             120.0001         estimate D2E/DX2                !
 ! A13   A(6,5,12)             119.8932         estimate D2E/DX2                !
 ! A14   A(5,6,7)              119.8717         estimate D2E/DX2                !
 ! A15   A(5,6,13)             120.0888         estimate D2E/DX2                !
 ! A16   A(7,6,13)             120.0395         estimate D2E/DX2                !
 ! A17   A(6,7,8)              120.0386         estimate D2E/DX2                !
 ! A18   A(6,7,14)             119.9606         estimate D2E/DX2                !
 ! A19   A(8,7,14)             120.0007         estimate D2E/DX2                !
 ! A20   A(3,8,7)              120.9238         estimate D2E/DX2                !
 ! A21   A(3,8,15)             119.9581         estimate D2E/DX2                !
 ! A22   A(7,8,15)             119.1181         estimate D2E/DX2                !
 ! A23   A(2,9,16)             120.0            estimate D2E/DX2                !
 ! D1    D(10,1,2,3)            88.9416         estimate D2E/DX2                !
 ! D2    D(10,1,2,9)           -89.5091         estimate D2E/DX2                !
 ! D3    D(1,2,3,4)              7.7583         estimate D2E/DX2                !
 ! D4    D(1,2,3,8)           -171.6379         estimate D2E/DX2                !
 ! D5    D(9,2,3,4)           -173.8759         estimate D2E/DX2                !
 ! D6    D(9,2,3,8)              6.728          estimate D2E/DX2                !
 ! D7    D(1,2,9,16)           174.0301         estimate D2E/DX2                !
 ! D8    D(3,2,9,16)            -4.4164         estimate D2E/DX2                !
 ! D9    D(2,3,4,5)           -178.0587         estimate D2E/DX2                !
 ! D10   D(2,3,4,11)             1.9401         estimate D2E/DX2                !
 ! D11   D(8,3,4,5)              1.3531         estimate D2E/DX2                !
 ! D12   D(8,3,4,11)          -178.6481         estimate D2E/DX2                !
 ! D13   D(2,3,8,7)            178.0018         estimate D2E/DX2                !
 ! D14   D(2,3,8,15)            -2.0031         estimate D2E/DX2                !
 ! D15   D(4,3,8,7)             -1.4095         estimate D2E/DX2                !
 ! D16   D(4,3,8,15)           178.5855         estimate D2E/DX2                !
 ! D17   D(3,4,5,6)             -0.3859         estimate D2E/DX2                !
 ! D18   D(3,4,5,12)           179.6134         estimate D2E/DX2                !
 ! D19   D(11,4,5,6)           179.6152         estimate D2E/DX2                !
 ! D20   D(11,4,5,12)           -0.3854         estimate D2E/DX2                !
 ! D21   D(4,5,6,7)             -0.5617         estimate D2E/DX2                !
 ! D22   D(4,5,6,13)           179.4423         estimate D2E/DX2                !
 ! D23   D(12,5,6,7)           179.4389         estimate D2E/DX2                !
 ! D24   D(12,5,6,13)           -0.557          estimate D2E/DX2                !
 ! D25   D(5,6,7,8)              0.5074         estimate D2E/DX2                !
 ! D26   D(5,6,7,14)          -179.5016         estimate D2E/DX2                !
 ! D27   D(13,6,7,8)          -179.4967         estimate D2E/DX2                !
 ! D28   D(13,6,7,14)            0.4943         estimate D2E/DX2                !
 ! D29   D(6,7,8,3)              0.4959         estimate D2E/DX2                !
 ! D30   D(6,7,8,15)          -179.4992         estimate D2E/DX2                !
 ! D31   D(14,7,8,3)          -179.4951         estimate D2E/DX2                !
 ! D32   D(14,7,8,15)            0.5098         estimate D2E/DX2                !
 --------------------------------------------------------------------------------
 Trust Radius=3.00D-01 FncErr=1.00D-07 GrdErr=1.00D-06 EigMax=2.50D+02 EigMin=1.00D-04
 Number of steps in this run=     81 maximum allowed number of steps=    100.
 GradGradGradGradGradGradGradGradGradGradGradGradGradGradGradGradGradGrad

 Leave Link  103 at Sun Oct 13 19:58:43 2019, MaxMem= 10737418240 cpu:               0.3 elap:               0.0
 (Enter /apps/cent7/gaussian/g16-A.03/g16-haswell/g16/l202.exe)
                          Input orientation:                          
 ---------------------------------------------------------------------
 Center     Atomic      Atomic             Coordinates (Angstroms)
 Number     Number       Type             X           Y           Z
 ---------------------------------------------------------------------
      1          8           0       -2.735200   -0.030300    0.372800
      2          6           0       -2.067100    1.129900    0.158100
      3          6           0       -0.651500    1.167400    0.062200
      4          6           0        0.106200   -0.030200    0.025000
      5          6           0        1.512100    0.008300   -0.029200
      6          6           0        2.183400    1.243600   -0.055300
      7          6           0        1.447300    2.440800   -0.039100
      8          6           0        0.042700    2.402800    0.013900
      9          8           0       -2.763800    2.168200    0.079300
     10          1           0       -2.821400   -0.180000    1.317100
     11          1           0       -0.400100   -0.995400    0.038300
     12          1           0        2.082300   -0.920400   -0.051000
     13          1           0        3.272500    1.273100   -0.088100
     14          1           0        1.965900    3.399100   -0.067500
     15          1           0       -0.513500    3.340200    0.017500
     16          1           0       -2.339737    3.026991    0.014123
 ---------------------------------------------------------------------
                    Distance matrix (angstroms):
                    1          2          3          4          5
     1  O    0.000000
     2  C    1.355920   0.000000
     3  C    2.423378   1.419340   0.000000
     4  C    2.862607   2.467140   1.417653   0.000000
     5  C    4.266457   3.755495   2.456223   1.407471   0.000000
     6  C    5.098894   4.257372   2.838357   2.437986   1.406162
     7  C    4.875377   3.756109   2.456984   2.812205   2.433383
     8  C    3.710190   2.468263   1.417907   2.433854   2.809737
     9  O    2.218189   1.252864   2.337457   3.615634   4.791687
    10  H    0.959970   1.904754   2.845826   3.203561   4.541718
    11  H    2.548725   2.703727   2.177493   1.090013   2.160666
    12  H    4.917336   4.633031   3.441713   2.168687   1.089994
    13  H    6.164717   5.347191   3.928300   3.425907   2.168455
    14  H    5.835665   4.633061   3.442105   3.902197   3.421246
    15  H    4.052463   2.705341   2.177637   3.426905   3.899589
    16  H    3.103558   1.921982   2.512078   3.915245   4.893978
                    6          7          8          9         10
     6  C    0.000000
     7  C    1.405487   0.000000
     8  C    2.435391   1.406113   0.000000
     9  O    5.034659   4.221575   2.817047   0.000000
    10  H    5.381277   5.189381   4.070903   2.655091   0.000000
    11  H    3.419993   3.902095   3.427015   3.949319   2.857079
    12  H    2.166365   3.420677   3.899723   5.748140   5.144528
    13  H    1.089993   2.167321   3.423191   6.104600   6.420413
    14  H    2.166480   1.089996   2.167473   4.889451   6.135578
    15  H    3.416768   2.157976   1.089995   2.537962   4.405357
    16  H    4.862517   3.832506   2.462848   0.960000   3.494931
                   11         12         13         14         15
    11  H    0.000000
    12  H    2.485138   0.000000
    13  H    4.318572   2.495876   0.000000
    14  H    4.992072   4.321100   2.495497   0.000000
    15  H    4.337133   4.989547   4.314841   2.481556   0.000000
    16  H    4.465693   5.927947   5.880799   4.322458   1.852904
                   16
    16  H    0.000000
 Stoichiometry    C7H7O2(1+)
 Framework group  C1[X(C7H7O2)]
 Deg. of freedom    42
 Full point group                 C1      NOp   1
 Largest Abelian subgroup         C1      NOp   1
 Largest concise Abelian subgroup C1      NOp   1
                         Standard orientation:                         
 ---------------------------------------------------------------------
 Center     Atomic      Atomic             Coordinates (Angstroms)
 Number     Number       Type             X           Y           Z
 ---------------------------------------------------------------------
      1          8           0       -2.374098   -1.117604    0.058373
      2          6           0       -1.648422    0.023448   -0.041192
      3          6           0       -0.229190    0.006003   -0.039808
      4          6           0        0.482444   -1.218711   -0.098039
      5          6           0        1.889158   -1.237130   -0.055712
      6          6           0        2.607865   -0.032097    0.037279
      7          6           0        1.919201    1.192499    0.076015
      8          6           0        0.513886    1.211430    0.032610
      9          8           0       -2.297368    1.093305   -0.103970
     10          1           0       -2.531198   -1.317278    0.984112
     11          1           0       -0.060463   -2.160633   -0.176544
     12          1           0        2.423202   -2.186520   -0.095011
     13          1           0        3.696946   -0.047216    0.079198
     14          1           0        2.475149    2.127878    0.139889
     15          1           0       -0.004606    2.169942    0.055240
     16          1           0       -1.836957    1.935563   -0.089014
 ---------------------------------------------------------------------
 Rotational constants (GHZ):           3.7189130           1.2045283           0.9149627
 Leave Link  202 at Sun Oct 13 19:58:44 2019, MaxMem= 10737418240 cpu:               0.5 elap:               0.0
 (Enter /apps/cent7/gaussian/g16-A.03/g16-haswell/g16/l301.exe)
 Standard basis: 6-311++G(d,p) (5D, 7F)
 Ernie: Thresh=  0.10000D-02 Tol=  0.10000D-05 Strict=F.
 There are   256 symmetry adapted cartesian basis functions of A   symmetry.
 There are   247 symmetry adapted basis functions of A   symmetry.
   247 basis functions,   387 primitive gaussians,   256 cartesian basis functions
    32 alpha electrons       32 beta electrons
       nuclear repulsion energy       416.7331125409 Hartrees.
 IExCor= 4336 DFT=T Ex+Corr=M062X ExCW=0 ScaHFX=  0.540000
 ScaDFX=  1.000000  1.000000  1.000000  1.000000 ScalE2=  1.000000  1.000000
 IRadAn=      5 IRanWt=     -1 IRanGd=            0 ICorTp=0 IEmpDi=  4
 NAtoms=   16 NActive=   16 NUniq=   16 SFac= 1.00D+00 NAtFMM=   60 NAOKFM=F Big=F
 Integral buffers will be    131072 words long.
 Raffenetti 2 integral format.
 Two-electron integral symmetry is turned on.
 Leave Link  301 at Sun Oct 13 19:58:44 2019, MaxMem= 10737418240 cpu:               1.3 elap:               0.1
 (Enter /apps/cent7/gaussian/g16-A.03/g16-haswell/g16/l302.exe)
 NPDir=0 NMtPBC=     1 NCelOv=     1 NCel=       1 NClECP=     1 NCelD=      1
         NCelK=      1 NCelE2=     1 NClLst=     1 CellRange=     0.0.
 One-electron integrals computed using PRISM.
 One-electron integral symmetry used in STVInt
 NBasis=   247 RedAO= T EigKep=  1.18D-06  NBF=   247
 NBsUse=   247 1.00D-06 EigRej= -1.00D+00 NBFU=   247
 Precomputing XC quadrature grid using
 IXCGrd= 4 IRadAn=           5 IRanWt=          -1 IRanGd=           0 AccXCQ= 0.00D+00.
 Generated NRdTot=       0 NPtTot=           0 NUsed=           0 NTot=          32
 NSgBfM=   256   256   256   256   256 MxSgAt=    16 MxSgA2=    16.
 Leave Link  302 at Sun Oct 13 19:58:44 2019, MaxMem= 10737418240 cpu:               4.4 elap:               0.2
 (Enter /apps/cent7/gaussian/g16-A.03/g16-haswell/g16/l303.exe)
 DipDrv:  MaxL=1.
 Leave Link  303 at Sun Oct 13 19:58:44 2019, MaxMem= 10737418240 cpu:               0.9 elap:               0.1
 (Enter /apps/cent7/gaussian/g16-A.03/g16-haswell/g16/l401.exe)
 ExpMin= 3.60D-02 ExpMax= 8.59D+03 ExpMxC= 1.30D+03 IAcc=3 IRadAn=         5 AccDes= 0.00D+00
 Harris functional with IExCor= 1009 and IRadAn=       5 diagonalized for initial guess.
 HarFok:  IExCor= 1009 AccDes= 0.00D+00 IRadAn=         5 IDoV= 1 UseB2=F ITyADJ=14
 ICtDFT=  3500011 ScaDFX=  1.000000  1.000000  1.000000  1.000000
 FoFCou: FMM=F IPFlag=           0 FMFlag=      100000 FMFlg1=           0
         NFxFlg=           0 DoJE=T BraDBF=F KetDBF=T FulRan=T
         wScrn=  0.000000 ICntrl=       500 IOpCl=  0 I1Cent=   200000004 NGrid=           0
         NMat0=    1 NMatS0=      1 NMatT0=    0 NMatD0=    1 NMtDS0=    0 NMtDT0=    0
 Petite list used in FoFCou.
 Harris En= -420.906434439044    
 JPrj=0 DoOrth=F DoCkMO=F.
 Leave Link  401 at Sun Oct 13 19:58:44 2019, MaxMem= 10737418240 cpu:               8.8 elap:               0.4
 (Enter /apps/cent7/gaussian/g16-A.03/g16-haswell/g16/l502.exe)
 Integral symmetry usage will be decided dynamically.
 Closed shell SCF:
 Using DIIS extrapolation, IDIIS=  1040.
 NGot= 10737418240 LenX= 10737278516 LenY= 10737212539
 Requested convergence on RMS density matrix=1.00D-08 within 128 cycles.
 Requested convergence on MAX density matrix=1.00D-06.
 Requested convergence on             energy=1.00D-06.
 No special actions if energy rises.
 Fock matrices will be formed incrementally for  20 cycles.

 Cycle   1  Pass 1  IDiag  1:
 FoFJK:  IHMeth= 1 ICntrl=       0 DoSepK=F KAlg= 0 I1Cent=           0 FoldK=F
 IRaf= 950000000 NMat=       1 IRICut=       1 DoRegI=T DoRafI=F ISym2E= 0 IDoP0=0 IntGTp=1.
 FoFCou: FMM=F IPFlag=           0 FMFlag=      100000 FMFlg1=           0
         NFxFlg=           0 DoJE=F BraDBF=F KetDBF=F FulRan=T
         wScrn=  0.000000 ICntrl=         0 IOpCl=  0 I1Cent=           0 NGrid=           0
         NMat0=    1 NMatS0=      1 NMatT0=    0 NMatD0=    1 NMtDS0=    0 NMtDT0=    0
 Symmetry not used in FoFCou.
 E= -420.866358419010    
 DIIS: error= 2.76D-02 at cycle   1 NSaved=   1.
 NSaved= 1 IEnMin= 1 EnMin= -420.866358419010     IErMin= 1 ErrMin= 2.76D-02
 ErrMax= 2.76D-02  0.00D+00 EMaxC= 1.00D-01 BMatC= 2.76D-01 BMatP= 2.76D-01
 IDIUse=3 WtCom= 7.24D-01 WtEn= 2.76D-01
 Coeff-Com:  0.100D+01
 Coeff-En:   0.100D+01
 Coeff:      0.100D+01
 Gap=     0.171 Goal=   None    Shift=    0.000
 GapD=    0.171 DampG=1.000 DampE=0.500 DampFc=0.5000 IDamp=-1.
 Damping current iteration by 5.00D-01
 RMSDP=2.99D-02 MaxDP=1.83D+00              OVMax= 2.96D-01

 Cycle   2  Pass 1  IDiag  1:
 RMSU=  1.43D-02    CP:  1.08D+00
 E= -420.952829008689     Delta-E=       -0.086470589679 Rises=F Damp=T
 DIIS: error= 6.14D-03 at cycle   2 NSaved=   2.
 NSaved= 2 IEnMin= 2 EnMin= -420.952829008689     IErMin= 2 ErrMin= 6.14D-03
 ErrMax= 6.14D-03  0.00D+00 EMaxC= 1.00D-01 BMatC= 2.71D-02 BMatP= 2.76D-01
 IDIUse=3 WtCom= 9.39D-01 WtEn= 6.14D-02
 Coeff-Com: -0.369D-01 0.104D+01
 Coeff-En:   0.668D-01 0.933D+00
 Coeff:     -0.305D-01 0.103D+01
 Gap=     0.257 Goal=   None    Shift=    0.000
 RMSDP=6.56D-03 MaxDP=2.88D-01 DE=-8.65D-02 OVMax= 2.26D-01

 Cycle   3  Pass 1  IDiag  1:
 RMSU=  5.86D-03    CP:  1.11D+00  1.18D+00
 E= -421.050558991394     Delta-E=       -0.097729982705 Rises=F Damp=F
 DIIS: error= 1.06D-02 at cycle   3 NSaved=   3.
 NSaved= 3 IEnMin= 3 EnMin= -421.050558991394     IErMin= 2 ErrMin= 6.14D-03
 ErrMax= 1.06D-02  0.00D+00 EMaxC= 1.00D-01 BMatC= 1.33D-02 BMatP= 2.71D-02
 IDIUse=3 WtCom= 8.94D-01 WtEn= 1.06D-01
 Coeff-Com: -0.110D+00 0.444D+00 0.666D+00
 Coeff-En:   0.000D+00 0.000D+00 0.100D+01
 Coeff:     -0.984D-01 0.397D+00 0.701D+00
 Gap=     0.226 Goal=   None    Shift=    0.000
 RMSDP=4.87D-03 MaxDP=2.79D-01 DE=-9.77D-02 OVMax= 7.14D-02

 Cycle   4  Pass 1  IDiag  1:
 RMSU=  2.32D-03    CP:  1.04D+00  1.19D+00  6.06D-01
 E= -421.061690640700     Delta-E=       -0.011131649306 Rises=F Damp=F
 DIIS: error= 5.65D-03 at cycle   4 NSaved=   4.
 NSaved= 4 IEnMin= 4 EnMin= -421.061690640700     IErMin= 4 ErrMin= 5.65D-03
 ErrMax= 5.65D-03  0.00D+00 EMaxC= 1.00D-01 BMatC= 2.20D-03 BMatP= 1.33D-02
 IDIUse=3 WtCom= 9.44D-01 WtEn= 5.65D-02
 Coeff-Com: -0.476D-01 0.126D+00 0.359D+00 0.563D+00
 Coeff-En:   0.000D+00 0.000D+00 0.108D+00 0.892D+00
 Coeff:     -0.449D-01 0.119D+00 0.345D+00 0.582D+00
 Gap=     0.230 Goal=   None    Shift=    0.000
 RMSDP=7.24D-04 MaxDP=5.26D-02 DE=-1.11D-02 OVMax= 2.31D-02

 Cycle   5  Pass 1  IDiag  1:
 RMSU=  6.18D-04    CP:  1.04D+00  1.20D+00  6.43D-01  9.20D-01
 E= -421.063882485102     Delta-E=       -0.002191844402 Rises=F Damp=F
 DIIS: error= 1.50D-03 at cycle   5 NSaved=   5.
 NSaved= 5 IEnMin= 5 EnMin= -421.063882485102     IErMin= 5 ErrMin= 1.50D-03
 ErrMax= 1.50D-03  0.00D+00 EMaxC= 1.00D-01 BMatC= 1.25D-04 BMatP= 2.20D-03
 IDIUse=3 WtCom= 9.85D-01 WtEn= 1.50D-02
 Coeff-Com: -0.138D-01 0.265D-01 0.104D+00 0.268D+00 0.615D+00
 Coeff-En:   0.000D+00 0.000D+00 0.000D+00 0.000D+00 0.100D+01
 Coeff:     -0.136D-01 0.261D-01 0.103D+00 0.264D+00 0.621D+00
 Gap=     0.231 Goal=   None    Shift=    0.000
 RMSDP=2.39D-04 MaxDP=1.60D-02 DE=-2.19D-03 OVMax= 5.04D-03

 Cycle   6  Pass 1  IDiag  1:
 RMSU=  1.50D-04    CP:  1.04D+00  1.19D+00  6.40D-01  9.29D-01  8.27D-01
 E= -421.064016190835     Delta-E=       -0.000133705734 Rises=F Damp=F
 DIIS: error= 2.35D-04 at cycle   6 NSaved=   6.
 NSaved= 6 IEnMin= 6 EnMin= -421.064016190835     IErMin= 6 ErrMin= 2.35D-04
 ErrMax= 2.35D-04  0.00D+00 EMaxC= 1.00D-01 BMatC= 6.00D-06 BMatP= 1.25D-04
 IDIUse=3 WtCom= 9.98D-01 WtEn= 2.35D-03
 Coeff-Com: -0.819D-03-0.785D-03 0.414D-02 0.407D-01 0.222D+00 0.734D+00
 Coeff-En:   0.000D+00 0.000D+00 0.000D+00 0.000D+00 0.000D+00 0.100D+01
 Coeff:     -0.817D-03-0.784D-03 0.413D-02 0.406D-01 0.222D+00 0.735D+00
 Gap=     0.231 Goal=   None    Shift=    0.000
 RMSDP=8.58D-05 MaxDP=5.10D-03 DE=-1.34D-04 OVMax= 1.02D-03

 Cycle   7  Pass 1  IDiag  1:
 RMSU=  5.28D-05    CP:  1.04D+00  1.19D+00  6.38D-01  9.31D-01  8.24D-01
                    CP:  1.05D+00
 E= -421.064022705371     Delta-E=       -0.000006514535 Rises=F Damp=F
 DIIS: error= 4.33D-05 at cycle   7 NSaved=   7.
 NSaved= 7 IEnMin= 7 EnMin= -421.064022705371     IErMin= 7 ErrMin= 4.33D-05
 ErrMax= 4.33D-05  0.00D+00 EMaxC= 1.00D-01 BMatC= 6.66D-07 BMatP= 6.00D-06
 IDIUse=1 WtCom= 1.00D+00 WtEn= 0.00D+00
 Coeff-Com:  0.120D-02-0.304D-02-0.108D-01-0.201D-01 0.110D-02 0.253D+00
 Coeff-Com:  0.778D+00
 Coeff:      0.120D-02-0.304D-02-0.108D-01-0.201D-01 0.110D-02 0.253D+00
 Coeff:      0.778D+00
 Gap=     0.231 Goal=   None    Shift=    0.000
 RMSDP=2.73D-05 MaxDP=1.77D-03 DE=-6.51D-06 OVMax= 3.51D-04

 Cycle   8  Pass 1  IDiag  1:
 RMSU=  1.54D-05    CP:  1.04D+00  1.18D+00  6.37D-01  9.35D-01  8.18D-01
                    CP:  1.12D+00  1.13D+00
 E= -421.064023331073     Delta-E=       -0.000000625702 Rises=F Damp=F
 DIIS: error= 1.79D-05 at cycle   8 NSaved=   8.
 NSaved= 8 IEnMin= 8 EnMin= -421.064023331073     IErMin= 8 ErrMin= 1.79D-05
 ErrMax= 1.79D-05  0.00D+00 EMaxC= 1.00D-01 BMatC= 1.21D-07 BMatP= 6.66D-07
 IDIUse=1 WtCom= 1.00D+00 WtEn= 0.00D+00
 Coeff-Com:  0.685D-03-0.143D-02-0.564D-02-0.138D-01-0.219D-01 0.471D-01
 Coeff-Com:  0.365D+00 0.630D+00
 Coeff:      0.685D-03-0.143D-02-0.564D-02-0.138D-01-0.219D-01 0.471D-01
 Coeff:      0.365D+00 0.630D+00
 Gap=     0.231 Goal=   None    Shift=    0.000
 RMSDP=1.16D-05 MaxDP=1.30D-03 DE=-6.26D-07 OVMax= 9.02D-05

 Cycle   9  Pass 1  IDiag  1:
 RMSU=  4.26D-06    CP:  1.04D+00  1.18D+00  6.37D-01  9.35D-01  8.27D-01
                    CP:  1.12D+00  1.09D+00  7.70D-01
 E= -421.064023440342     Delta-E=       -0.000000109269 Rises=F Damp=F
 DIIS: error= 4.46D-06 at cycle   9 NSaved=   9.
 NSaved= 9 IEnMin= 9 EnMin= -421.064023440342     IErMin= 9 ErrMin= 4.46D-06
 ErrMax= 4.46D-06  0.00D+00 EMaxC= 1.00D-01 BMatC= 5.41D-09 BMatP= 1.21D-07
 IDIUse=1 WtCom= 1.00D+00 WtEn= 0.00D+00
 Coeff-Com:  0.709D-04-0.114D-03-0.532D-03-0.191D-02-0.483D-02 0.491D-04
 Coeff-Com:  0.300D-01 0.176D+00 0.801D+00
 Coeff:      0.709D-04-0.114D-03-0.532D-03-0.191D-02-0.483D-02 0.491D-04
 Coeff:      0.300D-01 0.176D+00 0.801D+00
 Gap=     0.231 Goal=   None    Shift=    0.000
 RMSDP=2.18D-06 MaxDP=1.05D-04 DE=-1.09D-07 OVMax= 4.13D-05

 Cycle  10  Pass 1  IDiag  1:
 RMSU=  1.07D-06    CP:  1.04D+00  1.18D+00  6.37D-01  9.35D-01  8.26D-01
                    CP:  1.12D+00  1.11D+00  8.31D-01  1.03D+00
 E= -421.064023445970     Delta-E=       -0.000000005628 Rises=F Damp=F
 DIIS: error= 2.44D-06 at cycle  10 NSaved=  10.
 NSaved=10 IEnMin=10 EnMin= -421.064023445970     IErMin=10 ErrMin= 2.44D-06
 ErrMax= 2.44D-06  0.00D+00 EMaxC= 1.00D-01 BMatC= 1.60D-09 BMatP= 5.41D-09
 IDIUse=1 WtCom= 1.00D+00 WtEn= 0.00D+00
 Coeff-Com: -0.495D-04 0.119D-03 0.483D-03 0.830D-03 0.650D-04-0.727D-02
 Coeff-Com: -0.438D-01-0.304D-02 0.387D+00 0.665D+00
 Coeff:     -0.495D-04 0.119D-03 0.483D-03 0.830D-03 0.650D-04-0.727D-02
 Coeff:     -0.438D-01-0.304D-02 0.387D+00 0.665D+00
 Gap=     0.231 Goal=   None    Shift=    0.000
 RMSDP=1.29D-06 MaxDP=8.23D-05 DE=-5.63D-09 OVMax= 1.22D-05

 Cycle  11  Pass 1  IDiag  1:
 RMSU=  4.88D-07    CP:  1.04D+00  1.18D+00  6.37D-01  9.34D-01  8.26D-01
                    CP:  1.12D+00  1.11D+00  8.33D-01  1.13D+00  1.09D+00
 E= -421.064023447680     Delta-E=       -0.000000001711 Rises=F Damp=F
 DIIS: error= 8.65D-07 at cycle  11 NSaved=  11.
 NSaved=11 IEnMin=11 EnMin= -421.064023447680     IErMin=11 ErrMin= 8.65D-07
 ErrMax= 8.65D-07  0.00D+00 EMaxC= 1.00D-01 BMatC= 5.22D-11 BMatP= 1.60D-09
 IDIUse=1 WtCom= 1.00D+00 WtEn= 0.00D+00
 Coeff-Com: -0.140D-04 0.289D-04 0.148D-03 0.340D-03 0.502D-03-0.506D-03
 Coeff-Com: -0.125D-01-0.160D-01-0.118D-01 0.726D-01 0.967D+00
 Coeff:     -0.140D-04 0.289D-04 0.148D-03 0.340D-03 0.502D-03-0.506D-03
 Coeff:     -0.125D-01-0.160D-01-0.118D-01 0.726D-01 0.967D+00
 Gap=     0.231 Goal=   None    Shift=    0.000
 RMSDP=2.85D-07 MaxDP=1.70D-05 DE=-1.71D-09 OVMax= 9.94D-06

 Cycle  12  Pass 1  IDiag  1:
 RMSU=  1.24D-07    CP:  1.04D+00  1.18D+00  6.37D-01  9.34D-01  8.26D-01
                    CP:  1.12D+00  1.11D+00  8.38D-01  1.16D+00  1.18D+00
                    CP:  1.09D+00
 E= -421.064023447801     Delta-E=       -0.000000000121 Rises=F Damp=F
 DIIS: error= 3.56D-07 at cycle  12 NSaved=  12.
 NSaved=12 IEnMin=12 EnMin= -421.064023447801     IErMin=12 ErrMin= 3.56D-07
 ErrMax= 3.56D-07  0.00D+00 EMaxC= 1.00D-01 BMatC= 2.17D-11 BMatP= 5.22D-11
 IDIUse=1 WtCom= 1.00D+00 WtEn= 0.00D+00
 Coeff-Com: -0.389D-05 0.734D-05 0.440D-04 0.115D-03 0.266D-03 0.490D-03
 Coeff-Com: -0.280D-02-0.706D-02-0.373D-01-0.277D-01 0.491D+00 0.583D+00
 Coeff:     -0.389D-05 0.734D-05 0.440D-04 0.115D-03 0.266D-03 0.490D-03
 Coeff:     -0.280D-02-0.706D-02-0.373D-01-0.277D-01 0.491D+00 0.583D+00
 Gap=     0.231 Goal=   None    Shift=    0.000
 RMSDP=1.28D-07 MaxDP=5.19D-06 DE=-1.21D-10 OVMax= 2.53D-06

 Cycle  13  Pass 1  IDiag  1:
 RMSU=  5.90D-08    CP:  1.04D+00  1.18D+00  6.37D-01  9.34D-01  8.26D-01
                    CP:  1.12D+00  1.11D+00  8.38D-01  1.16D+00  1.21D+00
                    CP:  1.20D+00  9.10D-01
 E= -421.064023447827     Delta-E=       -0.000000000026 Rises=F Damp=F
 DIIS: error= 1.65D-07 at cycle  13 NSaved=  13.
 NSaved=13 IEnMin=13 EnMin= -421.064023447827     IErMin=13 ErrMin= 1.65D-07
 ErrMax= 1.65D-07  0.00D+00 EMaxC= 1.00D-01 BMatC= 1.31D-12 BMatP= 2.17D-11
 IDIUse=1 WtCom= 1.00D+00 WtEn= 0.00D+00
 Coeff-Com:  0.216D-05-0.474D-05-0.173D-04-0.391D-04-0.415D-04 0.244D-03
 Coeff-Com:  0.157D-02 0.179D-02-0.650D-02-0.265D-01-0.822D-01 0.115D+00
 Coeff-Com:  0.997D+00
 Coeff:      0.216D-05-0.474D-05-0.173D-04-0.391D-04-0.415D-04 0.244D-03
 Coeff:      0.157D-02 0.179D-02-0.650D-02-0.265D-01-0.822D-01 0.115D+00
 Coeff:      0.997D+00
 Gap=     0.231 Goal=   None    Shift=    0.000
 RMSDP=6.51D-08 MaxDP=3.20D-06 DE=-2.56D-11 OVMax= 1.93D-06

 Cycle  14  Pass 1  IDiag  1:
 RMSU=  2.17D-08    CP:  1.04D+00  1.18D+00  6.37D-01  9.34D-01  8.26D-01
                    CP:  1.12D+00  1.11D+00  8.39D-01  1.16D+00  1.23D+00
                    CP:  1.24D+00  1.00D+00  1.15D+00
 E= -421.064023447837     Delta-E=       -0.000000000010 Rises=F Damp=F
 DIIS: error= 3.50D-08 at cycle  14 NSaved=  14.
 NSaved=14 IEnMin=14 EnMin= -421.064023447837     IErMin=14 ErrMin= 3.50D-08
 ErrMax= 3.50D-08  0.00D+00 EMaxC= 1.00D-01 BMatC= 1.59D-13 BMatP= 1.31D-12
 IDIUse=1 WtCom= 1.00D+00 WtEn= 0.00D+00
 Coeff-Com:  0.806D-06-0.178D-05-0.641D-05-0.162D-04-0.258D-04 0.283D-04
 Coeff-Com:  0.512D-03 0.782D-03 0.730D-03-0.525D-02-0.542D-01-0.238D-01
 Coeff-Com:  0.291D+00 0.790D+00
 Coeff:      0.806D-06-0.178D-05-0.641D-05-0.162D-04-0.258D-04 0.283D-04
 Coeff:      0.512D-03 0.782D-03 0.730D-03-0.525D-02-0.542D-01-0.238D-01
 Coeff:      0.291D+00 0.790D+00
 Gap=     0.231 Goal=   None    Shift=    0.000
 RMSDP=1.13D-08 MaxDP=5.07D-07 DE=-9.55D-12 OVMax= 3.97D-07

 Cycle  15  Pass 1  IDiag  1:
 RMSU=  6.18D-09    CP:  1.04D+00  1.18D+00  6.37D-01  9.34D-01  8.26D-01
                    CP:  1.12D+00  1.11D+00  8.39D-01  1.16D+00  1.23D+00
                    CP:  1.24D+00  1.01D+00  1.22D+00  1.00D+00
 E= -421.064023447830     Delta-E=        0.000000000007 Rises=F Damp=F
 DIIS: error= 1.54D-08 at cycle  15 NSaved=  15.
 NSaved=15 IEnMin=14 EnMin= -421.064023447837     IErMin=15 ErrMin= 1.54D-08
 ErrMax= 1.54D-08  0.00D+00 EMaxC= 1.00D-01 BMatC= 3.53D-14 BMatP= 1.59D-13
 IDIUse=1 WtCom= 1.00D+00 WtEn= 0.00D+00
 Coeff-Com: -0.923D-07 0.201D-06 0.829D-06 0.170D-06-0.398D-05-0.334D-04
 Coeff-Com: -0.675D-04 0.263D-04 0.183D-02 0.301D-02-0.882D-02-0.378D-01
 Coeff-Com: -0.436D-01 0.372D+00 0.714D+00
 Coeff:     -0.923D-07 0.201D-06 0.829D-06 0.170D-06-0.398D-05-0.334D-04
 Coeff:     -0.675D-04 0.263D-04 0.183D-02 0.301D-02-0.882D-02-0.378D-01
 Coeff:     -0.436D-01 0.372D+00 0.714D+00
 Gap=     0.231 Goal=   None    Shift=    0.000
 RMSDP=4.67D-09 MaxDP=2.25D-07 DE= 6.93D-12 OVMax= 1.70D-07

 SCF Done:  E(RM062X) =  -421.064023448     A.U. after   15 cycles
            NFock= 15  Conv=0.47D-08     -V/T= 2.0041
 KE= 4.193526332881D+02 PE=-1.803621649458D+03 EE= 5.464718801807D+02
 Leave Link  502 at Sun Oct 13 19:58:56 2019, MaxMem= 10737418240 cpu:             274.2 elap:              11.5
 (Enter /apps/cent7/gaussian/g16-A.03/g16-haswell/g16/l601.exe)
 Copying SCF densities to generalized density rwf, IOpCl= 0 IROHF=0.

 **********************************************************************

            Population analysis using the SCF density.

 **********************************************************************

 Orbital symmetries:
       Occupied  (A) (A) (A) (A) (A) (A) (A) (A) (A) (A) (A) (A)
                 (A) (A) (A) (A) (A) (A) (A) (A) (A) (A) (A) (A)
                 (A) (A) (A) (A) (A) (A) (A) (A)
       Virtual   (A) (A) (A) (A) (A) (A) (A) (A) (A) (A) (A) (A)
                 (A) (A) (A) (A) (A) (A) (A) (A) (A) (A) (A) (A)
                 (A) (A) (A) (A) (A) (A) (A) (A) (A) (A) (A) (A)
                 (A) (A) (A) (A) (A) (A) (A) (A) (A) (A) (A) (A)
                 (A) (A) (A) (A) (A) (A) (A) (A) (A) (A) (A) (A)
                 (A) (A) (A) (A) (A) (A) (A) (A) (A) (A) (A) (A)
                 (A) (A) (A) (A) (A) (A) (A) (A) (A) (A) (A) (A)
                 (A) (A) (A) (A) (A) (A) (A) (A) (A) (A) (A) (A)
                 (A) (A) (A) (A) (A) (A) (A) (A) (A) (A) (A) (A)
                 (A) (A) (A) (A) (A) (A) (A) (A) (A) (A) (A) (A)
                 (A) (A) (A) (A) (A) (A) (A) (A) (A) (A) (A) (A)
                 (A) (A) (A) (A) (A) (A) (A) (A) (A) (A) (A) (A)
                 (A) (A) (A) (A) (A) (A) (A) (A) (A) (A) (A) (A)
                 (A) (A) (A) (A) (A) (A) (A) (A) (A) (A) (A) (A)
                 (A) (A) (A) (A) (A) (A) (A) (A) (A) (A) (A) (A)
                 (A) (A) (A) (A) (A) (A) (A) (A) (A) (A) (A) (A)
                 (A) (A) (A) (A) (A) (A) (A) (A) (A) (A) (A) (A)
                 (A) (A) (A) (A) (A) (A) (A) (A) (A) (A) (A)
 The electronic state is 1-A.
 Alpha  occ. eigenvalues --  -19.91813 -19.86823 -10.93789 -10.76016 -10.75701
 Alpha  occ. eigenvalues --  -10.74861 -10.73963 -10.73158 -10.72685  -1.49986
 Alpha  occ. eigenvalues --   -1.39318  -1.15658  -1.06987  -1.02961  -1.00328
 Alpha  occ. eigenvalues --   -0.92138  -0.88981  -0.86049  -0.82153  -0.78352
 Alpha  occ. eigenvalues --   -0.75395  -0.72456  -0.70200  -0.68634  -0.67590
 Alpha  occ. eigenvalues --   -0.66456  -0.62703  -0.62119  -0.59936  -0.58846
 Alpha  occ. eigenvalues --   -0.50895  -0.49074
 Alpha virt. eigenvalues --   -0.26003  -0.16255  -0.15490  -0.12893  -0.11869
 Alpha virt. eigenvalues --   -0.10396  -0.09136  -0.08185  -0.07865  -0.07617
 Alpha virt. eigenvalues --   -0.05337  -0.05314  -0.04493  -0.04091  -0.03459
 Alpha virt. eigenvalues --   -0.02244  -0.01289  -0.00908  -0.00461   0.00536
 Alpha virt. eigenvalues --    0.00762   0.01348   0.01431   0.01831   0.02188
 Alpha virt. eigenvalues --    0.02709   0.03142   0.04342   0.04826   0.05616
 Alpha virt. eigenvalues --    0.05848   0.06742   0.06918   0.07078   0.08019
 Alpha virt. eigenvalues --    0.08312   0.09010   0.09863   0.10271   0.11717
 Alpha virt. eigenvalues --    0.12266   0.12896   0.13179   0.14012   0.14272
 Alpha virt. eigenvalues --    0.15256   0.16655   0.16880   0.17216   0.17679
 Alpha virt. eigenvalues --    0.18363   0.19993   0.21841   0.22567   0.22980
 Alpha virt. eigenvalues --    0.23906   0.24455   0.26593   0.27009   0.30491
 Alpha virt. eigenvalues --    0.31779   0.37088   0.37649   0.39877   0.40988
 Alpha virt. eigenvalues --    0.41286   0.42765   0.43427   0.44203   0.45340
 Alpha virt. eigenvalues --    0.45864   0.46935   0.47805   0.48941   0.50389
 Alpha virt. eigenvalues --    0.51399   0.51961   0.54703   0.55837   0.59661
 Alpha virt. eigenvalues --    0.60321   0.61841   0.66303   0.66980   0.69038
 Alpha virt. eigenvalues --    0.70166   0.71781   0.72940   0.75327   0.76304
 Alpha virt. eigenvalues --    0.77172   0.77646   0.77726   0.80537   0.82661
 Alpha virt. eigenvalues --    0.85097   0.86797   0.88518   0.90968   0.92284
 Alpha virt. eigenvalues --    0.92961   0.93890   0.95663   0.96506   1.00026
 Alpha virt. eigenvalues --    1.00627   1.03295   1.08329   1.09678   1.13107
 Alpha virt. eigenvalues --    1.18317   1.22880   1.26259   1.27643   1.30854
 Alpha virt. eigenvalues --    1.34123   1.36518   1.36911   1.37735   1.39500
 Alpha virt. eigenvalues --    1.42093   1.44242   1.45649   1.49764   1.50733
 Alpha virt. eigenvalues --    1.51515   1.52468   1.54724   1.58396   1.61638
 Alpha virt. eigenvalues --    1.62645   1.63261   1.64488   1.69980   1.73478
 Alpha virt. eigenvalues --    1.75855   1.76508   1.76943   1.78161   1.81291
 Alpha virt. eigenvalues --    1.82878   1.85678   1.88677   1.90005   1.91648
 Alpha virt. eigenvalues --    1.93051   1.95904   1.99766   2.07700   2.13877
 Alpha virt. eigenvalues --    2.16031   2.25941   2.26431   2.31141   2.33622
 Alpha virt. eigenvalues --    2.40494   2.40934   2.46544   2.47960   2.50268
 Alpha virt. eigenvalues --    2.50729   2.53997   2.57532   2.58455   2.61478
 Alpha virt. eigenvalues --    2.61664   2.64655   2.66762   2.67624   2.68843
 Alpha virt. eigenvalues --    2.70182   2.76412   2.77455   2.77773   2.83833
 Alpha virt. eigenvalues --    2.88925   2.93842   2.94462   3.04496   3.05316
 Alpha virt. eigenvalues --    3.11602   3.16144   3.18504   3.21932   3.23183
 Alpha virt. eigenvalues --    3.30129   3.33224   3.37336   3.40594   3.42902
 Alpha virt. eigenvalues --    3.54671   3.66671   3.77256   3.85051   3.89938
 Alpha virt. eigenvalues --    3.92761   4.00337   4.01947   4.17119   4.64667
 Alpha virt. eigenvalues --    4.86975   5.02157   5.22094   5.29960   5.53810
 Alpha virt. eigenvalues --    5.80254  23.48021  23.69972  23.82321  23.84371
 Alpha virt. eigenvalues --   23.90847  23.94056  24.02952  49.77285  49.87415
          Condensed to atoms (all electrons):
               1          2          3          4          5          6
     1  O    7.732123   0.436557  -0.135592  -0.109021   0.010904  -0.008429
     2  C    0.436557   9.210599  -2.400203  -1.412095   0.176310   0.109012
     3  C   -0.135592  -2.400203  12.007189  -3.209546   2.071803  -1.930920
     4  C   -0.109021  -1.412095  -3.209546  15.805584  -4.509819   1.684065
     5  C    0.010904   0.176310   2.071803  -4.509819   8.870985  -1.343905
     6  C   -0.008429   0.109012  -1.930920   1.684065  -1.343905   7.190971
     7  C    0.028560  -0.205599   2.386170  -1.523112   1.674096  -1.649269
     8  C    0.010983  -0.020338  -4.109277  -0.278543  -1.399278   2.059199
     9  O   -0.077961   0.381159  -0.084687   0.008657   0.056944  -0.017250
    10  H    0.310506   0.030192   0.014037  -0.024552  -0.000106  -0.003326
    11  H   -0.002498  -0.029813  -0.102735   0.570765  -0.142800   0.025545
    12  H    0.000268  -0.000586   0.031718  -0.051814   0.359182  -0.007640
    13  H    0.000000  -0.003045   0.006142  -0.014432   0.005687   0.359904
    14  H    0.000523  -0.006913   0.034284   0.024683  -0.003104  -0.007160
    15  H   -0.006770   0.033950  -0.150733   0.034574  -0.031127   0.038229
    16  H    0.010073  -0.071846   0.038085   0.033941  -0.014335  -0.005498
               7          8          9         10         11         12
     1  O    0.028560   0.010983  -0.077961   0.310506  -0.002498   0.000268
     2  C   -0.205599  -0.020338   0.381159   0.030192  -0.029813  -0.000586
     3  C    2.386170  -4.109277  -0.084687   0.014037  -0.102735   0.031718
     4  C   -1.523112  -0.278543   0.008657  -0.024552   0.570765  -0.051814
     5  C    1.674096  -1.399278   0.056944  -0.000106  -0.142800   0.359182
     6  C   -1.649269   2.059199  -0.017250  -0.003326   0.025545  -0.007640
     7  C    9.171277  -4.535675   0.048596   0.007360  -0.021650   0.003406
     8  C   -4.535675  15.057399  -0.227908  -0.013049   0.047605  -0.007322
     9  O    0.048596  -0.227908   7.707534  -0.004212  -0.005519   0.000260
    10  H    0.007360  -0.013049  -0.004212   0.333306  -0.004911  -0.000012
    11  H   -0.021650   0.047605  -0.005519  -0.004911   0.416280  -0.003604
    12  H    0.003406  -0.007322   0.000260  -0.000012  -0.003604   0.396901
    13  H   -0.028388   0.016384  -0.000165  -0.000013   0.000057  -0.000109
    14  H    0.392176  -0.117689   0.001108   0.000054   0.000390  -0.000364
    15  H   -0.228159   0.670023  -0.031566   0.000088   0.001083  -0.000247
    16  H    0.101203  -0.087396   0.266915   0.000457   0.000164   0.000239
              13         14         15         16
     1  O    0.000000   0.000523  -0.006770   0.010073
     2  C   -0.003045  -0.006913   0.033950  -0.071846
     3  C    0.006142   0.034284  -0.150733   0.038085
     4  C   -0.014432   0.024683   0.034574   0.033941
     5  C    0.005687  -0.003104  -0.031127  -0.014335
     6  C    0.359904  -0.007160   0.038229  -0.005498
     7  C   -0.028388   0.392176  -0.228159   0.101203
     8  C    0.016384  -0.117689   0.670023  -0.087396
     9  O   -0.000165   0.001108  -0.031566   0.266915
    10  H   -0.000013   0.000054   0.000088   0.000457
    11  H    0.000057   0.000390   0.001083   0.000164
    12  H   -0.000109  -0.000364  -0.000247   0.000239
    13  H    0.397649  -0.001778   0.001257  -0.000327
    14  H   -0.001778   0.403761  -0.010066   0.002418
    15  H    0.001257  -0.010066   0.543460   0.005011
    16  H   -0.000327   0.002418   0.005011   0.380676
 Mulliken charges:
               1
     1  O   -0.200226
     2  C   -0.227343
     3  C    1.534265
     4  C   -1.029334
     5  C    0.218563
     6  C   -0.493527
     7  C    0.379009
     8  C   -1.065116
     9  O   -0.021903
    10  H    0.354180
    11  H    0.251641
    12  H    0.279724
    13  H    0.261177
    14  H    0.287678
    15  H    0.130992
    16  H    0.340220
 Sum of Mulliken charges =   1.00000
 Mulliken charges with hydrogens summed into heavy atoms:
               1
     1  O    0.153954
     2  C   -0.227343
     3  C    1.534265
     4  C   -0.777693
     5  C    0.498287
     6  C   -0.232350
     7  C    0.666687
     8  C   -0.934124
     9  O    0.318317
 Electronic spatial extent (au):  <R**2>=           1180.8037
 Charge=              1.0000 electrons
 Dipole moment (field-independent basis, Debye):
    X=             -0.1981    Y=              1.4528    Z=              1.5891  Tot=              2.1622
 Quadrupole moment (field-independent basis, Debye-Ang):
   XX=            -28.5216   YY=            -33.5648   ZZ=            -50.8081
   XY=             -1.9201   XZ=             -4.4092   YZ=             -2.2275
 Traceless Quadrupole moment (field-independent basis, Debye-Ang):
   XX=              9.1099   YY=              4.0667   ZZ=            -13.1766
   XY=             -1.9201   XZ=             -4.4092   YZ=             -2.2275
 Octapole moment (field-independent basis, Debye-Ang**2):
  XXX=             16.6262  YYY=             11.9937  ZZZ=              3.0078  XYY=             -9.2598
  XXY=             -0.9590  XXZ=             14.2328  XZZ=            -18.4142  YZZ=             -2.9883
  YYZ=              3.1425  XYZ=              8.5282
 Hexadecapole moment (field-independent basis, Debye-Ang**3):
 XXXX=           -867.7605 YYYY=           -303.0411 ZZZZ=            -55.3719 XXXY=             11.7602
 XXXZ=            -32.6420 YYYX=            -22.6486 YYYZ=             -5.1130 ZZZX=             -8.4830
 ZZZY=             -6.1757 XXYY=           -178.6230 XXZZ=           -175.5614 YYZZ=            -76.1272
 XXYZ=            -17.9769 YYXZ=             -9.7355 ZZXY=              7.7904
 N-N= 4.167331125409D+02 E-N=-1.803621649473D+03  KE= 4.193526332881D+02
 No NMR shielding tensors so no spin-rotation constants.
 Leave Link  601 at Sun Oct 13 19:58:56 2019, MaxMem= 10737418240 cpu:               2.7 elap:               0.1
 (Enter /apps/cent7/gaussian/g16-A.03/g16-haswell/g16/l701.exe)
 ... and contract with generalized density number  0.
 Compute integral first derivatives.
 Leave Link  701 at Sun Oct 13 19:58:56 2019, MaxMem= 10737418240 cpu:               2.9 elap:               0.2
 (Enter /apps/cent7/gaussian/g16-A.03/g16-haswell/g16/l702.exe)
 L702 exits ... SP integral derivatives will be done elsewhere.
 Leave Link  702 at Sun Oct 13 19:58:56 2019, MaxMem= 10737418240 cpu:               0.5 elap:               0.0
 (Enter /apps/cent7/gaussian/g16-A.03/g16-haswell/g16/l703.exe)
 Integral derivatives from FoFJK, PRISM(SPDF).
 Compute integral first derivatives, UseDBF=F ICtDFT=           0.
 Calling FoFJK, ICntrl=      2127 FMM=F ISym2X=0 I1Cent= 0 IOpClX= 0 NMat=1 NMatS=1 NMatT=0.
 FoFJK:  IHMeth= 1 ICntrl=    2127 DoSepK=F KAlg= 0 I1Cent=           0 FoldK=F
 IRaf=         0 NMat=       1 IRICut=       1 DoRegI=T DoRafI=F ISym2E= 0 IDoP0=0 IntGTp=1.
 FoFCou: FMM=F IPFlag=           0 FMFlag=      100000 FMFlg1=         800
         NFxFlg=           0 DoJE=F BraDBF=F KetDBF=F FulRan=T
         wScrn=  0.000000 ICntrl=      2127 IOpCl=  0 I1Cent=           0 NGrid=           0
         NMat0=    1 NMatS0=      1 NMatT0=    0 NMatD0=    1 NMtDS0=    0 NMtDT0=    0
 Symmetry not used in FoFCou.
 Leave Link  703 at Sun Oct 13 19:58:58 2019, MaxMem= 10737418240 cpu:              42.9 elap:               1.8
 (Enter /apps/cent7/gaussian/g16-A.03/g16-haswell/g16/l716.exe)
 Dipole        =-7.79563950D-02 5.71564287D-01 6.25217528D-01
 ***** Axes restored to original set *****
 -------------------------------------------------------------------
 Center     Atomic                   Forces (Hartrees/Bohr)
 Number     Number              X              Y              Z
 -------------------------------------------------------------------
      1        8           0.019364865    0.037359055   -0.019357235
      2        6           0.011125474   -0.037101376    0.013411429
      3        6           0.026189476   -0.006536670   -0.004250076
      4        6           0.012403737   -0.004518615    0.002200221
      5        6          -0.012084314    0.005217644    0.000179923
      6        6          -0.011293024   -0.004179751    0.000632717
      7        6          -0.016988081   -0.000080383    0.000586274
      8        6           0.015009268    0.000739719   -0.002472087
      9        8          -0.044079935    0.005272324    0.004095482
     10        1          -0.004928810   -0.004413687    0.009652497
     11        1           0.001021096    0.004408415   -0.000384674
     12        1          -0.003993435    0.003969744   -0.000127828
     13        1          -0.004566041    0.000076936   -0.000129479
     14        1          -0.003654125   -0.004145253    0.000328472
     15        1           0.006901132    0.000151769    0.000838452
     16        1           0.009572716    0.003780130   -0.005204087
 -------------------------------------------------------------------
 Cartesian Forces:  Max     0.044079935 RMS     0.012910506
 Leave Link  716 at Sun Oct 13 19:58:58 2019, MaxMem= 10737418240 cpu:               0.7 elap:               0.1
 (Enter /apps/cent7/gaussian/g16-A.03/g16-haswell/g16/l103.exe)

 GradGradGradGradGradGradGradGradGradGradGradGradGradGradGradGradGradGrad
 Berny optimization.
 FormGI is forming the generalized inverse of G from B-inverse, IUseBI=4.
 Internal  Forces:  Max     0.036845666 RMS     0.009029829
 Search for a local minimum.
 Step number   1 out of a maximum of   81
 All quantities printed in internal units (Hartrees-Bohrs-Radians)
 RMS Force = .90298D-02 SwitMx=.10000D-02 MixMth= 1
 Mixed Optimization -- RFO/linear search
 Second derivative matrix not updated -- first step.
 ITU=  0
     Eigenvalues ---    0.01833   0.01849   0.01880   0.01918   0.01933
     Eigenvalues ---    0.01972   0.01998   0.02009   0.02011   0.02013
     Eigenvalues ---    0.02275   0.02368   0.03638   0.16000   0.16000
     Eigenvalues ---    0.16000   0.16000   0.16000   0.16000   0.16000
     Eigenvalues ---    0.21998   0.22000   0.23465   0.24996   0.24997
     Eigenvalues ---    0.24999   0.34811   0.34813   0.34813   0.34813
     Eigenvalues ---    0.34813   0.39993   0.40184   0.42560   0.43219
     Eigenvalues ---    0.43918   0.44502   0.44657   0.53781   0.55473
     Eigenvalues ---    0.55480   0.82188
 RFO step:  Lambda=-1.67021175D-02 EMin= 1.83292290D-02
 Linear search not attempted -- first point.
 Iteration  1 RMS(Cart)=  0.06822547 RMS(Int)=  0.00349029
 Iteration  2 RMS(Cart)=  0.00450215 RMS(Int)=  0.00103481
 Iteration  3 RMS(Cart)=  0.00002020 RMS(Int)=  0.00103463
 Iteration  4 RMS(Cart)=  0.00000001 RMS(Int)=  0.00103463
 ITry= 1 IFail=0 DXMaxC= 2.35D-01 DCOld= 1.00D+10 DXMaxT= 3.00D-01 DXLimC= 3.00D+00 Rises=F
 Variable       Old X    -DE/DX   Delta X   Delta X   Delta X     New X
                                 (Linear)    (Quad)   (Total)
    R1        2.56232  -0.03685   0.00000  -0.06645  -0.06645   2.49587
    R2        1.81408   0.01063   0.00000   0.01860   0.01860   1.83268
    R3        2.68216   0.00897   0.00000   0.02028   0.02028   2.70244
    R4        2.36757   0.02676   0.00000   0.03192   0.03192   2.39948
    R5        2.67898  -0.00762   0.00000  -0.01654  -0.01657   2.66241
    R6        2.67946  -0.00287   0.00000  -0.00577  -0.00579   2.67367
    R7        2.65973  -0.02483   0.00000  -0.05399  -0.05400   2.60573
    R8        2.05983  -0.00438   0.00000  -0.01201  -0.01201   2.04782
    R9        2.65726  -0.01070   0.00000  -0.02377  -0.02376   2.63350
   R10        2.05979  -0.00547   0.00000  -0.01499  -0.01499   2.04480
   R11        2.65599  -0.00648   0.00000  -0.01453  -0.01450   2.64148
   R12        2.05979  -0.00456   0.00000  -0.01249  -0.01249   2.04730
   R13        2.65717  -0.02772   0.00000  -0.05979  -0.05978   2.59739
   R14        2.05979  -0.00539   0.00000  -0.01478  -0.01478   2.04501
   R15        2.05979  -0.00339   0.00000  -0.00929  -0.00929   2.05050
   R16        1.81414   0.00797   0.00000   0.01394   0.01394   1.82808
    A1        1.91074   0.00805   0.00000   0.04558   0.04558   1.95632
    A2        2.12320  -0.00664   0.00000  -0.02401  -0.02657   2.09663
    A3        2.03206  -0.01811   0.00000  -0.06693  -0.06937   1.96269
    A4        2.12760   0.02487   0.00000   0.09421   0.09127   2.21887
    A5        2.10891  -0.01261   0.00000  -0.04866  -0.04864   2.06027
    A6        2.11020   0.00640   0.00000   0.02263   0.02265   2.13285
    A7        2.06402   0.00622   0.00000   0.02605   0.02601   2.09003
    A8        2.10805  -0.00406   0.00000  -0.01563  -0.01573   2.09233
    A9        2.09378   0.00086   0.00000   0.00121   0.00119   2.09497
   A10        2.08135   0.00320   0.00000   0.01442   0.01439   2.09574
   A11        2.09626  -0.00136   0.00000  -0.00666  -0.00666   2.08959
   A12        2.09440  -0.00068   0.00000  -0.00437  -0.00437   2.09003
   A13        2.09253   0.00204   0.00000   0.01103   0.01103   2.10356
   A14        2.09215   0.00535   0.00000   0.02073   0.02076   2.11292
   A15        2.09595  -0.00247   0.00000  -0.00922  -0.00923   2.08671
   A16        2.09508  -0.00288   0.00000  -0.01151  -0.01153   2.08355
   A17        2.09507  -0.00126   0.00000  -0.00569  -0.00566   2.08941
   A18        2.09371   0.00191   0.00000   0.01008   0.01007   2.10377
   A19        2.09441  -0.00065   0.00000  -0.00439  -0.00441   2.09000
   A20        2.11052  -0.00489   0.00000  -0.01855  -0.01858   2.09194
   A21        2.09366   0.00860   0.00000   0.04410   0.04408   2.13774
   A22        2.07900  -0.00371   0.00000  -0.02555  -0.02556   2.05344
   A23        2.09440  -0.01225   0.00000  -0.06930  -0.06930   2.02510
    D1        1.55232   0.00472   0.00000   0.11302   0.10839   1.66071
    D2       -1.56223  -0.00118   0.00000  -0.02314  -0.01850  -1.58073
    D3        0.13541  -0.00316   0.00000  -0.08223  -0.08394   0.05147
    D4       -2.99565  -0.00327   0.00000  -0.08441  -0.08603  -3.08168
    D5       -3.03471   0.00237   0.00000   0.05878   0.06040  -2.97431
    D6        0.11743   0.00226   0.00000   0.05660   0.05831   0.17574
    D7        3.03740   0.00655   0.00000   0.13990   0.14037  -3.10542
    D8       -0.07708   0.00116   0.00000   0.00536   0.00489  -0.07219
    D9       -3.10771  -0.00062   0.00000  -0.01629  -0.01619  -3.12390
   D10        0.03386   0.00006   0.00000   0.00225   0.00219   0.03606
   D11        0.02362  -0.00050   0.00000  -0.01416  -0.01416   0.00945
   D12       -3.11800   0.00018   0.00000   0.00437   0.00422  -3.11377
   D13        3.10672   0.00024   0.00000   0.00829   0.00823   3.11495
   D14       -0.03496   0.00065   0.00000   0.01989   0.02008  -0.01488
   D15       -0.02460   0.00024   0.00000   0.00660   0.00655  -0.01805
   D16        3.11691   0.00065   0.00000   0.01820   0.01839   3.13530
   D17       -0.00674   0.00043   0.00000   0.01160   0.01148   0.00475
   D18        3.13484   0.00050   0.00000   0.01358   0.01347  -3.13487
   D19        3.13488  -0.00024   0.00000  -0.00681  -0.00691   3.12796
   D20       -0.00673  -0.00017   0.00000  -0.00483  -0.00493  -0.01165
   D21       -0.00980  -0.00002   0.00000  -0.00079  -0.00092  -0.01072
   D22        3.13186   0.00000   0.00000   0.00011   0.00008   3.13194
   D23        3.13180  -0.00009   0.00000  -0.00277  -0.00292   3.12888
   D24       -0.00972  -0.00007   0.00000  -0.00186  -0.00192  -0.01164
   D25        0.00886  -0.00026   0.00000  -0.00677  -0.00676   0.00209
   D26       -3.13289  -0.00025   0.00000  -0.00603  -0.00593  -3.13883
   D27       -3.13281  -0.00028   0.00000  -0.00768  -0.00776  -3.14057
   D28        0.00863  -0.00027   0.00000  -0.00693  -0.00693   0.00170
   D29        0.00865   0.00009   0.00000   0.00358   0.00359   0.01224
   D30       -3.13285  -0.00032   0.00000  -0.00793  -0.00769  -3.14054
   D31       -3.13278   0.00008   0.00000   0.00283   0.00276  -3.13002
   D32        0.00890  -0.00033   0.00000  -0.00868  -0.00852   0.00038
         Item               Value     Threshold  Converged?
 Maximum Force            0.036846     0.000450     NO 
 RMS     Force            0.009030     0.000300     NO 
 Maximum Displacement     0.234557     0.001800     NO 
 RMS     Displacement     0.068828     0.001200     NO 
 Predicted change in Energy=-9.173243D-03
 Lowest energy point so far.  Saving SCF results.
 GradGradGradGradGradGradGradGradGradGradGradGradGradGradGradGradGradGrad

 Leave Link  103 at Sun Oct 13 19:58:58 2019, MaxMem= 10737418240 cpu:               1.2 elap:               0.1
 (Enter /apps/cent7/gaussian/g16-A.03/g16-haswell/g16/l202.exe)
                          Input orientation:                          
 ---------------------------------------------------------------------
 Center     Atomic      Atomic             Coordinates (Angstroms)
 Number     Number       Type             X           Y           Z
 ---------------------------------------------------------------------
      1          8           0       -2.638402   -0.019218    0.332032
      2          6           0       -2.032732    1.147765    0.206674
      3          6           0       -0.608252    1.208964    0.096180
      4          6           0        0.106247   -0.004825    0.061949
      5          6           0        1.482450    0.010274   -0.022839
      6          6           0        2.158624    1.227977   -0.068441
      7          6           0        1.463418    2.440369   -0.042446
      8          6           0        0.090942    2.437278    0.031688
      9          8           0       -2.853026    2.109224    0.084252
     10          1           0       -2.810658   -0.242898    1.259841
     11          1           0       -0.426138   -0.948407    0.085001
     12          1           0        2.028675   -0.923239   -0.055291
     13          1           0        3.240444    1.236770   -0.125971
     14          1           0        1.996970    3.381086   -0.080841
     15          1           0       -0.414640    3.397220    0.048838
     16          1           0       -2.463859    2.985752   -0.042504
 ---------------------------------------------------------------------
                    Distance matrix (angstroms):
                    1          2          3          4          5
     1  O    0.000000
     2  C    1.320757   0.000000
     3  C    2.384443   1.430069   0.000000
     4  C    2.757943   2.434058   1.408887   0.000000
     5  C    4.136209   3.701765   2.412894   1.378895   0.000000
     6  C    4.972659   4.201142   2.771834   2.397719   1.393590
     7  C    4.797367   3.735766   2.413999   2.798532   2.430249
     8  C    3.684277   2.490674   1.414846   2.442338   2.798145
     9  O    2.153537   1.269753   2.418599   3.636893   4.818030
    10  H    0.969812   1.910045   2.883159   3.162271   4.487777
    11  H    2.412163   2.643839   2.165072   1.083657   2.138552
    12  H    4.769579   4.566477   3.394498   2.133767   1.082063
    13  H    6.028939   5.284408   3.855203   3.376399   2.146037
    14  H    5.763610   4.616155   3.396562   3.880672   3.410348
    15  H    4.086241   2.775461   2.197315   3.441715   3.882718
    16  H    3.033247   1.904247   2.572837   3.944605   4.942390
                    6          7          8          9         10
     6  C    0.000000
     7  C    1.397813   0.000000
     8  C    2.397445   1.374480   0.000000
     9  O    5.090830   4.330981   2.962656   0.000000
    10  H    5.349914   5.211871   4.136543   2.629883   0.000000
    11  H    3.382483   3.882070   3.425358   3.903702   2.750259
    12  H    2.155177   3.410797   3.880135   5.748592   5.060789
    13  H    1.083384   2.147894   3.374232   6.159200   6.381672
    14  H    2.159205   1.082174   2.129877   5.016707   6.167980
    15  H    3.367650   2.109739   1.085079   2.757882   4.523040
    16  H    4.945483   3.964965   2.614066   0.967378   3.498651
                   11         12         13         14         15
    11  H    0.000000
    12  H    2.458948   0.000000
    13  H    4.273563   2.477705   0.000000
    14  H    4.964218   4.304517   2.479184   0.000000
    15  H    4.345793   4.964575   4.249441   2.415148   0.000000
    16  H    4.432401   5.955102   5.966991   4.478477   2.092116
                   16
    16  H    0.000000
 Stoichiometry    C7H7O2(1+)
 Framework group  C1[X(C7H7O2)]
 Deg. of freedom    42
 Full point group                 C1      NOp   1
 RotChk:  IX=0 Diff= 2.38D-03
 Largest Abelian subgroup         C1      NOp   1
 Largest concise Abelian subgroup C1      NOp   1
                         Standard orientation:                         
 ---------------------------------------------------------------------
 Center     Atomic      Atomic             Coordinates (Angstroms)
 Number     Number       Type             X           Y           Z
 ---------------------------------------------------------------------
      1          8           0       -2.281302   -1.111118    0.022465
      2          6           0       -1.624068    0.034391    0.006582
      3          6           0       -0.194079    0.041361   -0.006867
      4          6           0        0.473843   -1.197702   -0.066569
      5          6           0        1.852189   -1.236133   -0.060306
      6          6           0        2.576272   -0.047550    0.010875
      7          6           0        1.928086    1.189771    0.063549
      8          6           0        0.554640    1.240626    0.047632
      9          8           0       -2.396585    1.035144   -0.111678
     10          1           0       -2.524389   -1.379658    0.922093
     11          1           0       -0.094809   -2.117665   -0.134513
     12          1           0        2.363017   -2.188597   -0.112539
     13          1           0        3.659041   -0.081345    0.024700
     14          1           0        2.498830    2.107697    0.116115
     15          1           0        0.086384    2.218601    0.088849
     16          1           0       -1.966284    1.900181   -0.160372
 ---------------------------------------------------------------------
 Rotational constants (GHZ):           3.7825621           1.2149785           0.9239809
 Leave Link  202 at Sun Oct 13 19:58:58 2019, MaxMem= 10737418240 cpu:               0.2 elap:               0.0
 (Enter /apps/cent7/gaussian/g16-A.03/g16-haswell/g16/l301.exe)
 Standard basis: 6-311++G(d,p) (5D, 7F)
 Ernie: Thresh=  0.10000D-02 Tol=  0.10000D-05 Strict=F.
 There are   256 symmetry adapted cartesian basis functions of A   symmetry.
 There are   247 symmetry adapted basis functions of A   symmetry.
   247 basis functions,   387 primitive gaussians,   256 cartesian basis functions
    32 alpha electrons       32 beta electrons
       nuclear repulsion energy       419.1674837260 Hartrees.
 IExCor= 4336 DFT=T Ex+Corr=M062X ExCW=0 ScaHFX=  0.540000
 ScaDFX=  1.000000  1.000000  1.000000  1.000000 ScalE2=  1.000000  1.000000
 IRadAn=      5 IRanWt=     -1 IRanGd=            0 ICorTp=0 IEmpDi=  4
 NAtoms=   16 NActive=   16 NUniq=   16 SFac= 1.00D+00 NAtFMM=   60 NAOKFM=F Big=F
 Integral buffers will be    131072 words long.
 Raffenetti 2 integral format.
 Two-electron integral symmetry is turned on.
 Leave Link  301 at Sun Oct 13 19:58:59 2019, MaxMem= 10737418240 cpu:               1.3 elap:               0.1
 (Enter /apps/cent7/gaussian/g16-A.03/g16-haswell/g16/l302.exe)
 NPDir=0 NMtPBC=     1 NCelOv=     1 NCel=       1 NClECP=     1 NCelD=      1
         NCelK=      1 NCelE2=     1 NClLst=     1 CellRange=     0.0.
 One-electron integrals computed using PRISM.
 One-electron integral symmetry used in STVInt
 NBasis=   247 RedAO= T EigKep=  1.08D-06  NBF=   247
 NBsUse=   247 1.00D-06 EigRej= -1.00D+00 NBFU=   247
 Precomputing XC quadrature grid using
 IXCGrd= 4 IRadAn=           5 IRanWt=          -1 IRanGd=           0 AccXCQ= 0.00D+00.
 Generated NRdTot=       0 NPtTot=           0 NUsed=           0 NTot=          32
 NSgBfM=   256   256   256   256   256 MxSgAt=    16 MxSgA2=    16.
 Leave Link  302 at Sun Oct 13 19:58:59 2019, MaxMem= 10737418240 cpu:               3.7 elap:               0.2
 (Enter /apps/cent7/gaussian/g16-A.03/g16-haswell/g16/l303.exe)
 DipDrv:  MaxL=1.
 Leave Link  303 at Sun Oct 13 19:58:59 2019, MaxMem= 10737418240 cpu:               1.2 elap:               0.1
 (Enter /apps/cent7/gaussian/g16-A.03/g16-haswell/g16/l401.exe)
 Initial guess from the checkpoint file:  "14_p.chk"
 B after Tr=     0.000000    0.000000   -0.000000
         Rot=    0.999997   -0.000291   -0.000776   -0.002481 Ang=  -0.30 deg.
 Guess basis will be translated and rotated to current coordinates.
 JPrj=2 DoOrth=T DoCkMO=T.
 Generating alternative initial guess.
 ExpMin= 3.60D-02 ExpMax= 8.59D+03 ExpMxC= 1.30D+03 IAcc=3 IRadAn=         5 AccDes= 0.00D+00
 Harris functional with IExCor= 1009 and IRadAn=       5 diagonalized for initial guess.
 HarFok:  IExCor= 1009 AccDes= 0.00D+00 IRadAn=         5 IDoV= 1 UseB2=F ITyADJ=14
 ICtDFT=  3500011 ScaDFX=  1.000000  1.000000  1.000000  1.000000
 FoFCou: FMM=F IPFlag=           0 FMFlag=      100000 FMFlg1=           0
         NFxFlg=           0 DoJE=T BraDBF=F KetDBF=T FulRan=T
         wScrn=  0.000000 ICntrl=       500 IOpCl=  0 I1Cent=   200000004 NGrid=           0
         NMat0=    1 NMatS0=      1 NMatT0=    0 NMatD0=    1 NMtDS0=    0 NMtDT0=    0
 Petite list used in FoFCou.
 Harris En= -420.921451897570    
 Leave Link  401 at Sun Oct 13 19:58:59 2019, MaxMem= 10737418240 cpu:              10.7 elap:               0.5
 (Enter /apps/cent7/gaussian/g16-A.03/g16-haswell/g16/l502.exe)
 Integral symmetry usage will be decided dynamically.
 Closed shell SCF:
 Using DIIS extrapolation, IDIIS=  1040.
 NGot= 10737418240 LenX= 10737278516 LenY= 10737212539
 Requested convergence on RMS density matrix=1.00D-08 within 128 cycles.
 Requested convergence on MAX density matrix=1.00D-06.
 Requested convergence on             energy=1.00D-06.
 No special actions if energy rises.
 Fock matrices will be formed incrementally for  20 cycles.

 Cycle   1  Pass 1  IDiag  1:
 FoFJK:  IHMeth= 1 ICntrl=       0 DoSepK=F KAlg= 0 I1Cent=           0 FoldK=F
 IRaf= 950000000 NMat=       1 IRICut=       1 DoRegI=T DoRafI=F ISym2E= 0 IDoP0=0 IntGTp=1.
 FoFCou: FMM=F IPFlag=           0 FMFlag=      100000 FMFlg1=           0
         NFxFlg=           0 DoJE=F BraDBF=F KetDBF=F FulRan=T
         wScrn=  0.000000 ICntrl=         0 IOpCl=  0 I1Cent=           0 NGrid=           0
         NMat0=    1 NMatS0=      1 NMatT0=    0 NMatD0=    1 NMtDS0=    0 NMtDT0=    0
 Symmetry not used in FoFCou.
 E= -421.055047749113    
 DIIS: error= 4.32D-03 at cycle   1 NSaved=   1.
 NSaved= 1 IEnMin= 1 EnMin= -421.055047749113     IErMin= 1 ErrMin= 4.32D-03
 ErrMax= 4.32D-03  0.00D+00 EMaxC= 1.00D-01 BMatC= 1.22D-02 BMatP= 1.22D-02
 IDIUse=3 WtCom= 9.57D-01 WtEn= 4.32D-02
 Coeff-Com:  0.100D+01
 Coeff-En:   0.100D+01
 Coeff:      0.100D+01
 Gap=     0.482 Goal=   None    Shift=    0.000
 GapD=    0.482 DampG=2.000 DampE=1.000 DampFc=2.0000 IDamp=-1.
 RMSDP=1.33D-02 MaxDP=9.10D-01              OVMax= 2.83D-02

 Cycle   2  Pass 1  IDiag  1:
 RMSU=  1.13D-02    CP:  1.12D+00
 E= -421.071192209782     Delta-E=       -0.016144460669 Rises=F Damp=F
 DIIS: error= 1.00D-03 at cycle   2 NSaved=   2.
 NSaved= 2 IEnMin= 2 EnMin= -421.071192209782     IErMin= 2 ErrMin= 1.00D-03
 ErrMax= 1.00D-03  0.00D+00 EMaxC= 1.00D-01 BMatC= 5.00D-04 BMatP= 1.22D-02
 IDIUse=3 WtCom= 9.90D-01 WtEn= 1.00D-02
 Coeff-Com: -0.772D-01 0.108D+01
 Coeff-En:   0.000D+00 0.100D+01
 Coeff:     -0.765D-01 0.108D+01
 Gap=     0.237 Goal=   None    Shift=    0.000
 RMSDP=1.53D-03 MaxDP=1.27D-01 DE=-1.61D-02 OVMax= 7.00D-03

 Cycle   3  Pass 1  IDiag  1:
 RMSU=  9.63D-04    CP:  1.13D+00  1.09D+00
 E= -421.071698747944     Delta-E=       -0.000506538162 Rises=F Damp=F
 DIIS: error= 9.79D-04 at cycle   3 NSaved=   3.
 NSaved= 3 IEnMin= 3 EnMin= -421.071698747944     IErMin= 3 ErrMin= 9.79D-04
 ErrMax= 9.79D-04  0.00D+00 EMaxC= 1.00D-01 BMatC= 2.30D-04 BMatP= 5.00D-04
 IDIUse=3 WtCom= 9.90D-01 WtEn= 9.79D-03
 Coeff-Com: -0.636D-01 0.451D+00 0.612D+00
 Coeff-En:   0.000D+00 0.000D+00 0.100D+01
 Coeff:     -0.629D-01 0.447D+00 0.616D+00
 Gap=     0.240 Goal=   None    Shift=    0.000
 RMSDP=4.84D-04 MaxDP=2.78D-02 DE=-5.07D-04 OVMax= 5.50D-03

 Cycle   4  Pass 1  IDiag  1:
 RMSU=  3.70D-04    CP:  1.13D+00  1.09D+00  6.75D-01
 E= -421.071907191818     Delta-E=       -0.000208443874 Rises=F Damp=F
 DIIS: error= 4.31D-04 at cycle   4 NSaved=   4.
 NSaved= 4 IEnMin= 4 EnMin= -421.071907191818     IErMin= 4 ErrMin= 4.31D-04
 ErrMax= 4.31D-04  0.00D+00 EMaxC= 1.00D-01 BMatC= 1.84D-05 BMatP= 2.30D-04
 IDIUse=3 WtCom= 9.96D-01 WtEn= 4.31D-03
 Coeff-Com: -0.154D-01 0.679D-01 0.240D+00 0.708D+00
 Coeff-En:   0.000D+00 0.000D+00 0.000D+00 0.100D+01
 Coeff:     -0.153D-01 0.676D-01 0.239D+00 0.709D+00
 Gap=     0.239 Goal=   None    Shift=    0.000
 RMSDP=8.98D-05 MaxDP=5.21D-03 DE=-2.08D-04 OVMax= 2.01D-03

 Cycle   5  Pass 1  IDiag  1:
 RMSU=  7.63D-05    CP:  1.13D+00  1.09D+00  6.68D-01  9.47D-01
 E= -421.071924211173     Delta-E=       -0.000017019356 Rises=F Damp=F
 DIIS: error= 1.51D-04 at cycle   5 NSaved=   5.
 NSaved= 5 IEnMin= 5 EnMin= -421.071924211173     IErMin= 5 ErrMin= 1.51D-04
 ErrMax= 1.51D-04  0.00D+00 EMaxC= 1.00D-01 BMatC= 2.66D-06 BMatP= 1.84D-05
 IDIUse=3 WtCom= 9.98D-01 WtEn= 1.51D-03
 Coeff-Com:  0.506D-03-0.265D-01 0.357D-01 0.325D+00 0.666D+00
 Coeff-En:   0.000D+00 0.000D+00 0.000D+00 0.000D+00 0.100D+01
 Coeff:      0.505D-03-0.264D-01 0.356D-01 0.324D+00 0.666D+00
 Gap=     0.239 Goal=   None    Shift=    0.000
 RMSDP=4.60D-05 MaxDP=4.57D-03 DE=-1.70D-05 OVMax= 5.45D-04

 Cycle   6  Pass 1  IDiag  1:
 RMSU=  2.69D-05    CP:  1.13D+00  1.09D+00  7.00D-01  9.36D-01  8.48D-01
 E= -421.071926809326     Delta-E=       -0.000002598152 Rises=F Damp=F
 DIIS: error= 3.06D-05 at cycle   6 NSaved=   6.
 NSaved= 6 IEnMin= 6 EnMin= -421.071926809326     IErMin= 6 ErrMin= 3.06D-05
 ErrMax= 3.06D-05  0.00D+00 EMaxC= 1.00D-01 BMatC= 1.55D-07 BMatP= 2.66D-06
 IDIUse=1 WtCom= 1.00D+00 WtEn= 0.00D+00
 Coeff-Com:  0.143D-02-0.159D-01-0.646D-02 0.700D-01 0.243D+00 0.708D+00
 Coeff:      0.143D-02-0.159D-01-0.646D-02 0.700D-01 0.243D+00 0.708D+00
 Gap=     0.239 Goal=   None    Shift=    0.000
 RMSDP=1.51D-05 MaxDP=9.54D-04 DE=-2.60D-06 OVMax= 1.46D-04

 Cycle   7  Pass 1  IDiag  1:
 RMSU=  1.05D-05    CP:  1.13D+00  1.09D+00  7.07D-01  9.42D-01  8.24D-01
                    CP:  1.05D+00
 E= -421.071926985070     Delta-E=       -0.000000175744 Rises=F Damp=F
 DIIS: error= 1.10D-05 at cycle   7 NSaved=   7.
 NSaved= 7 IEnMin= 7 EnMin= -421.071926985070     IErMin= 7 ErrMin= 1.10D-05
 ErrMax= 1.10D-05  0.00D+00 EMaxC= 1.00D-01 BMatC= 2.30D-08 BMatP= 1.55D-07
 IDIUse=1 WtCom= 1.00D+00 WtEn= 0.00D+00
 Coeff-Com:  0.462D-03-0.258D-02-0.742D-02-0.131D-01 0.238D-02 0.272D+00
 Coeff-Com:  0.748D+00
 Coeff:      0.462D-03-0.258D-02-0.742D-02-0.131D-01 0.238D-02 0.272D+00
 Coeff:      0.748D+00
 Gap=     0.239 Goal=   None    Shift=    0.000
 RMSDP=4.57D-06 MaxDP=2.13D-04 DE=-1.76D-07 OVMax= 6.75D-05

 Cycle   8  Pass 1  IDiag  1:
 RMSU=  2.92D-06    CP:  1.13D+00  1.09D+00  7.05D-01  9.47D-01  8.38D-01
                    CP:  1.11D+00  9.61D-01
 E= -421.071927016014     Delta-E=       -0.000000030944 Rises=F Damp=F
 DIIS: error= 3.49D-06 at cycle   8 NSaved=   8.
 NSaved= 8 IEnMin= 8 EnMin= -421.071927016014     IErMin= 8 ErrMin= 3.49D-06
 ErrMax= 3.49D-06  0.00D+00 EMaxC= 1.00D-01 BMatC= 1.50D-09 BMatP= 2.30D-08
 IDIUse=1 WtCom= 1.00D+00 WtEn= 0.00D+00
 Coeff-Com: -0.102D-03 0.179D-02-0.742D-03-0.122D-01-0.345D-01-0.365D-01
 Coeff-Com:  0.149D+00 0.933D+00
 Coeff:     -0.102D-03 0.179D-02-0.742D-03-0.122D-01-0.345D-01-0.365D-01
 Coeff:      0.149D+00 0.933D+00
 Gap=     0.239 Goal=   None    Shift=    0.000
 RMSDP=2.11D-06 MaxDP=1.37D-04 DE=-3.09D-08 OVMax= 3.29D-05

 Cycle   9  Pass 1  IDiag  1:
 RMSU=  1.41D-06    CP:  1.13D+00  1.09D+00  7.04D-01  9.47D-01  8.46D-01
                    CP:  1.14D+00  9.71D-01  1.18D+00
 E= -421.071927019501     Delta-E=       -0.000000003487 Rises=F Damp=F
 DIIS: error= 8.78D-07 at cycle   9 NSaved=   9.
 NSaved= 9 IEnMin= 9 EnMin= -421.071927019501     IErMin= 9 ErrMin= 8.78D-07
 ErrMax= 8.78D-07  0.00D+00 EMaxC= 1.00D-01 BMatC= 2.08D-10 BMatP= 1.50D-09
 IDIUse=1 WtCom= 1.00D+00 WtEn= 0.00D+00
 Coeff-Com: -0.621D-04 0.749D-03 0.191D-03-0.324D-02-0.109D-01-0.287D-01
 Coeff-Com: -0.734D-02 0.307D+00 0.743D+00
 Coeff:     -0.621D-04 0.749D-03 0.191D-03-0.324D-02-0.109D-01-0.287D-01
 Coeff:     -0.734D-02 0.307D+00 0.743D+00
 Gap=     0.239 Goal=   None    Shift=    0.000
 RMSDP=4.83D-07 MaxDP=3.69D-05 DE=-3.49D-09 OVMax= 9.28D-06

 Cycle  10  Pass 1  IDiag  1:
 RMSU=  3.15D-07    CP:  1.13D+00  1.09D+00  7.04D-01  9.47D-01  8.47D-01
                    CP:  1.14D+00  9.58D-01  1.24D+00  1.07D+00
 E= -421.071927019820     Delta-E=       -0.000000000319 Rises=F Damp=F
 DIIS: error= 3.31D-07 at cycle  10 NSaved=  10.
 NSaved=10 IEnMin=10 EnMin= -421.071927019820     IErMin=10 ErrMin= 3.31D-07
 ErrMax= 3.31D-07  0.00D+00 EMaxC= 1.00D-01 BMatC= 4.21D-11 BMatP= 2.08D-10
 IDIUse=1 WtCom= 1.00D+00 WtEn= 0.00D+00
 Coeff-Com: -0.503D-05-0.347D-04 0.176D-03 0.945D-03 0.195D-02-0.378D-02
 Coeff-Com: -0.311D-01-0.550D-01 0.303D+00 0.784D+00
 Coeff:     -0.503D-05-0.347D-04 0.176D-03 0.945D-03 0.195D-02-0.378D-02
 Coeff:     -0.311D-01-0.550D-01 0.303D+00 0.784D+00
 Gap=     0.239 Goal=   None    Shift=    0.000
 RMSDP=2.02D-07 MaxDP=1.01D-05 DE=-3.19D-10 OVMax= 4.59D-06

 Cycle  11  Pass 1  IDiag  1:
 RMSU=  1.07D-07    CP:  1.13D+00  1.09D+00  7.04D-01  9.47D-01  8.47D-01
                    CP:  1.14D+00  9.57D-01  1.27D+00  1.13D+00  9.56D-01
 E= -421.071927019894     Delta-E=       -0.000000000074 Rises=F Damp=F
 DIIS: error= 1.02D-07 at cycle  11 NSaved=  11.
 NSaved=11 IEnMin=11 EnMin= -421.071927019894     IErMin=11 ErrMin= 1.02D-07
 ErrMax= 1.02D-07  0.00D+00 EMaxC= 1.00D-01 BMatC= 1.89D-12 BMatP= 4.21D-11
 IDIUse=1 WtCom= 1.00D+00 WtEn= 0.00D+00
 Coeff-Com:  0.326D-05-0.564D-04 0.282D-05 0.437D-03 0.963D-03 0.182D-02
 Coeff-Com: -0.366D-02-0.338D-01-0.936D-02 0.104D+00 0.939D+00
 Coeff:      0.326D-05-0.564D-04 0.282D-05 0.437D-03 0.963D-03 0.182D-02
 Coeff:     -0.366D-02-0.338D-01-0.936D-02 0.104D+00 0.939D+00
 Gap=     0.239 Goal=   None    Shift=    0.000
 RMSDP=9.20D-08 MaxDP=5.53D-06 DE=-7.37D-11 OVMax= 1.29D-06

 Cycle  12  Pass 1  IDiag  1:
 RMSU=  3.81D-08    CP:  1.13D+00  1.09D+00  7.04D-01  9.47D-01  8.47D-01
                    CP:  1.14D+00  9.54D-01  1.27D+00  1.15D+00  9.65D-01
                    CP:  1.18D+00
 E= -421.071927019895     Delta-E=       -0.000000000001 Rises=F Damp=F
 DIIS: error= 1.11D-07 at cycle  12 NSaved=  12.
 NSaved=12 IEnMin=12 EnMin= -421.071927019895     IErMin=11 ErrMin= 1.02D-07
 ErrMax= 1.11D-07  0.00D+00 EMaxC= 1.00D-01 BMatC= 6.54D-13 BMatP= 1.89D-12
 IDIUse=1 WtCom= 1.00D+00 WtEn= 0.00D+00
 Coeff-Com:  0.197D-05-0.208D-04-0.200D-04 0.100D-03 0.172D-03 0.125D-02
 Coeff-Com:  0.215D-02-0.891D-02-0.390D-01-0.461D-01 0.452D+00 0.639D+00
 Coeff:      0.197D-05-0.208D-04-0.200D-04 0.100D-03 0.172D-03 0.125D-02
 Coeff:      0.215D-02-0.891D-02-0.390D-01-0.461D-01 0.452D+00 0.639D+00
 Gap=     0.239 Goal=   None    Shift=    0.000
 RMSDP=1.65D-08 MaxDP=7.92D-07 DE=-7.96D-13 OVMax= 5.58D-07

 Cycle  13  Pass 1  IDiag  1:
 RMSU=  1.15D-08    CP:  1.13D+00  1.09D+00  7.04D-01  9.47D-01  8.47D-01
                    CP:  1.14D+00  9.55D-01  1.27D+00  1.15D+00  9.73D-01
                    CP:  1.19D+00  8.89D-01
 E= -421.071927019894     Delta-E=        0.000000000001 Rises=F Damp=F
 DIIS: error= 3.46D-08 at cycle  13 NSaved=  13.
 NSaved=13 IEnMin=12 EnMin= -421.071927019895     IErMin=13 ErrMin= 3.46D-08
 ErrMax= 3.46D-08  0.00D+00 EMaxC= 1.00D-01 BMatC= 7.91D-14 BMatP= 6.54D-13
 IDIUse=1 WtCom= 1.00D+00 WtEn= 0.00D+00
 Coeff-Com:  0.351D-06 0.758D-07-0.932D-05-0.249D-04-0.887D-04 0.257D-03
 Coeff-Com:  0.164D-02 0.159D-02-0.154D-01-0.384D-01 0.351D-01 0.279D+00
 Coeff-Com:  0.737D+00
 Coeff:      0.351D-06 0.758D-07-0.932D-05-0.249D-04-0.887D-04 0.257D-03
 Coeff:      0.164D-02 0.159D-02-0.154D-01-0.384D-01 0.351D-01 0.279D+00
 Coeff:      0.737D+00
 Gap=     0.239 Goal=   None    Shift=    0.000
 RMSDP=9.06D-09 MaxDP=5.24D-07 DE= 5.68D-13 OVMax= 2.07D-07

 SCF Done:  E(RM062X) =  -421.071927020     A.U. after   13 cycles
            NFock= 13  Conv=0.91D-08     -V/T= 2.0034
 KE= 4.196321737957D+02 PE=-1.808820584130D+03 EE= 5.489489995881D+02
 Leave Link  502 at Sun Oct 13 19:59:09 2019, MaxMem= 10737418240 cpu:             234.0 elap:               9.8
 (Enter /apps/cent7/gaussian/g16-A.03/g16-haswell/g16/l701.exe)
 ... and contract with generalized density number  0.
 Compute integral first derivatives.
 Leave Link  701 at Sun Oct 13 19:59:09 2019, MaxMem= 10737418240 cpu:               2.8 elap:               0.1
 (Enter /apps/cent7/gaussian/g16-A.03/g16-haswell/g16/l702.exe)
 L702 exits ... SP integral derivatives will be done elsewhere.
 Leave Link  702 at Sun Oct 13 19:59:09 2019, MaxMem= 10737418240 cpu:               0.5 elap:               0.0
 (Enter /apps/cent7/gaussian/g16-A.03/g16-haswell/g16/l703.exe)
 Integral derivatives from FoFJK, PRISM(SPDF).
 Compute integral first derivatives, UseDBF=F ICtDFT=           0.
 Calling FoFJK, ICntrl=      2127 FMM=F ISym2X=0 I1Cent= 0 IOpClX= 0 NMat=1 NMatS=1 NMatT=0.
[...]
     6          1.28710316          3.69532228         -2.74889650
     6          2.05622640          4.95340154         -0.55959107
     6          1.92342466          3.73753924          1.74510970
     8          1.20214687          0.93354392          6.42204342
     1          0.15322808         -3.11212230          5.94601932
     1         -0.44115047         -1.94484261         -0.24850958
     1         -0.19358294          0.26739854         -4.36252081
     1          1.39378389          4.66054101         -4.55188038
     1          2.76733530          6.86769863         -0.66730257
     1          2.57881258          4.73839667          3.41229973
     1          1.51008670          2.73778517          6.37831125

 Electric dipole moment (dipole orientation):
 (Debye = 10**-18 statcoulomb cm , SI units = C m)
                  (au)            (Debye)         (10**-30 SI)
   Tot        0.108719D+01      0.276337D+01      0.921762D+01
   x          0.000000D+00      0.000000D+00      0.000000D+00
   y          0.000000D+00      0.000000D+00      0.000000D+00
   z          0.108719D+01      0.276337D+01      0.921762D+01

 Dipole polarizability, Alpha (dipole orientation).
 (esu units = cm**3 , SI units = C**2 m**2 J**-1)
 Alpha(0;0):
               (au)            (10**-24 esu)      (10**-40 SI)
   iso        0.834353D+02      0.123638D+02      0.137566D+02
   aniso      0.673970D+02      0.998721D+01      0.111123D+02
   xx         0.479725D+02      0.710879D+01      0.790960D+01
   yx         0.144205D+02      0.213690D+01      0.237762D+01
   yy         0.904571D+02      0.134044D+02      0.149144D+02
   zx         0.281114D+01      0.416568D+00      0.463495D+00
   zy        -0.155037D+02     -0.229741D+01     -0.255621D+01
   zz         0.111876D+03      0.165783D+02      0.184459D+02

 ----------------------------------------------------------------------
 1\1\GINC-BROWN-A151\Freq\RM062X\6-311++G(d,p)\C7H7O2(1+)\FINEJ\13-Oct-
 2019\0\\#P Geom=AllCheck Guess=TCheck SCRF=Check GenChk RM062X/6-311++
 G(d,p) Freq\\Title Card Required\\1,1\O,-2.5228661673,-0.0595015216,0.
 5853593849\C,-1.9799191601,1.077471674,0.3357938629\C,-0.5563008918,1.
 1582414919,0.1757475651\C,0.1855756715,-0.0358586244,0.135049631\C,1.5
 571174169,0.0259697621,-0.0304254295\C,2.1874479317,1.2640622378,-0.14
 506186\C,1.4554595821,2.4526111942,-0.0939994445\C,0.0849965114,2.4059
 966422,0.0671869894\O,-2.8006258041,2.0715056497,0.2514093263\H,-3.492
 608025,-0.0065225852,0.648715828\H,-0.3183628859,-0.9901894986,0.22168
 53727\H,2.1374868072,-0.8866354509,-0.0702252252\H,3.2627014294,1.3071
 998353,-0.2729162995\H,1.959366869,3.407042458,-0.172515403\H,-0.45819
 26053,3.3441442294,0.1301218681\H,-2.3812138895,2.9085539662,0.0021973
 232\\Version=ES64L-G16RevA.03\State=1-A\HF=-421.0949269\RMSD=3.215e-09
 \RMSF=4.223e-06\ZeroPoint=0.1288734\Thermal=0.1288735\Dipole=-0.987458
 5,0.4532481,-0.0385271\DipoleDeriv=-1.1817725,-0.4977237,0.184189,-0.8
 862819,-0.9054574,0.2007343,0.2504021,0.1585029,-0.3558396,3.0819056,-
 0.0011012,-0.2713212,0.2144424,1.6688219,-0.2498474,-0.3231285,-0.2043
 751,0.5335243,-1.5259838,-0.0450154,0.1672316,-0.0599224,-0.0410466,0.
 0145683,0.1729312,0.0154874,-0.0655991,0.4424216,0.2391847,-0.0674217,
 -0.3128696,-0.0412583,0.0344171,-0.0226488,-0.0398628,-0.0383747,-0.30
 37176,-0.3662404,0.0374166,-0.3156445,-0.089532,0.0379261,0.0449875,0.
 0506198,-0.0940694,0.264507,0.0017405,-0.032636,-0.057842,0.2604832,-0
 .0040462,-0.0327214,-0.013471,-0.0086723,-0.4314032,0.2983797,0.031007
 7,0.340645,-0.035468,-0.0384672,0.0256797,-0.02138,-0.0935838,0.450106
 7,-0.1635967,-0.060878,0.3371681,-0.0224847,-0.0336759,-0.1214473,0.01
 47589,-0.0555201,-1.0916792,0.4210218,-0.0032938,0.7278434,-0.9573825,
 0.0481644,-0.010972,0.0599893,-0.3014254,0.6081565,0.1451097,-0.047567
 7,0.1270434,0.3555078,-0.0061733,-0.0662123,-0.0105712,0.3989496,0.082
 2467,-0.0138342,0.0070039,-0.0118768,0.0964171,0.0018391,-0.0015482,0.
 0041021,0.1447484,0.0815304,0.0095289,0.0076322,0.0132771,0.061826,0.0
 00883,0.003456,0.0005271,0.1498061,0.0669416,-0.0010745,0.0083713,-0.0
 009268,0.0970832,0.0009739,0.0077338,0.0018467,0.1357265,0.0869017,-0.
 0050313,0.0079103,-0.0088919,0.0559104,0.0033312,0.0134436,0.0002978,0
 .1505071,0.0099443,0.0742134,0.0096396,0.0670247,0.0379811,-0.0014261,
 0.0183644,-0.0055263,0.1395992,0.3598942,-0.0955611,0.0227163,-0.17318
 81,0.458599,-0.0092013,0.0416801,-0.0109456,0.3602231\Polar=119.191847
 2,1.5831588,87.2371045,-8.6129869,-2.9164642,43.876952\Quadrupole=12.1
 669429,0.3530804,-12.5200233,0.5283415,-2.4655403,-1.076906\PG=C01 [X(
 C7H7O2)]\NImag=0\\0.70792436,0.10633298,0.52733830,-0.07229286,-0.0944
 2526,0.06934712,-0.20161175,-0.09825589,0.03047836,0.76759624,-0.15504
 243,-0.37436204,0.06754565,0.01074727,0.83120809,0.03956977,0.06248107
 ,-0.08366871,-0.05958827,-0.10378047,0.23063362,-0.03818156,-0.0375703
 7,0.01085503,-0.23458980,-0.00458891,0.01725760,0.65545187,-0.04742876
 ,-0.00650828,0.00762729,-0.00678391,-0.11267499,0.00246639,0.00291659,
 0.71133785,0.01259192,0.00623220,0.00846218,0.01806575,0.00344027,-0.0
 7322462,-0.05939201,-0.02644718,0.13286831,-0.00000472,0.00783579,-0.0
 0060053,-0.04665624,0.02482662,0.00289923,-0.14922075,0.05801725,0.010
 00766,0.70623075,-0.00638788,-0.00905359,0.00201388,0.02637779,0.01501
 760,-0.00420666,0.10151287,-0.27325874,-0.00264190,0.04848264,0.721858
 38,0.00120493,0.00038621,-0.00041640,0.00129730,-0.00439252,-0.0061903
 6,0.00944896,0.00187472,-0.05738788,-0.06760511,-0.02492472,0.15027349
 ,-0.00000759,-0.00239124,-0.00021335,0.01144137,0.00835042,0.00008614,
 -0.03911404,0.06408396,0.00224339,-0.35934123,-0.04183842,0.03706963,0
 .70505363,-0.00190887,-0.00158106,0.00027330,0.01282260,-0.00505676,-0
 .00045106,0.01615561,0.03403357,-0.00412253,0.03144333,-0.13385780,-0.
 00109140,-0.04937835,0.73363243,-0.00042305,0.00000340,-0.00041662,-0.
 00055013,-0.00042141,0.00912640,0.00435632,-0.00746882,0.00550793,0.03
 450885,0.00664579,-0.06821284,-0.06636644,-0.01353068,0.14361819,0.000
 28097,0.00078506,-0.00015329,-0.00051988,0.00030542,0.00005178,-0.0011
 3319,0.00312817,-0.00103568,-0.01951453,-0.03497540,0.00386259,-0.1759
 8460,-0.11775375,0.01720937,0.74575796,-0.00362551,-0.00252769,0.00120
 801,0.00298558,-0.00561837,-0.00111166,-0.00051371,-0.06218457,0.00315
 311,-0.08377521,0.03383308,0.00848292,-0.04179281,-0.29991836,0.013038
 74,0.00422581,0.67003580,0.00002597,0.00008339,-0.00009665,-0.00014565
 ,-0.00014888,-0.00159800,-0.00067625,0.00130597,-0.00660564,0.00514304
 ,0.00333478,0.00286251,0.01510369,0.02201689,-0.06593346,-0.07072067,-
 0.01740982,0.15746953,-0.00688786,-0.00650869,0.00194139,0.01826449,-0
 .00494106,-0.00181720,-0.03688842,-0.06961015,0.00804879,-0.05400915,0
 .03156353,0.00485296,0.07351450,0.02659328,-0.00879031,-0.18768441,0.0
 4891065,0.01256955,0.70007374,0.00117257,0.00471933,-0.00085316,-0.012
 21813,-0.00797594,0.00229821,-0.01962473,0.02693275,0.00110776,0.02303
 206,-0.01417055,-0.00258105,-0.01634624,-0.05183825,0.00384201,0.12531
 587,-0.28145858,-0.00807567,0.04629437,0.73618123,0.00026235,0.0002648
 4,-0.00055420,-0.00096567,0.00110609,0.00805507,0.00526990,0.00809521,
 0.00516658,0.00523248,-0.00346352,-0.00437071,-0.00746398,-0.00120220,
 0.00549781,0.01077739,0.00038863,-0.06437384,-0.06697104,-0.02015557,0
 .14071370,0.00045493,0.00806046,-0.00106300,-0.04323896,-0.02933365,0.
 00546082,-0.13519356,-0.04831695,0.00952789,0.05613489,-0.01558844,-0.
 00598075,-0.04973502,-0.02664793,0.00635894,-0.02969746,0.08013824,0.0
 0171025,-0.36173997,-0.05055914,0.03652672,0.70218225,0.01101135,0.007
 69048,-0.00259512,-0.03193978,0.00839804,0.00342671,-0.08859383,-0.284
 32980,0.01702964,0.02625694,-0.05658969,-0.00103220,-0.03486528,-0.019
 27764,0.00431265,0.02850339,0.04211373,-0.00405160,0.02342586,-0.13069
 985,-0.00130088,-0.04061920,0.70997987,0.00020736,-0.00110344,0.003304
 69,0.00613735,0.00309958,-0.00714481,0.01034195,0.01090298,-0.05487518
 ,-0.00737173,0.00403444,0.00502587,0.00678366,0.00386880,-0.00477250,0
 .00336203,-0.01120595,0.00351445,0.03424816,0.00779068,-0.06538346,-0.
 06737249,-0.00457171,0.14252120,0.02873928,-0.00565390,-0.00147789,-0.
 27035019,0.13662661,0.00187245,-0.03717212,0.03995395,-0.00045830,0.00
 090755,-0.01079429,0.00070270,-0.00540326,-0.00106552,0.00083570,0.000
 15341,0.00215771,-0.00002002,-0.00130635,0.00196543,0.00021973,0.00397
 370,0.00647450,-0.00078042,0.42736103,0.02817729,-0.10248626,0.0177546
 0,0.15327601,-0.30385824,0.02612488,0.03338757,0.00058116,-0.00087065,
 -0.00844418,0.00702820,0.00123439,0.00466266,0.00475056,-0.00118901,-0
 .00096591,-0.00108054,0.00037715,0.00419258,-0.00060808,-0.00081184,-0
 .00857667,-0.01284695,0.00121734,-0.00972926,0.77355886,-0.00633040,0.
 02255257,0.01251424,-0.00607660,0.03015270,-0.06462959,0.00219902,-0.0
 0044912,0.01749972,0.00101683,0.00019109,0.00629901,-0.00022230,0.0000
 1993,-0.00232070,0.00016052,-0.00004946,0.00048625,-0.00034729,-0.0001
 8092,-0.00075397,0.00071781,0.00022943,-0.00006521,-0.05413217,-0.1555
 7223,0.08018981,-0.48406705,0.01977014,0.03148736,-0.02501502,-0.01468
 592,0.00484588,0.00629212,-0.00045517,-0.00033583,-0.00052904,0.001102
 87,-0.00015227,0.00045590,0.00062168,-0.00001978,-0.00003252,0.0003688
 9,0.00002319,0.00117110,-0.00095295,-0.00013441,-0.00132013,-0.0010210
 6,0.00055476,-0.00019448,0.00923784,-0.00208057,0.50389338,0.06550451,
 -0.04721399,0.00052586,-0.05428406,0.00029667,0.00465086,0.00072618,-0
 .00504418,0.00170785,0.00060295,-0.00021779,-0.00019573,0.00014668,0.0
 0037647,-0.00010989,0.00013879,-0.00010029,0.00001313,-0.00001910,-0.0
 0049108,-0.00012789,-0.00106875,0.00050150,0.00037875,0.00214362,0.001
 12781,-0.00143617,-0.01424144,0.05086420,0.02283468,0.00374421,-0.0181
 1909,0.01286025,0.00154345,0.00076217,-0.00094028,0.00200220,0.0049304
 7,-0.00008430,-0.00031620,-0.00032399,0.00005316,-0.00012909,-0.000017
 81,-0.00001141,-0.00025644,0.00019932,-0.00046976,0.00047685,-0.000541
 55,0.00105745,0.00022898,0.00126161,-0.00107415,-0.00156900,-0.0040352
 7,-0.03407204,-0.00561764,0.01688445,-0.00424709,-0.00000195,0.0008971
 8,0.00222103,0.00236652,-0.00082970,0.01079916,0.01549407,-0.00155661,
 -0.12150078,-0.12041878,0.01262993,-0.00737389,-0.02741095,0.00250103,
 -0.00559785,0.00032978,0.00169168,-0.00105885,0.00069729,-0.00013498,-
 0.00175794,0.00372868,0.00076840,0.00009456,-0.00082462,0.00013042,-0.
 00013164,-0.00011407,-0.00003621,0.12718218,-0.00061577,0.00106989,-0.
 00005284,-0.00149676,-0.00259149,0.00028043,-0.01223836,-0.01683898,0.
 00214951,-0.11910673,-0.28770488,0.02115651,0.00258855,0.00580196,-0.0
 0018582,0.00099192,0.00046252,0.00008259,-0.00030161,0.00070097,0.0000
 0947,0.00428770,-0.00157056,-0.00033353,0.00001058,0.00067601,-0.00004
 554,0.00016596,0.00067133,-0.00002272,0.12642378,0.29945589,0.00113743
 ,-0.00014477,0.00050671,-0.00029447,-0.00011038,-0.00310137,-0.0013083
 8,-0.00129046,0.00246828,0.01278378,0.02115087,-0.04251055,0.00177159,
 0.00336571,0.00657320,0.00165622,0.00009730,0.00808706,-0.00013009,-0.
 00021075,-0.00146751,0.00068737,-0.00015245,0.00569737,-0.00016488,0.0
 0038232,0.00020890,-0.00004824,0.00005333,-0.00022093,-0.01538914,-0.0
 2295493,0.02864875,-0.00010257,-0.00016535,0.00002973,-0.00009203,0.00
 163518,0.00003945,-0.00453503,-0.00134280,0.00157970,-0.01230113,0.026
 68792,0.00107037,-0.14318633,0.13262734,0.00778472,0.01255068,-0.01479
 548,-0.00050552,-0.00090635,-0.00343516,0.00109577,-0.00057607,-0.0008
 7140,0.00002651,-0.00071376,0.00005104,-0.00007066,0.00002684,0.000026
 21,0.,0.00085186,-0.00009658,-0.00062875,0.14793529,0.00001947,-0.0000
 2636,-0.00000156,-0.00012216,0.00051909,0.00005290,-0.00146597,0.00139
 848,0.00043358,-0.00388366,0.00684903,0.00038328,0.13310829,-0.2680806
 7,-0.00856453,0.01573655,-0.01700479,-0.00117379,-0.00314621,-0.003148
 65,0.00069173,-0.00112559,0.00000054,0.00010804,-0.00029271,0.00002858
 ,-0.00003907,0.00001631,0.00002170,-0.00000176,0.00015860,0.00051220,-
 0.00020125,-0.13987043,0.27890946,0.00004567,0.00000136,0.00002512,0.0
 0019648,-0.00013793,0.00073812,0.00148654,0.00016838,0.00806295,0.0019
 3338,-0.00328411,0.00358479,0.00774986,-0.00846869,-0.04180017,-0.0015
 2450,0.00248092,0.00432347,0.00115742,0.00078783,0.00734506,0.00003290
 ,0.00011251,-0.00104648,0.00003985,-0.00002914,-0.00053039,0.00000233,
 0.00000020,0.00002675,-0.00062902,-0.00015522,-0.00436478,-0.00973581,
 0.00855451,0.02861484,0.00020506,0.00025917,-0.00003574,-0.00101945,-0
 .00007776,-0.00006302,0.00161718,0.00004038,-0.00021496,0.00015112,-0.
 00190126,0.00091462,-0.00693780,0.00208921,0.00159161,-0.34548367,-0.0
 1132739,0.03561233,-0.00916776,-0.00306897,0.00197455,-0.00017188,0.00
 229629,0.00085167,0.00017864,-0.00028391,0.00001540,-0.00004991,0.0000
 0490,0.00001791,-0.00035948,0.00021171,-0.00006572,0.00049995,-0.00002
 177,-0.00050281,0.36043939,-0.00005483,0.00013217,-0.00000352,0.000136
 68,-0.00042488,-0.00005585,0.00000430,-0.00130167,0.00008359,-0.002998
 83,-0.00495158,0.00078980,-0.02805771,0.00406074,0.00336113,-0.0113829
 0,-0.06155069,0.00180380,0.02714100,0.00571515,-0.00314584,0.00343060,
 -0.00421973,-0.00007041,-0.00001652,0.00030270,-0.00000815,0.00001342,
 0.00002319,-0.00000408,-0.00132137,0.00015723,0.00012127,0.00032315,0.
 00080431,-0.00018363,0.01190307,0.06051808,0.00010220,-0.00000286,0.00
 016871,-0.00003173,0.00001285,-0.00153168,-0.00026523,-0.00015405,-0.0
 0045073,0.00103247,0.00078318,0.00764281,0.00261122,-0.00021584,0.0068
 6151,0.03558928,0.00180398,-0.05045755,0.00101529,0.00025204,0.0066721
 2,0.00070657,0.00011039,0.00740468,-0.00009542,0.00006797,0.00020862,-
 0.00000982,0.00001590,0.00000138,-0.00004098,-0.00005496,-0.00089463,-
 0.00051917,-0.00013069,-0.00379851,-0.03955314,-0.00243135,0.03253538,
 -0.00070434,-0.00005616,0.00004118,0.00005282,-0.00150772,0.00018144,-
 0.00471785,0.00118285,0.00136754,-0.00069324,0.00076944,-0.00010531,-0
 .00159628,0.00356411,0.00089612,0.01252069,0.01714168,-0.00137537,-0.1
 2210563,-0.12027189,0.01224962,-0.01059773,-0.02780209,0.00212625,-0.0
 0011721,0.00016755,0.00000796,-0.00000855,-0.00009845,0.00002379,0.000
 05320,-0.00008193,-0.00009409,0.00050251,0.00080481,-0.00012773,0.0005
 2145,-0.00036988,-0.00047096,0.12609629,0.00020816,0.00005023,-0.00006
 008,0.00004907,0.00040589,0.00003871,0.00104811,0.00160692,0.00002651,
 0.00111548,0.00005605,-0.00013348,0.00336641,-0.00263337,-0.00017741,-
 0.01346701,-0.01680391,0.00202632,-0.12101386,-0.28788251,0.01923886,0
 .00278403,0.00483630,-0.00028690,-0.00001664,-0.00004519,0.00000100,0.
 00000658,0.00001830,-0.00001506,-0.00006948,-0.00000355,-0.00001062,-0
 .00071732,-0.00073186,0.00011493,-0.00001681,0.00078716,-0.00007355,0.
 12685542,0.29966538,0.00008431,0.00006214,-0.00043875,-0.00003855,0.00
 024388,0.00112895,0.00166199,0.00009241,0.00794611,-0.00002300,-0.0001
 6967,-0.00118423,0.00080438,-0.00017279,0.00717857,-0.00073307,-0.0011
 0324,0.00411680,0.01243387,0.01890829,-0.04188340,0.00134496,0.0028858
 4,0.00291377,-0.00000928,-0.00005020,-0.00000096,-0.00005274,-0.000015
 74,-0.00014231,-0.00009120,-0.00002452,-0.00087252,-0.00006977,-0.0000
 8385,-0.00021325,-0.00051608,-0.00007635,-0.00365609,-0.01412147,-0.02
 056460,0.02946943,0.00066435,0.00026776,-0.00006845,-0.00079670,0.0010
 0264,-0.00060862,0.01180344,-0.01172532,-0.00096779,-0.00140294,-0.003
 05751,0.00097950,-0.00054742,-0.00047769,-0.00010444,-0.00604911,-0.00
 148019,0.00176880,-0.01122552,0.02989378,0.00176121,-0.12826505,0.1174
 1868,0.01024228,-0.00209671,-0.00162684,0.00025157,-0.00006740,0.00006
 620,0.00000823,0.00059961,-0.00058674,0.00015068,0.00006233,0.00007477
 ,-0.00014131,-0.00052633,0.00146729,-0.00006466,0.00083182,-0.00011076
 ,-0.00071097,0.13937308,-0.00056226,0.00067658,-0.00003147,0.00457970,
 -0.00355480,-0.00012416,0.01414196,-0.01540782,-0.00132584,-0.00452451
 ,-0.00246225,0.00053348,-0.00001811,0.00051467,-0.00000351,-0.00069922
 ,0.00087773,0.00000027,-0.00243427,0.00457831,0.00030649,0.12289930,-0
 .26848459,-0.01369402,-0.00030388,0.00418507,-0.00018628,-0.00011777,-
 0.00019178,0.00002850,0.00090108,-0.00069063,-0.00004910,0.00007289,-0
 .00000226,-0.00000699,-0.00018045,0.00002237,0.00001279,-0.00009695,0.
 00063604,0.00003117,-0.12949341,0.27957376,0.00012458,0.00017702,-0.00
 015098,-0.00050610,0.00001423,-0.00298340,-0.00098507,0.00231863,0.001
 04857,0.00115014,0.00055069,0.00561590,-0.00020207,-0.00012529,-0.0013
 2581,0.00142457,0.00036415,0.00801413,0.00188592,-0.00307689,0.0060603
 0,0.01064595,-0.01484212,-0.03732875,-0.00010793,0.00007291,-0.0001285
 6,-0.00000994,0.00003849,0.00019280,0.00009174,0.00015894,0.00126987,-
 0.00013969,-0.00003663,-0.00099067,-0.00003376,-0.00015755,-0.00071009
 ,-0.00061989,-0.00013138,-0.00440127,-0.01214658,0.01483609,0.02399120
 ,-0.00245442,0.00729217,0.00017487,0.02431408,0.02431676,-0.00935774,-
 0.00521746,0.00084583,0.00052853,0.00174941,-0.00153508,-0.00019007,-0
 .00123793,-0.00127409,0.00021150,0.00043351,0.00105196,-0.00020504,-0.
 00004356,-0.00189417,0.00030036,-0.00045198,0.00659694,-0.00012575,-0.
 14405409,-0.20270117,0.06476045,-0.00042361,0.00046583,-0.00016733,0.0
 0022592,-0.00015573,-0.00006332,-0.00001620,0.00000970,0.00001676,0.00
 010349,-0.00021746,-0.00000592,-0.00003794,-0.00002137,0.00003660,-0.0
 0235746,-0.00416411,-0.00057187,0.12946821,0.00319997,0.00208229,0.001
 07444,-0.00587403,-0.03972787,0.00790969,-0.00529731,0.00165832,0.0000
 4409,0.00112006,-0.00237547,-0.00049021,-0.00161881,-0.00092648,0.0004
 4737,0.00011321,0.00092492,-0.00018452,-0.00014632,-0.00055426,0.00010
 640,0.00023599,0.00449835,-0.00013464,-0.16145968,-0.37131368,0.104820
 21,0.00017063,-0.00064208,-0.00009219,0.00006141,-0.00010791,-0.000046
 09,-0.00012921,-0.00004880,0.00004509,0.00007359,-0.00007454,0.0000041
 8,-0.00020079,0.00003810,0.00003722,-0.00163266,-0.00027038,-0.0001613
 1,0.17138396,0.40683950,0.00085514,-0.00031207,0.00953263,-0.00083831,
 0.00183291,-0.00637180,0.00068989,-0.00104457,-0.00141703,-0.00002320,
 0.00030206,-0.00070743,0.00019140,-0.00003507,0.00043630,0.00008488,0.
 00011881,-0.00000838,0.00037234,-0.00032967,-0.00018201,-0.00036142,0.
 00020994,-0.00102725,0.05465003,0.11286053,-0.04494189,0.00000211,0.00
 011868,-0.00085799,-0.00000254,-0.00000737,-0.00002785,0.00004312,0.00
 000908,0.00002314,0.00000715,-0.00002286,0.00000406,0.00002092,0.00000
 674,0.00003916,-0.00034946,-0.00032741,0.00182679,-0.05534205,-0.11337
 973,0.04367957\\-0.00000401,-0.00000153,0.00000154,0.00000597,-0.00000
 077,0.00000074,-0.00000980,-0.00000043,0.00000001,0.00000085,0.0000034
 0,0.00000448,-0.00000334,-0.00000445,0.00000385,0.00000197,0.00000109,
 -0.00000056,0.00000567,-0.00000042,-0.00000325,-0.00000004,-0.00000386
 ,-0.00000323,0.00000251,0.00001412,0.00000309,0.00000125,0.00000555,0.
 00000276,-0.00000288,-0.00000133,0.00000521,-0.00000143,-0.00000333,0.
 00000552,0.00000069,-0.00000357,-0.00000063,0.00000269,-0.00000199,-0.
 00000647,0.00000453,0.00000132,-0.00000513,-0.00000465,-0.00000381,-0.
 00000794\\\@


 ALL MY ATTEMPTS TO ADAPT THE THEORETICAL FOUNDATIONS OF PHYSICS
 TO THESE NEW NOTIONS FAILED COMPLETELY. IT WAS AS IF THE GROUND HAD
 BEEN PULLED OUT FROM UNDER ONE WITH NO FIRM FOUNDATION TO BE SEEN ANYWHERE,
 UPON WHICH ONE COULD HAVE BUILT.  -- A.EINSTEIN
 Job cpu time:       0 days  0 hours 32 minutes 48.4 seconds.
 Elapsed time:       0 days  0 hours  1 minutes 23.5 seconds.
 File lengths (MBytes):  RWF=     99 Int=      0 D2E=      0 Chk=      6 Scr=      1
 Normal termination of Gaussian 16 at Sun Oct 13 20:05:21 2019.
real 398.22
user 9228.09
sys 37.79
Machine:
brown-a151
brown-a151
brown-a151
brown-a151
brown-a151
brown-a151
brown-a151
brown-a151
brown-a151
brown-a151
brown-a151
brown-a151
brown-a151
brown-a151
brown-a151
brown-a151
brown-a151
brown-a151
brown-a151
brown-a151
brown-a151
brown-a151
brown-a151
brown-a151
