 Entering Gaussian System, Link 0=/apps/cent7/gaussian/g16-A.03/g16-haswell/g16/g16
 Initial command:
 /apps/cent7/gaussian/g16-A.03/g16-haswell/g16/l1.exe "/scratch/brown/finej/gaussian/Gau-144650.inp" -scrdir="/scratch/brown/finej/gaussian/"
 Entering Link 1 = /apps/cent7/gaussian/g16-A.03/g16-haswell/g16/l1.exe PID=    144651.
  
 Copyright (c) 1988,1990,1992,1993,1995,1998,2003,2009,2016,
            Gaussian, Inc.  All Rights Reserved.
  
 This is part of the Gaussian(R) 16 program.  It is based on
 the Gaussian(R) 09 system (copyright 2009, Gaussian, Inc.),
 the Gaussian(R) 03 system (copyright 2003, Gaussian, Inc.),
 the Gaussian(R) 98 system (copyright 1998, Gaussian, Inc.),
 the Gaussian(R) 94 system (copyright 1995, Gaussian, Inc.),
 the Gaussian 92(TM) system (copyright 1992, Gaussian, Inc.),
 the Gaussian 90(TM) system (copyright 1990, Gaussian, Inc.),
 the Gaussian 88(TM) system (copyright 1988, Gaussian, Inc.),
 the Gaussian 86(TM) system (copyright 1986, Carnegie Mellon
 University), and the Gaussian 82(TM) system (copyright 1983,
 Carnegie Mellon University). Gaussian is a federally registered
 trademark of Gaussian, Inc.
  
 This software contains proprietary and confidential information,
 including trade secrets, belonging to Gaussian, Inc.
  
 This software is provided under written license and may be
 used, copied, transmitted, or stored only in accord with that
 written license.
  
 The following legend is applicable only to US Government
 contracts under FAR:
  
                    RESTRICTED RIGHTS LEGEND
  
 Use, reproduction and disclosure by the US Government is
 subject to restrictions as set forth in subparagraphs (a)
 and (c) of the Commercial Computer Software - Restricted
 Rights clause in FAR 52.227-19.
  
 Gaussian, Inc.
 340 Quinnipiac St., Bldg. 40, Wallingford CT 06492
  
  
 ---------------------------------------------------------------
 Warning -- This program may not be used in any manner that
 competes with the business of Gaussian, Inc. or will provide
 assistance to any competitor of Gaussian, Inc.  The licensee
 of this program is prohibited from giving any competitor of
 Gaussian, Inc. access to this program.  By using this program,
 the user acknowledges that Gaussian, Inc. is engaged in the
 business of creating and licensing software in the field of
 computational chemistry and represents and warrants to the
 licensee that it is not a competitor of Gaussian, Inc. and that
 it will not use this program in any manner prohibited above.
 ---------------------------------------------------------------
  

 Cite this work as:
 Gaussian 16, Revision A.03,
 M. J. Frisch, G. W. Trucks, H. B. Schlegel, G. E. Scuseria, 
 M. A. Robb, J. R. Cheeseman, G. Scalmani, V. Barone, 
 G. A. Petersson, H. Nakatsuji, X. Li, M. Caricato, A. V. Marenich, 
 J. Bloino, B. G. Janesko, R. Gomperts, B. Mennucci, H. P. Hratchian, 
 J. V. Ortiz, A. F. Izmaylov, J. L. Sonnenberg, D. Williams-Young, 
 F. Ding, F. Lipparini, F. Egidi, J. Goings, B. Peng, A. Petrone, 
 T. Henderson, D. Ranasinghe, V. G. Zakrzewski, J. Gao, N. Rega, 
 G. Zheng, W. Liang, M. Hada, M. Ehara, K. Toyota, R. Fukuda, 
 J. Hasegawa, M. Ishida, T. Nakajima, Y. Honda, O. Kitao, H. Nakai, 
 T. Vreven, K. Throssell, J. A. Montgomery, Jr., J. E. Peralta, 
 F. Ogliaro, M. J. Bearpark, J. J. Heyd, E. N. Brothers, K. N. Kudin, 
 V. N. Staroverov, T. A. Keith, R. Kobayashi, J. Normand, 
 K. Raghavachari, A. P. Rendell, J. C. Burant, S. S. Iyengar, 
 J. Tomasi, M. Cossi, J. M. Millam, M. Klene, C. Adamo, R. Cammi, 
 J. W. Ochterski, R. L. Martin, K. Morokuma, O. Farkas, 
 J. B. Foresman, and D. J. Fox, Gaussian, Inc., Wallingford CT, 2016.
 
 ******************************************
 Gaussian 16:  ES64L-G16RevA.03 25-Dec-2016
                14-Oct-2019 
 ******************************************
 %chk=15.chk
 %nprocshared=24
 Will use up to   24 processors via shared memory.
 %mem=80GB
 -------------------------------------------------------------------
 #p opt freq m062x/6-311++g(d,p) geom=connectivity temperature=0.001
 -------------------------------------------------------------------
 1/18=20,19=15,26=3,38=1,57=2,112=-1000/1,3;
 2/9=110,12=2,17=6,18=5,40=1/2;
 3/5=4,6=6,7=1111,11=2,25=1,30=1,71=1,74=-55/1,2,3;
 4//1;
 5/5=2,38=5/2;
 6/7=2,8=2,9=2,10=2,28=1/1;
 7//1,2,3,16;
 1/18=20,19=15,26=3/3(2);
 2/9=110/2;
 99//99;
 2/9=110/2;
 3/5=4,6=6,7=1111,11=2,25=1,30=1,71=1,74=-55/1,2,3;
 4/5=5,16=3,69=1/1;
 5/5=2,38=5/2;
 7//1,2,3,16;
 1/18=20,19=15,26=3/3(-5);
 2/9=110/2;
 6/7=2,8=2,9=2,10=2,19=2,28=1/1;
 99/9=1/99;
 Leave Link    1 at Mon Oct 14 10:29:33 2019, MaxMem= 10737418240 cpu:               0.9 elap:               0.0
 (Enter /apps/cent7/gaussian/g16-A.03/g16-haswell/g16/l101.exe)
 -------------------
 Title Card Required
 -------------------
 Symbolic Z-matrix:
 Charge =  0 Multiplicity = 1
 O                    -2.39109   1.91231   0.59001 
 C                    -1.8908    0.9201    0. 
 C                    -0.55296   1.18967  -0.53474 
 C                    -0.06074   0.8226   -1.81973 
 C                     1.24338   1.12083  -2.25823 
 C                     2.13028   1.80905  -1.42349 
 C                     1.70186   2.19577  -0.14814 
 C                     0.39559   1.89106   0.2771 
 C                    -2.7752   -0.2487    0. 
 C                    -2.3776   -1.6164    0. 
 C                    -3.2947   -2.6844    0. 
 C                    -4.6712   -2.4349    0. 
 C                    -5.1215   -1.1094    0. 
 C                    -4.1936   -0.0516    0. 
 H                    -0.7169    0.28482  -2.50407 
 H                     1.56928   0.81624  -3.25269 
 H                     3.14024   2.04054  -1.76184 
 H                     2.38329   2.7325    0.51176 
 H                     0.10625   2.21198   1.27786 
 H                    -1.3148   -1.8585    0. 
 H                    -2.9359   -3.7137    0. 
 H                    -5.3823   -3.261     0. 
 H                    -6.1915   -0.9017    0. 
 H                    -4.5904    0.9636    0. 
 
 ITRead=  0  0  0  0  0  0  0  0  0  0  0  0  0  0  0  0  0  0  0  0
 ITRead=  0  0  0  0
 MicOpt= -1 -1 -1 -1 -1 -1 -1 -1 -1 -1 -1 -1 -1 -1 -1 -1 -1 -1 -1 -1
 MicOpt= -1 -1 -1 -1
 NAtoms=     24 NQM=       24 NQMF=       0 NMMI=      0 NMMIF=      0
                NMic=       0 NMicF=      0.
                    Isotopes and Nuclear Properties:
 (Nuclear quadrupole moments (NQMom) in fm**2, nuclear magnetic moments (NMagM)
  in nuclear magnetons)

  Atom         1           2           3           4           5           6           7           8           9          10
 IAtWgt=          16          12          12          12          12          12          12          12          12          12
 AtmWgt=  15.9949146  12.0000000  12.0000000  12.0000000  12.0000000  12.0000000  12.0000000  12.0000000  12.0000000  12.0000000
 NucSpn=           0           0           0           0           0           0           0           0           0           0
 AtZEff=  -0.0000000  -0.0000000  -0.0000000  -0.0000000  -0.0000000  -0.0000000  -0.0000000  -0.0000000  -0.0000000  -0.0000000
 NQMom=    0.0000000   0.0000000   0.0000000   0.0000000   0.0000000   0.0000000   0.0000000   0.0000000   0.0000000   0.0000000
 NMagM=    0.0000000   0.0000000   0.0000000   0.0000000   0.0000000   0.0000000   0.0000000   0.0000000   0.0000000   0.0000000
 AtZNuc=   8.0000000   6.0000000   6.0000000   6.0000000   6.0000000   6.0000000   6.0000000   6.0000000   6.0000000   6.0000000

  Atom        11          12          13          14          15          16          17          18          19          20
 IAtWgt=          12          12          12          12           1           1           1           1           1           1
 AtmWgt=  12.0000000  12.0000000  12.0000000  12.0000000   1.0078250   1.0078250   1.0078250   1.0078250   1.0078250   1.0078250
 NucSpn=           0           0           0           0           1           1           1           1           1           1
 AtZEff=  -0.0000000  -0.0000000  -0.0000000  -0.0000000  -0.0000000  -0.0000000  -0.0000000  -0.0000000  -0.0000000  -0.0000000
 NQMom=    0.0000000   0.0000000   0.0000000   0.0000000   0.0000000   0.0000000   0.0000000   0.0000000   0.0000000   0.0000000
 NMagM=    0.0000000   0.0000000   0.0000000   0.0000000   2.7928460   2.7928460   2.7928460   2.7928460   2.7928460   2.7928460
 AtZNuc=   6.0000000   6.0000000   6.0000000   6.0000000   1.0000000   1.0000000   1.0000000   1.0000000   1.0000000   1.0000000

  Atom        21          22          23          24
 IAtWgt=           1           1           1           1
 AtmWgt=   1.0078250   1.0078250   1.0078250   1.0078250
 NucSpn=           1           1           1           1
 AtZEff=  -0.0000000  -0.0000000  -0.0000000  -0.0000000
 NQMom=    0.0000000   0.0000000   0.0000000   0.0000000
 NMagM=    2.7928460   2.7928460   2.7928460   2.7928460
 AtZNuc=   1.0000000   1.0000000   1.0000000   1.0000000
 Leave Link  101 at Mon Oct 14 10:29:33 2019, MaxMem= 10737418240 cpu:               8.2 elap:               0.4
 (Enter /apps/cent7/gaussian/g16-A.03/g16-haswell/g16/l103.exe)

 GradGradGradGradGradGradGradGradGradGradGradGradGradGradGradGradGradGrad
 Berny optimization.
 Initialization pass.
                           ----------------------------
                           !    Initial Parameters    !
                           ! (Angstroms and Degrees)  !
 --------------------------                            --------------------------
 ! Name  Definition              Value          Derivative Info.                !
 --------------------------------------------------------------------------------
 ! R1    R(1,2)                  1.2581         estimate D2E/DX2                !
 ! R2    R(2,3)                  1.4658         estimate D2E/DX2                !
 ! R3    R(2,9)                  1.4657         estimate D2E/DX2                !
 ! R4    R(3,4)                  1.4242         estimate D2E/DX2                !
 ! R5    R(3,8)                  1.432          estimate D2E/DX2                !
 ! R6    R(4,5)                  1.4078         estimate D2E/DX2                !
 ! R7    R(4,15)                 1.09           estimate D2E/DX2                !
 ! R8    R(5,6)                  1.3989         estimate D2E/DX2                !
 ! R9    R(5,16)                 1.0899         estimate D2E/DX2                !
 ! R10   R(6,7)                  1.3999         estimate D2E/DX2                !
 ! R11   R(6,17)                 1.09           estimate D2E/DX2                !
 ! R12   R(7,8)                  1.4071         estimate D2E/DX2                !
 ! R13   R(7,18)                 1.0899         estimate D2E/DX2                !
 ! R14   R(8,19)                 1.0901         estimate D2E/DX2                !
 ! R15   R(9,10)                 1.4243         estimate D2E/DX2                !
 ! R16   R(9,14)                 1.432          estimate D2E/DX2                !
 ! R17   R(10,11)                1.4077         estimate D2E/DX2                !
 ! R18   R(10,20)                1.09           estimate D2E/DX2                !
 ! R19   R(11,12)                1.3989         estimate D2E/DX2                !
 ! R20   R(11,21)                1.09           estimate D2E/DX2                !
 ! R21   R(12,13)                1.3999         estimate D2E/DX2                !
 ! R22   R(12,22)                1.09           estimate D2E/DX2                !
 ! R23   R(13,14)                1.4071         estimate D2E/DX2                !
 ! R24   R(13,23)                1.09           estimate D2E/DX2                !
 ! R25   R(14,24)                1.09           estimate D2E/DX2                !
 ! A1    A(1,2,3)              112.8917         estimate D2E/DX2                !
 ! A2    A(1,2,9)              112.8894         estimate D2E/DX2                !
 ! A3    A(3,2,9)              134.219          estimate D2E/DX2                !
 ! A4    A(2,3,4)              126.6715         estimate D2E/DX2                !
 ! A5    A(2,3,8)              119.1978         estimate D2E/DX2                !
 ! A6    A(4,3,8)              114.1307         estimate D2E/DX2                !
 ! A7    A(3,4,5)              123.134          estimate D2E/DX2                !
 ! A8    A(3,4,15)             119.0518         estimate D2E/DX2                !
 ! A9    A(5,4,15)             117.8142         estimate D2E/DX2                !
 ! A10   A(4,5,6)              120.3742         estimate D2E/DX2                !
 ! A11   A(4,5,16)             120.1308         estimate D2E/DX2                !
 ! A12   A(6,5,16)             119.495          estimate D2E/DX2                !
 ! A13   A(5,6,7)              119.0452         estimate D2E/DX2                !
 ! A14   A(5,6,17)             120.4435         estimate D2E/DX2                !
 ! A15   A(7,6,17)             120.5113         estimate D2E/DX2                !
 ! A16   A(6,7,8)              119.974          estimate D2E/DX2                !
 ! A17   A(6,7,18)             119.7566         estimate D2E/DX2                !
 ! A18   A(8,7,18)             120.2694         estimate D2E/DX2                !
 ! A19   A(3,8,7)              123.3419         estimate D2E/DX2                !
 ! A20   A(3,8,19)             119.2648         estimate D2E/DX2                !
 ! A21   A(7,8,19)             117.3933         estimate D2E/DX2                !
 ! A22   A(2,9,10)             126.6767         estimate D2E/DX2                !
 ! A23   A(2,9,14)             119.2027         estimate D2E/DX2                !
 ! A24   A(10,9,14)            114.1206         estimate D2E/DX2                !
 ! A25   A(9,10,11)            123.1375         estimate D2E/DX2                !
 ! A26   A(9,10,20)            119.0422         estimate D2E/DX2                !
 ! A27   A(11,10,20)           117.8203         estimate D2E/DX2                !
 ! A28   A(10,11,12)           120.3792         estimate D2E/DX2                !
 ! A29   A(10,11,21)           120.1292         estimate D2E/DX2                !
 ! A30   A(12,11,21)           119.4916         estimate D2E/DX2                !
 ! A31   A(11,12,13)           119.0374         estimate D2E/DX2                !
 ! A32   A(11,12,22)           120.4479         estimate D2E/DX2                !
 ! A33   A(13,12,22)           120.5147         estimate D2E/DX2                !
 ! A34   A(12,13,14)           119.9791         estimate D2E/DX2                !
 ! A35   A(12,13,23)           119.7489         estimate D2E/DX2                !
 ! A36   A(14,13,23)           120.272          estimate D2E/DX2                !
 ! A37   A(9,14,13)            123.346          estimate D2E/DX2                !
 ! A38   A(9,14,24)            119.2596         estimate D2E/DX2                !
 ! A39   A(13,14,24)           117.3943         estimate D2E/DX2                !
 ! D1    D(1,2,3,4)           -136.0            estimate D2E/DX2                !
 ! D2    D(1,2,3,8)             44.0            estimate D2E/DX2                !
 ! D3    D(9,2,3,4)             44.0            estimate D2E/DX2                !
 ! D4    D(9,2,3,8)           -136.0            estimate D2E/DX2                !
 ! D5    D(1,2,9,10)          -149.4            estimate D2E/DX2                !
 ! D6    D(1,2,9,14)            30.6            estimate D2E/DX2                !
 ! D7    D(3,2,9,10)            30.6            estimate D2E/DX2                !
 ! D8    D(3,2,9,14)          -149.4            estimate D2E/DX2                !
 ! D9    D(2,3,4,5)            180.0            estimate D2E/DX2                !
 ! D10   D(2,3,4,15)             0.0            estimate D2E/DX2                !
 ! D11   D(8,3,4,5)              0.0            estimate D2E/DX2                !
 ! D12   D(8,3,4,15)           180.0            estimate D2E/DX2                !
 ! D13   D(2,3,8,7)            180.0            estimate D2E/DX2                !
 ! D14   D(2,3,8,19)             0.0            estimate D2E/DX2                !
 ! D15   D(4,3,8,7)              0.0            estimate D2E/DX2                !
 ! D16   D(4,3,8,19)           180.0            estimate D2E/DX2                !
 ! D17   D(3,4,5,6)              0.0            estimate D2E/DX2                !
 ! D18   D(3,4,5,16)           180.0            estimate D2E/DX2                !
 ! D19   D(15,4,5,6)           180.0            estimate D2E/DX2                !
 ! D20   D(15,4,5,16)            0.0            estimate D2E/DX2                !
 ! D21   D(4,5,6,7)              0.0            estimate D2E/DX2                !
 ! D22   D(4,5,6,17)           180.0            estimate D2E/DX2                !
 ! D23   D(16,5,6,7)           180.0            estimate D2E/DX2                !
 ! D24   D(16,5,6,17)            0.0            estimate D2E/DX2                !
 ! D25   D(5,6,7,8)              0.0            estimate D2E/DX2                !
 ! D26   D(5,6,7,18)           180.0            estimate D2E/DX2                !
 ! D27   D(17,6,7,8)           180.0            estimate D2E/DX2                !
 ! D28   D(17,6,7,18)            0.0            estimate D2E/DX2                !
 ! D29   D(6,7,8,3)              0.0            estimate D2E/DX2                !
 ! D30   D(6,7,8,19)           180.0            estimate D2E/DX2                !
 ! D31   D(18,7,8,3)           180.0            estimate D2E/DX2                !
 ! D32   D(18,7,8,19)            0.0            estimate D2E/DX2                !
 ! D33   D(2,9,10,11)          180.0            estimate D2E/DX2                !
 ! D34   D(2,9,10,20)            0.0            estimate D2E/DX2                !
 ! D35   D(14,9,10,11)           0.0            estimate D2E/DX2                !
 ! D36   D(14,9,10,20)         180.0            estimate D2E/DX2                !
 ! D37   D(2,9,14,13)          180.0            estimate D2E/DX2                !
 ! D38   D(2,9,14,24)            0.0            estimate D2E/DX2                !
 ! D39   D(10,9,14,13)           0.0            estimate D2E/DX2                !
 ! D40   D(10,9,14,24)         180.0            estimate D2E/DX2                !
 ! D41   D(9,10,11,12)           0.0            estimate D2E/DX2                !
 ! D42   D(9,10,11,21)         180.0            estimate D2E/DX2                !
 ! D43   D(20,10,11,12)        180.0            estimate D2E/DX2                !
 ! D44   D(20,10,11,21)          0.0            estimate D2E/DX2                !
 ! D45   D(10,11,12,13)          0.0            estimate D2E/DX2                !
 ! D46   D(10,11,12,22)        180.0            estimate D2E/DX2                !
 ! D47   D(21,11,12,13)        180.0            estimate D2E/DX2                !
 ! D48   D(21,11,12,22)          0.0            estimate D2E/DX2                !
 ! D49   D(11,12,13,14)          0.0            estimate D2E/DX2                !
 ! D50   D(11,12,13,23)        180.0            estimate D2E/DX2                !
 ! D51   D(22,12,13,14)        180.0            estimate D2E/DX2                !
 ! D52   D(22,12,13,23)          0.0            estimate D2E/DX2                !
 ! D53   D(12,13,14,9)           0.0            estimate D2E/DX2                !
 ! D54   D(12,13,14,24)        180.0            estimate D2E/DX2                !
 ! D55   D(23,13,14,9)         180.0            estimate D2E/DX2                !
 ! D56   D(23,13,14,24)          0.0            estimate D2E/DX2                !
 --------------------------------------------------------------------------------
 Trust Radius=3.00D-01 FncErr=1.00D-07 GrdErr=1.00D-06 EigMax=2.50D+02 EigMin=1.00D-04
 Number of steps in this run=    130 maximum allowed number of steps=    144.
 GradGradGradGradGradGradGradGradGradGradGradGradGradGradGradGradGradGrad

 Leave Link  103 at Mon Oct 14 10:29:33 2019, MaxMem= 10737418240 cpu:               0.3 elap:               0.0
 (Enter /apps/cent7/gaussian/g16-A.03/g16-haswell/g16/l202.exe)
                          Input orientation:                          
 ---------------------------------------------------------------------
 Center     Atomic      Atomic             Coordinates (Angstroms)
 Number     Number       Type             X           Y           Z
 ---------------------------------------------------------------------
      1          8           0       -2.391087    1.912307    0.590006
      2          6           0       -1.890800    0.920100    0.000000
      3          6           0       -0.552955    1.189670   -0.534737
      4          6           0       -0.060739    0.822598   -1.819726
      5          6           0        1.243380    1.120828   -2.258226
      6          6           0        2.130281    1.809051   -1.423489
      7          6           0        1.701861    2.195771   -0.148142
      8          6           0        0.395589    1.891057    0.277097
      9          6           0       -2.775200   -0.248700    0.000000
     10          6           0       -2.377600   -1.616400    0.000000
     11          6           0       -3.294700   -2.684400    0.000000
     12          6           0       -4.671200   -2.434900    0.000000
     13          6           0       -5.121500   -1.109400    0.000000
     14          6           0       -4.193600   -0.051600    0.000000
     15          1           0       -0.716897    0.284820   -2.504066
     16          1           0        1.569278    0.816236   -3.252689
     17          1           0        3.140240    2.040543   -1.761841
     18          1           0        2.383286    2.732498    0.511763
     19          1           0        0.106255    2.211978    1.277862
     20          1           0       -1.314800   -1.858500    0.000000
     21          1           0       -2.935900   -3.713700    0.000000
     22          1           0       -5.382300   -3.261000    0.000000
     23          1           0       -6.191500   -0.901700    0.000000
     24          1           0       -4.590400    0.963600    0.000000
 ---------------------------------------------------------------------
                    Distance matrix (angstroms):
                    1          2          3          4          5
     1  O    0.000000
     2  C    1.258121   0.000000
     3  C    2.272879   1.465756   0.000000
     4  C    3.524883   2.582641   1.424155   0.000000
     5  C    4.684892   3.868198   2.490376   1.407817   0.000000
     6  C    4.950515   4.357252   2.893660   2.435295   1.398939
     7  C    4.168626   3.815298   2.499178   2.790440   2.412086
     8  C    2.804270   2.499423   1.432045   2.397188   2.782061
     9  C    2.272796   1.465693   2.700597   3.439096   4.808760
    10  C    3.577717   2.582790   3.389587   3.824651   5.069861
    11  C    4.721688   3.868250   4.776141   5.105775   6.338258
    12  C    4.944211   4.357367   5.512113   5.931192   7.261201
    13  C    4.115091   3.815271   5.142302   5.714483   7.112327
    14  C    2.730218   2.499418   3.883425   4.599583   6.002909
    15  H    3.876199   2.837601   2.173451   1.089986   2.145235
    16  H    5.626026   4.750043   3.468514   2.170341   1.089929
    17  H    6.011923   5.447095   3.983649   3.425348   2.165722
    18  H    4.844943   4.670599   3.478073   3.880312   3.401427
    19  H    2.607617   2.700020   2.182930   3.399017   3.871379
    20  H    3.965537   2.837674   3.187113   3.474530   4.529930
    21  H    5.683034   4.750193   5.477902   5.670622   6.777804
    22  H    6.004878   5.447217   6.589156   6.950265   8.258307
    23  H    4.765488   4.670650   6.037629   6.623506   8.029174
    24  H    2.466805   2.699950   4.078972   4.883555   6.257578
                    6          7          8          9         10
     6  C    0.000000
     7  C    1.399859   0.000000
     8  C    2.430612   1.407134   0.000000
     9  C    5.506760   5.103084   3.835263   0.000000
    10  C    5.837896   5.585392   4.479912   1.424321   0.000000
    11  C    7.186643   6.985960   5.884711   2.490485   1.407727
    12  C    8.142333   7.879148   6.668061   2.893836   2.435271
    13  C    7.945565   7.583163   6.286318   2.499186   2.790347
    14  C    6.743872   6.311029   4.991128   1.432029   2.397176
    15  H    3.405488   3.879755   3.398896   3.285058   3.555688
    16  H    2.155547   3.399839   3.871973   5.530693   5.663528
    17  H    1.089994   2.167268   3.422386   6.583095   6.850100
    18  H    2.159159   1.089904   2.171182   5.979918   6.468451
    19  H    3.399460   2.140026   1.090062   3.998831   4.739087
    20  H    5.229324   5.055621   4.130543   2.173528   1.090026
    21  H    7.628452   7.513496   6.526017   3.468724   2.170338
    22  H    9.174454   8.943357   7.746255   3.983833   3.425337
    23  H    8.867160   8.480650   7.160029   3.478148   3.880287
    24  H    6.921608   6.413481   5.079079   2.182801   3.398953
                   11         12         13         14         15
    11  C    0.000000
    12  C    1.398929   0.000000
    13  C    2.412016   1.399900   0.000000
    14  C    2.782024   2.430683   1.407103   0.000000
    15  H    4.661725   5.413293   5.254972   4.297789   0.000000
    16  H    6.818557   7.751995   7.684697   6.674121   2.463622
    17  H    8.175428   9.173454   9.015685   7.827283   4.302437
    18  H    7.864109   8.759548   8.446531   7.160205   4.969657
    19  H    6.097043   6.786050   6.324073   5.024487   4.323713
    20  H    2.145254   3.405533   3.879706   3.398879   3.349874
    21  H    1.090044   2.155596   3.399886   3.872052   5.213682
    22  H    2.165766   1.090002   2.167348   3.422463   6.372533
    23  H    3.401392   2.159170   1.089972   2.171238   6.135916
    24  H    3.871271   3.399460   2.139952   1.089991   4.662094
                   16         17         18         19         20
    16  H    0.000000
    17  H    2.487866   0.000000
    18  H    4.301834   2.494205   0.000000
    19  H    4.961293   4.298168   2.458194   0.000000
    20  H    5.104126   6.176892   5.917348   4.496790   0.000000
    21  H    7.169165   8.551893   8.373118   6.782425   2.463683
    22  H    8.690700  10.190394   9.822843   7.855613   4.302507
    23  H    8.588420   9.941944   9.327178   7.140703   4.969675
    24  H    6.967305   8.001668   7.212711   5.024932   4.323633
                   21         22         23         24
    21  H    0.000000
    22  H    2.487933   0.000000
    23  H    4.301892   2.494214   0.000000
    24  H    4.961301   4.298180   2.458224   0.000000
 Stoichiometry    C13H10O
 Framework group  C1[X(C13H10O)]
 Deg. of freedom    66
 Full point group                 C1      NOp   1
 Largest Abelian subgroup         C1      NOp   1
 Largest concise Abelian subgroup C1      NOp   1
                         Standard orientation:                         
 ---------------------------------------------------------------------
 Center     Atomic      Atomic             Coordinates (Angstroms)
 Number     Number       Type             X           Y           Z
 ---------------------------------------------------------------------
      1          8           0        0.016830    2.081994    0.089713
      2          6           0        0.005421    0.824884    0.040589
      3          6           0       -1.348435    0.264853    0.083959
      4          6           0       -1.783353   -0.850066    0.855982
      5          6           0       -3.107883   -1.326863    0.840763
      6          6           0       -4.074451   -0.704916    0.043293
      7          6           0       -3.705013    0.396540   -0.737678
      8          6           0       -2.377483    0.862445   -0.712719
      9          6           0        1.348902    0.245581   -0.047301
     10          6           0        1.710439   -0.970096   -0.695459
     11          6           0        3.030145   -1.458527   -0.734287
     12          6           0        4.066141   -0.747222   -0.119666
     13          6           0        3.770661    0.455336    0.533224
     14          6           0        2.447031    0.931760    0.564236
     15          1           0       -1.064379   -1.365971    1.492368
     16          1           0       -3.387502   -2.185041    1.451736
     17          1           0       -5.100290   -1.073131    0.030646
     18          1           0       -4.448724    0.889896   -1.363286
     19          1           0       -2.136080    1.722786   -1.337037
     20          1           0        0.935768   -1.557861   -1.187976
     21          1           0        3.251885   -2.395784   -1.244755
     22          1           0        5.088391   -1.124378   -0.149044
     23          1           0        4.568961    1.018983    1.015987
     24          1           0        2.264595    1.872289    1.084047
 ---------------------------------------------------------------------
 Rotational constants (GHZ):           1.8660878           0.3594184           0.3259087
 Leave Link  202 at Mon Oct 14 10:29:33 2019, MaxMem= 10737418240 cpu:               0.4 elap:               0.0
 (Enter /apps/cent7/gaussian/g16-A.03/g16-haswell/g16/l301.exe)
 Standard basis: 6-311++G(d,p) (5D, 7F)
 Ernie: Thresh=  0.10000D-02 Tol=  0.10000D-05 Strict=F.
 There are   392 symmetry adapted cartesian basis functions of A   symmetry.
 There are   378 symmetry adapted basis functions of A   symmetry.
   378 basis functions,   594 primitive gaussians,   392 cartesian basis functions
    48 alpha electrons       48 beta electrons
       nuclear repulsion energy       759.9551373773 Hartrees.
 IExCor= 4336 DFT=T Ex+Corr=M062X ExCW=0 ScaHFX=  0.540000
 ScaDFX=  1.000000  1.000000  1.000000  1.000000 ScalE2=  1.000000  1.000000
 IRadAn=      5 IRanWt=     -1 IRanGd=            0 ICorTp=0 IEmpDi=  4
 NAtoms=   24 NActive=   24 NUniq=   24 SFac= 1.00D+00 NAtFMM=   60 NAOKFM=F Big=F
 Integral buffers will be    131072 words long.
 Raffenetti 2 integral format.
 Two-electron integral symmetry is turned on.
 Leave Link  301 at Mon Oct 14 10:29:33 2019, MaxMem= 10737418240 cpu:               1.3 elap:               0.1
 (Enter /apps/cent7/gaussian/g16-A.03/g16-haswell/g16/l302.exe)
 NPDir=0 NMtPBC=     1 NCelOv=     1 NCel=       1 NClECP=     1 NCelD=      1
         NCelK=      1 NCelE2=     1 NClLst=     1 CellRange=     0.0.
 One-electron integrals computed using PRISM.
 One-electron integral symmetry used in STVInt
 NBasis=   378 RedAO= T EigKep=  1.36D-06  NBF=   378
 NBsUse=   376 1.00D-06 EigRej=  8.40D-07 NBFU=   376
 Precomputing XC quadrature grid using
 IXCGrd= 4 IRadAn=           5 IRanWt=          -1 IRanGd=           0 AccXCQ= 0.00D+00.
 Generated NRdTot=       0 NPtTot=           0 NUsed=           0 NTot=          32
 NSgBfM=   392   392   392   392   392 MxSgAt=    24 MxSgA2=    24.
 Leave Link  302 at Mon Oct 14 10:29:34 2019, MaxMem= 10737418240 cpu:               5.9 elap:               0.3
 (Enter /apps/cent7/gaussian/g16-A.03/g16-haswell/g16/l303.exe)
 DipDrv:  MaxL=1.
 Leave Link  303 at Mon Oct 14 10:29:34 2019, MaxMem= 10737418240 cpu:               1.1 elap:               0.1
 (Enter /apps/cent7/gaussian/g16-A.03/g16-haswell/g16/l401.exe)
 ExpMin= 3.60D-02 ExpMax= 8.59D+03 ExpMxC= 1.30D+03 IAcc=3 IRadAn=         5 AccDes= 0.00D+00
 Harris functional with IExCor= 1009 and IRadAn=       5 diagonalized for initial guess.
 HarFok:  IExCor= 1009 AccDes= 0.00D+00 IRadAn=         5 IDoV= 1 UseB2=F ITyADJ=14
 ICtDFT=  3500011 ScaDFX=  1.000000  1.000000  1.000000  1.000000
 FoFCou: FMM=F IPFlag=           0 FMFlag=      100000 FMFlg1=           0
         NFxFlg=           0 DoJE=T BraDBF=F KetDBF=T FulRan=T
         wScrn=  0.000000 ICntrl=       500 IOpCl=  0 I1Cent=   200000004 NGrid=           0
         NMat0=    1 NMatS0=      1 NMatT0=    0 NMatD0=    1 NMtDS0=    0 NMtDT0=    0
 Petite list used in FoFCou.
 Harris En= -576.235906755276    
 JPrj=0 DoOrth=F DoCkMO=F.
 Leave Link  401 at Mon Oct 14 10:29:35 2019, MaxMem= 10737418240 cpu:              16.1 elap:               0.7
 (Enter /apps/cent7/gaussian/g16-A.03/g16-haswell/g16/l502.exe)
 Integral symmetry usage will be decided dynamically.
 Closed shell SCF:
 Using DIIS extrapolation, IDIIS=  1040.
 NGot= 10737418240 LenX= 10737097772 LenY= 10736943667
 Requested convergence on RMS density matrix=1.00D-08 within 128 cycles.
 Requested convergence on MAX density matrix=1.00D-06.
 Requested convergence on             energy=1.00D-06.
 No special actions if energy rises.
 Fock matrices will be formed incrementally for  20 cycles.

 Cycle   1  Pass 1  IDiag  1:
 FoFJK:  IHMeth= 1 ICntrl=       0 DoSepK=F KAlg= 0 I1Cent=           0 FoldK=F
 IRaf= 880000000 NMat=       1 IRICut=       1 DoRegI=T DoRafI=F ISym2E= 0 IDoP0=0 IntGTp=1.
 FoFCou: FMM=F IPFlag=           0 FMFlag=      100000 FMFlg1=           0
         NFxFlg=           0 DoJE=F BraDBF=F KetDBF=F FulRan=T
         wScrn=  0.000000 ICntrl=         0 IOpCl=  0 I1Cent=           0 NGrid=           0
         NMat0=    1 NMatS0=      1 NMatT0=    0 NMatD0=    1 NMtDS0=    0 NMtDT0=    0
 Symmetry not used in FoFCou.
 E= -576.194960447202    
 DIIS: error= 2.83D-02 at cycle   1 NSaved=   1.
 NSaved= 1 IEnMin= 1 EnMin= -576.194960447202     IErMin= 1 ErrMin= 2.83D-02
 ErrMax= 2.83D-02  0.00D+00 EMaxC= 1.00D-01 BMatC= 3.89D-01 BMatP= 3.89D-01
 IDIUse=3 WtCom= 7.17D-01 WtEn= 2.83D-01
 Coeff-Com:  0.100D+01
 Coeff-En:   0.100D+01
 Coeff:      0.100D+01
 Gap=     0.218 Goal=   None    Shift=    0.000
 GapD=    0.218 DampG=1.000 DampE=0.500 DampFc=0.5000 IDamp=-1.
 Damping current iteration by 5.00D-01
 RMSDP=2.67D-02 MaxDP=3.24D+00              OVMax= 1.41D-01

 Cycle   2  Pass 1  IDiag  1:
 RMSU=  1.16D-02    CP:  9.30D-01
 E= -576.345452601432     Delta-E=       -0.150492154230 Rises=F Damp=T
 DIIS: error= 7.47D-03 at cycle   2 NSaved=   2.
 NSaved= 2 IEnMin= 2 EnMin= -576.345452601432     IErMin= 2 ErrMin= 7.47D-03
 ErrMax= 7.47D-03  0.00D+00 EMaxC= 1.00D-01 BMatC= 3.91D-02 BMatP= 3.89D-01
 IDIUse=3 WtCom= 9.25D-01 WtEn= 7.47D-02
 Coeff-Com: -0.627D-01 0.106D+01
 Coeff-En:   0.000D+00 0.100D+01
 Coeff:     -0.580D-01 0.106D+01
 Gap=     0.316 Goal=   None    Shift=    0.000
 RMSDP=2.20D-02 MaxDP=3.05D+00 DE=-1.50D-01 OVMax= 1.15D-01

 Cycle   3  Pass 1  IDiag  1:
 RMSU=  1.37D-02    CP:  7.52D-01  7.60D-01
 E= -576.482243402801     Delta-E=       -0.136790801369 Rises=F Damp=F
 DIIS: error= 1.31D-02 at cycle   3 NSaved=   3.
 NSaved= 3 IEnMin= 3 EnMin= -576.482243402801     IErMin= 2 ErrMin= 7.47D-03
 ErrMax= 1.31D-02  0.00D+00 EMaxC= 1.00D-01 BMatC= 3.28D-02 BMatP= 3.91D-02
 IDIUse=3 WtCom= 8.69D-01 WtEn= 1.31D-01
 Coeff-Com: -0.129D+00 0.557D+00 0.573D+00
 Coeff-En:   0.000D+00 0.000D+00 0.100D+01
 Coeff:     -0.112D+00 0.484D+00 0.629D+00
 Gap=     0.257 Goal=   None    Shift=    0.000
 RMSDP=5.28D-03 MaxDP=2.88D-01 DE=-1.37D-01 OVMax= 4.68D-02

 Cycle   4  Pass 1  IDiag  1:
 RMSU=  3.53D-03    CP:  7.57D-01  9.36D-01  7.57D-01
 E= -576.502170786680     Delta-E=       -0.019927383878 Rises=F Damp=F
 DIIS: error= 6.99D-03 at cycle   4 NSaved=   4.
 NSaved= 4 IEnMin= 4 EnMin= -576.502170786680     IErMin= 4 ErrMin= 6.99D-03
 ErrMax= 6.99D-03  0.00D+00 EMaxC= 1.00D-01 BMatC= 7.96D-03 BMatP= 3.28D-02
 IDIUse=3 WtCom= 9.30D-01 WtEn= 6.99D-02
 Coeff-Com: -0.441D-01 0.132D+00 0.372D+00 0.540D+00
 Coeff-En:   0.000D+00 0.000D+00 0.223D+00 0.777D+00
 Coeff:     -0.410D-01 0.123D+00 0.361D+00 0.557D+00
 Gap=     0.259 Goal=   None    Shift=    0.000
 RMSDP=3.26D-03 MaxDP=5.43D-01 DE=-1.99D-02 OVMax= 1.54D-02

 Cycle   5  Pass 1  IDiag  1:
 RMSU=  1.43D-03    CP:  7.28D-01  9.41D-01  8.06D-01  7.69D-01
 E= -576.508737121752     Delta-E=       -0.006566335072 Rises=F Damp=F
 DIIS: error= 8.71D-04 at cycle   5 NSaved=   5.
 NSaved= 5 IEnMin= 5 EnMin= -576.508737121752     IErMin= 5 ErrMin= 8.71D-04
 ErrMax= 8.71D-04  0.00D+00 EMaxC= 1.00D-01 BMatC= 1.17D-04 BMatP= 7.96D-03
 IDIUse=3 WtCom= 9.91D-01 WtEn= 8.71D-03
 Coeff-Com: -0.958D-02 0.202D-01 0.106D+00 0.214D+00 0.669D+00
 Coeff-En:   0.000D+00 0.000D+00 0.000D+00 0.000D+00 0.100D+01
 Coeff:     -0.950D-02 0.201D-01 0.105D+00 0.212D+00 0.672D+00
 Gap=     0.258 Goal=   None    Shift=    0.000
 RMSDP=4.93D-04 MaxDP=7.27D-02 DE=-6.57D-03 OVMax= 3.95D-03

 Cycle   6  Pass 1  IDiag  1:
 RMSU=  1.81D-04    CP:  7.31D-01  9.26D-01  8.19D-01  7.50D-01  8.16D-01
 E= -576.508835581727     Delta-E=       -0.000098459976 Rises=F Damp=F
 DIIS: error= 2.00D-04 at cycle   6 NSaved=   6.
 NSaved= 6 IEnMin= 6 EnMin= -576.508835581727     IErMin= 6 ErrMin= 2.00D-04
 ErrMax= 2.00D-04  0.00D+00 EMaxC= 1.00D-01 BMatC= 1.38D-05 BMatP= 1.17D-04
 IDIUse=3 WtCom= 9.98D-01 WtEn= 2.00D-03
 Coeff-Com: -0.140D-02 0.839D-03 0.240D-01 0.575D-01 0.315D+00 0.604D+00
 Coeff-En:   0.000D+00 0.000D+00 0.000D+00 0.000D+00 0.000D+00 0.100D+01
 Coeff:     -0.140D-02 0.837D-03 0.239D-01 0.574D-01 0.314D+00 0.605D+00
 Gap=     0.258 Goal=   None    Shift=    0.000
 RMSDP=1.13D-04 MaxDP=1.17D-02 DE=-9.85D-05 OVMax= 1.24D-03

 Cycle   7  Pass 1  IDiag  1:
 RMSU=  6.26D-05    CP:  7.32D-01  9.25D-01  8.17D-01  7.59D-01  8.24D-01
                    CP:  8.37D-01
 E= -576.508848582068     Delta-E=       -0.000013000341 Rises=F Damp=F
 DIIS: error= 7.79D-05 at cycle   7 NSaved=   7.
 NSaved= 7 IEnMin= 7 EnMin= -576.508848582068     IErMin= 7 ErrMin= 7.79D-05
 ErrMax= 7.79D-05  0.00D+00 EMaxC= 1.00D-01 BMatC= 1.14D-06 BMatP= 1.38D-05
 IDIUse=1 WtCom= 1.00D+00 WtEn= 0.00D+00
 Coeff-Com:  0.826D-03-0.252D-02-0.373D-02-0.699D-02 0.389D-01 0.210D+00
 Coeff-Com:  0.764D+00
 Coeff:      0.826D-03-0.252D-02-0.373D-02-0.699D-02 0.389D-01 0.210D+00
 Coeff:      0.764D+00
 Gap=     0.258 Goal=   None    Shift=    0.000
 RMSDP=3.18D-05 MaxDP=2.74D-03 DE=-1.30D-05 OVMax= 5.28D-04

 Cycle   8  Pass 1  IDiag  1:
 RMSU=  1.62D-05    CP:  7.32D-01  9.25D-01  8.19D-01  7.59D-01  8.33D-01
                    CP:  8.96D-01  1.10D+00
 E= -576.508849873365     Delta-E=       -0.000001291297 Rises=F Damp=F
 DIIS: error= 3.13D-05 at cycle   8 NSaved=   8.
 NSaved= 8 IEnMin= 8 EnMin= -576.508849873365     IErMin= 8 ErrMin= 3.13D-05
 ErrMax= 3.13D-05  0.00D+00 EMaxC= 1.00D-01 BMatC= 3.22D-07 BMatP= 1.14D-06
 IDIUse=1 WtCom= 1.00D+00 WtEn= 0.00D+00
 Coeff-Com:  0.721D-03-0.159D-02-0.584D-02-0.143D-01-0.325D-01-0.126D-02
 Coeff-Com:  0.392D+00 0.663D+00
 Coeff:      0.721D-03-0.159D-02-0.584D-02-0.143D-01-0.325D-01-0.126D-02
 Coeff:      0.392D+00 0.663D+00
 Gap=     0.258 Goal=   None    Shift=    0.000
 RMSDP=1.85D-05 MaxDP=2.69D-03 DE=-1.29D-06 OVMax= 1.97D-04

 Cycle   9  Pass 1  IDiag  1:
 RMSU=  9.28D-06    CP:  7.31D-01  9.25D-01  8.19D-01  7.59D-01  8.39D-01
                    CP:  8.93D-01  1.22D+00  1.09D+00
 E= -576.508850210708     Delta-E=       -0.000000337342 Rises=F Damp=F
 DIIS: error= 1.22D-05 at cycle   9 NSaved=   9.
 NSaved= 9 IEnMin= 9 EnMin= -576.508850210708     IErMin= 9 ErrMin= 1.22D-05
 ErrMax= 1.22D-05  0.00D+00 EMaxC= 1.00D-01 BMatC= 2.23D-08 BMatP= 3.22D-07
 IDIUse=1 WtCom= 1.00D+00 WtEn= 0.00D+00
 Coeff-Com:  0.173D-03-0.320D-03-0.145D-02-0.441D-02-0.135D-01-0.215D-01
 Coeff-Com:  0.696D-01 0.221D+00 0.751D+00
 Coeff:      0.173D-03-0.320D-03-0.145D-02-0.441D-02-0.135D-01-0.215D-01
 Coeff:      0.696D-01 0.221D+00 0.751D+00
 Gap=     0.258 Goal=   None    Shift=    0.000
 RMSDP=5.14D-06 MaxDP=3.95D-04 DE=-3.37D-07 OVMax= 7.93D-05

 Cycle  10  Pass 1  IDiag  1:
 RMSU=  2.99D-06    CP:  7.31D-01  9.25D-01  8.19D-01  7.59D-01  8.40D-01
                    CP:  8.91D-01  1.24D+00  1.20D+00  1.13D+00
 E= -576.508850237471     Delta-E=       -0.000000026763 Rises=F Damp=F
 DIIS: error= 3.71D-06 at cycle  10 NSaved=  10.
 NSaved=10 IEnMin=10 EnMin= -576.508850237471     IErMin=10 ErrMin= 3.71D-06
 ErrMax= 3.71D-06  0.00D+00 EMaxC= 1.00D-01 BMatC= 3.90D-09 BMatP= 2.23D-08
 IDIUse=1 WtCom= 1.00D+00 WtEn= 0.00D+00
 Coeff-Com: -0.690D-04 0.173D-03 0.603D-03 0.961D-03 0.121D-02-0.893D-02
 Coeff-Com: -0.464D-01-0.534D-01 0.298D+00 0.808D+00
 Coeff:     -0.690D-04 0.173D-03 0.603D-03 0.961D-03 0.121D-02-0.893D-02
 Coeff:     -0.464D-01-0.534D-01 0.298D+00 0.808D+00
 Gap=     0.258 Goal=   None    Shift=    0.000
 RMSDP=2.52D-06 MaxDP=2.01D-04 DE=-2.68D-08 OVMax= 2.57D-05

 Cycle  11  Pass 1  IDiag  1:
 RMSU=  1.20D-06    CP:  7.31D-01  9.25D-01  8.19D-01  7.59D-01  8.41D-01
                    CP:  8.85D-01  1.25D+00  1.25D+00  1.25D+00  1.21D+00
 E= -576.508850242228     Delta-E=       -0.000000004756 Rises=F Damp=F
 DIIS: error= 8.77D-07 at cycle  11 NSaved=  11.
 NSaved=11 IEnMin=11 EnMin= -576.508850242228     IErMin=11 ErrMin= 8.77D-07
 ErrMax= 8.77D-07  0.00D+00 EMaxC= 1.00D-01 BMatC= 1.41D-10 BMatP= 3.90D-09
 IDIUse=1 WtCom= 1.00D+00 WtEn= 0.00D+00
 Coeff-Com: -0.223D-04 0.530D-04 0.211D-03 0.397D-03 0.824D-03-0.157D-02
 Coeff-Com: -0.136D-01-0.238D-01 0.447D-01 0.226D+00 0.767D+00
 Coeff:     -0.223D-04 0.530D-04 0.211D-03 0.397D-03 0.824D-03-0.157D-02
 Coeff:     -0.136D-01-0.238D-01 0.447D-01 0.226D+00 0.767D+00
 Gap=     0.258 Goal=   None    Shift=    0.000
 RMSDP=4.88D-07 MaxDP=3.19D-05 DE=-4.76D-09 OVMax= 1.07D-05

 Cycle  12  Pass 1  IDiag  1:
 RMSU=  3.07D-07    CP:  7.31D-01  9.25D-01  8.19D-01  7.59D-01  8.41D-01
                    CP:  8.85D-01  1.25D+00  1.25D+00  1.25D+00  1.27D+00
                    CP:  1.07D+00
 E= -576.508850242379     Delta-E=       -0.000000000151 Rises=F Damp=F
 DIIS: error= 6.10D-07 at cycle  12 NSaved=  12.
 NSaved=12 IEnMin=12 EnMin= -576.508850242379     IErMin=12 ErrMin= 6.10D-07
 ErrMax= 6.10D-07  0.00D+00 EMaxC= 1.00D-01 BMatC= 7.30D-11 BMatP= 1.41D-10
 IDIUse=1 WtCom= 1.00D+00 WtEn= 0.00D+00
 Coeff-Com: -0.140D-05 0.222D-05 0.258D-04 0.789D-04 0.305D-03 0.514D-03
 Coeff-Com: -0.146D-03-0.587D-02-0.284D-01-0.847D-02 0.453D+00 0.589D+00
 Coeff:     -0.140D-05 0.222D-05 0.258D-04 0.789D-04 0.305D-03 0.514D-03
 Coeff:     -0.146D-03-0.587D-02-0.284D-01-0.847D-02 0.453D+00 0.589D+00
 Gap=     0.258 Goal=   None    Shift=    0.000
 RMSDP=2.16D-07 MaxDP=1.43D-05 DE=-1.51D-10 OVMax= 2.77D-06

 Cycle  13  Pass 1  IDiag  1:
 RMSU=  8.13D-08    CP:  7.31D-01  9.25D-01  8.19D-01  7.59D-01  8.41D-01
                    CP:  8.84D-01  1.25D+00  1.25D+00  1.26D+00  1.29D+00
                    CP:  1.16D+00  9.02D-01
 E= -576.508850242484     Delta-E=       -0.000000000105 Rises=F Damp=F
 DIIS: error= 7.81D-08 at cycle  13 NSaved=  13.
 NSaved=13 IEnMin=13 EnMin= -576.508850242484     IErMin=13 ErrMin= 7.81D-08
 ErrMax= 7.81D-08  0.00D+00 EMaxC= 1.00D-01 BMatC= 1.85D-12 BMatP= 7.30D-11
 IDIUse=1 WtCom= 1.00D+00 WtEn= 0.00D+00
 Coeff-Com:  0.165D-05-0.397D-05-0.112D-04-0.206D-04 0.445D-06 0.905D-04
 Coeff-Com:  0.121D-02 0.114D-02-0.697D-02-0.192D-01-0.792D-02-0.682D-02
 Coeff-Com:  0.104D+01
 Coeff:      0.165D-05-0.397D-05-0.112D-04-0.206D-04 0.445D-06 0.905D-04
 Coeff:      0.121D-02 0.114D-02-0.697D-02-0.192D-01-0.792D-02-0.682D-02
 Coeff:      0.104D+01
 Gap=     0.258 Goal=   None    Shift=    0.000
 RMSDP=8.24D-08 MaxDP=8.06D-06 DE=-1.05D-10 OVMax= 1.49D-06

 Cycle  14  Pass 1  IDiag  1:
 RMSU=  4.30D-08    CP:  7.31D-01  9.25D-01  8.19D-01  7.59D-01  8.41D-01
                    CP:  8.84D-01  1.25D+00  1.25D+00  1.26D+00  1.30D+00
                    CP:  1.17D+00  9.85D-01  1.14D+00
 E= -576.508850242460     Delta-E=        0.000000000024 Rises=F Damp=F
 DIIS: error= 4.42D-08 at cycle  14 NSaved=  14.
 NSaved=14 IEnMin=13 EnMin= -576.508850242484     IErMin=14 ErrMin= 4.42D-08
 ErrMax= 4.42D-08  0.00D+00 EMaxC= 1.00D-01 BMatC= 4.19D-13 BMatP= 1.85D-12
 IDIUse=1 WtCom= 1.00D+00 WtEn= 0.00D+00
 Coeff-Com:  0.637D-06-0.146D-05-0.652D-05-0.146D-04-0.289D-04-0.472D-04
 Coeff-Com:  0.425D-03 0.101D-02 0.484D-03-0.555D-02-0.496D-01-0.782D-01
 Coeff-Com:  0.400D+00 0.732D+00
 Coeff:      0.637D-06-0.146D-05-0.652D-05-0.146D-04-0.289D-04-0.472D-04
 Coeff:      0.425D-03 0.101D-02 0.484D-03-0.555D-02-0.496D-01-0.782D-01
 Coeff:      0.400D+00 0.732D+00
 Gap=     0.258 Goal=   None    Shift=    0.000
 RMSDP=2.34D-08 MaxDP=3.14D-06 DE= 2.43D-11 OVMax= 5.39D-07

 Cycle  15  Pass 1  IDiag  1:
 RMSU=  1.28D-08    CP:  7.31D-01  9.25D-01  8.19D-01  7.59D-01  8.41D-01
                    CP:  8.84D-01  1.25D+00  1.25D+00  1.26D+00  1.31D+00
                    CP:  1.18D+00  9.89D-01  1.24D+00  1.02D+00
 E= -576.508850242465     Delta-E=       -0.000000000005 Rises=F Damp=F
 DIIS: error= 1.49D-08 at cycle  15 NSaved=  15.
 NSaved=15 IEnMin=13 EnMin= -576.508850242484     IErMin=15 ErrMin= 1.49D-08
 ErrMax= 1.49D-08  0.00D+00 EMaxC= 1.00D-01 BMatC= 7.70D-14 BMatP= 4.19D-13
 IDIUse=1 WtCom= 1.00D+00 WtEn= 0.00D+00
 Coeff-Com: -0.311D-06 0.712D-06 0.959D-06 0.204D-05-0.727D-05-0.327D-04
 Coeff-Com: -0.203D-03-0.185D-04 0.176D-02 0.396D-02-0.518D-02-0.141D-01
 Coeff-Com: -0.205D+00 0.146D+00 0.107D+01
 Coeff:     -0.311D-06 0.712D-06 0.959D-06 0.204D-05-0.727D-05-0.327D-04
 Coeff:     -0.203D-03-0.185D-04 0.176D-02 0.396D-02-0.518D-02-0.141D-01
 Coeff:     -0.205D+00 0.146D+00 0.107D+01
 Gap=     0.258 Goal=   None    Shift=    0.000
 RMSDP=1.35D-08 MaxDP=6.95D-07 DE=-5.00D-12 OVMax= 5.00D-07

 Cycle  16  Pass 1  IDiag  1:
 RMSU=  4.32D-09    CP:  7.31D-01  9.25D-01  8.19D-01  7.59D-01  8.41D-01
                    CP:  8.84D-01  1.25D+00  1.25D+00  1.26D+00  1.31D+00
                    CP:  1.18D+00  9.95D-01  1.28D+00  1.17D+00  1.58D+00
 E= -576.508850242470     Delta-E=       -0.000000000005 Rises=F Damp=F
 DIIS: error= 5.04D-09 at cycle  16 NSaved=  16.
 NSaved=16 IEnMin=13 EnMin= -576.508850242484     IErMin=16 ErrMin= 5.04D-09
 ErrMax= 5.04D-09  0.00D+00 EMaxC= 1.00D-01 BMatC= 5.92D-15 BMatP= 7.70D-14
 IDIUse=1 WtCom= 1.00D+00 WtEn= 0.00D+00
 Coeff-Com: -0.646D-07 0.159D-06 0.541D-06 0.126D-05 0.144D-05 0.453D-05
 Coeff-Com: -0.489D-04-0.750D-04 0.407D-04 0.718D-03 0.510D-02 0.965D-02
 Coeff-Com: -0.573D-01-0.876D-01 0.573D-01 0.107D+01
 Coeff:     -0.646D-07 0.159D-06 0.541D-06 0.126D-05 0.144D-05 0.453D-05
 Coeff:     -0.489D-04-0.750D-04 0.407D-04 0.718D-03 0.510D-02 0.965D-02
 Coeff:     -0.573D-01-0.876D-01 0.573D-01 0.107D+01
 Gap=     0.258 Goal=   None    Shift=    0.000
 RMSDP=7.54D-09 MaxDP=3.62D-07 DE=-5.46D-12 OVMax= 2.01D-07

 SCF Done:  E(RM062X) =  -576.508850242     A.U. after   16 cycles
            NFock= 16  Conv=0.75D-08     -V/T= 2.0051
 KE= 5.735555052675D+02 PE=-2.859548690374D+03 EE= 9.495291974869D+02
 Leave Link  502 at Mon Oct 14 10:30:08 2019, MaxMem= 10737418240 cpu:             794.2 elap:              33.3
 (Enter /apps/cent7/gaussian/g16-A.03/g16-haswell/g16/l601.exe)
 Copying SCF densities to generalized density rwf, IOpCl= 0 IROHF=0.

 **********************************************************************

            Population analysis using the SCF density.

 **********************************************************************

 Orbital symmetries:
       Occupied  (A) (A) (A) (A) (A) (A) (A) (A) (A) (A) (A) (A)
                 (A) (A) (A) (A) (A) (A) (A) (A) (A) (A) (A) (A)
                 (A) (A) (A) (A) (A) (A) (A) (A) (A) (A) (A) (A)
                 (A) (A) (A) (A) (A) (A) (A) (A) (A) (A) (A) (A)
       Virtual   (A) (A) (A) (A) (A) (A) (A) (A) (A) (A) (A) (A)
                 (A) (A) (A) (A) (A) (A) (A) (A) (A) (A) (A) (A)
                 (A) (A) (A) (A) (A) (A) (A) (A) (A) (A) (A) (A)
                 (A) (A) (A) (A) (A) (A) (A) (A) (A) (A) (A) (A)
                 (A) (A) (A) (A) (A) (A) (A) (A) (A) (A) (A) (A)
                 (A) (A) (A) (A) (A) (A) (A) (A) (A) (A) (A) (A)
                 (A) (A) (A) (A) (A) (A) (A) (A) (A) (A) (A) (A)
                 (A) (A) (A) (A) (A) (A) (A) (A) (A) (A) (A) (A)
                 (A) (A) (A) (A) (A) (A) (A) (A) (A) (A) (A) (A)
                 (A) (A) (A) (A) (A) (A) (A) (A) (A) (A) (A) (A)
                 (A) (A) (A) (A) (A) (A) (A) (A) (A) (A) (A) (A)
                 (A) (A) (A) (A) (A) (A) (A) (A) (A) (A) (A) (A)
                 (A) (A) (A) (A) (A) (A) (A) (A) (A) (A) (A) (A)
                 (A) (A) (A) (A) (A) (A) (A) (A) (A) (A) (A) (A)
                 (A) (A) (A) (A) (A) (A) (A) (A) (A) (A) (A) (A)
                 (A) (A) (A) (A) (A) (A) (A) (A) (A) (A) (A) (A)
                 (A) (A) (A) (A) (A) (A) (A) (A) (A) (A) (A) (A)
                 (A) (A) (A) (A) (A) (A) (A) (A) (A) (A) (A) (A)
                 (A) (A) (A) (A) (A) (A) (A) (A) (A) (A) (A) (A)
                 (A) (A) (A) (A) (A) (A) (A) (A) (A) (A) (A) (A)
                 (A) (A) (A) (A) (A) (A) (A) (A) (A) (A) (A) (A)
                 (A) (A) (A) (A) (A) (A) (A) (A) (A) (A) (A) (A)
                 (A) (A) (A) (A) (A) (A) (A) (A) (A) (A) (A) (A)
                 (A) (A) (A) (A) (A) (A) (A) (A) (A) (A) (A) (A)
                 (A) (A) (A) (A) (A) (A) (A) (A) (A) (A) (A) (A)
                 (A) (A) (A) (A) (A) (A) (A) (A) (A) (A) (A) (A)
                 (A) (A) (A) (A) (A) (A) (A) (A) (A) (A) (A) (A)
                 (A) (A) (A) (A)
 The electronic state is 1-A.
 Alpha  occ. eigenvalues --  -19.61481 -10.64496 -10.57584 -10.57520 -10.56820
 Alpha  occ. eigenvalues --  -10.56736 -10.56402 -10.56358 -10.56318 -10.56165
 Alpha  occ. eigenvalues --  -10.56039 -10.55991 -10.55874 -10.55843  -1.15588
 Alpha  occ. eigenvalues --   -0.96923  -0.96703  -0.87876  -0.86054  -0.85014
 Alpha  occ. eigenvalues --   -0.84958  -0.75372  -0.71259  -0.69615  -0.69449
 Alpha  occ. eigenvalues --   -0.64689  -0.61728  -0.58567  -0.56222  -0.53719
 Alpha  occ. eigenvalues --   -0.53524  -0.52393  -0.51578  -0.49773  -0.49332
 Alpha  occ. eigenvalues --   -0.49281  -0.47232  -0.44627  -0.43404  -0.43077
 Alpha  occ. eigenvalues --   -0.42559  -0.40716  -0.40541  -0.34619  -0.32220
 Alpha  occ. eigenvalues --   -0.31696  -0.31603  -0.30683
 Alpha virt. eigenvalues --   -0.04883  -0.00662  -0.00376   0.00093   0.00119
 Alpha virt. eigenvalues --    0.01125   0.01167   0.01294   0.01792   0.02616
 Alpha virt. eigenvalues --    0.03287   0.03737   0.04679   0.05620   0.06292
 Alpha virt. eigenvalues --    0.06560   0.06750   0.08014   0.08419   0.09036
 Alpha virt. eigenvalues --    0.09218   0.09803   0.10398   0.10658   0.12010
 Alpha virt. eigenvalues --    0.12086   0.12435   0.12780   0.13004   0.13075
 Alpha virt. eigenvalues --    0.13203   0.13243   0.13756   0.13914   0.14218
 Alpha virt. eigenvalues --    0.14409   0.14660   0.14898   0.15250   0.15687
 Alpha virt. eigenvalues --    0.16179   0.16395   0.16940   0.17320   0.17987
 Alpha virt. eigenvalues --    0.18525   0.18890   0.19051   0.19825   0.20643
 Alpha virt. eigenvalues --    0.21479   0.21915   0.22112   0.22331   0.22633
 Alpha virt. eigenvalues --    0.23272   0.23575   0.23878   0.24483   0.24865
 Alpha virt. eigenvalues --    0.25311   0.25465   0.26096   0.26238   0.27634
 Alpha virt. eigenvalues --    0.28198   0.28690   0.28998   0.29778   0.29920
 Alpha virt. eigenvalues --    0.30402   0.30925   0.31461   0.31772   0.31954
 Alpha virt. eigenvalues --    0.32131   0.33086   0.33897   0.35204   0.36301
 Alpha virt. eigenvalues --    0.36669   0.36830   0.37885   0.38299   0.38567
 Alpha virt. eigenvalues --    0.39451   0.40304   0.41723   0.43257   0.45885
 Alpha virt. eigenvalues --    0.47219   0.51436   0.51652   0.52842   0.55539
 Alpha virt. eigenvalues --    0.55849   0.56600   0.56773   0.57330   0.58166
 Alpha virt. eigenvalues --    0.58760   0.58876   0.59396   0.59507   0.60025
 Alpha virt. eigenvalues --    0.60445   0.61232   0.62395   0.62703   0.64444
 Alpha virt. eigenvalues --    0.65718   0.66449   0.66932   0.68319   0.69223
 Alpha virt. eigenvalues --    0.70121   0.70997   0.71045   0.72304   0.73186
 Alpha virt. eigenvalues --    0.73354   0.74948   0.75694   0.75823   0.76165
 Alpha virt. eigenvalues --    0.76511   0.77696   0.78949   0.79980   0.82370
 Alpha virt. eigenvalues --    0.83563   0.83718   0.84896   0.86184   0.86994
 Alpha virt. eigenvalues --    0.87486   0.88225   0.88672   0.89415   0.90602
 Alpha virt. eigenvalues --    0.91406   0.91961   0.92347   0.93125   0.93802
 Alpha virt. eigenvalues --    0.94795   0.95532   0.96508   0.96685   0.99508
 Alpha virt. eigenvalues --    1.00223   1.01091   1.04459   1.05062   1.06357
 Alpha virt. eigenvalues --    1.06726   1.07767   1.10402   1.11050   1.12874
 Alpha virt. eigenvalues --    1.13928   1.14388   1.17108   1.17479   1.18874
 Alpha virt. eigenvalues --    1.20314   1.26503   1.27543   1.29493   1.30861
 Alpha virt. eigenvalues --    1.33576   1.34594   1.36962   1.42254   1.48792
 Alpha virt. eigenvalues --    1.49811   1.51066   1.51384   1.53398   1.54838
 Alpha virt. eigenvalues --    1.55211   1.56420   1.57496   1.58522   1.59709
 Alpha virt. eigenvalues --    1.60233   1.60497   1.60573   1.60715   1.64740
 Alpha virt. eigenvalues --    1.66473   1.66938   1.67783   1.68166   1.70587
 Alpha virt. eigenvalues --    1.72336   1.75204   1.75635   1.76388   1.79118
 Alpha virt. eigenvalues --    1.79702   1.80666   1.81333   1.83264   1.84484
 Alpha virt. eigenvalues --    1.85804   1.86628   1.87320   1.89934   1.90896
 Alpha virt. eigenvalues --    1.94088   1.94616   1.95453   1.95939   1.96672
 Alpha virt. eigenvalues --    1.97828   1.98258   1.99022   1.99777   2.00254
 Alpha virt. eigenvalues --    2.03194   2.03498   2.04154   2.06811   2.08700
 Alpha virt. eigenvalues --    2.09213   2.12565   2.14101   2.16320   2.18980
 Alpha virt. eigenvalues --    2.22744   2.29438   2.32423   2.35596   2.36773
 Alpha virt. eigenvalues --    2.39544   2.43184   2.44885   2.46477   2.49547
 Alpha virt. eigenvalues --    2.49986   2.50134   2.50762   2.53033   2.62427
 Alpha virt. eigenvalues --    2.62699   2.63943   2.65546   2.69365   2.71409
 Alpha virt. eigenvalues --    2.71553   2.71655   2.73250   2.73602   2.73854
 Alpha virt. eigenvalues --    2.74271   2.75575   2.76613   2.76945   2.78585
 Alpha virt. eigenvalues --    2.79843   2.81855   2.83385   2.84951   2.85216
 Alpha virt. eigenvalues --    2.86788   2.87320   2.88108   2.90522   2.92821
 Alpha virt. eigenvalues --    2.94997   2.95354   2.95599   2.95963   2.97152
 Alpha virt. eigenvalues --    3.01401   3.04633   3.04992   3.12225   3.12899
 Alpha virt. eigenvalues --    3.20366   3.20998   3.23256   3.29853   3.35521
 Alpha virt. eigenvalues --    3.37541   3.37657   3.39494   3.42679   3.51075
 Alpha virt. eigenvalues --    3.51531   3.54194   3.54361   3.56000   3.56499
 Alpha virt. eigenvalues --    3.58957   3.65162   3.73422   3.88035   4.01513
 Alpha virt. eigenvalues --    4.02554   4.06765   4.07088   4.15964   4.16477
 Alpha virt. eigenvalues --    4.17075   4.18003   4.28802   4.49004   4.80327
 Alpha virt. eigenvalues --    4.81275   5.21342   5.37742   5.81176  23.66212
 Alpha virt. eigenvalues --   23.72750  23.94005  23.99219  23.99404  24.00079
 Alpha virt. eigenvalues --   24.00879  24.08053  24.08286  24.11743  24.11814
 Alpha virt. eigenvalues --   24.20722  24.21212  50.08071
          Condensed to atoms (all electrons):
               1          2          3          4          5          6
     1  O    7.978454   0.329344  -0.109194   0.005180   0.000629   0.006331
     2  C    0.329344  30.748272  -4.224947  -4.724531   2.610679  -1.375151
     3  C   -0.109194  -4.224947  17.346851  -0.524169  -0.156449  -0.720086
     4  C    0.005180  -4.724531  -0.524169  19.742726  -4.008709   2.441789
     5  C    0.000629   2.610679  -0.156449  -4.008709   8.447358  -0.913190
     6  C    0.006331  -1.375151  -0.720086   2.441789  -0.913190   6.814390
     7  C    0.040872   1.061157  -1.301035  -1.840060   0.491657   0.123529
     8  C   -0.079267  -3.262637   0.052029  -1.468705  -0.841850  -0.072833
     9  C    0.059728 -10.098962  -4.093218  -1.952939  -0.125915  -0.093219
    10  C   -0.017720  -5.085313  -1.230340  -1.113550   0.314195  -0.179730
    11  C   -0.002819   1.380057   0.222908   0.420357  -0.016900   0.021911
    12  C    0.000826  -0.675975  -0.185238  -0.209476   0.013735  -0.012509
    13  C    0.047329   0.018819   0.476892   0.284232   0.013290   0.011789
    14  C   -0.077327   0.790305  -1.019515  -0.570320   0.146319  -0.022292
    15  H   -0.002042  -0.174911   0.040065   0.633718  -0.192608   0.060446
    16  H   -0.000011   0.048095   0.080179  -0.193002   0.469152  -0.088573
    17  H   -0.000001  -0.030462   0.002063   0.049433  -0.053787   0.385313
    18  H   -0.000093   0.014215   0.020017  -0.033618   0.012068  -0.019569
    19  H   -0.014386   0.048209   0.098527   0.136180  -0.019439  -0.003095
    20  H   -0.001244  -0.096095  -0.006067  -0.079631   0.011293  -0.008034
    21  H    0.000068   0.036225  -0.004328   0.007331   0.000107   0.000507
    22  H    0.000100  -0.034395  -0.001789  -0.005947  -0.000141  -0.000176
    23  H    0.000408   0.013175   0.001492   0.007616   0.000456   0.000209
    24  H   -0.015228   0.070189  -0.058477  -0.056670   0.000419  -0.003347
               7          8          9         10         11         12
     1  O    0.040872  -0.079267   0.059728  -0.017720  -0.002819   0.000826
     2  C    1.061157  -3.262637 -10.098962  -5.085313   1.380057  -0.675975
     3  C   -1.301035   0.052029  -4.093218  -1.230340   0.222908  -0.185238
     4  C   -1.840060  -1.468705  -1.952939  -1.113550   0.420357  -0.209476
     5  C    0.491657  -0.841850  -0.125915   0.314195  -0.016900   0.013735
     6  C    0.123529  -0.072833  -0.093219  -0.179730   0.021911  -0.012509
     7  C    7.078202  -0.419024   0.677218   0.350228   0.004085   0.022392
     8  C   -0.419024  11.313341   0.542558  -0.170761   0.037253   0.045765
     9  C    0.677218   0.542558  21.567876   1.040106  -0.933640  -0.154490
    10  C    0.350228  -0.170761   1.040106  17.217036  -2.164255   1.047731
    11  C    0.004085   0.037253  -0.933640  -2.164255   7.220760  -0.030787
    12  C    0.022392   0.045765  -0.154490   1.047731  -0.030787   6.191885
    13  C   -0.056385  -0.239874  -1.377622   0.174237  -0.221448   0.429553
    14  C   -0.152332  -0.000030  -0.448821  -3.582514   0.070188  -0.522685
    15  H   -0.021600   0.051071   0.008610  -0.076980   0.012912  -0.007236
    16  H    0.018792  -0.008713  -0.007042   0.007056   0.000162   0.000518
    17  H   -0.033382   0.020122  -0.002845  -0.004745   0.000095  -0.000187
    18  H    0.426692  -0.096790   0.003158   0.007375   0.000439   0.000284
    19  H   -0.150845   0.318251  -0.092078  -0.059410   0.001796  -0.004528
    20  H    0.012427  -0.014998   0.033266   0.601734  -0.151327   0.031539
    21  H   -0.000782   0.000072   0.061108  -0.178671   0.447949  -0.068686
    22  H    0.000424   0.002047   0.016038   0.034585  -0.071030   0.427805
    23  H   -0.000741  -0.004441   0.004971  -0.007270   0.004662  -0.014950
    24  H    0.009642   0.029572   0.069463   0.074305   0.001478  -0.010651
              13         14         15         16         17         18
     1  O    0.047329  -0.077327  -0.002042  -0.000011  -0.000001  -0.000093
     2  C    0.018819   0.790305  -0.174911   0.048095  -0.030462   0.014215
     3  C    0.476892  -1.019515   0.040065   0.080179   0.002063   0.020017
     4  C    0.284232  -0.570320   0.633718  -0.193002   0.049433  -0.033618
     5  C    0.013290   0.146319  -0.192608   0.469152  -0.053787   0.012068
     6  C    0.011789  -0.022292   0.060446  -0.088573   0.385313  -0.019569
     7  C   -0.056385  -0.152332  -0.021600   0.018792  -0.033382   0.426692
     8  C   -0.239874  -0.000030   0.051071  -0.008713   0.020122  -0.096790
     9  C   -1.377622  -0.448821   0.008610  -0.007042  -0.002845   0.003158
    10  C    0.174237  -3.582514  -0.076980   0.007056  -0.004745   0.007375
    11  C   -0.221448   0.070188   0.012912   0.000162   0.000095   0.000439
    12  C    0.429553  -0.522685  -0.007236   0.000518  -0.000187   0.000284
    13  C    7.458139  -0.886826   0.009119  -0.000729   0.000322  -0.000561
    14  C   -0.886826  11.708980  -0.024807   0.000775   0.000540  -0.002857
    15  H    0.009119  -0.024807   0.499265  -0.016329   0.001425   0.000105
    16  H   -0.000729   0.000775  -0.016329   0.483935  -0.008024   0.000205
    17  H    0.000322   0.000540   0.001425  -0.008024   0.473751  -0.006678
    18  H   -0.000561  -0.002857   0.000105   0.000205  -0.006678   0.474317
    19  H    0.008972   0.019198   0.001235  -0.000383   0.001523  -0.011168
    20  H    0.022936  -0.023415  -0.001817  -0.000533  -0.000114   0.000009
    21  H   -0.002280   0.027620  -0.000316   0.000065   0.000002  -0.000006
    22  H   -0.052594   0.015219  -0.000082   0.000002  -0.000002   0.000004
    23  H    0.438415  -0.110811   0.000108  -0.000008   0.000002  -0.000006
    24  H   -0.188220   0.378895  -0.002231   0.000166  -0.000066   0.000087
              19         20         21         22         23         24
     1  O   -0.014386  -0.001244   0.000068   0.000100   0.000408  -0.015228
     2  C    0.048209  -0.096095   0.036225  -0.034395   0.013175   0.070189
     3  C    0.098527  -0.006067  -0.004328  -0.001789   0.001492  -0.058477
     4  C    0.136180  -0.079631   0.007331  -0.005947   0.007616  -0.056670
     5  C   -0.019439   0.011293   0.000107  -0.000141   0.000456   0.000419
     6  C   -0.003095  -0.008034   0.000507  -0.000176   0.000209  -0.003347
     7  C   -0.150845   0.012427  -0.000782   0.000424  -0.000741   0.009642
     8  C    0.318251  -0.014998   0.000072   0.002047  -0.004441   0.029572
     9  C   -0.092078   0.033266   0.061108   0.016038   0.004971   0.069463
    10  C   -0.059410   0.601734  -0.178671   0.034585  -0.007270   0.074305
    11  C    0.001796  -0.151327   0.447949  -0.071030   0.004662   0.001478
    12  C   -0.004528   0.031539  -0.068686   0.427805  -0.014950  -0.010651
    13  C    0.008972   0.022936  -0.002280  -0.052594   0.438415  -0.188220
    14  C    0.019198  -0.023415   0.027620   0.015219  -0.110811   0.378895
    15  H    0.001235  -0.001817  -0.000316  -0.000082   0.000108  -0.002231
    16  H   -0.000383  -0.000533   0.000065   0.000002  -0.000008   0.000166
    17  H    0.001523  -0.000114   0.000002  -0.000002   0.000002  -0.000066
    18  H   -0.011168   0.000009  -0.000006   0.000004  -0.000006   0.000087
    19  H    0.461886  -0.002454   0.000183  -0.000096   0.000115  -0.001175
    20  H   -0.002454   0.501704  -0.016830   0.001382   0.000141  -0.000019
    21  H    0.000183  -0.016830   0.485100  -0.010497   0.000175   0.000106
    22  H   -0.000096   0.001382  -0.010497   0.484852  -0.009174   0.001592
    23  H    0.000115   0.000141   0.000175  -0.009174   0.472086  -0.010463
    24  H   -0.001175  -0.000019   0.000106   0.001592  -0.010463   0.456591
 Mulliken charges:
               1
     1  O   -0.149936
     2  C   -1.385363
     3  C    1.293829
     4  C   -0.947233
     5  C   -0.202370
     6  C   -0.354411
     7  C   -0.341130
     8  C    0.267840
     9  C    1.296689
    10  C   -0.997330
    11  C   -0.254807
    12  C   -0.314634
    13  C   -0.367506
    14  C    0.286515
    15  H    0.202879
    16  H    0.214245
    17  H    0.205703
    18  H    0.212370
    19  H    0.262982
    20  H    0.186146
    21  H    0.215778
    22  H    0.201872
    23  H    0.213833
    24  H    0.254040
 Sum of Mulliken charges =  -0.00000
 Mulliken charges with hydrogens summed into heavy atoms:
               1
     1  O   -0.149936
     2  C   -1.385363
     3  C    1.293829
     4  C   -0.744355
     5  C    0.011874
     6  C   -0.148708
     7  C   -0.128760
     8  C    0.530822
     9  C    1.296689
    10  C   -0.811184
    11  C   -0.039029
    12  C   -0.112762
    13  C   -0.153673
    14  C    0.540556
 Electronic spatial extent (au):  <R**2>=           3345.2623
 Charge=             -0.0000 electrons
 Dipole moment (field-independent basis, Debye):
    X=              0.0987    Y=             -3.0178    Z=             -0.1437  Tot=              3.0228
 Quadrupole moment (field-independent basis, Debye-Ang):
   XX=            -63.4354   YY=            -84.7158   ZZ=            -82.1419
   XY=              0.4936   XZ=              2.8418   YZ=             -0.7104
 Traceless Quadrupole moment (field-independent basis, Debye-Ang):
   XX=             13.3290   YY=             -7.9514   ZZ=             -5.3775
   XY=              0.4936   XZ=              2.8418   YZ=             -0.7104
 Octapole moment (field-independent basis, Debye-Ang**2):
  XXX=              3.6297  YYY=            -14.1688  ZZZ=              0.8129  XYY=              3.3392
  XXY=            -10.2032  XXZ=             -2.0869  XZZ=             -3.8351  YZZ=              2.9357
  YYZ=             -0.9698  XYZ=             23.2428
 Hexadecapole moment (field-independent basis, Debye-Ang**3):
 XXXX=          -3250.3970 YYYY=           -669.0679 ZZZZ=           -292.3916 XXXY=             13.9163
 XXXZ=             79.8646 YYYX=             -0.8313 YYYZ=              1.5900 ZZZX=              7.2059
 ZZZY=             -4.9470 XXYY=           -689.8310 XXZZ=           -699.9896 YYZZ=           -135.3828
 XXYZ=             -2.3692 YYXZ=            -11.1632 ZZXY=              0.3942
 N-N= 7.599551373773D+02 E-N=-2.859548690282D+03  KE= 5.735555052675D+02
 No NMR shielding tensors so no spin-rotation constants.
 Leave Link  601 at Mon Oct 14 10:30:08 2019, MaxMem= 10737418240 cpu:               3.3 elap:               0.2
 (Enter /apps/cent7/gaussian/g16-A.03/g16-haswell/g16/l701.exe)
 ... and contract with generalized density number  0.
 Compute integral first derivatives.
 Leave Link  701 at Mon Oct 14 10:30:08 2019, MaxMem= 10737418240 cpu:               3.7 elap:               0.2
 (Enter /apps/cent7/gaussian/g16-A.03/g16-haswell/g16/l702.exe)
 L702 exits ... SP integral derivatives will be done elsewhere.
 Leave Link  702 at Mon Oct 14 10:30:08 2019, MaxMem= 10737418240 cpu:               0.5 elap:               0.0
 (Enter /apps/cent7/gaussian/g16-A.03/g16-haswell/g16/l703.exe)
 Integral derivatives from FoFJK, PRISM(SPDF).
 Compute integral first derivatives, UseDBF=F ICtDFT=           0.
 Calling FoFJK, ICntrl=      2127 FMM=F ISym2X=0 I1Cent= 0 IOpClX= 0 NMat=1 NMatS=1 NMatT=0.
 FoFJK:  IHMeth= 1 ICntrl=    2127 DoSepK=F KAlg= 0 I1Cent=           0 FoldK=F
 IRaf=         0 NMat=       1 IRICut=       1 DoRegI=T DoRafI=F ISym2E= 0 IDoP0=0 IntGTp=1.
 FoFCou: FMM=F IPFlag=           0 FMFlag=      100000 FMFlg1=         800
         NFxFlg=           0 DoJE=F BraDBF=F KetDBF=F FulRan=T
         wScrn=  0.000000 ICntrl=      2127 IOpCl=  0 I1Cent=           0 NGrid=           0
         NMat0=    1 NMatS0=      1 NMatT0=    0 NMatD0=    1 NMtDS0=    0 NMtDT0=    0
 Symmetry not used in FoFCou.
 Leave Link  703 at Mon Oct 14 10:30:14 2019, MaxMem= 10737418240 cpu:             132.0 elap:               5.5
 (Enter /apps/cent7/gaussian/g16-A.03/g16-haswell/g16/l716.exe)
 Dipole        = 3.88176204D-02-1.18729794D+00-5.65508948D-02
 ***** Axes restored to original set *****
 -------------------------------------------------------------------
 Center     Atomic                   Forces (Hartrees/Bohr)
 Number     Number              X              Y              Z
 -------------------------------------------------------------------
      1        8           0.018621715   -0.031531292   -0.018469192
      2        6          -0.039112232    0.072284993    0.042488867
      3        6           0.063188189   -0.007297698   -0.019966094
      4        6          -0.007368698   -0.005524005    0.006252185
      5        6          -0.005913267    0.003243871    0.008261866
      6        6          -0.006819125   -0.001982383    0.001281445
      7        6          -0.012481012   -0.006333687   -0.005076028
      8        6          -0.005266239   -0.000439572   -0.000412475
      9        6          -0.030730583   -0.054827936   -0.014953446
     10        6           0.005164385    0.008252444   -0.003950669
     11        6          -0.000576809    0.009882803    0.001277888
     12        6           0.005827548    0.004489085    0.000110156
     13        6           0.014963149    0.002961214    0.000501883
     14        6           0.002524125    0.002285533    0.000852296
     15        1           0.000730440    0.000973480    0.002590544
     16        1          -0.003683719    0.000816013    0.003889761
     17        1          -0.004153807   -0.001232829    0.001336165
     18        1          -0.004750456   -0.002524603   -0.001310138
     19        1          -0.002453920   -0.002626772   -0.004264395
     20        1          -0.002072067    0.001837568   -0.000234361
     21        1           0.000481205    0.005416354    0.000374798
     22        1           0.003087176    0.003256565   -0.000218785
     23        1           0.005420996    0.001360266   -0.000221365
     24        1           0.005373005   -0.002739411   -0.000140906
 -------------------------------------------------------------------
 Cartesian Forces:  Max     0.072284993 RMS     0.016731147
 Leave Link  716 at Mon Oct 14 10:30:14 2019, MaxMem= 10737418240 cpu:               0.6 elap:               0.1
 (Enter /apps/cent7/gaussian/g16-A.03/g16-haswell/g16/l103.exe)

 GradGradGradGradGradGradGradGradGradGradGradGradGradGradGradGradGradGrad
 Berny optimization.
 FormGI is forming the generalized inverse of G from B-inverse, IUseBI=4.
 GSVD:  received Info=                   1 from GESDD.
 Internal  Forces:  Max     0.051574547 RMS     0.010295765
 Search for a local minimum.
 Step number   1 out of a maximum of  130
 All quantities printed in internal units (Hartrees-Bohrs-Radians)
 RMS Force = .10296D-01 SwitMx=.10000D-02 MixMth= 1
 Mixed Optimization -- RFO/linear search
 Second derivative matrix not updated -- first step.
 ITU=  0
     Eigenvalues ---    0.01219   0.01219   0.01220   0.01566   0.01566
     Eigenvalues ---    0.01756   0.01756   0.01830   0.01830   0.01877
     Eigenvalues ---    0.01877   0.01957   0.01957   0.02035   0.02035
     Eigenvalues ---    0.02045   0.02045   0.02070   0.02070   0.02097
     Eigenvalues ---    0.02097   0.16000   0.16000   0.16000   0.16000
     Eigenvalues ---    0.16000   0.16000   0.16000   0.16000   0.16000
     Eigenvalues ---    0.16000   0.22000   0.22000   0.22000   0.22000
     Eigenvalues ---    0.23435   0.23435   0.25000   0.25000   0.25000
     Eigenvalues ---    0.25000   0.34806   0.34808   0.34810   0.34812
     Eigenvalues ---    0.34813   0.34814   0.34814   0.34816   0.34821
     Eigenvalues ---    0.34824   0.36253   0.36261   0.38887   0.38889
     Eigenvalues ---    0.39655   0.39668   0.42466   0.42466   0.44402
     Eigenvalues ---    0.44409   0.44425   0.44428   0.45519   0.45520
     Eigenvalues ---    0.80307
 RFO step:  Lambda=-3.58442613D-02 EMin= 1.21893320D-02
 Linear search not attempted -- first point.
 Maximum step size (   0.300) exceeded in Quadratic search.
    -- Step size scaled by   0.922
 Iteration  1 RMS(Cart)=  0.19974699 RMS(Int)=  0.00528697
 Iteration  2 RMS(Cart)=  0.01285320 RMS(Int)=  0.00016303
 Iteration  3 RMS(Cart)=  0.00004031 RMS(Int)=  0.00016168
 Iteration  4 RMS(Cart)=  0.00000000 RMS(Int)=  0.00016168
 ITry= 1 IFail=0 DXMaxC= 6.10D-01 DCOld= 1.00D+10 DXMaxT= 3.00D-01 DXLimC= 3.00D+00 Rises=F
 Variable       Old X    -DE/DX   Delta X   Delta X   Delta X     New X
                                 (Linear)    (Quad)   (Total)
    R1        2.37750  -0.04093   0.00000  -0.04500  -0.04500   2.33251
    R2        2.76988   0.00855   0.00000   0.01980   0.01980   2.78968
    R3        2.76976   0.00851   0.00000   0.01969   0.01969   2.78945
    R4        2.69126  -0.02381   0.00000  -0.04898  -0.04877   2.64249
    R5        2.70617  -0.02764   0.00000  -0.05835  -0.05815   2.64802
    R6        2.66039  -0.01892   0.00000  -0.03628  -0.03628   2.62411
    R7        2.05977  -0.00255   0.00000  -0.00612  -0.00612   2.05366
    R8        2.64361  -0.00822   0.00000  -0.01464  -0.01484   2.62877
    R9        2.05967  -0.00488   0.00000  -0.01171  -0.01171   2.04795
   R10        2.64535  -0.00587   0.00000  -0.01038  -0.01059   2.63476
   R11        2.05979  -0.00453   0.00000  -0.01087  -0.01087   2.04892
   R12        2.65910  -0.02050   0.00000  -0.03947  -0.03948   2.61962
   R13        2.05962  -0.00501   0.00000  -0.01202  -0.01202   2.04760
   R14        2.05992  -0.00404   0.00000  -0.00970  -0.00970   2.05022
   R15        2.69158  -0.02317   0.00000  -0.04768  -0.04748   2.64409
   R16        2.70614  -0.02675   0.00000  -0.05646  -0.05626   2.64988
   R17        2.66022  -0.01900   0.00000  -0.03644  -0.03643   2.62379
   R18        2.05985  -0.00243   0.00000  -0.00583  -0.00583   2.05402
   R19        2.64359  -0.00835   0.00000  -0.01490  -0.01510   2.62849
   R20        2.05988  -0.00496   0.00000  -0.01190  -0.01190   2.04798
   R21        2.64543  -0.00525   0.00000  -0.00923  -0.00944   2.63599
   R22        2.05981  -0.00448   0.00000  -0.01076  -0.01076   2.04904
   R23        2.65904  -0.02088   0.00000  -0.04019  -0.04020   2.61884
   R24        2.05975  -0.00506   0.00000  -0.01216  -0.01216   2.04759
   R25        2.05979  -0.00451   0.00000  -0.01083  -0.01083   2.04896
    A1        1.97033   0.02319   0.00000   0.07482   0.07480   2.04513
    A2        1.97029   0.02838   0.00000   0.09158   0.09156   2.06185
    A3        2.34256  -0.05157   0.00000  -0.16639  -0.16641   2.17615
    A4        2.21083  -0.01668   0.00000  -0.05317  -0.05338   2.15745
    A5        2.08039  -0.00450   0.00000  -0.01386  -0.01407   2.06632
    A6        1.99196   0.02118   0.00000   0.06703   0.06744   2.05940
    A7        2.14909  -0.00941   0.00000  -0.03358  -0.03340   2.11570
    A8        2.07785   0.00341   0.00000   0.01069   0.01056   2.08841
    A9        2.05625   0.00600   0.00000   0.02289   0.02276   2.07900
   A10        2.10093  -0.00260   0.00000  -0.00640  -0.00661   2.09431
   A11        2.09668  -0.00108   0.00000  -0.00803  -0.00792   2.08876
   A12        2.08558   0.00368   0.00000   0.01443   0.01453   2.10011
   A13        2.07773   0.00170   0.00000   0.01012   0.00968   2.08742
   A14        2.10214  -0.00103   0.00000  -0.00590  -0.00569   2.09645
   A15        2.10332  -0.00067   0.00000  -0.00422  -0.00400   2.09932
   A16        2.09394  -0.00003   0.00000   0.00224   0.00200   2.09594
   A17        2.09015   0.00244   0.00000   0.01032   0.01043   2.10058
   A18        2.09910  -0.00241   0.00000  -0.01255  -0.01244   2.08666
   A19        2.15272  -0.01085   0.00000  -0.03940  -0.03922   2.11350
   A20        2.08156   0.00146   0.00000   0.00105   0.00095   2.08251
   A21        2.04890   0.00939   0.00000   0.03836   0.03826   2.08716
   A22        2.21092  -0.01851   0.00000  -0.05911  -0.05931   2.15162
   A23        2.08048  -0.00238   0.00000  -0.00709  -0.00728   2.07320
   A24        1.99178   0.02089   0.00000   0.06620   0.06659   2.05837
   A25        2.14916  -0.00893   0.00000  -0.03187  -0.03168   2.11747
   A26        2.07768   0.00309   0.00000   0.00948   0.00936   2.08704
   A27        2.05635   0.00584   0.00000   0.02239   0.02227   2.07862
   A28        2.10101  -0.00299   0.00000  -0.00792  -0.00812   2.09289
   A29        2.09665  -0.00081   0.00000  -0.00689  -0.00679   2.08986
   A30        2.08552   0.00380   0.00000   0.01481   0.01491   2.10043
   A31        2.07759   0.00192   0.00000   0.01079   0.01038   2.08797
   A32        2.10221  -0.00118   0.00000  -0.00644  -0.00623   2.09598
   A33        2.10338  -0.00074   0.00000  -0.00435  -0.00414   2.09923
   A34        2.09403   0.00020   0.00000   0.00302   0.00279   2.09682
   A35        2.09001   0.00234   0.00000   0.00998   0.01009   2.10010
   A36        2.09914  -0.00254   0.00000  -0.01299  -0.01288   2.08626
   A37        2.15279  -0.01109   0.00000  -0.04022  -0.04004   2.11276
   A38        2.08147   0.00142   0.00000   0.00067   0.00058   2.08206
   A39        2.04892   0.00967   0.00000   0.03954   0.03945   2.08837
    D1       -2.37365  -0.00282   0.00000  -0.05440  -0.05455  -2.42820
    D2        0.76794  -0.00316   0.00000  -0.06055  -0.06035   0.70759
    D3        0.76794  -0.00224   0.00000  -0.04328  -0.04347   0.72447
    D4       -2.37365  -0.00258   0.00000  -0.04942  -0.04928  -2.42293
    D5       -2.60752  -0.00148   0.00000  -0.02850  -0.02856  -2.63608
    D6        0.53407  -0.00155   0.00000  -0.02976  -0.02965   0.50442
    D7        0.53407  -0.00206   0.00000  -0.03963  -0.03973   0.49434
    D8       -2.60752  -0.00213   0.00000  -0.04088  -0.04083  -2.64835
    D9        3.14159  -0.00125   0.00000  -0.02150  -0.02146   3.12013
   D10        0.00000  -0.00047   0.00000  -0.00831  -0.00843  -0.00843
   D11        0.00000  -0.00093   0.00000  -0.01563  -0.01568  -0.01568
   D12        3.14159  -0.00014   0.00000  -0.00243  -0.00265   3.13894
   D13        3.14159   0.00073   0.00000   0.01277   0.01286  -3.12873
   D14       -0.00000   0.00041   0.00000   0.00732   0.00752   0.00752
   D15        0.00000   0.00043   0.00000   0.00737   0.00738   0.00738
   D16        3.14159   0.00011   0.00000   0.00192   0.00204  -3.13955
   D17       -0.00000   0.00089   0.00000   0.01490   0.01461   0.01461
   D18        3.14159   0.00068   0.00000   0.01143   0.01121  -3.13038
   D19        3.14159   0.00012   0.00000   0.00186   0.00165  -3.13994
   D20        0.00000  -0.00009   0.00000  -0.00162  -0.00175  -0.00175
   D21        0.00000  -0.00028   0.00000  -0.00462  -0.00486  -0.00486
   D22        3.14159  -0.00036   0.00000  -0.00587  -0.00592   3.13567
   D23        3.14159  -0.00007   0.00000  -0.00117  -0.00143   3.14016
   D24       -0.00000  -0.00015   0.00000  -0.00241  -0.00250  -0.00250
   D25        0.00000  -0.00020   0.00000  -0.00334  -0.00330  -0.00330
   D26        3.14159  -0.00006   0.00000  -0.00101  -0.00083   3.14077
   D27        3.14159  -0.00012   0.00000  -0.00210  -0.00224   3.13936
   D28       -0.00000   0.00002   0.00000   0.00023   0.00024   0.00024
   D29       -0.00000   0.00011   0.00000   0.00174   0.00195   0.00195
   D30        3.14159   0.00043   0.00000   0.00709   0.00730  -3.13429
   D31        3.14159  -0.00003   0.00000  -0.00060  -0.00051   3.14109
   D32        0.00000   0.00028   0.00000   0.00475   0.00485   0.00485
   D33        3.14159  -0.00093   0.00000  -0.01597  -0.01595   3.12564
   D34       -0.00000  -0.00025   0.00000  -0.00438  -0.00449  -0.00449
   D35       -0.00000  -0.00087   0.00000  -0.01477  -0.01487  -0.01487
   D36        3.14159  -0.00018   0.00000  -0.00318  -0.00341   3.13819
   D37        3.14159   0.00053   0.00000   0.00929   0.00927  -3.13232
   D38        0.00000   0.00035   0.00000   0.00620   0.00628   0.00628
   D39        0.00000   0.00047   0.00000   0.00819   0.00824   0.00824
   D40        3.14159   0.00029   0.00000   0.00510   0.00524  -3.13635
   D41        0.00000   0.00076   0.00000   0.01275   0.01249   0.01249
   D42        3.14159   0.00059   0.00000   0.00992   0.00973  -3.13186
   D43        3.14159   0.00008   0.00000   0.00129   0.00108  -3.14051
   D44       -0.00000  -0.00009   0.00000  -0.00154  -0.00168  -0.00168
   D45       -0.00000  -0.00018   0.00000  -0.00291  -0.00311  -0.00311
   D46        3.14159  -0.00032   0.00000  -0.00533  -0.00536   3.13623
   D47        3.14159  -0.00001   0.00000  -0.00009  -0.00034   3.14126
   D48        0.00000  -0.00015   0.00000  -0.00251  -0.00259  -0.00259
   D49       -0.00000  -0.00020   0.00000  -0.00344  -0.00339  -0.00339
   D50        3.14159  -0.00017   0.00000  -0.00291  -0.00276   3.13883
   D51        3.14159  -0.00006   0.00000  -0.00102  -0.00113   3.14046
   D52        0.00000  -0.00003   0.00000  -0.00050  -0.00050  -0.00050
   D53        0.00000   0.00004   0.00000   0.00053   0.00071   0.00071
   D54        3.14159   0.00022   0.00000   0.00356   0.00372  -3.13787
   D55        3.14159   0.00001   0.00000  -0.00000   0.00009  -3.14150
   D56       -0.00000   0.00018   0.00000   0.00303   0.00310   0.00310
[...]
 7,-0.00012600,0.00038746,0.00010247,-0.00261967,0.00525439,-0.00203844
 ,-0.00200407,0.00523614,0.00442072,0.02309842,-0.09830850,-0.11591484,
 0.00545469,-0.00326606,-0.01495427,-0.00470713,0.00350571,-0.00373404,
 -0.00014041,-0.00079130,0.00055115,-0.00003816,0.00000413,-0.00000715,
 -0.00004839,-0.00000226,0.00001010,0.00002243,0.00000436,-0.00000213,-
 0.00001416,0.00000616,-0.00000122,-0.00000043,-0.00001078,0.00000401,0
 .00001141,-0.00000711,0.00000710,0.00147464,-0.00259689,0.00174026,-0.
 02189912,0.09409201,0.00049186,-0.00006848,-0.00034783,-0.00080011,-0.
 00050127,0.00006606,0.00331311,-0.00147763,0.00256436,0.00048931,-0.00
 560126,-0.00634869,0.05954483,-0.11612092,-0.27208996,0.00569575,-0.00
 475997,-0.00811066,-0.00154413,-0.00388495,0.00190955,-0.00056952,0.00
 062584,0.00039076,0.00012069,0.00001847,-0.00002096,0.00009659,0.00000
 373,-0.00000847,-0.00000752,-0.00000706,0.00000490,0.00002940,0.000009
 95,0.00000824,0.00000803,0.00003022,-0.00000005,-0.00004166,0.00005423
 ,0.00001714,-0.00061258,0.00197056,-0.00050182,-0.06553841,0.12777434,
 0.28382761,-0.00013052,0.00001262,0.00006512,-0.00008928,0.00031774,-0
 .00016416,0.00051914,0.00004322,-0.00084043,-0.00058485,-0.00415229,-0
 .00179856,-0.01385259,-0.00053694,0.01047445,-0.29600427,-0.03411491,0
 .10432412,-0.00208631,-0.00219702,0.00037297,0.00215044,-0.00082225,0.
 00203988,0.00001963,-0.00002165,0.00003376,-0.00000706,-0.00002992,0.0
 0004117,-0.00000689,0.00002053,0.00001073,-0.00001034,-0.00000285,0.00
 000041,-0.00000603,-0.00000811,-0.00001377,0.00002393,-0.00000966,0.00
 002159,-0.00073920,0.00004316,0.00052114,0.00026050,0.00111271,-0.0008
 9444,0.31065497,0.00012357,0.00012485,-0.00010003,0.00036827,-0.000900
 86,0.00045073,0.00012442,-0.00095516,-0.00004270,-0.00414984,0.0031669
 6,-0.00483822,-0.01605809,0.00267233,0.00755978,-0.03408963,-0.0501749
 4,0.00449513,0.01328243,0.00600398,-0.00543632,-0.00090877,0.00368312,
 -0.00560481,-0.00013584,-0.00000416,-0.00004453,-0.00003887,0.00001486
 ,0.00005413,0.00003413,0.00004169,0.00000794,-0.00003751,0.00001860,-0
 .00000276,-0.00000997,-0.00004730,0.00000565,0.00006607,-0.00000753,-0
 .00001642,-0.00073524,-0.00012019,0.00041865,0.00152491,-0.00246982,0.
 00180963,0.03911277,0.04129701,0.00003831,0.00013116,0.00022240,-0.000
 18018,0.00038771,-0.00038173,-0.00074881,-0.00053351,-0.00113108,-0.00
 159271,-0.00463170,0.00096791,-0.01469926,-0.00209175,0.01005962,0.104
 45356,0.00441745,-0.09796367,0.02546401,0.00421396,-0.00484592,0.00171
 853,-0.00551687,-0.00258281,0.00012074,0.00001621,0.00000144,0.0000229
 1,-0.00004013,0.00000432,-0.00000511,0.00000344,0.00000607,0.00000906,
 0.00000209,0.00000121,0.00000064,0.00001327,-0.00000661,-0.00000618,0.
 00002923,0.00003207,-0.00075160,-0.00006942,0.00032133,-0.00027621,0.0
 0211263,-0.00049393,-0.11360605,-0.00064087,0.09645034,-0.00021787,0.0
 0037383,0.00033698,0.00022738,-0.00119924,-0.00127155,-0.00373856,-0.0
 0154796,0.00402811,-0.00040029,0.00077334,0.00085555,0.00154813,-0.000
 50944,0.00289719,0.00902624,0.00531984,0.00514825,-0.18965074,-0.11294
 331,-0.08931430,-0.01409097,-0.01645235,-0.01541099,-0.00042378,0.0000
 5669,0.00024800,-0.00006970,0.00003855,-0.00000713,-0.00000271,-0.0000
 0725,-0.00001347,-0.00001940,-0.00001308,0.00000565,-0.00003932,-0.000
 00767,-0.00002386,0.00000290,-0.00014908,-0.00000782,-0.00011040,0.000
 22318,-0.00026073,0.00031825,0.00027945,0.00032842,0.00010701,0.000906
 65,-0.00111415,0.19703590,0.00003273,0.00006662,0.00004268,0.00011931,
 -0.00004755,-0.00028302,-0.00178423,0.00591966,-0.00204078,0.00075513,
 -0.00054020,0.00027858,-0.00027956,0.00430738,-0.00503793,-0.01032998,
 -0.00343296,-0.00484504,-0.11294114,-0.13420556,-0.08395286,-0.0011530
 9,0.00205281,-0.00211234,0.00007747,0.00006338,0.00010365,0.00003113,-
 0.00002764,0.00001780,-0.00003072,-0.00001847,-0.00001733,0.00001479,-
 0.00001913,-0.00000123,0.00000369,0.00001538,-0.00000739,-0.00000805,-
 0.00002758,-0.00002492,0.00026990,-0.00076289,0.00044452,-0.00054709,-
 0.00026807,-0.00023654,0.00131910,-0.00238636,0.00185663,0.12347431,0.
 13192030,-0.00017733,-0.00011895,-0.00002812,0.00040823,0.00053313,0.0
 0051995,0.00391038,-0.00251933,0.00175131,0.00079704,0.00040642,-0.000
 76829,0.00323260,-0.00478083,-0.00230360,-0.01999220,-0.01461923,-0.00
 765104,-0.08937299,-0.08372546,-0.11912127,0.00972860,0.00745416,0.009
 78940,0.00004361,-0.00003726,-0.00017715,-0.00002307,0.00002253,0.0000
 0252,0.00002141,0.00001838,0.00002976,-0.00001190,0.00001732,-0.000003
 78,0.00000339,-0.00002032,0.00002061,0.00002813,0.00004402,0.00000694,
 -0.00026304,0.00047657,-0.00022574,-0.00097143,-0.00070206,-0.00049386
 ,-0.00045490,0.00209855,-0.00031352,0.09422169,0.09361374,0.11976041,-
 0.00104519,0.00057793,0.00118410,0.00008351,-0.00067518,-0.00202292,0.
 01017978,-0.00893935,-0.01776159,-0.00243286,-0.00419852,-0.00113501,-
 0.00111054,-0.00027124,-0.00035571,-0.00419270,-0.00270764,0.00270075,
 -0.00143397,0.01327315,0.02407390,-0.07459376,0.02802702,0.06627082,0.
 00020431,0.00038007,0.00000317,0.00021257,-0.00003709,-0.00002619,0.00
 001134,0.00007033,0.00001961,0.00001081,0.00004756,0.00000448,-0.00001
 977,0.00001529,-0.00000700,-0.00003266,0.00009325,0.00006349,0.0003190
 7,-0.00054693,-0.00108419,-0.00003057,0.00031068,-0.00012522,-0.000182
 50,0.00061861,0.00118259,0.00049947,0.00100446,-0.00115523,0.07358917,
 0.00066364,0.00116899,0.00091147,0.00264072,-0.00418896,-0.00031635,0.
 00320318,-0.00403980,-0.01477042,-0.00424266,0.00261663,-0.00348129,-0
 .00025932,-0.00068899,0.00074254,-0.00280559,0.00534918,-0.00198716,-0
 .00214243,0.00635768,0.00414106,0.02848833,-0.10624099,-0.11909987,-0.
 00028564,0.00022228,-0.00007956,-0.00002614,0.00002123,0.00003791,0.00
 001323,-0.00001516,0.00002387,0.00000624,0.00000625,-0.00000070,-0.000
 03955,0.00002035,0.00002341,-0.00000130,-0.00008037,-0.00004261,0.0002
 9209,-0.00006211,-0.00083084,0.00032492,-0.00066590,0.00037735,-0.0000
 9972,0.00002199,0.00034073,0.00139370,-0.00259495,0.00181585,-0.027122
 03,0.10277422,0.00064870,0.00155886,0.00085739,0.00073873,0.00064654,-
 0.00179671,0.00508059,-0.00658816,-0.00895469,-0.00147972,-0.00373899,
 0.00197190,-0.00022694,0.00076160,0.00020188,0.00292381,-0.00240098,0.
 00270577,0.00035654,-0.00539397,-0.00394216,0.06420351,-0.11933215,-0.
 26370876,0.00008142,-0.00003459,0.00021771,0.00004126,-0.00005273,0.00
 000066,0.00000744,0.00003294,-0.00001085,-0.00000199,0.00001842,0.0000
 0293,-0.00000369,0.00000326,-0.00002875,0.00002272,0.00005486,0.000054
 33,0.00033199,-0.00030768,-0.00036799,-0.00014043,0.00045092,-0.000323
 99,-0.00010256,-0.00015047,-0.00033632,-0.00065165,0.00217897,-0.00075
 016,-0.07178928,0.13227000,0.27421316,0.00021567,0.00050530,0.00031128
 ,-0.00054597,-0.00124075,-0.00037805,-0.00019861,-0.00099123,0.0001649
 6,-0.00047420,-0.00151349,0.00148932,0.00063938,-0.00001014,0.00004424
 ,-0.00029934,-0.00026280,-0.00054092,-0.00050919,0.00004611,0.00040820
 ,0.00073302,0.00048212,0.00003051,-0.00881129,0.00005019,-0.00017466,-
 0.33960168,0.03047800,-0.00798150,-0.01213423,0.00443890,-0.00023350,0
 .00003191,-0.00322667,-0.00048785,0.00064830,-0.00031306,-0.00000625,0
 .00114958,0.00237642,0.00023606,-0.00029680,-0.00010337,-0.00029853,0.
 00002062,0.00000316,0.00001286,-0.00002741,0.00000901,-0.00002714,0.00
 001129,-0.00002755,0.00002267,-0.00001814,0.00001511,-0.00002176,0.359
 97716,-0.00041940,-0.00000137,0.00017774,0.00151285,0.00116783,0.00019
 221,-0.00053753,-0.00102755,-0.00008660,-0.00061145,-0.00091876,0.0009
 3371,-0.00006683,-0.00000496,0.00011788,0.00004972,0.00001489,0.000007
 83,0.00004266,-0.00005742,0.00000119,-0.00026204,0.00009832,-0.0000766
 2,0.02775276,0.00247097,0.00089759,0.02945644,-0.06242342,-0.00189948,
 -0.02596318,0.00731785,-0.00051568,-0.00302024,-0.00382092,-0.00113637
 ,-0.00021475,-0.00131461,-0.00003226,0.00193949,-0.00519426,-0.0012612
 2,0.00008778,-0.00014954,0.00029030,0.00002480,0.00001328,-0.00004323,
 0.00002109,0.00002638,-0.00000702,0.00001730,-0.00000339,0.00001295,0.
 00004405,0.00001279,0.00001191,-0.03062945,0.06265711,0.00022936,-0.00
 122573,-0.00013093,0.00056483,0.00128043,-0.00359821,0.00044140,0.0006
 4678,0.00047151,0.00043116,0.00098967,-0.00010253,-0.00016052,-0.00014
 665,-0.00009674,0.00012016,0.00011809,0.00018920,0.00007547,-0.0000679
 2,-0.00024211,-0.00017135,-0.00037245,-0.00016461,0.00241143,-0.001117
 94,0.00279679,-0.00748088,-0.00102956,-0.03934746,-0.00335927,0.000258
 61,0.00427016,-0.00018317,-0.00133535,0.00749856,0.00000798,0.00036374
 ,-0.00101564,-0.00015511,-0.00137850,0.00688304,-0.00030514,0.00058741
 ,-0.00065396,0.00002494,0.00001676,-0.00003461,-0.00002726,-0.00001653
 ,-0.00000918,-0.00000091,0.00002095,-0.00003250,-0.00002562,-0.0000490
 8,-0.00001819,0.00738551,0.00186637,0.02839653,-0.00020385,-0.00045256
 ,-0.00029335,0.00090412,-0.00038553,0.00009509,-0.00006005,-0.00000816
 ,-0.00006908,0.00000137,0.00000480,-0.00002246,-0.00001143,0.00001156,
 0.00000604,-0.00001855,-0.00000319,-0.00000354,-0.00001008,0.00000014,
 0.00000562,-0.00001264,0.00001748,0.00001779,-0.00157390,-0.00363033,-
 0.00045140,0.01151474,-0.01811341,-0.00156931,-0.10837761,0.10765036,0
 .00856116,-0.00721037,0.02960783,0.00267230,-0.00578754,-0.00032683,-0
 .00042678,-0.00114048,-0.00080573,-0.00006079,0.00002637,-0.00000060,0
 .00000743,-0.00000297,-0.00000777,0.00001176,-0.00000020,-0.00000215,0
 .00000252,-0.00000392,-0.00000272,0.00000301,0.00001140,-0.00000227,0.
 00000262,0.00069853,0.00051878,0.00019783,0.11075510,-0.00029172,-0.00
 085252,-0.00038697,0.00152363,0.00029968,0.00011823,-0.00013006,-0.000
 08762,-0.00006616,-0.00005799,-0.00004327,-0.00004444,-0.00001051,0.00
 000893,-0.00000339,-0.00004355,-0.00000689,-0.00000397,-0.00003010,0.0
 0000131,0.00002247,-0.00002044,0.00006281,0.00006566,-0.00421287,-0.00
 235467,-0.00081968,0.01270388,-0.01754107,-0.00171929,0.10764892,-0.29
 368347,-0.02245262,-0.00151550,0.00159315,-0.00024704,0.00016607,0.001
 83456,-0.00051185,-0.00076465,0.00044018,0.00012565,0.00004191,-0.0000
 3937,-0.00002197,-0.00001846,-0.00000972,0.00002250,-0.00000400,-0.000
 00494,0.00000502,-0.00001439,-0.00000570,0.00000494,0.00002868,-0.0000
 0171,0.00000699,-0.00015610,0.00076682,0.00049916,-0.11510178,0.309250
 88,0.00006643,0.00011269,-0.00023304,0.00012883,-0.00005668,0.00043798
 ,0.00001850,0.00003014,-0.00000832,0.00005173,0.00005359,0.00000895,-0
 .00002777,-0.00001031,-0.00000060,0.00000470,0.00000860,0.00001192,0.0
 0000452,0.00000215,-0.00001301,-0.00001358,-0.00000183,-0.00001640,-0.
 00049688,-0.00130545,0.00739566,0.00155192,-0.00221634,0.00320343,0.00
 809699,-0.02252051,-0.04035122,-0.00009888,0.00044308,0.00358921,-0.00
 028966,-0.00046795,0.00747631,-0.00023119,-0.00012683,-0.00106929,-0.0
 0000980,0.00002398,0.00001233,0.00001064,0.00000899,-0.00000682,-0.000
 00158,-0.00000187,0.00000107,-0.00000143,-0.00000806,0.00000017,-0.000
 00012,-0.00000749,0.00000007,0.00009525,0.00047027,-0.00414890,-0.0090
 2598,0.02486305,0.02875326,0.00009410,-0.00009223,-0.00007790,-0.00002
 107,0.00007186,0.00010943,-0.00001596,-0.00000608,0.00000478,-0.000004
 98,-0.00005592,0.00004309,0.00003625,-0.00001151,-0.00002158,-0.000013
 50,-0.00001444,-0.00001743,-0.00002575,0.00000659,0.00001420,0.0000456
 8,0.00001266,0.00002821,-0.00070277,0.00108309,0.00018627,-0.00560693,
 0.00158567,-0.00027038,-0.01188379,-0.02673964,-0.00336557,-0.15575008
 ,-0.13347272,-0.01795674,0.01165961,0.01202933,0.00152801,-0.00014696,
 0.00322402,0.00020003,-0.00001676,0.00000842,-0.00004622,-0.00000299,0
 .00000183,0.00000215,-0.00000550,-0.00000164,-0.00000126,-0.00000337,-
 0.00000112,-0.00000048,-0.00000233,0.00000114,-0.00000275,-0.00065841,
 -0.00128567,-0.00012918,0.00089517,0.00034685,0.00019500,0.16112005,-0
 .00020753,0.00005785,-0.00000490,0.00008859,-0.00010165,0.00008444,-0.
 00005359,-0.00005342,0.00000379,-0.00000020,-0.00002041,-0.00001354,-0
 .00000243,-0.00000279,-0.00000379,-0.00000898,-0.00000290,0.00000195,-
 0.00000744,0.00000246,0.00000449,-0.00001414,0.00001853,0.00002135,0.0
 0116707,0.00001124,0.00004535,0.00133460,0.00159809,-0.00063739,0.0041
 6026,0.00657274,0.00035283,-0.13356430,-0.24509086,-0.02645721,-0.0187
 7969,-0.01653389,-0.00278585,0.00348861,-0.00393527,-0.00119089,0.0000
 0964,0.00000525,-0.00001083,-0.00000500,0.00000103,0.00000322,-0.00000
 264,-0.00000023,0.00000079,-0.00000531,-0.00000245,0.00000106,0.000007
 51,0.00000174,0.00000214,0.00027390,0.00019308,0.00002801,-0.00045083,
 0.00048840,0.00050765,0.14326632,0.25679956,-0.00004508,-0.00023334,0.
 00006489,0.00003086,0.00010251,-0.00124938,0.00014517,0.00005219,0.000
 08634,-0.00000446,0.00004912,0.00003757,-0.00003765,-0.00001461,0.0000
 0740,0.00001496,0.00001682,0.00002589,0.00002215,0.00000757,-0.0000366
 4,-0.00001282,-0.00005728,-0.00001578,-0.00013853,0.00042512,-0.000875
 82,-0.00012691,-0.00067811,0.00756227,0.00018288,-0.00037221,0.0041894
 0,-0.01800392,-0.02633889,-0.04330710,-0.00199530,-0.00208796,0.003948
 50,0.00027039,-0.00139876,0.00733071,-0.00003107,-0.00001303,0.0000013
 0,0.00000507,-0.00000029,-0.00000210,-0.00000127,-0.00000068,-0.000000
 09,0.00000020,0.00000305,-0.00000375,0.00000057,-0.00000471,0.00000429
 ,0.00004474,-0.00001105,-0.00007345,0.00011887,0.00046445,-0.00408839,
 0.01945656,0.02958024,0.03048593,0.00009327,-0.00037045,-0.00019154,-0
 .00044560,0.00105007,0.00035651,-0.00008365,-0.00028780,-0.00007878,-0
 .00001732,-0.00003172,-0.00003252,-0.00001542,0.00000179,-0.00000060,-
 0.00001452,-0.00000554,0.00000756,-0.00002691,-0.00000224,-0.00001147,
 -0.00005957,0.00003495,0.00008450,0.00000956,-0.00345288,-0.00075028,0
 .00074703,-0.00021832,0.00002062,0.00111276,0.00250575,0.00012811,-0.0
 0790598,-0.00170654,-0.00046156,-0.34160446,0.02813862,-0.00374314,-0.
 01310339,0.00434177,0.00014615,0.00000953,0.00000018,-0.00001307,-0.00
 001101,0.00000448,0.00000612,-0.00000495,-0.00000137,0.00000283,-0.000
 01676,-0.00000343,0.00000303,0.00001497,-0.00000179,0.00000363,-0.0000
 7847,0.00001956,0.00002955,-0.00048459,-0.00014726,-0.00003268,0.00058
 991,0.00025246,0.00014225,0.36061421,0.00025700,-0.00019980,-0.0001483
 4,-0.00119791,0.00093020,0.00035256,-0.00007343,-0.00038218,-0.0000423
 7,-0.00001740,-0.00000740,-0.00001900,-0.00003100,0.00001842,-0.000004
 51,-0.00001009,-0.00000422,0.00001655,-0.00002426,0.00000833,-0.000030
 18,-0.00008044,0.00001129,0.00008310,-0.00306954,-0.00371257,-0.001755
 94,-0.00021281,-0.00144230,-0.00009118,0.00203424,-0.00490903,-0.00135
 042,0.02926346,0.00226035,0.00048362,0.02810101,-0.06200307,-0.0019826
 7,-0.02640396,0.00703482,-0.00018865,0.00000274,-0.00002319,0.00000678
 ,-0.00000914,-0.00000088,0.00000758,-0.00000177,-0.00000242,0.00000344
 ,-0.00001499,-0.00000303,0.00000375,0.00001138,-0.00000698,0.00000426,
 -0.00001070,0.00010770,0.00015685,0.00144582,-0.00004368,0.00004321,-0
 .00055572,0.00078374,0.00052239,-0.02997984,0.06088220,-0.00007972,-0.
 00018017,-0.00007257,-0.00001674,0.00016349,0.00021414,-0.00020469,-0.
 00005985,-0.00007172,-0.00002638,-0.00002842,-0.00006997,0.00004372,-0
 .00000224,0.00000554,-0.00000770,-0.00001773,-0.00002359,-0.00002380,-
 0.00001008,0.00001526,0.00001259,-0.00000312,0.00003051,-0.00083864,-0
 .00137674,0.00763846,0.00009751,-0.00020998,-0.00101362,0.00013353,-0.
 00144441,0.00734555,0.00312594,-0.00008458,0.00358968,-0.00362784,-0.0
 0218293,-0.03937192,-0.00327016,0.00066888,0.00381886,0.00002286,0.000
 04335,-0.00001094,0.00000443,-0.00000410,0.00000244,-0.00000181,0.0000
 0287,-0.00000221,-0.00000592,0.00000528,-0.00000273,0.00000094,-0.0000
 0274,-0.00000194,0.00000852,0.00011375,-0.00112839,0.00018904,-0.00000
 844,0.00008506,0.00003829,0.00054717,-0.00396522,0.00426860,0.00327716
 ,0.02722152,0.00149599,-0.00173875,-0.00072192,-0.00101618,0.00333098,
 0.00181965,0.00025007,-0.00008159,-0.00029071,0.00009683,0.00009128,0.
 00009262,0.00005389,-0.00001744,-0.00002903,0.00003467,-0.00000439,-0.
 00003151,-0.00001602,-0.00002171,-0.00003587,0.00003097,-0.00005214,-0
 .00002508,-0.00775550,0.02821734,0.00342483,-0.00596296,-0.00050730,-0
 .00013600,-0.00083593,-0.00072426,-0.00008668,-0.00177939,-0.00352567,
 -0.00057528,0.01186349,-0.01795676,-0.00226242,-0.10463326,0.10426211,
 0.01379634,-0.00000640,0.00002937,-0.00006367,0.00001700,0.00000446,-0
 .00001730,0.00000227,-0.00000190,-0.00000706,0.00001120,0.00000668,-0.
 00000123,-0.00004140,-0.00001385,-0.00002218,-0.00047174,0.00152326,0.
 00007878,0.00009135,0.00005941,0.00000503,0.00042034,-0.00094688,-0.00
 003765,0.00068134,0.00057735,0.00015743,0.10746937,-0.00159272,-0.0003
 4463,0.00037615,-0.00069536,-0.00081991,0.00000631,0.00011431,0.000153
 39,-0.00020114,0.00006699,0.00006264,0.00000988,0.00001283,-0.00001637
 ,-0.00000564,0.00001064,0.00000197,-0.00000569,0.00000645,-0.00001467,
 0.00000376,-0.00001756,-0.00002068,-0.00003100,0.00121863,0.00056647,-
 0.00059018,-0.00010521,0.00163382,-0.00079455,-0.00084185,0.00027670,0
 .00019696,-0.00350470,-0.00197084,-0.00157876,0.01165676,-0.01509301,-
 0.00249405,0.10585798,-0.29588947,-0.03155258,0.00001426,-0.00000563,-
 0.00000477,0.00000946,0.00000007,-0.00000632,0.00000079,0.00000215,-0.
 00000247,0.00000722,0.00000043,0.00000007,-0.00001199,0.00001259,-0.00
 000195,-0.00019289,0.00006917,-0.00009313,0.00003709,-0.00007209,0.000
 15590,0.00059890,-0.00078985,-0.00001254,-0.00014043,0.00070370,0.0007
 9359,-0.11250961,0.31155407,-0.00051684,-0.00042895,-0.00017209,0.0000
 5577,-0.00047642,-0.00406577,0.00029170,0.00007087,0.00024085,0.000043
 86,0.00010953,0.00007512,0.00002091,0.00000337,-0.00005222,0.00001194,
 -0.00000708,-0.00001659,-0.00000151,0.00004195,0.00000247,0.00010004,-
 0.00008800,-0.00006914,0.00148274,0.00125241,0.00437126,-0.00029506,-0
 .00077684,0.00648048,-0.00006776,0.00024849,-0.00103839,-0.00068858,-0
 .00111345,0.00761513,0.00148431,-0.00253989,0.00421254,0.01297240,-0.0
 3270769,-0.04402752,-0.00000558,-0.00003604,-0.00001150,0.00001650,-0.
 00000328,-0.00000730,0.00000144,-0.00000684,-0.00000071,0.00001384,0.0
 0000160,-0.00000557,-0.00001633,-0.00001136,0.00001042,-0.00010396,-0.
 00002415,0.00029162,0.00003162,0.00008770,-0.00103942,0.00008345,-0.00
 008009,-0.00012676,0.00011618,0.00065200,-0.00423220,-0.01503111,0.035
 83213,0.03156529\\-0.00000638,0.00000865,-0.00000126,0.00002213,0.0000
 3795,0.00002269,-0.00004062,-0.00003703,-0.00000193,0.00000933,-0.0000
 0082,0.00000334,-0.00003452,-0.00000171,-0.00002348,0.00000400,0.00000
 497,0.00002412,0.00000617,-0.00000043,0.00000775,-0.00001165,0.0000126
 3,-0.00000633,0.00010055,-0.00007200,-0.00003624,-0.00002605,0.0000721
 3,-0.00001001,-0.00002623,-0.00002839,0.00001980,0.00002140,-0.0000181
 3,-0.00000592,-0.00000660,0.00004568,0.00000008,-0.00005081,-0.0000031
 2,0.00001654,-0.00000498,0.00000271,0.00000177,0.00001581,-0.00000039,
 0.00000608,-0.00000018,-0.00000202,-0.00000606,0.00000195,0.00000071,-
 0.00000885,-0.00000137,0.00000174,-0.00000162,0.00001079,-0.00000970,0
 .00000278,-0.00000464,-0.00000313,-0.00000605,0.00000995,-0.00000724,-
 0.00000113,0.00000372,-0.00000324,0.00000290,0.00000824,0.00000016,0.0
 0000105\\\@


       THE DEATH-KNELL OF THE ATOM

 SO THE ATOMS IN TURN, WE NOW CLEARLY DISCERN,
 FLY TO BITS WITH THE UTMOST FACILITY;
 THEY WEND ON THEIR WAY, AND, IN SPLITTING, DISPLAY
 AN ABSOLUTE LACK OF STABILITY.

          SIR WM. RAMSAY, 1905
 Job cpu time:       0 days  1 hours 57 minutes 24.9 seconds.
 Elapsed time:       0 days  0 hours  4 minutes 58.9 seconds.
 File lengths (MBytes):  RWF=    313 Int=      0 D2E=      0 Chk=     13 Scr=      1
 Normal termination of Gaussian 16 at Mon Oct 14 10:40:13 2019.
real 640.12
user 15081.70
sys 26.93
Machine:
brown-a507
brown-a507
brown-a507
brown-a507
brown-a507
brown-a507
brown-a507
brown-a507
brown-a507
brown-a507
brown-a507
brown-a507
brown-a507
brown-a507
brown-a507
brown-a507
brown-a507
brown-a507
brown-a507
brown-a507
brown-a507
brown-a507
brown-a507
brown-a507
