 Entering Gaussian System, Link 0=/apps/cent7/gaussian/g16-A.03/g16-haswell/g16/g16
 Initial command:
 /apps/cent7/gaussian/g16-A.03/g16-haswell/g16/l1.exe "/scratch/brown/finej/gaussian/Gau-271184.inp" -scrdir="/scratch/brown/finej/gaussian/"
 Entering Link 1 = /apps/cent7/gaussian/g16-A.03/g16-haswell/g16/l1.exe PID=    271185.
  
 Copyright (c) 1988,1990,1992,1993,1995,1998,2003,2009,2016,
            Gaussian, Inc.  All Rights Reserved.
  
 This is part of the Gaussian(R) 16 program.  It is based on
 the Gaussian(R) 09 system (copyright 2009, Gaussian, Inc.),
 the Gaussian(R) 03 system (copyright 2003, Gaussian, Inc.),
 the Gaussian(R) 98 system (copyright 1998, Gaussian, Inc.),
 the Gaussian(R) 94 system (copyright 1995, Gaussian, Inc.),
 the Gaussian 92(TM) system (copyright 1992, Gaussian, Inc.),
 the Gaussian 90(TM) system (copyright 1990, Gaussian, Inc.),
 the Gaussian 88(TM) system (copyright 1988, Gaussian, Inc.),
 the Gaussian 86(TM) system (copyright 1986, Carnegie Mellon
 University), and the Gaussian 82(TM) system (copyright 1983,
 Carnegie Mellon University). Gaussian is a federally registered
 trademark of Gaussian, Inc.
  
 This software contains proprietary and confidential information,
 including trade secrets, belonging to Gaussian, Inc.
  
 This software is provided under written license and may be
 used, copied, transmitted, or stored only in accord with that
 written license.
  
 The following legend is applicable only to US Government
 contracts under FAR:
  
                    RESTRICTED RIGHTS LEGEND
  
 Use, reproduction and disclosure by the US Government is
 subject to restrictions as set forth in subparagraphs (a)
 and (c) of the Commercial Computer Software - Restricted
 Rights clause in FAR 52.227-19.
  
 Gaussian, Inc.
 340 Quinnipiac St., Bldg. 40, Wallingford CT 06492
  
  
 ---------------------------------------------------------------
 Warning -- This program may not be used in any manner that
 competes with the business of Gaussian, Inc. or will provide
 assistance to any competitor of Gaussian, Inc.  The licensee
 of this program is prohibited from giving any competitor of
 Gaussian, Inc. access to this program.  By using this program,
 the user acknowledges that Gaussian, Inc. is engaged in the
 business of creating and licensing software in the field of
 computational chemistry and represents and warrants to the
 licensee that it is not a competitor of Gaussian, Inc. and that
 it will not use this program in any manner prohibited above.
 ---------------------------------------------------------------
  

 Cite this work as:
 Gaussian 16, Revision A.03,
 M. J. Frisch, G. W. Trucks, H. B. Schlegel, G. E. Scuseria, 
 M. A. Robb, J. R. Cheeseman, G. Scalmani, V. Barone, 
 G. A. Petersson, H. Nakatsuji, X. Li, M. Caricato, A. V. Marenich, 
 J. Bloino, B. G. Janesko, R. Gomperts, B. Mennucci, H. P. Hratchian, 
 J. V. Ortiz, A. F. Izmaylov, J. L. Sonnenberg, D. Williams-Young, 
 F. Ding, F. Lipparini, F. Egidi, J. Goings, B. Peng, A. Petrone, 
 T. Henderson, D. Ranasinghe, V. G. Zakrzewski, J. Gao, N. Rega, 
 G. Zheng, W. Liang, M. Hada, M. Ehara, K. Toyota, R. Fukuda, 
 J. Hasegawa, M. Ishida, T. Nakajima, Y. Honda, O. Kitao, H. Nakai, 
 T. Vreven, K. Throssell, J. A. Montgomery, Jr., J. E. Peralta, 
 F. Ogliaro, M. J. Bearpark, J. J. Heyd, E. N. Brothers, K. N. Kudin, 
 V. N. Staroverov, T. A. Keith, R. Kobayashi, J. Normand, 
 K. Raghavachari, A. P. Rendell, J. C. Burant, S. S. Iyengar, 
 J. Tomasi, M. Cossi, J. M. Millam, M. Klene, C. Adamo, R. Cammi, 
 J. W. Ochterski, R. L. Martin, K. Morokuma, O. Farkas, 
 J. B. Foresman, and D. J. Fox, Gaussian, Inc., Wallingford CT, 2016.
 
 ******************************************
 Gaussian 16:  ES64L-G16RevA.03 25-Dec-2016
                14-Oct-2019 
 ******************************************
 %chk=15_p.chk
 %nprocshared=24
 Will use up to   24 processors via shared memory.
 %mem=80GB
 -------------------------------------------------------------------
 #p opt freq m062x/6-311++g(d,p) geom=connectivity temperature=0.001
 -------------------------------------------------------------------
 1/18=20,19=15,26=3,38=1,57=2,112=-1000/1,3;
 2/9=110,12=2,17=6,18=5,40=1/2;
 3/5=4,6=6,7=1111,11=2,25=1,30=1,71=1,74=-55/1,2,3;
 4//1;
 5/5=2,38=5/2;
 6/7=2,8=2,9=2,10=2,28=1/1;
 7//1,2,3,16;
 1/18=20,19=15,26=3/3(2);
 2/9=110/2;
 99//99;
 2/9=110/2;
 3/5=4,6=6,7=1111,11=2,25=1,30=1,71=1,74=-55/1,2,3;
 4/5=5,16=3,69=1/1;
 5/5=2,38=5/2;
 7//1,2,3,16;
 1/18=20,19=15,26=3/3(-5);
 2/9=110/2;
 6/7=2,8=2,9=2,10=2,19=2,28=1/1;
 99/9=1/99;
 Leave Link    1 at Mon Oct 14 10:29:40 2019, MaxMem= 10737418240 cpu:               1.3 elap:               0.1
 (Enter /apps/cent7/gaussian/g16-A.03/g16-haswell/g16/l101.exe)
 -------------------
 Title Card Required
 -------------------
 Symbolic Z-matrix:
 Charge =  1 Multiplicity = 1
 O                    -2.39109   1.91231   0.59001 
 C                    -1.8908    0.9201    0. 
 C                    -0.55296   1.18967  -0.53474 
 C                    -0.06074   0.8226   -1.81973 
 C                     1.24338   1.12083  -2.25823 
 C                     2.13028   1.80905  -1.42349 
 C                     1.70186   2.19577  -0.14814 
 C                     0.39559   1.89106   0.2771 
 C                    -2.7752   -0.2487    0. 
 C                    -2.3776   -1.6164    0. 
 C                    -3.2947   -2.6844    0. 
 C                    -4.6712   -2.4349    0. 
 C                    -5.1215   -1.1094    0. 
 C                    -4.1936   -0.0516    0. 
 H                    -0.7169    0.28482  -2.50407 
 H                     1.56928   0.81624  -3.25269 
 H                     3.14024   2.04054  -1.76184 
 H                     2.38329   2.7325    0.51176 
 H                     0.10625   2.21198   1.27786 
 H                    -1.3148   -1.8585    0. 
 H                    -2.9359   -3.7137    0. 
 H                    -5.3823   -3.261     0. 
 H                    -6.1915   -0.9017    0. 
 H                    -4.5904    0.9636    0. 
 H                    -1.81913   2.57501   0.98408 
 
 ITRead=  0  0  0  0  0  0  0  0  0  0  0  0  0  0  0  0  0  0  0  0
 ITRead=  0  0  0  0  0
 MicOpt= -1 -1 -1 -1 -1 -1 -1 -1 -1 -1 -1 -1 -1 -1 -1 -1 -1 -1 -1 -1
 MicOpt= -1 -1 -1 -1 -1
 NAtoms=     25 NQM=       25 NQMF=       0 NMMI=      0 NMMIF=      0
                NMic=       0 NMicF=      0.
                    Isotopes and Nuclear Properties:
 (Nuclear quadrupole moments (NQMom) in fm**2, nuclear magnetic moments (NMagM)
  in nuclear magnetons)

  Atom         1           2           3           4           5           6           7           8           9          10
 IAtWgt=          16          12          12          12          12          12          12          12          12          12
 AtmWgt=  15.9949146  12.0000000  12.0000000  12.0000000  12.0000000  12.0000000  12.0000000  12.0000000  12.0000000  12.0000000
 NucSpn=           0           0           0           0           0           0           0           0           0           0
 AtZEff=  -0.0000000  -0.0000000  -0.0000000  -0.0000000  -0.0000000  -0.0000000  -0.0000000  -0.0000000  -0.0000000  -0.0000000
 NQMom=    0.0000000   0.0000000   0.0000000   0.0000000   0.0000000   0.0000000   0.0000000   0.0000000   0.0000000   0.0000000
 NMagM=    0.0000000   0.0000000   0.0000000   0.0000000   0.0000000   0.0000000   0.0000000   0.0000000   0.0000000   0.0000000
 AtZNuc=   8.0000000   6.0000000   6.0000000   6.0000000   6.0000000   6.0000000   6.0000000   6.0000000   6.0000000   6.0000000

  Atom        11          12          13          14          15          16          17          18          19          20
 IAtWgt=          12          12          12          12           1           1           1           1           1           1
 AtmWgt=  12.0000000  12.0000000  12.0000000  12.0000000   1.0078250   1.0078250   1.0078250   1.0078250   1.0078250   1.0078250
 NucSpn=           0           0           0           0           1           1           1           1           1           1
 AtZEff=  -0.0000000  -0.0000000  -0.0000000  -0.0000000  -0.0000000  -0.0000000  -0.0000000  -0.0000000  -0.0000000  -0.0000000
 NQMom=    0.0000000   0.0000000   0.0000000   0.0000000   0.0000000   0.0000000   0.0000000   0.0000000   0.0000000   0.0000000
 NMagM=    0.0000000   0.0000000   0.0000000   0.0000000   2.7928460   2.7928460   2.7928460   2.7928460   2.7928460   2.7928460
 AtZNuc=   6.0000000   6.0000000   6.0000000   6.0000000   1.0000000   1.0000000   1.0000000   1.0000000   1.0000000   1.0000000

  Atom        21          22          23          24          25
 IAtWgt=           1           1           1           1           1
 AtmWgt=   1.0078250   1.0078250   1.0078250   1.0078250   1.0078250
 NucSpn=           1           1           1           1           1
 AtZEff=  -0.0000000  -0.0000000  -0.0000000  -0.0000000  -0.0000000
 NQMom=    0.0000000   0.0000000   0.0000000   0.0000000   0.0000000
 NMagM=    2.7928460   2.7928460   2.7928460   2.7928460   2.7928460
 AtZNuc=   1.0000000   1.0000000   1.0000000   1.0000000   1.0000000
 Leave Link  101 at Mon Oct 14 10:29:40 2019, MaxMem= 10737418240 cpu:               8.7 elap:               0.4
 (Enter /apps/cent7/gaussian/g16-A.03/g16-haswell/g16/l103.exe)

 GradGradGradGradGradGradGradGradGradGradGradGradGradGradGradGradGradGrad
 Berny optimization.
 Initialization pass.
                           ----------------------------
                           !    Initial Parameters    !
                           ! (Angstroms and Degrees)  !
 --------------------------                            --------------------------
 ! Name  Definition              Value          Derivative Info.                !
 --------------------------------------------------------------------------------
 ! R1    R(1,2)                  1.2581         estimate D2E/DX2                !
 ! R2    R(1,25)                 0.96           estimate D2E/DX2                !
 ! R3    R(2,3)                  1.4658         estimate D2E/DX2                !
 ! R4    R(2,9)                  1.4657         estimate D2E/DX2                !
 ! R5    R(3,4)                  1.4242         estimate D2E/DX2                !
 ! R6    R(3,8)                  1.432          estimate D2E/DX2                !
 ! R7    R(4,5)                  1.4078         estimate D2E/DX2                !
 ! R8    R(4,15)                 1.09           estimate D2E/DX2                !
 ! R9    R(5,6)                  1.3989         estimate D2E/DX2                !
 ! R10   R(5,16)                 1.0899         estimate D2E/DX2                !
 ! R11   R(6,7)                  1.3999         estimate D2E/DX2                !
 ! R12   R(6,17)                 1.09           estimate D2E/DX2                !
 ! R13   R(7,8)                  1.4071         estimate D2E/DX2                !
 ! R14   R(7,18)                 1.0899         estimate D2E/DX2                !
 ! R15   R(8,19)                 1.0901         estimate D2E/DX2                !
 ! R16   R(9,10)                 1.4243         estimate D2E/DX2                !
 ! R17   R(9,14)                 1.432          estimate D2E/DX2                !
 ! R18   R(10,11)                1.4077         estimate D2E/DX2                !
 ! R19   R(10,20)                1.09           estimate D2E/DX2                !
 ! R20   R(11,12)                1.3989         estimate D2E/DX2                !
 ! R21   R(11,21)                1.09           estimate D2E/DX2                !
 ! R22   R(12,13)                1.3999         estimate D2E/DX2                !
 ! R23   R(12,22)                1.09           estimate D2E/DX2                !
 ! R24   R(13,14)                1.4071         estimate D2E/DX2                !
 ! R25   R(13,23)                1.09           estimate D2E/DX2                !
 ! R26   R(14,24)                1.09           estimate D2E/DX2                !
 ! A1    A(2,1,25)             120.0            estimate D2E/DX2                !
 ! A2    A(1,2,3)              112.8917         estimate D2E/DX2                !
 ! A3    A(1,2,9)              112.8894         estimate D2E/DX2                !
 ! A4    A(3,2,9)              134.219          estimate D2E/DX2                !
 ! A5    A(2,3,4)              126.6715         estimate D2E/DX2                !
 ! A6    A(2,3,8)              119.1978         estimate D2E/DX2                !
 ! A7    A(4,3,8)              114.1307         estimate D2E/DX2                !
 ! A8    A(3,4,5)              123.134          estimate D2E/DX2                !
 ! A9    A(3,4,15)             119.0518         estimate D2E/DX2                !
 ! A10   A(5,4,15)             117.8142         estimate D2E/DX2                !
 ! A11   A(4,5,6)              120.3742         estimate D2E/DX2                !
 ! A12   A(4,5,16)             120.1308         estimate D2E/DX2                !
 ! A13   A(6,5,16)             119.495          estimate D2E/DX2                !
 ! A14   A(5,6,7)              119.0452         estimate D2E/DX2                !
 ! A15   A(5,6,17)             120.4435         estimate D2E/DX2                !
 ! A16   A(7,6,17)             120.5113         estimate D2E/DX2                !
 ! A17   A(6,7,8)              119.974          estimate D2E/DX2                !
 ! A18   A(6,7,18)             119.7566         estimate D2E/DX2                !
 ! A19   A(8,7,18)             120.2694         estimate D2E/DX2                !
 ! A20   A(3,8,7)              123.3419         estimate D2E/DX2                !
 ! A21   A(3,8,19)             119.2648         estimate D2E/DX2                !
 ! A22   A(7,8,19)             117.3933         estimate D2E/DX2                !
 ! A23   A(2,9,10)             126.6767         estimate D2E/DX2                !
 ! A24   A(2,9,14)             119.2027         estimate D2E/DX2                !
 ! A25   A(10,9,14)            114.1206         estimate D2E/DX2                !
 ! A26   A(9,10,11)            123.1375         estimate D2E/DX2                !
 ! A27   A(9,10,20)            119.0422         estimate D2E/DX2                !
 ! A28   A(11,10,20)           117.8203         estimate D2E/DX2                !
 ! A29   A(10,11,12)           120.3792         estimate D2E/DX2                !
 ! A30   A(10,11,21)           120.1292         estimate D2E/DX2                !
 ! A31   A(12,11,21)           119.4916         estimate D2E/DX2                !
 ! A32   A(11,12,13)           119.0374         estimate D2E/DX2                !
 ! A33   A(11,12,22)           120.4479         estimate D2E/DX2                !
 ! A34   A(13,12,22)           120.5147         estimate D2E/DX2                !
 ! A35   A(12,13,14)           119.9791         estimate D2E/DX2                !
 ! A36   A(12,13,23)           119.7489         estimate D2E/DX2                !
 ! A37   A(14,13,23)           120.272          estimate D2E/DX2                !
 ! A38   A(9,14,13)            123.346          estimate D2E/DX2                !
 ! A39   A(9,14,24)            119.2596         estimate D2E/DX2                !
 ! A40   A(13,14,24)           117.3943         estimate D2E/DX2                !
 ! D1    D(25,1,2,3)           -26.2578         estimate D2E/DX2                !
 ! D2    D(25,1,2,9)           153.7422         estimate D2E/DX2                !
 ! D3    D(1,2,3,4)           -136.0            estimate D2E/DX2                !
 ! D4    D(1,2,3,8)             44.0            estimate D2E/DX2                !
 ! D5    D(9,2,3,4)             44.0            estimate D2E/DX2                !
 ! D6    D(9,2,3,8)           -136.0            estimate D2E/DX2                !
 ! D7    D(1,2,9,10)          -149.4            estimate D2E/DX2                !
 ! D8    D(1,2,9,14)            30.6            estimate D2E/DX2                !
 ! D9    D(3,2,9,10)            30.6            estimate D2E/DX2                !
 ! D10   D(3,2,9,14)          -149.4            estimate D2E/DX2                !
 ! D11   D(2,3,4,5)            180.0            estimate D2E/DX2                !
 ! D12   D(2,3,4,15)             0.0            estimate D2E/DX2                !
 ! D13   D(8,3,4,5)              0.0            estimate D2E/DX2                !
 ! D14   D(8,3,4,15)           180.0            estimate D2E/DX2                !
 ! D15   D(2,3,8,7)            180.0            estimate D2E/DX2                !
 ! D16   D(2,3,8,19)             0.0            estimate D2E/DX2                !
 ! D17   D(4,3,8,7)              0.0            estimate D2E/DX2                !
 ! D18   D(4,3,8,19)           180.0            estimate D2E/DX2                !
 ! D19   D(3,4,5,6)              0.0            estimate D2E/DX2                !
 ! D20   D(3,4,5,16)           180.0            estimate D2E/DX2                !
 ! D21   D(15,4,5,6)           180.0            estimate D2E/DX2                !
 ! D22   D(15,4,5,16)            0.0            estimate D2E/DX2                !
 ! D23   D(4,5,6,7)              0.0            estimate D2E/DX2                !
 ! D24   D(4,5,6,17)           180.0            estimate D2E/DX2                !
 ! D25   D(16,5,6,7)           180.0            estimate D2E/DX2                !
 ! D26   D(16,5,6,17)            0.0            estimate D2E/DX2                !
 ! D27   D(5,6,7,8)              0.0            estimate D2E/DX2                !
 ! D28   D(5,6,7,18)           180.0            estimate D2E/DX2                !
 ! D29   D(17,6,7,8)           180.0            estimate D2E/DX2                !
 ! D30   D(17,6,7,18)            0.0            estimate D2E/DX2                !
 ! D31   D(6,7,8,3)              0.0            estimate D2E/DX2                !
 ! D32   D(6,7,8,19)           180.0            estimate D2E/DX2                !
 ! D33   D(18,7,8,3)           180.0            estimate D2E/DX2                !
 ! D34   D(18,7,8,19)            0.0            estimate D2E/DX2                !
 ! D35   D(2,9,10,11)          180.0            estimate D2E/DX2                !
 ! D36   D(2,9,10,20)            0.0            estimate D2E/DX2                !
 ! D37   D(14,9,10,11)           0.0            estimate D2E/DX2                !
 ! D38   D(14,9,10,20)         180.0            estimate D2E/DX2                !
 ! D39   D(2,9,14,13)          180.0            estimate D2E/DX2                !
 ! D40   D(2,9,14,24)            0.0            estimate D2E/DX2                !
 ! D41   D(10,9,14,13)           0.0            estimate D2E/DX2                !
 ! D42   D(10,9,14,24)         180.0            estimate D2E/DX2                !
 ! D43   D(9,10,11,12)           0.0            estimate D2E/DX2                !
 ! D44   D(9,10,11,21)         180.0            estimate D2E/DX2                !
 ! D45   D(20,10,11,12)        180.0            estimate D2E/DX2                !
 ! D46   D(20,10,11,21)          0.0            estimate D2E/DX2                !
 ! D47   D(10,11,12,13)          0.0            estimate D2E/DX2                !
 ! D48   D(10,11,12,22)        180.0            estimate D2E/DX2                !
 ! D49   D(21,11,12,13)        180.0            estimate D2E/DX2                !
 ! D50   D(21,11,12,22)          0.0            estimate D2E/DX2                !
 ! D51   D(11,12,13,14)          0.0            estimate D2E/DX2                !
 ! D52   D(11,12,13,23)        180.0            estimate D2E/DX2                !
 ! D53   D(22,12,13,14)        180.0            estimate D2E/DX2                !
 ! D54   D(22,12,13,23)          0.0            estimate D2E/DX2                !
 ! D55   D(12,13,14,9)           0.0            estimate D2E/DX2                !
 ! D56   D(12,13,14,24)        180.0            estimate D2E/DX2                !
 ! D57   D(23,13,14,9)         180.0            estimate D2E/DX2                !
 ! D58   D(23,13,14,24)          0.0            estimate D2E/DX2                !
 --------------------------------------------------------------------------------
 Trust Radius=3.00D-01 FncErr=1.00D-07 GrdErr=1.00D-06 EigMax=2.50D+02 EigMin=1.00D-04
 Number of steps in this run=    134 maximum allowed number of steps=    150.
 GradGradGradGradGradGradGradGradGradGradGradGradGradGradGradGradGradGrad

 Leave Link  103 at Mon Oct 14 10:29:40 2019, MaxMem= 10737418240 cpu:               0.8 elap:               0.1
 (Enter /apps/cent7/gaussian/g16-A.03/g16-haswell/g16/l202.exe)
                          Input orientation:                          
 ---------------------------------------------------------------------
 Center     Atomic      Atomic             Coordinates (Angstroms)
 Number     Number       Type             X           Y           Z
 ---------------------------------------------------------------------
      1          8           0       -2.391087    1.912307    0.590006
      2          6           0       -1.890800    0.920100    0.000000
      3          6           0       -0.552955    1.189670   -0.534737
      4          6           0       -0.060739    0.822598   -1.819726
      5          6           0        1.243380    1.120828   -2.258226
      6          6           0        2.130281    1.809051   -1.423489
      7          6           0        1.701861    2.195771   -0.148142
      8          6           0        0.395589    1.891057    0.277097
      9          6           0       -2.775200   -0.248700    0.000000
     10          6           0       -2.377600   -1.616400    0.000000
     11          6           0       -3.294700   -2.684400    0.000000
     12          6           0       -4.671200   -2.434900    0.000000
     13          6           0       -5.121500   -1.109400    0.000000
     14          6           0       -4.193600   -0.051600    0.000000
     15          1           0       -0.716897    0.284820   -2.504066
     16          1           0        1.569278    0.816236   -3.252689
     17          1           0        3.140240    2.040543   -1.761841
     18          1           0        2.383286    2.732498    0.511763
     19          1           0        0.106255    2.211978    1.277862
     20          1           0       -1.314800   -1.858500    0.000000
     21          1           0       -2.935900   -3.713700    0.000000
     22          1           0       -5.382300   -3.261000    0.000000
     23          1           0       -6.191500   -0.901700    0.000000
     24          1           0       -4.590400    0.963600    0.000000
     25          1           0       -1.819130    2.575009    0.984076
 ---------------------------------------------------------------------
                    Distance matrix (angstroms):
                    1          2          3          4          5
     1  O    0.000000
     2  C    1.258121   0.000000
     3  C    2.272879   1.465756   0.000000
     4  C    3.524883   2.582641   1.424155   0.000000
     5  C    4.684892   3.868198   2.490376   1.407817   0.000000
     6  C    4.950515   4.357252   2.893660   2.435295   1.398939
     7  C    4.168626   3.815298   2.499178   2.790440   2.412086
     8  C    2.804270   2.499423   1.432045   2.397188   2.782061
     9  C    2.272796   1.465693   2.700597   3.439096   4.808760
    10  C    3.577717   2.582790   3.389587   3.824651   5.069861
    11  C    4.721688   3.868250   4.776141   5.105775   6.338258
    12  C    4.944211   4.357367   5.512113   5.931192   7.261201
    13  C    4.115091   3.815271   5.142302   5.714483   7.112327
    14  C    2.730218   2.499418   3.883425   4.599583   6.002909
    15  H    3.876199   2.837601   2.173451   1.089986   2.145235
    16  H    5.626026   4.750043   3.468514   2.170341   1.089929
    17  H    6.011923   5.447095   3.983649   3.425348   2.165722
    18  H    4.844943   4.670599   3.478073   3.880312   3.401427
    19  H    2.607617   2.700020   2.182930   3.399017   3.871379
    20  H    3.965537   2.837674   3.187113   3.474530   4.529930
    21  H    5.683034   4.750193   5.477902   5.670622   6.777804
    22  H    6.004878   5.447217   6.589156   6.950265   8.258307
    23  H    4.765488   4.670650   6.037629   6.623506   8.029174
    24  H    2.466805   2.699950   4.078972   4.883555   6.257578
    25  H    0.960000   1.926724   2.414364   3.744889   4.691069
                    6          7          8          9         10
     6  C    0.000000
     7  C    1.399859   0.000000
     8  C    2.430612   1.407134   0.000000
     9  C    5.506760   5.103084   3.835263   0.000000
    10  C    5.837896   5.585392   4.479912   1.424321   0.000000
    11  C    7.186643   6.985960   5.884711   2.490485   1.407727
    12  C    8.142333   7.879148   6.668061   2.893836   2.435271
    13  C    7.945565   7.583163   6.286318   2.499186   2.790347
    14  C    6.743872   6.311029   4.991128   1.432029   2.397176
    15  H    3.405488   3.879755   3.398896   3.285058   3.555688
    16  H    2.155547   3.399839   3.871973   5.530693   5.663528
    17  H    1.089994   2.167268   3.422386   6.583095   6.850100
    18  H    2.159159   1.089904   2.171182   5.979918   6.468451
    19  H    3.399460   2.140026   1.090062   3.998831   4.739087
    20  H    5.229324   5.055621   4.130543   2.173528   1.090026
    21  H    7.628452   7.513496   6.526017   3.468724   2.170338
    22  H    9.174454   8.943357   7.746255   3.983833   3.425337
    23  H    8.867160   8.480650   7.160029   3.478148   3.880287
    24  H    6.921608   6.413481   5.079079   2.182801   3.398953
    25  H    4.688380   3.717946   2.423343   3.139396   4.341452
                   11         12         13         14         15
    11  C    0.000000
    12  C    1.398929   0.000000
    13  C    2.412016   1.399900   0.000000
    14  C    2.782024   2.430683   1.407103   0.000000
    15  H    4.661725   5.413293   5.254972   4.297789   0.000000
    16  H    6.818557   7.751995   7.684697   6.674121   2.463622
    17  H    8.175428   9.173454   9.015685   7.827283   4.302437
    18  H    7.864109   8.759548   8.446531   7.160205   4.969657
    19  H    6.097043   6.786050   6.324073   5.024487   4.323713
    20  H    2.145254   3.405533   3.879706   3.398879   3.349874
    21  H    1.090044   2.155596   3.399886   3.872052   5.213682
    22  H    2.165766   1.090002   2.167348   3.422463   6.372533
    23  H    3.401392   2.159170   1.089972   2.171238   6.135916
    24  H    3.871271   3.399460   2.139952   1.089991   4.662094
    25  H    5.550414   5.848238   5.044692   3.674995   4.315904
                   16         17         18         19         20
    16  H    0.000000
    17  H    2.487866   0.000000
    18  H    4.301834   2.494205   0.000000
    19  H    4.961293   4.298168   2.458194   0.000000
    20  H    5.104126   6.176892   5.917348   4.496790   0.000000
    21  H    7.169165   8.551893   8.373118   6.782425   2.463683
    22  H    8.690700  10.190394   9.822843   7.855613   4.302507
    23  H    8.588420   9.941944   9.327178   7.140703   4.969675
    24  H    6.967305   8.001668   7.212711   5.024932   4.323633
    25  H    5.703049   5.693950   4.231806   1.981214   4.569328
                   21         22         23         24         25
    21  H    0.000000
    22  H    2.487933   0.000000
    23  H    4.301892   2.494214   0.000000
    24  H    4.961301   4.298180   2.458224   0.000000
    25  H    6.462464   6.908226   5.672171   3.353353   0.000000
 Stoichiometry    C13H11O(1+)
 Framework group  C1[X(C13H11O)]
 Deg. of freedom    69
 Full point group                 C1      NOp   1
 Largest Abelian subgroup         C1      NOp   1
 Largest concise Abelian subgroup C1      NOp   1
                         Standard orientation:                         
 ---------------------------------------------------------------------
 Center     Atomic      Atomic             Coordinates (Angstroms)
 Number     Number       Type             X           Y           Z
 ---------------------------------------------------------------------
      1          8           0        0.018128    2.054787    0.105725
      2          6           0        0.010601    0.798003    0.048209
      3          6           0       -1.341504    0.233503    0.088131
      4          6           0       -1.772784   -0.887889    0.852784
      5          6           0       -3.095835   -1.368675    0.834668
      6          6           0       -4.064513   -0.744415    0.041578
      7          6           0       -3.698673    0.363371   -0.732099
      8          6           0       -2.372587    0.833210   -0.704316
      9          6           0        1.355848    0.223466   -0.043838
     10          6           0        1.720996   -0.986729   -0.700179
     11          6           0        3.042199   -1.470799   -0.742553
     12          6           0        4.076132   -0.760407   -0.123419
     13          6           0        3.777084    0.436843    0.537552
     14          6           0        2.451992    0.908945    0.572031
     15          1           0       -1.052065   -1.405801    1.485556
     16          1           0       -3.372650   -2.231777    1.439956
     17          1           0       -5.089209   -1.115714    0.026694
     18          1           0       -4.444057    0.858587   -1.354238
     19          1           0       -2.133997    1.698445   -1.322927
     20          1           0        0.948032   -1.573590   -1.196443
     21          1           0        3.266719   -2.403935   -1.259316
     22          1           0        5.099538   -1.134190   -0.155536
     23          1           0        4.573749    0.999724    1.023895
     24          1           0        2.266767    1.845412    1.098151
     25          1           0       -0.741593    2.553971   -0.202885
 ---------------------------------------------------------------------
 Rotational constants (GHZ):           1.8216455           0.3592627           0.3244215
 Leave Link  202 at Mon Oct 14 10:29:40 2019, MaxMem= 10737418240 cpu:               0.8 elap:               0.1
 (Enter /apps/cent7/gaussian/g16-A.03/g16-haswell/g16/l301.exe)
 Standard basis: 6-311++G(d,p) (5D, 7F)
 Ernie: Thresh=  0.10000D-02 Tol=  0.10000D-05 Strict=F.
 There are   399 symmetry adapted cartesian basis functions of A   symmetry.
 There are   385 symmetry adapted basis functions of A   symmetry.
   385 basis functions,   603 primitive gaussians,   399 cartesian basis functions
    48 alpha electrons       48 beta electrons
       nuclear repulsion energy       777.2708759966 Hartrees.
 IExCor= 4336 DFT=T Ex+Corr=M062X ExCW=0 ScaHFX=  0.540000
 ScaDFX=  1.000000  1.000000  1.000000  1.000000 ScalE2=  1.000000  1.000000
 IRadAn=      5 IRanWt=     -1 IRanGd=            0 ICorTp=0 IEmpDi=  4
 NAtoms=   25 NActive=   25 NUniq=   25 SFac= 1.00D+00 NAtFMM=   60 NAOKFM=F Big=F
 Integral buffers will be    131072 words long.
 Raffenetti 2 integral format.
 Two-electron integral symmetry is turned on.
 Leave Link  301 at Mon Oct 14 10:29:41 2019, MaxMem= 10737418240 cpu:               1.3 elap:               0.1
 (Enter /apps/cent7/gaussian/g16-A.03/g16-haswell/g16/l302.exe)
 NPDir=0 NMtPBC=     1 NCelOv=     1 NCel=       1 NClECP=     1 NCelD=      1
         NCelK=      1 NCelE2=     1 NClLst=     1 CellRange=     0.0.
 One-electron integrals computed using PRISM.
 One-electron integral symmetry used in STVInt
 NBasis=   385 RedAO= T EigKep=  1.31D-06  NBF=   385
 NBsUse=   383 1.00D-06 EigRej=  8.30D-07 NBFU=   383
 Precomputing XC quadrature grid using
 IXCGrd= 4 IRadAn=           5 IRanWt=          -1 IRanGd=           0 AccXCQ= 0.00D+00.
 Generated NRdTot=       0 NPtTot=           0 NUsed=           0 NTot=          32
 NSgBfM=   399   399   399   399   399 MxSgAt=    25 MxSgA2=    25.
 Leave Link  302 at Mon Oct 14 10:29:41 2019, MaxMem= 10737418240 cpu:               6.9 elap:               0.3
 (Enter /apps/cent7/gaussian/g16-A.03/g16-haswell/g16/l303.exe)
 DipDrv:  MaxL=1.
 Leave Link  303 at Mon Oct 14 10:29:41 2019, MaxMem= 10737418240 cpu:               1.1 elap:               0.1
 (Enter /apps/cent7/gaussian/g16-A.03/g16-haswell/g16/l401.exe)
 ExpMin= 3.60D-02 ExpMax= 8.59D+03 ExpMxC= 1.30D+03 IAcc=3 IRadAn=         5 AccDes= 0.00D+00
 Harris functional with IExCor= 1009 and IRadAn=       5 diagonalized for initial guess.
 HarFok:  IExCor= 1009 AccDes= 0.00D+00 IRadAn=         5 IDoV= 1 UseB2=F ITyADJ=14
 ICtDFT=  3500011 ScaDFX=  1.000000  1.000000  1.000000  1.000000
 FoFCou: FMM=F IPFlag=           0 FMFlag=      100000 FMFlg1=           0
         NFxFlg=           0 DoJE=T BraDBF=F KetDBF=T FulRan=T
         wScrn=  0.000000 ICntrl=       500 IOpCl=  0 I1Cent=   200000004 NGrid=           0
         NMat0=    1 NMatS0=      1 NMatT0=    0 NMatD0=    1 NMtDS0=    0 NMtDT0=    0
 Petite list used in FoFCou.
 Harris En= -576.587185876086    
 JPrj=0 DoOrth=F DoCkMO=F.
 Leave Link  401 at Mon Oct 14 10:29:42 2019, MaxMem= 10737418240 cpu:              16.3 elap:               0.7
 (Enter /apps/cent7/gaussian/g16-A.03/g16-haswell/g16/l502.exe)
 Integral symmetry usage will be decided dynamically.
 Closed shell SCF:
 Using DIIS extrapolation, IDIIS=  1040.
 NGot= 10737418240 LenX= 10737086447 LenY= 10736926805
 Requested convergence on RMS density matrix=1.00D-08 within 128 cycles.
 Requested convergence on MAX density matrix=1.00D-06.
 Requested convergence on             energy=1.00D-06.
 No special actions if energy rises.
 Fock matrices will be formed incrementally for  20 cycles.

 Cycle   1  Pass 1  IDiag  1:
 FoFJK:  IHMeth= 1 ICntrl=       0 DoSepK=F KAlg= 0 I1Cent=           0 FoldK=F
 IRaf= 880000000 NMat=       1 IRICut=       1 DoRegI=T DoRafI=F ISym2E= 0 IDoP0=0 IntGTp=1.
 FoFCou: FMM=F IPFlag=           0 FMFlag=      100000 FMFlg1=           0
         NFxFlg=           0 DoJE=F BraDBF=F KetDBF=F FulRan=T
         wScrn=  0.000000 ICntrl=         0 IOpCl=  0 I1Cent=           0 NGrid=           0
         NMat0=    1 NMatS0=      1 NMatT0=    0 NMatD0=    1 NMtDS0=    0 NMtDT0=    0
 Symmetry not used in FoFCou.
 E= -576.544212248253    
 DIIS: error= 2.45D-02 at cycle   1 NSaved=   1.
 NSaved= 1 IEnMin= 1 EnMin= -576.544212248253     IErMin= 1 ErrMin= 2.45D-02
 ErrMax= 2.45D-02  0.00D+00 EMaxC= 1.00D-01 BMatC= 3.66D-01 BMatP= 3.66D-01
 IDIUse=3 WtCom= 7.55D-01 WtEn= 2.45D-01
 Coeff-Com:  0.100D+01
 Coeff-En:   0.100D+01
 Coeff:      0.100D+01
 Gap=     0.135 Goal=   None    Shift=    0.000
 GapD=    0.135 DampG=1.000 DampE=0.500 DampFc=0.5000 IDamp=-1.
 Damping current iteration by 5.00D-01
 RMSDP=6.95D-02 MaxDP=1.18D+01              OVMax= 3.28D-01

 Cycle   2  Pass 1  IDiag  1:
 RMSU=  2.92D-02    CP:  1.18D+00
 E= -576.670343222107     Delta-E=       -0.126130973854 Rises=F Damp=T
 DIIS: error= 6.84D-03 at cycle   2 NSaved=   2.
 NSaved= 2 IEnMin= 2 EnMin= -576.670343222107     IErMin= 2 ErrMin= 6.84D-03
 ErrMax= 6.84D-03  0.00D+00 EMaxC= 1.00D-01 BMatC= 4.39D-02 BMatP= 3.66D-01
 IDIUse=3 WtCom= 9.32D-01 WtEn= 6.84D-02
 Coeff-Com: -0.246D-01 0.102D+01
 Coeff-En:   0.102D+00 0.898D+00
 Coeff:     -0.159D-01 0.102D+01
 Gap=     0.245 Goal=   None    Shift=    0.000
 RMSDP=4.51D-02 MaxDP=7.35D+00 DE=-1.26D-01 OVMax= 2.84D-01

 Cycle   3  Pass 1  IDiag  1:
 RMSU=  2.18D-02    CP:  8.85D-01  1.47D-01
 E= -576.808575445924     Delta-E=       -0.138232223818 Rises=F Damp=F
 DIIS: error= 1.32D-02 at cycle   3 NSaved=   3.
 NSaved= 3 IEnMin= 3 EnMin= -576.808575445924     IErMin= 2 ErrMin= 6.84D-03
 ErrMax= 1.32D-02  0.00D+00 EMaxC= 1.00D-01 BMatC= 3.46D-02 BMatP= 4.39D-02
 IDIUse=3 WtCom= 8.68D-01 WtEn= 1.32D-01
 Coeff-Com: -0.122D+00 0.534D+00 0.588D+00
 Coeff-En:   0.000D+00 0.000D+00 0.100D+01
 Coeff:     -0.106D+00 0.464D+00 0.643D+00
 Gap=     0.215 Goal=   None    Shift=    0.000
 RMSDP=7.35D-03 MaxDP=5.44D-01 DE=-1.38D-01 OVMax= 1.02D-01

 Cycle   4  Pass 1  IDiag  1:
 RMSU=  4.38D-03    CP:  8.70D-01  2.66D-01  7.94D-01
 E= -576.841562912467     Delta-E=       -0.032987466542 Rises=F Damp=F
 DIIS: error= 6.07D-03 at cycle   4 NSaved=   4.
 NSaved= 4 IEnMin= 4 EnMin= -576.841562912467     IErMin= 4 ErrMin= 6.07D-03
 ErrMax= 6.07D-03  0.00D+00 EMaxC= 1.00D-01 BMatC= 5.18D-03 BMatP= 3.46D-02
 IDIUse=3 WtCom= 9.39D-01 WtEn= 6.07D-02
 Coeff-Com: -0.462D-01 0.135D+00 0.334D+00 0.577D+00
 Coeff-En:   0.000D+00 0.000D+00 0.114D+00 0.886D+00
 Coeff:     -0.434D-01 0.127D+00 0.320D+00 0.596D+00
 Gap=     0.209 Goal=   None    Shift=    0.000
 RMSDP=3.45D-03 MaxDP=6.19D-01 DE=-3.30D-02 OVMax= 2.97D-02

 Cycle   5  Pass 1  IDiag  1:
 RMSU=  1.36D-03    CP:  8.43D-01  2.37D-01  8.45D-01  8.30D-01
 E= -576.847116412452     Delta-E=       -0.005553499986 Rises=F Damp=F
 DIIS: error= 1.46D-03 at cycle   5 NSaved=   5.
 NSaved= 5 IEnMin= 5 EnMin= -576.847116412452     IErMin= 5 ErrMin= 1.46D-03
 ErrMax= 1.46D-03  0.00D+00 EMaxC= 1.00D-01 BMatC= 2.51D-04 BMatP= 5.18D-03
 IDIUse=3 WtCom= 9.85D-01 WtEn= 1.46D-02
 Coeff-Com: -0.124D-01 0.232D-01 0.937D-01 0.268D+00 0.628D+00
 Coeff-En:   0.000D+00 0.000D+00 0.000D+00 0.000D+00 0.100D+01
 Coeff:     -0.122D-01 0.229D-01 0.923D-01 0.264D+00 0.633D+00
 Gap=     0.211 Goal=   None    Shift=    0.000
 RMSDP=5.33D-04 MaxDP=8.94D-02 DE=-5.55D-03 OVMax= 5.46D-03

 Cycle   6  Pass 1  IDiag  1:
 RMSU=  2.77D-04    CP:  8.46D-01  2.36D-01  8.53D-01  8.10D-01  8.42D-01
 E= -576.847384092926     Delta-E=       -0.000267680473 Rises=F Damp=F
 DIIS: error= 2.67D-04 at cycle   6 NSaved=   6.
 NSaved= 6 IEnMin= 6 EnMin= -576.847384092926     IErMin= 6 ErrMin= 2.67D-04
 ErrMax= 2.67D-04  0.00D+00 EMaxC= 1.00D-01 BMatC= 1.60D-05 BMatP= 2.51D-04
 IDIUse=3 WtCom= 9.97D-01 WtEn= 2.67D-03
 Coeff-Com: -0.284D-03-0.280D-02 0.249D-02 0.407D-01 0.248D+00 0.712D+00
 Coeff-En:   0.000D+00 0.000D+00 0.000D+00 0.000D+00 0.000D+00 0.100D+01
 Coeff:     -0.283D-03-0.279D-02 0.248D-02 0.406D-01 0.247D+00 0.713D+00
 Gap=     0.210 Goal=   None    Shift=    0.000
 RMSDP=1.46D-04 MaxDP=1.31D-02 DE=-2.68D-04 OVMax= 1.85D-03

 Cycle   7  Pass 1  IDiag  1:
 RMSU=  1.05D-04    CP:  8.47D-01  2.35D-01  8.53D-01  8.16D-01  8.35D-01
                    CP:  9.38D-01
 E= -576.847401446525     Delta-E=       -0.000017353600 Rises=F Damp=F
 DIIS: error= 4.48D-05 at cycle   7 NSaved=   7.
 NSaved= 7 IEnMin= 7 EnMin= -576.847401446525     IErMin= 7 ErrMin= 4.48D-05
 ErrMax= 4.48D-05  0.00D+00 EMaxC= 1.00D-01 BMatC= 1.58D-06 BMatP= 1.60D-05
 IDIUse=1 WtCom= 1.00D+00 WtEn= 0.00D+00
 Coeff-Com:  0.131D-02-0.366D-02-0.103D-01-0.185D-01 0.195D-01 0.262D+00
 Coeff-Com:  0.750D+00
 Coeff:      0.131D-02-0.366D-02-0.103D-01-0.185D-01 0.195D-01 0.262D+00
 Coeff:      0.750D+00
 Gap=     0.211 Goal=   None    Shift=    0.000
 RMSDP=8.74D-05 MaxDP=1.67D-02 DE=-1.74D-05 OVMax= 4.91D-04

 Cycle   8  Pass 1  IDiag  1:
 RMSU=  2.76D-05    CP:  8.47D-01  2.33D-01  8.53D-01  8.17D-01  8.42D-01
                    CP:  1.04D+00  1.01D+00
 E= -576.847402985876     Delta-E=       -0.000001539351 Rises=F Damp=F
 DIIS: error= 2.10D-05 at cycle   8 NSaved=   8.
 NSaved= 8 IEnMin= 8 EnMin= -576.847402985876     IErMin= 8 ErrMin= 2.10D-05
 ErrMax= 2.10D-05  0.00D+00 EMaxC= 1.00D-01 BMatC= 2.40D-07 BMatP= 1.58D-06
 IDIUse=1 WtCom= 1.00D+00 WtEn= 0.00D+00
 Coeff-Com:  0.665D-03-0.144D-02-0.506D-02-0.133D-01-0.168D-01 0.464D-01
 Coeff-Com:  0.341D+00 0.648D+00
 Coeff:      0.665D-03-0.144D-02-0.506D-02-0.133D-01-0.168D-01 0.464D-01
 Coeff:      0.341D+00 0.648D+00
 Gap=     0.211 Goal=   None    Shift=    0.000
 RMSDP=2.29D-05 MaxDP=3.32D-03 DE=-1.54D-06 OVMax= 1.62D-04

 Cycle   9  Pass 1  IDiag  1:
 RMSU=  7.28D-06    CP:  8.47D-01  2.34D-01  8.53D-01  8.17D-01  8.51D-01
                    CP:  1.03D+00  1.04D+00  8.22D-01
 E= -576.847403234465     Delta-E=       -0.000000248589 Rises=F Damp=F
 DIIS: error= 6.27D-06 at cycle   9 NSaved=   9.
 NSaved= 9 IEnMin= 9 EnMin= -576.847403234465     IErMin= 9 ErrMin= 6.27D-06
 ErrMax= 6.27D-06  0.00D+00 EMaxC= 1.00D-01 BMatC= 1.39D-08 BMatP= 2.40D-07
 IDIUse=1 WtCom= 1.00D+00 WtEn= 0.00D+00
 Coeff-Com:  0.792D-04-0.118D-03-0.699D-03-0.258D-02-0.528D-02-0.118D-02
 Coeff-Com:  0.400D-01 0.207D+00 0.762D+00
 Coeff:      0.792D-04-0.118D-03-0.699D-03-0.258D-02-0.528D-02-0.118D-02
 Coeff:      0.400D-01 0.207D+00 0.762D+00
 Gap=     0.211 Goal=   None    Shift=    0.000
 RMSDP=3.55D-06 MaxDP=5.04D-04 DE=-2.49D-07 OVMax= 6.33D-05

 Cycle  10  Pass 1  IDiag  1:
 RMSU=  2.36D-06    CP:  8.47D-01  2.34D-01  8.53D-01  8.17D-01  8.50D-01
                    CP:  1.03D+00  1.04D+00  8.69D-01  9.75D-01
 E= -576.847403250001     Delta-E=       -0.000000015535 Rises=F Damp=F
 DIIS: error= 2.72D-06 at cycle  10 NSaved=  10.
 NSaved=10 IEnMin=10 EnMin= -576.847403250001     IErMin=10 ErrMin= 2.72D-06
 ErrMax= 2.72D-06  0.00D+00 EMaxC= 1.00D-01 BMatC= 4.09D-09 BMatP= 1.39D-08
 IDIUse=1 WtCom= 1.00D+00 WtEn= 0.00D+00
 Coeff-Com: -0.657D-04 0.165D-03 0.466D-03 0.859D-03-0.150D-03-0.100D-01
 Coeff-Com: -0.474D-01-0.108D-01 0.384D+00 0.683D+00
 Coeff:     -0.657D-04 0.165D-03 0.466D-03 0.859D-03-0.150D-03-0.100D-01
 Coeff:     -0.474D-01-0.108D-01 0.384D+00 0.683D+00
 Gap=     0.211 Goal=   None    Shift=    0.000
 RMSDP=1.86D-06 MaxDP=1.60D-04 DE=-1.55D-08 OVMax= 2.15D-05

 Cycle  11  Pass 1  IDiag  1:
 RMSU=  1.04D-06    CP:  8.47D-01  2.34D-01  8.53D-01  8.17D-01  8.50D-01
                    CP:  1.03D+00  1.05D+00  8.52D-01  1.05D+00  8.59D-01
 E= -576.847403254470     Delta-E=       -0.000000004469 Rises=F Damp=F
 DIIS: error= 6.12D-07 at cycle  11 NSaved=  11.
 NSaved=11 IEnMin=11 EnMin= -576.847403254470     IErMin=11 ErrMin= 6.12D-07
 ErrMax= 6.12D-07  0.00D+00 EMaxC= 1.00D-01 BMatC= 7.20D-11 BMatP= 4.09D-09
 IDIUse=1 WtCom= 1.00D+00 WtEn= 0.00D+00
 Coeff-Com: -0.171D-04 0.388D-04 0.130D-03 0.333D-03 0.411D-03-0.130D-02
 Coeff-Com: -0.119D-01-0.136D-01 0.196D-01 0.833D-01 0.923D+00
 Coeff:     -0.171D-04 0.388D-04 0.130D-03 0.333D-03 0.411D-03-0.130D-02
 Coeff:     -0.119D-01-0.136D-01 0.196D-01 0.833D-01 0.923D+00
 Gap=     0.211 Goal=   None    Shift=    0.000
 RMSDP=7.03D-07 MaxDP=1.09D-04 DE=-4.47D-09 OVMax= 9.07D-06

 Cycle  12  Pass 1  IDiag  1:
 RMSU=  3.40D-07    CP:  8.47D-01  2.34D-01  8.53D-01  8.17D-01  8.50D-01
                    CP:  1.03D+00  1.05D+00  8.57D-01  1.06D+00  8.71D-01
                    CP:  1.15D+00
 E= -576.847403254612     Delta-E=       -0.000000000142 Rises=F Damp=F
 DIIS: error= 3.36D-07 at cycle  12 NSaved=  12.
 NSaved=12 IEnMin=12 EnMin= -576.847403254612     IErMin=12 ErrMin= 3.36D-07
 ErrMax= 3.36D-07  0.00D+00 EMaxC= 1.00D-01 BMatC= 4.21D-11 BMatP= 7.20D-11
 IDIUse=1 WtCom= 1.00D+00 WtEn= 0.00D+00
 Coeff-Com: -0.263D-05 0.488D-05 0.218D-04 0.834D-04 0.230D-03 0.461D-03
 Coeff-Com: -0.110D-02-0.504D-02-0.268D-01-0.348D-01 0.485D+00 0.582D+00
 Coeff:     -0.263D-05 0.488D-05 0.218D-04 0.834D-04 0.230D-03 0.461D-03
 Coeff:     -0.110D-02-0.504D-02-0.268D-01-0.348D-01 0.485D+00 0.582D+00
 Gap=     0.211 Goal=   None    Shift=    0.000
 RMSDP=2.03D-07 MaxDP=2.50D-05 DE=-1.42D-10 OVMax= 2.81D-06

 Cycle  13  Pass 1  IDiag  1:
 RMSU=  9.79D-08    CP:  8.47D-01  2.34D-01  8.53D-01  8.17D-01  8.50D-01
                    CP:  1.03D+00  1.05D+00  8.54D-01  1.06D+00  8.56D-01
                    CP:  1.22D+00  8.29D-01
 E= -576.847403254671     Delta-E=       -0.000000000058 Rises=F Damp=F
 DIIS: error= 1.05D-07 at cycle  13 NSaved=  13.
 NSaved=13 IEnMin=13 EnMin= -576.847403254671     IErMin=13 ErrMin= 1.05D-07
 ErrMax= 1.05D-07  0.00D+00 EMaxC= 1.00D-01 BMatC= 1.50D-12 BMatP= 4.21D-11
 IDIUse=1 WtCom= 1.00D+00 WtEn= 0.00D+00
 Coeff-Com:  0.203D-05-0.480D-05-0.121D-04-0.262D-04-0.161D-04 0.275D-03
 Coeff-Com:  0.122D-02 0.601D-03-0.612D-02-0.199D-01-0.495D-01 0.732D-01
 Coeff-Com:  0.100D+01
 Coeff:      0.203D-05-0.480D-05-0.121D-04-0.262D-04-0.161D-04 0.275D-03
 Coeff:      0.122D-02 0.601D-03-0.612D-02-0.199D-01-0.495D-01 0.732D-01
 Coeff:      0.100D+01
 Gap=     0.211 Goal=   None    Shift=    0.000
 RMSDP=8.23D-08 MaxDP=3.52D-06 DE=-5.82D-11 OVMax= 1.74D-06

 Cycle  14  Pass 1  IDiag  1:
 RMSU=  3.67D-08    CP:  8.47D-01  2.34D-01  8.53D-01  8.17D-01  8.50D-01
                    CP:  1.03D+00  1.05D+00  8.53D-01  1.06D+00  8.48D-01
                    CP:  1.26D+00  9.19D-01  1.34D+00
 E= -576.847403254687     Delta-E=       -0.000000000016 Rises=F Damp=F
 DIIS: error= 2.80D-08 at cycle  14 NSaved=  14.
 NSaved=14 IEnMin=14 EnMin= -576.847403254687     IErMin=14 ErrMin= 2.80D-08
 ErrMax= 2.80D-08  0.00D+00 EMaxC= 1.00D-01 BMatC= 3.19D-13 BMatP= 1.50D-12
 IDIUse=1 WtCom= 1.00D+00 WtEn= 0.00D+00
 Coeff-Com:  0.709D-06-0.160D-05-0.401D-05-0.130D-04-0.257D-04 0.408D-04
 Coeff-Com:  0.390D-03 0.417D-03 0.606D-03-0.257D-02-0.580D-01-0.457D-01
 Coeff-Com:  0.292D+00 0.813D+00
 Coeff:      0.709D-06-0.160D-05-0.401D-05-0.130D-04-0.257D-04 0.408D-04
 Coeff:      0.390D-03 0.417D-03 0.606D-03-0.257D-02-0.580D-01-0.457D-01
 Coeff:      0.292D+00 0.813D+00
 Gap=     0.211 Goal=   None    Shift=    0.000
 RMSDP=2.82D-08 MaxDP=2.56D-06 DE=-1.59D-11 OVMax= 4.73D-07

 Cycle  15  Pass 1  IDiag  1:
 RMSU=  1.48D-08    CP:  8.47D-01  2.34D-01  8.53D-01  8.17D-01  8.50D-01
                    CP:  1.03D+00  1.05D+00  8.53D-01  1.06D+00  8.44D-01
                    CP:  1.26D+00  9.52D-01  1.41D+00  9.27D-01
 E= -576.847403254682     Delta-E=        0.000000000004 Rises=F Damp=F
 DIIS: error= 1.13D-08 at cycle  15 NSaved=  15.
 NSaved=15 IEnMin=14 EnMin= -576.847403254687     IErMin=15 ErrMin= 1.13D-08
 ErrMax= 1.13D-08  0.00D+00 EMaxC= 1.00D-01 BMatC= 5.90D-14 BMatP= 3.19D-13
 IDIUse=1 WtCom= 1.00D+00 WtEn= 0.00D+00
 Coeff-Com: -0.137D-06 0.330D-06 0.130D-05 0.796D-06-0.711D-05-0.408D-04
 Coeff-Com: -0.123D-03-0.172D-04 0.172D-02 0.357D-02-0.102D-01-0.369D-01
 Coeff-Com: -0.766D-01 0.331D+00 0.787D+00
 Coeff:     -0.137D-06 0.330D-06 0.130D-05 0.796D-06-0.711D-05-0.408D-04
 Coeff:     -0.123D-03-0.172D-04 0.172D-02 0.357D-02-0.102D-01-0.369D-01
 Coeff:     -0.766D-01 0.331D+00 0.787D+00
 Gap=     0.211 Goal=   None    Shift=    0.000
 RMSDP=1.60D-08 MaxDP=2.66D-06 DE= 4.09D-12 OVMax= 2.05D-07

 Cycle  16  Pass 1  IDiag  1:
 RMSU=  7.79D-09    CP:  8.47D-01  2.34D-01  8.53D-01  8.17D-01  8.50D-01
                    CP:  1.03D+00  1.05D+00  8.53D-01  1.06D+00  8.45D-01
                    CP:  1.26D+00  9.53D-01  1.44D+00  1.12D+00  9.13D-01
 E= -576.847403254683     Delta-E=       -0.000000000000 Rises=F Damp=F
 DIIS: error= 4.03D-09 at cycle  16 NSaved=  16.
 NSaved=16 IEnMin=14 EnMin= -576.847403254687     IErMin=16 ErrMin= 4.03D-09
 ErrMax= 4.03D-09  0.00D+00 EMaxC= 1.00D-01 BMatC= 3.01D-15 BMatP= 5.90D-14
 IDIUse=1 WtCom= 1.00D+00 WtEn= 0.00D+00
 Coeff-Com: -0.499D-07 0.121D-06 0.426D-06 0.946D-06 0.976D-06-0.830D-05
 Coeff-Com: -0.361D-04-0.434D-04 0.956D-04 0.581D-03 0.405D-02-0.336D-02
 Coeff-Com: -0.310D-01-0.286D-01 0.922D-01 0.966D+00
 Coeff:     -0.499D-07 0.121D-06 0.426D-06 0.946D-06 0.976D-06-0.830D-05
 Coeff:     -0.361D-04-0.434D-04 0.956D-04 0.581D-03 0.405D-02-0.336D-02
 Coeff:     -0.310D-01-0.286D-01 0.922D-01 0.966D+00
 Gap=     0.211 Goal=   None    Shift=    0.000
 RMSDP=9.54D-09 MaxDP=1.88D-06 DE=-4.55D-13 OVMax= 7.99D-08

 Cycle  17  Pass 1  IDiag  1:
 RMSU=  1.44D-09    CP:  8.47D-01  2.34D-01  8.53D-01  8.17D-01  8.50D-01
                    CP:  1.03D+00  1.05D+00  8.53D-01  1.06D+00  8.45D-01
                    CP:  1.26D+00  9.51D-01  1.45D+00  1.15D+00  9.95D-01
                    CP:  1.01D+00
 E= -576.847403254676     Delta-E=        0.000000000007 Rises=F Damp=F
 DIIS: error= 1.50D-09 at cycle  17 NSaved=  17.
 NSaved=17 IEnMin=14 EnMin= -576.847403254687     IErMin=17 ErrMin= 1.50D-09
 ErrMax= 1.50D-09  0.00D+00 EMaxC= 1.00D-01 BMatC= 8.68D-16 BMatP= 3.01D-15
 IDIUse=1 WtCom= 1.00D+00 WtEn= 0.00D+00
 Large coefficients: NSaved= 17 BigCof=    0.00 CofMax=   10.00 Det=-2.67D-15
 Inversion failed.  Reducing to 16 matrices.
 Large coefficients: NSaved= 16 BigCof=    0.00 CofMax=   10.00 Det=-2.71D-15
 Inversion failed.  Reducing to 15 matrices.
 Coeff-Com:  0.184D-07 0.246D-06 0.117D-05 0.121D-05 0.127D-05-0.134D-04
 Coeff-Com: -0.152D-03-0.142D-03 0.261D-02 0.166D-02-0.356D-02-0.443D-01
 Coeff-Com: -0.567D-01 0.397D+00 0.704D+00
 Coeff:      0.184D-07 0.246D-06 0.117D-05 0.121D-05 0.127D-05-0.134D-04
 Coeff:     -0.152D-03-0.142D-03 0.261D-02 0.166D-02-0.356D-02-0.443D-01
 Coeff:     -0.567D-01 0.397D+00 0.704D+00
 Gap=     0.211 Goal=   None    Shift=    0.000
 RMSDP=1.80D-09 MaxDP=1.33D-07 DE= 7.28D-12 OVMax= 2.46D-08

 SCF Done:  E(RM062X) =  -576.847403255     A.U. after   17 cycles
            NFock= 17  Conv=0.18D-08     -V/T= 2.0049
 KE= 5.740416421857D+02 PE=-2.879471542897D+03 EE= 9.513116214597D+02
 Leave Link  502 at Mon Oct 14 10:30:19 2019, MaxMem= 10737418240 cpu:             895.6 elap:              37.5
 (Enter /apps/cent7/gaussian/g16-A.03/g16-haswell/g16/l601.exe)
 Copying SCF densities to generalized density rwf, IOpCl= 0 IROHF=0.

 **********************************************************************

            Population analysis using the SCF density.

 **********************************************************************

 Orbital symmetries:
       Occupied  (A) (A) (A) (A) (A) (A) (A) (A) (A) (A) (A) (A)
                 (A) (A) (A) (A) (A) (A) (A) (A) (A) (A) (A) (A)
                 (A) (A) (A) (A) (A) (A) (A) (A) (A) (A) (A) (A)
                 (A) (A) (A) (A) (A) (A) (A) (A) (A) (A) (A) (A)
       Virtual   (A) (A) (A) (A) (A) (A) (A) (A) (A) (A) (A) (A)
                 (A) (A) (A) (A) (A) (A) (A) (A) (A) (A) (A) (A)
                 (A) (A) (A) (A) (A) (A) (A) (A) (A) (A) (A) (A)
                 (A) (A) (A) (A) (A) (A) (A) (A) (A) (A) (A) (A)
                 (A) (A) (A) (A) (A) (A) (A) (A) (A) (A) (A) (A)
                 (A) (A) (A) (A) (A) (A) (A) (A) (A) (A) (A) (A)
                 (A) (A) (A) (A) (A) (A) (A) (A) (A) (A) (A) (A)
                 (A) (A) (A) (A) (A) (A) (A) (A) (A) (A) (A) (A)
                 (A) (A) (A) (A) (A) (A) (A) (A) (A) (A) (A) (A)
                 (A) (A) (A) (A) (A) (A) (A) (A) (A) (A) (A) (A)
                 (A) (A) (A) (A) (A) (A) (A) (A) (A) (A) (A) (A)
                 (A) (A) (A) (A) (A) (A) (A) (A) (A) (A) (A) (A)
                 (A) (A) (A) (A) (A) (A) (A) (A) (A) (A) (A) (A)
                 (A) (A) (A) (A) (A) (A) (A) (A) (A) (A) (A) (A)
                 (A) (A) (A) (A) (A) (A) (A) (A) (A) (A) (A) (A)
                 (A) (A) (A) (A) (A) (A) (A) (A) (A) (A) (A) (A)
                 (A) (A) (A) (A) (A) (A) (A) (A) (A) (A) (A) (A)
                 (A) (A) (A) (A) (A) (A) (A) (A) (A) (A) (A) (A)
                 (A) (A) (A) (A) (A) (A) (A) (A) (A) (A) (A) (A)
                 (A) (A) (A) (A) (A) (A) (A) (A) (A) (A) (A) (A)
                 (A) (A) (A) (A) (A) (A) (A) (A) (A) (A) (A) (A)
                 (A) (A) (A) (A) (A) (A) (A) (A) (A) (A) (A) (A)
                 (A) (A) (A) (A) (A) (A) (A) (A) (A) (A) (A) (A)
                 (A) (A) (A) (A) (A) (A) (A) (A) (A) (A) (A) (A)
                 (A) (A) (A) (A) (A) (A) (A) (A) (A) (A) (A) (A)
                 (A) (A) (A) (A) (A) (A) (A) (A) (A) (A) (A) (A)
                 (A) (A) (A) (A) (A) (A) (A) (A) (A) (A) (A) (A)
                 (A) (A) (A) (A) (A) (A) (A) (A) (A) (A) (A)
 The electronic state is 1-A.
 Alpha  occ. eigenvalues --  -19.87771 -10.86503 -10.73809 -10.73299 -10.72481
 Alpha  occ. eigenvalues --  -10.71880 -10.71660 -10.71319 -10.70488 -10.70265
 Alpha  occ. eigenvalues --  -10.70257 -10.69975 -10.69460 -10.69376  -1.44884
 Alpha  occ. eigenvalues --   -1.12641  -1.11506  -1.05385  -1.01583  -0.99715
 Alpha  occ. eigenvalues --   -0.99042  -0.95678  -0.88292  -0.85544  -0.84473
 Alpha  occ. eigenvalues --   -0.83283  -0.78895  -0.76950  -0.72987  -0.72482
 Alpha  occ. eigenvalues --   -0.71238  -0.67711  -0.67030  -0.66230  -0.65812
 Alpha  occ. eigenvalues --   -0.63804  -0.63150  -0.62294  -0.59230  -0.58638
 Alpha  occ. eigenvalues --   -0.57563  -0.56520  -0.55511  -0.54784  -0.48028
 Alpha  occ. eigenvalues --   -0.46565  -0.46182  -0.45384
 Alpha virt. eigenvalues --   -0.24315  -0.14996  -0.14005  -0.12791  -0.12249
 Alpha virt. eigenvalues --   -0.10114  -0.09575  -0.09057  -0.08591  -0.07686
 Alpha virt. eigenvalues --   -0.07079  -0.06920  -0.06609  -0.05592  -0.05532
 Alpha virt. eigenvalues --   -0.04289  -0.03889  -0.03495  -0.02363  -0.01933
 Alpha virt. eigenvalues --   -0.01430  -0.01109  -0.00841  -0.00379   0.00537
 Alpha virt. eigenvalues --    0.00816   0.01242   0.01499   0.02082   0.02220
 Alpha virt. eigenvalues --    0.02634   0.02722   0.02997   0.03263   0.03540
 Alpha virt. eigenvalues --    0.03929   0.03981   0.04294   0.04472   0.04655
 Alpha virt. eigenvalues --    0.04771   0.05126   0.05470   0.06657   0.06911
 Alpha virt. eigenvalues --    0.07317   0.07786   0.08149   0.08488   0.08621
 Alpha virt. eigenvalues --    0.09287   0.09512   0.09851   0.10059   0.10385
 Alpha virt. eigenvalues --    0.10708   0.11165   0.11505   0.12115   0.12218
 Alpha virt. eigenvalues --    0.12521   0.13017   0.13521   0.14057   0.14336
 Alpha virt. eigenvalues --    0.14896   0.15213   0.16202   0.16982   0.17065
 Alpha virt. eigenvalues --    0.17437   0.17746   0.18047   0.18519   0.18964
 Alpha virt. eigenvalues --    0.19428   0.19666   0.20549   0.21026   0.21455
 Alpha virt. eigenvalues --    0.21784   0.22573   0.23989   0.24532   0.25678
 Alpha virt. eigenvalues --    0.26036   0.26419   0.26801   0.27464   0.28394
 Alpha virt. eigenvalues --    0.29593   0.31304   0.32406   0.34234   0.38411
 Alpha virt. eigenvalues --    0.39428   0.41815   0.42265   0.42852   0.43434
 Alpha virt. eigenvalues --    0.44501   0.44987   0.45473   0.45824   0.46114
 Alpha virt. eigenvalues --    0.46531   0.46738   0.47171   0.48307   0.48605
 Alpha virt. eigenvalues --    0.49385   0.49848   0.50669   0.51936   0.52764
 Alpha virt. eigenvalues --    0.53248   0.54100   0.54988   0.56827   0.57130
 Alpha virt. eigenvalues --    0.57567   0.58392   0.58771   0.59255   0.59974
 Alpha virt. eigenvalues --    0.61380   0.62714   0.63235   0.63865   0.64191
 Alpha virt. eigenvalues --    0.64934   0.66475   0.67887   0.68386   0.69652
 Alpha virt. eigenvalues --    0.71234   0.72861   0.73867   0.74311   0.75345
 Alpha virt. eigenvalues --    0.75730   0.76386   0.76797   0.77650   0.78395
 Alpha virt. eigenvalues --    0.78823   0.79601   0.80383   0.80989   0.82015
 Alpha virt. eigenvalues --    0.82247   0.82637   0.85111   0.85377   0.86837
 Alpha virt. eigenvalues --    0.90237   0.90862   0.93007   0.93366   0.93755
 Alpha virt. eigenvalues --    0.95496   0.95921   0.98561   0.98958   0.99923
 Alpha virt. eigenvalues --    1.01713   1.02356   1.04523   1.05023   1.06354
 Alpha virt. eigenvalues --    1.06659   1.10097   1.14300   1.16981   1.19571
 Alpha virt. eigenvalues --    1.21228   1.26732   1.30215   1.33498   1.35627
 Alpha virt. eigenvalues --    1.36715   1.37916   1.39257   1.39831   1.41109
 Alpha virt. eigenvalues --    1.42826   1.42902   1.43800   1.44293   1.46494
 Alpha virt. eigenvalues --    1.47228   1.47575   1.47868   1.49061   1.50920
 Alpha virt. eigenvalues --    1.53029   1.54262   1.54852   1.55994   1.56687
 Alpha virt. eigenvalues --    1.58656   1.59828   1.62702   1.63801   1.64274
 Alpha virt. eigenvalues --    1.65842   1.66604   1.67512   1.69069   1.71213
 Alpha virt. eigenvalues --    1.71871   1.72735   1.73875   1.76485   1.77653
 Alpha virt. eigenvalues --    1.79577   1.79988   1.81001   1.81800   1.82624
 Alpha virt. eigenvalues --    1.83990   1.84387   1.84991   1.86209   1.87077
 Alpha virt. eigenvalues --    1.89501   1.89781   1.90304   1.90987   1.94572
 Alpha virt. eigenvalues --    1.95389   1.95770   1.98540   2.01954   2.03061
 Alpha virt. eigenvalues --    2.07534   2.07558   2.15806   2.17962   2.21003
 Alpha virt. eigenvalues --    2.21831   2.24105   2.28792   2.30959   2.32322
 Alpha virt. eigenvalues --    2.35160   2.36651   2.37232   2.37842   2.38930
 Alpha virt. eigenvalues --    2.46811   2.48090   2.49281   2.50058   2.51684
 Alpha virt. eigenvalues --    2.55623   2.58050   2.58916   2.59571   2.59904
 Alpha virt. eigenvalues --    2.60288   2.61215   2.61778   2.62994   2.63517
 Alpha virt. eigenvalues --    2.64213   2.64714   2.65981   2.67365   2.69634
 Alpha virt. eigenvalues --    2.71142   2.71612   2.72683   2.74152   2.74487
 Alpha virt. eigenvalues --    2.78066   2.78592   2.80959   2.81740   2.81990
 Alpha virt. eigenvalues --    2.82989   2.83717   2.85191   2.94610   2.98004
 Alpha virt. eigenvalues --    2.99141   3.03843   3.05560   3.06720   3.10202
 Alpha virt. eigenvalues --    3.17877   3.20923   3.22647   3.25057   3.27204
 Alpha virt. eigenvalues --    3.31476   3.37406   3.38255   3.38691   3.41447
 Alpha virt. eigenvalues --    3.43018   3.43575   3.44243   3.56603   3.67780
 Alpha virt. eigenvalues --    3.84570   3.87778   3.88713   3.93437   3.93724
 Alpha virt. eigenvalues --    4.00866   4.01763   4.02396   4.03217   4.11563
 Alpha virt. eigenvalues --    4.32635   4.65724   4.67139   4.97380   5.31861
 Alpha virt. eigenvalues --    5.72525  23.51047  23.58398  23.74311  23.83790
 Alpha virt. eigenvalues --   23.84391  23.85057  23.85928  23.93045  23.93532
 Alpha virt. eigenvalues --   23.97132  23.97898  24.06520  24.07189  49.85362
          Condensed to atoms (all electrons):
               1          2          3          4          5          6
     1  O    7.625763   0.601538   0.021365   0.064738  -0.026961   0.016733
     2  C    0.601538  44.222560 -10.204725  -5.723490   3.425177  -1.861252
     3  C    0.021365 -10.204725  19.289021  -1.177845  -0.548803  -0.754892
     4  C    0.064738  -5.723490  -1.177845  21.282795  -4.893918   2.762986
     5  C   -0.026961   3.425177  -0.548803  -4.893918   9.283936  -1.112444
     6  C    0.016733  -1.861252  -0.754892   2.762986  -1.112444   7.012441
     7  C    0.009167   2.269236  -1.127037  -2.273575   0.795693  -0.149345
     8  C   -0.094250  -4.178652   0.162596  -1.835659  -1.099131   0.051794
     9  C   -0.400397 -16.896000   0.608105  -0.743335  -0.372701   0.223586
    10  C   -0.015273  -3.776009  -0.832264  -0.486163   0.343502  -0.189221
    11  C   -0.000282   1.897575  -0.071124   0.289716  -0.022387  -0.001552
    12  C    0.000041  -0.366081  -0.121090  -0.145745   0.019696  -0.010940
    13  C    0.015532  -1.198635   0.536321   0.199223  -0.011141   0.015976
    14  C   -0.096315  -0.704505  -0.862798  -0.893157   0.125881  -0.004179
    15  H    0.001664  -0.170485   0.027104   0.679647  -0.213336   0.057002
    16  H   -0.000347   0.035080   0.074414  -0.193606   0.466656  -0.071012
    17  H    0.000295  -0.058762  -0.012371   0.094491  -0.080373   0.402976
    18  H    0.000452   0.060900   0.031202  -0.053124   0.020326  -0.035358
    19  H   -0.021398  -0.198187   0.057755   0.127225  -0.015301   0.016999
    20  H   -0.000314  -0.164308   0.017942  -0.062214   0.011213  -0.001836
    21  H   -0.000309   0.003215   0.000232   0.004132  -0.000613   0.000512
    22  H    0.000084  -0.031466   0.000040  -0.004185   0.000018  -0.000128
    23  H    0.000335   0.006897   0.001619   0.006035   0.000225   0.000238
    24  H   -0.020538  -0.064649  -0.037687  -0.056346   0.000585  -0.002722
    25  H    0.262871   0.169648  -0.261291  -0.039436   0.025692  -0.013846
               7          8          9         10         11         12
     1  O    0.009167  -0.094250  -0.400397  -0.015273  -0.000282   0.000041
     2  C    2.269236  -4.178652 -16.896000  -3.776009   1.897575  -0.366081
     3  C   -1.127037   0.162596   0.608105  -0.832264  -0.071124  -0.121090
     4  C   -2.273575  -1.835659  -0.743335  -0.486163   0.289716  -0.145745
     5  C    0.795693  -1.099131  -0.372701   0.343502  -0.022387   0.019696
     6  C   -0.149345   0.051794   0.223586  -0.189221  -0.001552  -0.010940
     7  C    7.709528  -1.055259  -0.368362   0.292397   0.042636   0.013990
     8  C   -1.055259  12.890154   1.013360  -0.771649   0.035083   0.007203
     9  C   -0.368362   1.013360  23.581590  -0.891115  -1.315883  -0.417923
    10  C    0.292397  -0.771649  -0.891115  18.486708  -2.229230   0.865420
    11  C    0.042636   0.035083  -1.315883  -2.229230   7.379540   0.123571
    12  C    0.013990   0.007203  -0.417923   0.865420   0.123571   6.140427
    13  C   -0.041221  -0.122091  -0.154717   0.757154  -0.542732   0.680646
    14  C   -0.114208   0.589778   0.439428  -5.033904   0.423207  -0.854152
    15  H   -0.021199   0.020434   0.017962  -0.068341   0.016580  -0.005283
    16  H    0.012728   0.005331  -0.005640   0.006576   0.000034   0.000491
    17  H   -0.073786   0.053741   0.008711  -0.004734  -0.000388  -0.000173
    18  H    0.459451  -0.129883  -0.021680   0.009981   0.001451   0.000286
    19  H   -0.194840   0.431936   0.097745  -0.079180  -0.006081  -0.004113
    20  H    0.008108  -0.004804   0.017045   0.629243  -0.133157   0.023711
    21  H   -0.001187   0.002528   0.078218  -0.171526   0.430746  -0.059198
    22  H    0.000163   0.000828   0.013590   0.033037  -0.059687   0.420255
    23  H   -0.000586  -0.002491   0.013486  -0.005631  -0.000481  -0.010318
    24  H    0.007170   0.033748   0.095490   0.066899   0.004300  -0.018286
    25  H    0.049482  -0.058490   0.130320   0.020355  -0.005082   0.003663
              13         14         15         16         17         18
     1  O    0.015532  -0.096315   0.001664  -0.000347   0.000295   0.000452
     2  C   -1.198635  -0.704505  -0.170485   0.035080  -0.058762   0.060900
     3  C    0.536321  -0.862798   0.027104   0.074414  -0.012371   0.031202
     4  C    0.199223  -0.893157   0.679647  -0.193606   0.094491  -0.053124
     5  C   -0.011141   0.125881  -0.213336   0.466656  -0.080373   0.020326
     6  C    0.015976  -0.004179   0.057002  -0.071012   0.402976  -0.035358
     7  C   -0.041221  -0.114208  -0.021199   0.012728  -0.073786   0.459451
     8  C   -0.122091   0.589778   0.020434   0.005331   0.053741  -0.129883
     9  C   -0.154717   0.439428   0.017962  -0.005640   0.008711  -0.021680
    10  C    0.757154  -5.033904  -0.068341   0.006576  -0.004734   0.009981
    11  C   -0.542732   0.423207   0.016580   0.000034  -0.000388   0.001451
    12  C    0.680646  -0.854152  -0.005283   0.000491  -0.000173   0.000286
    13  C    6.900691  -0.954594   0.011480  -0.000823   0.000385  -0.000586
    14  C   -0.954594  13.348453  -0.031313   0.001204   0.000463  -0.003843
    15  H    0.011480  -0.031313   0.460655  -0.014060   0.001878   0.000105
    16  H   -0.000823   0.001204  -0.014060   0.426182  -0.005413   0.000135
    17  H    0.000385   0.000463   0.001878  -0.005413   0.424043  -0.007367
    18  H   -0.000586  -0.003843   0.000105   0.000135  -0.007367   0.429468
    19  H    0.007589   0.046882  -0.000770   0.000120   0.002593  -0.019337
    20  H    0.031060  -0.046244  -0.000176  -0.000568  -0.000053   0.000003
    21  H   -0.013864   0.056529  -0.000449   0.000070   0.000010  -0.000025
    22  H   -0.031412  -0.006764  -0.000193   0.000007  -0.000001   0.000002
    23  H    0.415723  -0.086398   0.000204  -0.000012   0.000003  -0.000006
    24  H   -0.162168   0.439720  -0.003204   0.000215  -0.000046  -0.000030
    25  H   -0.009915  -0.012716  -0.001709  -0.000033  -0.000589   0.001038
              19         20         21         22         23         24
     1  O   -0.021398  -0.000314  -0.000309   0.000084   0.000335  -0.020538
     2  C   -0.198187  -0.164308   0.003215  -0.031466   0.006897  -0.064649
     3  C    0.057755   0.017942   0.000232   0.000040   0.001619  -0.037687
     4  C    0.127225  -0.062214   0.004132  -0.004185   0.006035  -0.056346
     5  C   -0.015301   0.011213  -0.000613   0.000018   0.000225   0.000585
     6  C    0.016999  -0.001836   0.000512  -0.000128   0.000238  -0.002722
     7  C   -0.194840   0.008108  -0.001187   0.000163  -0.000586   0.007170
     8  C    0.431936  -0.004804   0.002528   0.000828  -0.002491   0.033748
     9  C    0.097745   0.017045   0.078218   0.013590   0.013486   0.095490
    10  C   -0.079180   0.629243  -0.171526   0.033037  -0.005631   0.066899
    11  C   -0.006081  -0.133157   0.430746  -0.059687  -0.000481   0.004300
    12  C   -0.004113   0.023711  -0.059198   0.420255  -0.010318  -0.018286
    13  C    0.007589   0.031060  -0.013864  -0.031412   0.415723  -0.162168
    14  C    0.046882  -0.046244   0.056529  -0.006764  -0.086398   0.439720
    15  H   -0.000770  -0.000176  -0.000449  -0.000193   0.000204  -0.003204
    16  H    0.000120  -0.000568   0.000070   0.000007  -0.000012   0.000215
    17  H    0.002593  -0.000053   0.000010  -0.000001   0.000003  -0.000046
    18  H   -0.019337   0.000003  -0.000025   0.000002  -0.000006  -0.000030
    19  H    0.532132  -0.001855   0.000383  -0.000052   0.000113   0.000167
    20  H   -0.001855   0.471955  -0.014019   0.001663   0.000137   0.001436
    21  H    0.000383  -0.014019   0.431066  -0.007815   0.000194   0.000475
    22  H   -0.000052   0.001663  -0.007815   0.427148  -0.006710   0.001151
    23  H    0.000113   0.000137   0.000194  -0.006710   0.422240  -0.009155
    24  H    0.000167   0.001436   0.000475   0.001151  -0.009155   0.452250
    25  H    0.006222   0.000949  -0.000181   0.000048  -0.000277   0.002258
              25
     1  O    0.262871
     2  C    0.169648
     3  C   -0.261291
     4  C   -0.039436
     5  C    0.025692
     6  C   -0.013846
     7  C    0.049482
     8  C   -0.058490
     9  C    0.130320
    10  C    0.020355
    11  C   -0.005082
    12  C    0.003663
    13  C   -0.009915
    14  C   -0.012716
    15  H   -0.001709
    16  H   -0.000033
    17  H   -0.000589
    18  H    0.001038
    19  H    0.006222
    20  H    0.000949
    21  H   -0.000181
    22  H    0.000048
    23  H   -0.000277
    24  H    0.002258
    25  H    0.405343
 Mulliken charges:
               1
     1  O    0.055805
     2  C   -1.094621
     3  C    1.184212
     4  C   -0.929189
     5  C   -0.121492
     6  C   -0.352515
     7  C   -0.249144
     8  C    0.053844
     9  C    1.249119
    10  C   -0.957032
    11  C   -0.256373
    12  C   -0.286095
    13  C   -0.327881
    14  C    0.233543
    15  H    0.235805
    16  H    0.262270
    17  H    0.254466
    18  H    0.256439
    19  H    0.213254
    20  H    0.215083
    21  H    0.260871
    22  H    0.250379
    23  H    0.254615
    24  H    0.268965
    25  H    0.325674
 Sum of Mulliken charges =   1.00000
 Mulliken charges with hydrogens summed into heavy atoms:
               1
     1  O    0.381479
     2  C   -1.094621
     3  C    1.184212
     4  C   -0.693384
     5  C    0.140778
     6  C   -0.098050
     7  C    0.007295
     8  C    0.267098
     9  C    1.249119
    10  C   -0.741949
    11  C    0.004499
    12  C   -0.035716
    13  C   -0.073267
    14  C    0.502508
 Electronic spatial extent (au):  <R**2>=           3323.8898
 Charge=              1.0000 electrons
 Dipole moment (field-independent basis, Debye):
    X=             -1.0118    Y=              0.9271    Z=             -0.3724  Tot=              1.4219
 Quadrupole moment (field-independent basis, Debye-Ang):
   XX=            -26.4547   YY=            -62.7884   ZZ=            -77.7778
   XY=             -2.7300   XZ=              2.8334   YZ=             -1.5800
 Traceless Quadrupole moment (field-independent basis, Debye-Ang):
   XX=             29.2189   YY=             -7.1148   ZZ=            -22.1042
   XY=             -2.7300   XZ=              2.8334   YZ=             -1.5800
 Octapole moment (field-independent basis, Debye-Ang**2):
  XXX=              5.3036  YYY=             21.8991  ZZZ=              1.0222  XYY=             -7.1276
  XXY=            -29.3229  XXZ=             -3.4019  XZZ=             -4.8010  YZZ=              1.6843
  YYZ=             -3.0708  XYZ=             30.3192
 Hexadecapole moment (field-independent basis, Debye-Ang**3):
 XXXX=          -2492.1643 YYYY=           -532.0268 ZZZZ=           -273.7670 XXXY=             18.3645
 XXXZ=             90.1224 YYYX=            -30.4769 YYYZ=             -5.9067 ZZZX=              5.9370
 ZZZY=             -5.4623 XXYY=           -605.3579 XXZZ=           -646.6891 YYZZ=           -125.1363
 XXYZ=             -1.9470 YYXZ=            -17.3428 ZZXY=              0.5791
 N-N= 7.772708759966D+02 E-N=-2.879471542906D+03  KE= 5.740416421857D+02
 No NMR shielding tensors so no spin-rotation constants.
 Leave Link  601 at Mon Oct 14 10:30:20 2019, MaxMem= 10737418240 cpu:               3.5 elap:               0.2
 (Enter /apps/cent7/gaussian/g16-A.03/g16-haswell/g16/l701.exe)
 ... and contract with generalized density number  0.
 Compute integral first derivatives.
 Leave Link  701 at Mon Oct 14 10:30:20 2019, MaxMem= 10737418240 cpu:               4.5 elap:               0.2
 (Enter /apps/cent7/gaussian/g16-A.03/g16-haswell/g16/l702.exe)
 L702 exits ... SP integral derivatives will be done elsewhere.
 Leave Link  702 at Mon Oct 14 10:30:20 2019, MaxMem= 10737418240 cpu:               0.5 elap:               0.0
 (Enter /apps/cent7/gaussian/g16-A.03/g16-haswell/g16/l703.exe)
 Integral derivatives from FoFJK, PRISM(SPDF).
 Compute integral first derivatives, UseDBF=F ICtDFT=           0.
 Calling FoFJK, ICntrl=      2127 FMM=F ISym2X=0 I1Cent= 0 IOpClX= 0 NMat=1 NMatS=1 NMatT=0.
 FoFJK:  IHMeth= 1 ICntrl=    2127 DoSepK=F KAlg= 0 I1Cent=           0 FoldK=F
 IRaf=         0 NMat=       1 IRICut=       1 DoRegI=T DoRafI=F ISym2E= 0 IDoP0=0 IntGTp=1.
 FoFCou: FMM=F IPFlag=           0 FMFlag=      100000 FMFlg1=         800
         NFxFlg=           0 DoJE=F BraDBF=F KetDBF=F FulRan=T
         wScrn=  0.000000 ICntrl=      2127 IOpCl=  0 I1Cent=           0 NGrid=           0
         NMat0=    1 NMatS0=      1 NMatT0=    0 NMatD0=    1 NMtDS0=    0 NMtDT0=    0
 Symmetry not used in FoFCou.
 Leave Link  703 at Mon Oct 14 10:30:26 2019, MaxMem= 10737418240 cpu:             139.2 elap:               5.8
 (Enter /apps/cent7/gaussian/g16-A.03/g16-haswell/g16/l716.exe)
 Dipole        =-3.98061906D-01 3.64754692D-01-1.46524533D-01
 ***** Axes restored to original set *****
 -------------------------------------------------------------------
 Center     Atomic                   Forces (Hartrees/Bohr)
 Number     Number              X              Y              Z
 -------------------------------------------------------------------
      1        8          -0.045249320    0.019643062    0.038912984
      2        6           0.018477982   -0.022940861   -0.015729449
      3        6           0.046955385   -0.010486051   -0.009712950
      4        6          -0.006025163   -0.012292066   -0.000355425
      5        6          -0.009526390    0.002042287    0.008630223
      6        6          -0.007912056   -0.002488362    0.001615377
      7        6          -0.014263900   -0.004355053    0.000223478
      8        6          -0.002288373    0.005599835   -0.001883300
      9        6          -0.021949307   -0.020557354   -0.015290720
     10        6           0.012176286   -0.002234831   -0.008270021
     11        6           0.005545417    0.012881060    0.001366746
     12        6           0.005531465    0.005865566    0.000056166
     13        6           0.014212231    0.008370244    0.000070097
     14        6          -0.007290861    0.004240384    0.005177646
     15        1           0.000826373    0.001693541    0.002600566
     16        1          -0.004501672    0.000918494    0.004150764
     17        1          -0.004379304   -0.001179837    0.001771908
     18        1          -0.005074754   -0.003018494   -0.001139790
     19        1           0.003364856   -0.002705886    0.000528351
     20        1          -0.002464518    0.001367085    0.000421844
     21        1           0.001044439    0.006259650    0.000679040
     22        1           0.003118796    0.003481411   -0.000191223
     23        1           0.005954090    0.001704241   -0.000480502
     24        1           0.002716728   -0.003066386   -0.000781406
     25        1           0.011001570    0.011258319   -0.012370404
 -------------------------------------------------------------------
 Cartesian Forces:  Max     0.046955385 RMS     0.012006174
 Leave Link  716 at Mon Oct 14 10:30:26 2019, MaxMem= 10737418240 cpu:               0.6 elap:               0.1
 (Enter /apps/cent7/gaussian/g16-A.03/g16-haswell/g16/l103.exe)

 GradGradGradGradGradGradGradGradGradGradGradGradGradGradGradGradGradGrad
 Berny optimization.
 FormGI is forming the generalized inverse of G from B-inverse, IUseBI=4.
 Internal  Forces:  Max     0.050435893 RMS     0.011006531
 Search for a local minimum.
 Step number   1 out of a maximum of  134
 All quantities printed in internal units (Hartrees-Bohrs-Radians)
 RMS Force = .11007D-01 SwitMx=.10000D-02 MixMth= 1
 Mixed Optimization -- RFO/linear search
 Second derivative matrix not updated -- first step.
 ITU=  0
     Eigenvalues ---    0.01219   0.01220   0.01528   0.01566   0.01566
     Eigenvalues ---    0.01756   0.01756   0.01830   0.01830   0.01877
     Eigenvalues ---    0.01877   0.01957   0.01957   0.02035   0.02035
     Eigenvalues ---    0.02045   0.02045   0.02070   0.02070   0.02097
     Eigenvalues ---    0.02097   0.03569   0.16000   0.16000   0.16000
     Eigenvalues ---    0.16000   0.16000   0.16000   0.16000   0.16000
     Eigenvalues ---    0.16000   0.16000   0.16000   0.22000   0.22000
     Eigenvalues ---    0.22000   0.22000   0.23435   0.23435   0.25000
     Eigenvalues ---    0.25000   0.25000   0.25000   0.34806   0.34808
     Eigenvalues ---    0.34810   0.34812   0.34813   0.34814   0.34814
     Eigenvalues ---    0.34816   0.34821   0.34824   0.36253   0.36261
     Eigenvalues ---    0.38887   0.38889   0.39655   0.39668   0.42466
     Eigenvalues ---    0.42466   0.44402   0.44409   0.44425   0.44428
     Eigenvalues ---    0.45519   0.45520   0.55473   0.80307
 RFO step:  Lambda=-4.49592297D-02 EMin= 1.21893320D-02
 Linear search not attempted -- first point.
 Maximum step size (   0.300) exceeded in Quadratic search.
    -- Step size scaled by   0.887
 Iteration  1 RMS(Cart)=  0.20790237 RMS(Int)=  0.00520751
 Iteration  2 RMS(Cart)=  0.01134144 RMS(Int)=  0.00028706
 Iteration  3 RMS(Cart)=  0.00003373 RMS(Int)=  0.00028654
 Iteration  4 RMS(Cart)=  0.00000001 RMS(Int)=  0.00028654
 ITry= 1 IFail=0 DXMaxC= 6.12D-01 DCOld= 1.00D+10 DXMaxT= 3.00D-01 DXLimC= 3.00D+00 Rises=F
 Variable       Old X    -DE/DX   Delta X   Delta X   Delta X     New X
                                 (Linear)    (Quad)   (Total)
    R1        2.37750   0.05044   0.00000   0.05276   0.05276   2.43026
    R2        1.81414   0.00925   0.00000   0.01368   0.01368   1.82782
    R3        2.76988  -0.00976   0.00000  -0.02124  -0.02124   2.74864
    R4        2.76976  -0.02582   0.00000  -0.05620  -0.05620   2.71356
    R5        2.69126  -0.02019   0.00000  -0.03895  -0.03878   2.65248
    R6        2.70617  -0.01797   0.00000  -0.03560  -0.03541   2.67076
    R7        2.66039  -0.02331   0.00000  -0.04232  -0.04234   2.61805
    R8        2.05977  -0.00297   0.00000  -0.00669  -0.00669   2.05308
    R9        2.64361  -0.00542   0.00000  -0.00927  -0.00947   2.63415
   R10        2.05967  -0.00539   0.00000  -0.01216  -0.01216   2.04751
   R11        2.64535  -0.00420   0.00000  -0.00714  -0.00731   2.63804
   R12        2.05979  -0.00486   0.00000  -0.01096  -0.01096   2.04883
   R13        2.65910  -0.02552   0.00000  -0.04626  -0.04624   2.61286
   R14        2.05962  -0.00535   0.00000  -0.01207  -0.01207   2.04755
   R15        2.05992  -0.00120   0.00000  -0.00272  -0.00272   2.05720
   R16        2.69158  -0.01705   0.00000  -0.03292  -0.03271   2.65886
   R17        2.70614  -0.01760   0.00000  -0.03482  -0.03461   2.67153
   R18        2.66022  -0.02584   0.00000  -0.04690  -0.04690   2.61332
   R19        2.05985  -0.00271   0.00000  -0.00611  -0.00611   2.05374
   R20        2.64359  -0.00333   0.00000  -0.00562  -0.00582   2.63777
   R21        2.05988  -0.00557   0.00000  -0.01256  -0.01256   2.04732
   R22        2.64543  -0.00227   0.00000  -0.00377  -0.00398   2.64145
   R23        2.05981  -0.00467   0.00000  -0.01055  -0.01055   2.04926
   R24        2.65904  -0.02658   0.00000  -0.04818  -0.04818   2.61086
   R25        2.05975  -0.00552   0.00000  -0.01246  -0.01246   2.04729
   R26        2.05979  -0.00385   0.00000  -0.00868  -0.00868   2.05111
    A1        2.09440  -0.01240   0.00000  -0.05369  -0.05369   2.04071
    A2        1.97033   0.03321   0.00000   0.09988   0.09974   2.07007
    A3        1.97029   0.01055   0.00000   0.03172   0.03159   2.00188
    A4        2.34256  -0.04376   0.00000  -0.13160  -0.13170   2.21087
    A5        2.21083  -0.02355   0.00000  -0.07091  -0.07109   2.13975
    A6        2.08039   0.00013   0.00000   0.00031   0.00012   2.08052
    A7        1.99196   0.02343   0.00000   0.07060   0.07094   2.06290
    A8        2.14909  -0.01243   0.00000  -0.04081  -0.04073   2.10836
    A9        2.07785   0.00497   0.00000   0.01501   0.01489   2.09274
   A10        2.05625   0.00746   0.00000   0.02580   0.02567   2.08191
   A11        2.10093  -0.00183   0.00000  -0.00420  -0.00442   2.09650
   A12        2.09668  -0.00214   0.00000  -0.01111  -0.01100   2.08568
   A13        2.08558   0.00397   0.00000   0.01531   0.01542   2.10100
   A14        2.07773   0.00487   0.00000   0.01878   0.01841   2.09614
   A15        2.10214  -0.00224   0.00000  -0.00855  -0.00837   2.09376
   A16        2.10332  -0.00263   0.00000  -0.01023  -0.01005   2.09327
   A17        2.09394  -0.00160   0.00000  -0.00349  -0.00366   2.09029
   A18        2.09015   0.00357   0.00000   0.01374   0.01382   2.10396
   A19        2.09910  -0.00197   0.00000  -0.01025  -0.01017   2.08893
   A20        2.15272  -0.01243   0.00000  -0.04088  -0.04076   2.11197
   A21        2.08156   0.00833   0.00000   0.02960   0.02942   2.11099
   A22        2.04890   0.00410   0.00000   0.01128   0.01112   2.06002
   A23        2.21092  -0.02530   0.00000  -0.07631  -0.07652   2.13441
   A24        2.08048  -0.00096   0.00000  -0.00312  -0.00332   2.07716
   A25        1.99178   0.02626   0.00000   0.07943   0.07984   2.07162
   A26        2.14916  -0.01371   0.00000  -0.04483  -0.04467   2.10449
   A27        2.07768   0.00604   0.00000   0.01891   0.01878   2.09646
   A28        2.05635   0.00766   0.00000   0.02591   0.02577   2.08213
   A29        2.10101  -0.00263   0.00000  -0.00678  -0.00700   2.09401
   A30        2.09665  -0.00182   0.00000  -0.01019  -0.01008   2.08657
   A31        2.08552   0.00445   0.00000   0.01697   0.01708   2.10260
   A32        2.07759   0.00613   0.00000   0.02299   0.02256   2.10015
   A33        2.10221  -0.00316   0.00000  -0.01191  -0.01169   2.09052
   A34        2.10338  -0.00297   0.00000  -0.01108  -0.01086   2.09252
   A35        2.09403  -0.00133   0.00000  -0.00250  -0.00271   2.09132
   A36        2.09001   0.00355   0.00000   0.01376   0.01387   2.10388
   A37        2.09914  -0.00223   0.00000  -0.01126  -0.01116   2.08799
   A38        2.15279  -0.01473   0.00000  -0.04831  -0.04812   2.10467
   A39        2.08147   0.00591   0.00000   0.01785   0.01775   2.09922
   A40        2.04892   0.00882   0.00000   0.03046   0.03035   2.07927
    D1       -0.45829   0.01205   0.00000   0.12944   0.12789  -0.33040
    D2        2.68331   0.01370   0.00000   0.15373   0.15528   2.83859
    D3       -2.37365  -0.00191   0.00000  -0.03020  -0.03024  -2.40389
    D4        0.76794  -0.00140   0.00000  -0.02290  -0.02305   0.74489
    D5        0.76794  -0.00403   0.00000  -0.06142  -0.06127   0.70667
    D6       -2.37365  -0.00352   0.00000  -0.05412  -0.05408  -2.42773
    D7       -2.60752  -0.00558   0.00000  -0.08571  -0.08511  -2.69264
[...]
 2558813,0.00316631,-0.00394954,0.00213665,-0.00502535,-0.00262205,0.00
 017783,0.00006022,-0.00000390,0.00005452,-0.00000697,-0.00003540,-0.00
 007467,-0.00002947,-0.00001982,0.00007117,-0.00004595,-0.00001078,0.00
 001334,0.00008247,-0.00000328,-0.00006800,-0.00000844,0.00003999,-0.00
 092750,0.00013218,0.00025165,-0.00029740,0.00196068,-0.00035836,-0.105
 82146,-0.00062360,0.09134365,-0.00007520,0.00009410,0.00006172,-0.0003
 1218,-0.00102606,-0.00073140,-0.00316314,-0.00120937,0.00345304,-0.000
 20529,0.00071447,0.00062230,0.00073506,-0.00034500,0.00317752,0.010495
 12,0.00573550,0.00647801,-0.19146755,-0.10707560,-0.10088597,-0.014701
 31,-0.01513549,-0.01579162,-0.00039592,0.00003842,0.00017961,-0.000056
 23,0.00008602,-0.00000281,-0.00000871,-0.00001360,-0.00000325,-0.00001
 824,0.00001942,0.00001701,-0.00003893,-0.00004695,-0.00002962,0.000059
 87,-0.00009472,0.00002778,-0.00005540,0.00017186,-0.00019357,0.0003700
 7,0.00039415,0.00029334,0.00013663,0.00084504,-0.00082642,0.19830523,0
 .00003622,-0.00007703,0.00010504,0.00020483,0.00051414,-0.00053818,-0.
 00200313,0.00604867,-0.00206403,0.00080815,-0.00068176,0.00026553,-0.0
 0029862,0.00473861,-0.00465967,-0.00898024,-0.00197718,-0.00578928,-0.
 10752063,-0.12450963,-0.08584885,-0.00025751,0.00294241,-0.00140442,0.
 00006729,-0.00017325,0.00013113,0.00001939,0.00006772,0.00003135,-0.00
 007947,-0.00003252,-0.00005074,0.00002328,-0.00002398,-0.00000374,0.00
 002621,-0.00002481,-0.00003588,0.00006577,0.00001700,0.00000050,0.0002
 1189,-0.00070756,0.00039088,-0.00037849,-0.00039726,-0.00004509,0.0011
 4149,-0.00248097,0.00181039,0.11571166,0.11976844,-0.00005988,0.000000
 42,-0.00010809,0.00022119,0.00020015,0.00090503,0.00428390,-0.00238631
 ,0.00160370,0.00084213,0.00038878,-0.00083606,0.00289862,-0.00448896,-
 0.00237813,-0.01939724,-0.01368135,-0.00847061,-0.10093658,-0.08644819
 ,-0.13518519,0.00979767,0.00652281,0.00971095,0.00011324,0.00016735,-0
 .00027704,-0.00000938,-0.00008726,-0.00001655,0.00009971,0.00003343,0.
 00005199,-0.00002547,0.00002894,-0.00000045,-0.00000878,0.00002334,0.0
 0004878,-0.00005805,0.00003520,-0.00002319,-0.00020034,0.00039163,-0.0
 0016452,-0.00097947,-0.00051404,-0.00047652,-0.00050056,0.00184083,-0.
 00010857,0.10488531,0.09592692,0.13604043,-0.00149272,0.00096666,0.000
 72827,0.00057258,-0.00032729,-0.00178287,0.00922745,-0.00692681,-0.017
 88226,-0.00232544,-0.00397388,-0.00121345,-0.00104102,-0.00011661,-0.0
 0035942,-0.00500273,-0.00285204,0.00259258,-0.00145138,0.01221390,0.02
 726733,-0.07284194,0.01858961,0.05921043,0.00047543,0.00034807,0.00011
 837,0.00010928,-0.00020025,-0.00005647,0.00007537,0.00005362,-0.000004
 50,0.00001250,-0.00002226,0.00000027,0.00000155,0.00014581,0.00001345,
 -0.00017940,0.00001587,0.00005678,0.00048299,-0.00063894,-0.00077634,-
 0.00000034,0.00030604,-0.00011123,-0.00015403,0.00078262,0.00120684,0.
 00042768,0.00118012,-0.00095290,0.07524240,0.00092288,0.00070940,0.000
 79016,0.00234234,-0.00366504,-0.00057900,0.00224705,-0.00377159,-0.013
 09802,-0.00448054,0.00278885,-0.00272169,0.00033285,-0.00054766,0.0009
 6000,-0.00228325,0.00599146,-0.00256275,-0.00194706,0.00649981,0.00235
 655,0.02109136,-0.08437339,-0.10207879,-0.00035265,0.00006543,0.000028
 31,-0.00005267,0.00001393,0.00006249,-0.00001379,-0.00002982,0.0000057
 5,-0.00000235,-0.00000917,-0.00000469,-0.00003156,-0.00001151,0.000053
 05,0.00004268,-0.00007236,-0.00015666,0.00008876,0.00043271,-0.0009611
 6,0.00032151,-0.00072949,0.00036329,0.00004052,-0.00031310,0.00035946,
 0.00129108,-0.00302966,0.00202444,-0.01992028,0.07915236,0.00056021,0.
 00236670,0.00189173,0.00137495,-0.00080088,-0.00206203,0.00540884,-0.0
 0388985,-0.00862377,-0.00199916,-0.00291975,0.00163274,0.00006783,0.00
 073685,0.00009005,0.00246719,-0.00212397,0.00206562,0.00041933,-0.0050
 7220,-0.00435849,0.06125255,-0.10583948,-0.28030385,0.00018864,0.00038
 423,0.00015572,0.00010613,-0.00015028,-0.00004408,0.00003564,0.0000587
 6,-0.00002591,0.00001857,-0.00001696,-0.00000483,-0.00001585,0.0001255
 1,-0.00002542,-0.00013606,-0.00002079,0.00011963,0.00047702,-0.0004925
 0,-0.00019961,-0.00011978,0.00036919,-0.00023950,-0.00017048,-0.000043
 40,-0.00043736,-0.00066554,0.00178805,-0.00036723,-0.06667279,0.115386
 23,0.29114048,0.00019118,0.00009108,0.00008565,-0.00046618,-0.00063442
 ,-0.00021469,0.00022134,-0.00136143,0.00004101,-0.00049991,-0.00162280
 ,0.00164374,0.00037058,-0.00002616,0.00006002,-0.00023212,-0.00017812,
 -0.00044116,-0.00045376,0.00003009,0.00025733,0.00054672,0.00040931,0.
 00007197,-0.00771984,-0.00109130,0.00032618,-0.34664512,0.02979984,0.0
 1007919,-0.01078667,0.00408985,0.00121399,-0.00067025,-0.00262771,-0.0
 0001568,0.00035596,-0.00099966,-0.00020446,0.00185289,0.00212909,0.000
 26801,-0.00029181,-0.00027102,-0.00027568,0.00001582,-0.00001142,0.000
 02567,-0.00002177,-0.00000644,-0.00001836,0.00000832,-0.00002125,0.000
 02049,0.00000430,-0.00000295,-0.00001302,0.36448865,-0.00025924,0.0000
 4006,0.00000967,0.00189879,0.00102835,0.00035693,-0.00054984,-0.001444
 22,-0.00006140,-0.00077761,-0.00126784,0.00107711,-0.00001808,0.000080
 85,0.00010643,-0.00004101,-0.00006206,-0.00008316,-0.00006263,0.000003
 40,0.00011155,-0.00012663,0.00025308,-0.00008031,0.02687572,0.00162180
 ,-0.00093866,0.02842287,-0.06127976,-0.00412403,-0.02620629,0.00766439
 ,0.00113673,-0.00305202,-0.00425998,-0.00117909,-0.00015894,-0.0008050
 5,0.00003936,0.00126343,-0.00520660,-0.00152012,-0.00000516,-0.0003148
 0,0.00049512,0.00001961,0.00003554,-0.00001794,0.00000662,0.00002057,0
 .00000759,0.00000208,-0.00002249,0.00000866,0.00004038,-0.00000008,0.0
 0003144,-0.02789870,0.06270878,0.00019331,-0.00117215,-0.00067438,0.00
 030070,0.00121747,-0.00279104,0.00132460,0.00120664,0.00032056,0.00067
 672,0.00161915,-0.00029377,-0.00076088,-0.00020441,-0.00010060,0.00030
 854,0.00045333,0.00078110,0.00062608,-0.00014633,-0.00074495,-0.000827
 89,-0.00083229,-0.00027162,0.00310499,-0.00205730,0.00214207,0.0093823
 1,-0.00333899,-0.04002492,-0.00179236,0.00015053,0.00682244,0.00014183
 ,-0.00109201,0.00801202,-0.00029669,0.00017961,-0.00119979,0.00053844,
 -0.00141463,0.00541511,-0.00002646,0.00074518,-0.00066688,0.00001199,0
 .00004686,-0.00006031,-0.00000877,-0.00003927,0.00001936,-0.00000354,0
 .00004766,-0.00005384,-0.00001587,-0.00004883,0.00000975,-0.01286837,0
 .00395097,0.02825158,-0.00027176,-0.00043733,-0.00013109,0.00100000,-0
 .00066033,-0.00008398,-0.00011543,-0.00003351,-0.00000654,0.00002250,-
 0.00001293,-0.00004659,-0.00000829,-0.00000684,-0.00000163,-0.00002156
 ,-0.00001602,-0.00002788,-0.00004690,0.00000909,0.00004016,0.00004430,
 0.00006062,0.00002321,-0.00186385,-0.00351412,0.00031470,0.01157028,-0
 .01926844,-0.00263674,-0.10743872,0.10815892,0.01593453,-0.00764715,0.
 02912494,0.00403814,-0.00556312,-0.00043549,0.00070025,-0.00109980,-0.
 00078194,-0.00006509,0.00003017,-0.00000054,-0.00000792,-0.00000345,-0
 .00001086,0.00001153,-0.00000038,-0.00000320,0.00000021,-0.00000319,-0
 .00000543,0.00000472,0.00000669,-0.00000592,0.00000797,0.00067159,0.00
 039075,-0.00021375,0.11007337,-0.00023668,-0.00043128,0.00002265,0.000
 92578,-0.00036034,-0.00031784,-0.00012894,-0.00006849,0.00000258,-0.00
 001943,-0.00005573,-0.00006360,-0.00001177,0.00001572,0.00000009,-0.00
 001892,-0.00002246,-0.00002837,-0.00005403,0.00001507,0.00005159,0.000
 05159,0.00007524,0.00004080,-0.00363367,-0.00147278,-0.00072079,0.0113
 2582,-0.01722383,-0.00305436,0.10796368,-0.29807236,-0.03604370,-0.001
 70487,0.00317271,-0.00000069,-0.00046143,0.00147862,-0.00055697,-0.000
 49797,0.00045792,0.00021758,0.00001963,-0.00005163,-0.00000282,-0.0000
 1233,-0.00000916,0.00000849,0.00000215,-0.00000286,0.00000246,-0.00000
 474,-0.00000338,0.00000498,0.00000977,-0.00000547,0.00000837,0.0000493
 6,0.00069501,0.00065759,-0.11369102,0.31147266,0.00003560,-0.00014155,
 -0.00044218,0.00038229,0.00014223,0.00090268,-0.00003776,0.00003851,0.
 00001638,0.00006942,0.00006120,-0.00007540,-0.00004697,-0.00003195,0.0
 0001219,0.00000720,0.00001676,0.00001825,0.00000753,-0.00000683,-0.000
 00621,-0.00000377,0.00001802,-0.00000927,-0.00024491,-0.00138750,0.007
 89397,0.00115346,-0.00070128,0.00344321,0.01494596,-0.03627462,-0.0451
 3359,0.00115976,-0.00202135,0.00356956,0.00088274,-0.00052134,0.007350
 69,-0.00015618,0.00019177,-0.00108778,0.00000521,0.00005621,0.00001783
 ,0.00000986,0.00001215,-0.00000233,-0.00000011,0.00000081,0.00000019,-
 0.00000136,-0.00000399,0.00000080,0.00000016,-0.00001082,0.00000197,-0
 .00015136,0.00052985,-0.00440405,-0.01771386,0.03925814,0.03290050,0.0
 0003505,0.00006786,0.00004102,-0.00035796,-0.00028027,-0.00012082,0.00
 016445,0.00001797,0.00001091,-0.00002079,0.00001520,0.00005940,0.00001
 955,-0.00001068,-0.00000493,0.00000583,0.00001695,0.00001403,0.0000242
 6,-0.00000332,-0.00003808,-0.00001587,-0.00006007,0.00000053,-0.000289
 31,0.00130439,0.00021464,-0.00569017,0.00077243,0.00079115,-0.01138861
 ,-0.02559958,-0.00209991,-0.15826342,-0.13597436,-0.01111513,0.0123372
 4,0.01271272,0.00141031,-0.00055136,0.00338462,0.00105543,-0.00001768,
 -0.00000480,-0.00002926,-0.00000064,-0.00000008,-0.00000283,-0.0000015
 3,-0.00000335,0.00000007,0.00000107,0.00000439,-0.00000359,-0.00000511
 ,0.00000064,-0.00000373,-0.00058134,-0.00122379,-0.00016995,0.00089038
 ,0.00018743,-0.00022536,0.16270286,-0.00015775,0.00031655,0.00008268,-
 0.00018567,-0.00070071,0.00008340,0.00003385,-0.00003595,-0.00002919,-
 0.00001817,0.00001332,0.00002905,0.00004869,0.00000491,0.00001311,-0.0
 0000648,-0.00001310,-0.00001962,-0.00000311,-0.00000110,-0.00000397,-0
 .00001878,-0.00001507,-0.00000583,0.00139541,0.00058886,0.00001015,0.0
 0160064,0.00108920,-0.00101878,0.00459624,0.00772347,-0.00026886,-0.13
 605749,-0.25005100,-0.01864523,-0.01739232,-0.01539141,-0.00188979,0.0
 0254155,-0.00399342,-0.00166776,-0.00000533,0.00001514,-0.00000068,0.0
 0000099,-0.00000073,0.00000065,-0.00000184,0.00000357,-0.00000210,0.00
 000030,-0.00000006,0.00000007,-0.00000148,0.00000284,-0.00000122,0.000
 33533,0.00026977,0.00012445,-0.00022598,0.00041875,0.00059110,0.144357
 62,0.25975654,-0.00016457,-0.00038448,0.00004010,-0.00001740,0.0000404
 6,-0.00125782,0.00035845,0.00019599,0.00008737,0.00003063,0.00016922,-
 0.00001769,-0.00017101,-0.00002505,0.00000623,0.00005351,0.00008590,0.
 00015448,0.00013696,0.00000166,-0.00013749,-0.00013214,-0.00017463,-0.
 00004579,-0.00029373,0.00036769,-0.00086836,0.00136892,-0.00094525,0.0
 0770434,0.00158733,0.00209947,0.00714649,-0.01094500,-0.01863378,-0.04
 770829,-0.00298899,-0.00387106,0.00665877,0.00109647,-0.00213686,0.007
 27038,0.00000308,-0.00003914,0.00001699,0.00000021,0.00000480,-0.00000
 448,0.00000235,-0.00000729,0.00000822,-0.00000110,0.00001161,-0.000011
 76,0.00000028,-0.00000935,0.00001415,0.00001108,0.00019589,-0.00073616
 ,-0.00023865,0.00044195,-0.00377296,0.01059240,0.02197295,0.02991155,0
 .00001990,-0.00011354,-0.00002945,-0.00044039,0.00039121,0.00025083,-0
 .00010265,-0.00016941,-0.00009510,0.00000497,-0.00002870,-0.00005186,-
 0.00000087,0.00000293,0.00000682,-0.00000008,-0.00001356,-0.00001585,-
 0.00003675,0.00000227,0.00001058,-0.00000554,0.00002819,0.00005626,0.0
 0045708,-0.00271670,0.00005840,0.00071162,0.00003174,-0.00012867,0.000
 96873,0.00175743,0.00059918,-0.00650998,-0.00132317,0.00046666,-0.3480
 3986,0.02379389,0.02224239,-0.01182754,0.00322843,0.00146649,0.0000017
 4,0.00000801,0.00000260,-0.00000342,0.00000030,0.00000071,0.00000053,0
 .00000099,-0.00000005,-0.00000615,0.00000022,0.00000378,0.00000355,-0.
 00000394,0.00000261,-0.00005547,0.00001729,-0.00004168,-0.00033729,-0.
 00016694,-0.00001419,0.00053035,0.00008221,-0.00022261,0.36404951,0.00
 011563,-0.00002745,-0.00004009,-0.00136777,0.00064219,0.00027097,-0.00
 008353,-0.00041236,0.00004720,0.00001791,-0.00001768,-0.00006287,-0.00
 006333,0.00001120,-0.00001767,-0.00000223,-0.00000512,0.00001291,-0.00
 004195,0.00003367,-0.00000252,-0.00002150,0.00001213,0.00008093,-0.002
 75575,-0.00370861,-0.00180383,-0.00017231,-0.00132343,-0.00008382,0.00
 183774,-0.00480709,-0.00176227,0.02930635,0.00216089,-0.00207577,0.024
 06985,-0.06079637,-0.00414917,-0.02732039,0.00593307,0.00194656,0.0000
 0538,-0.00003225,0.00000815,-0.00000820,-0.00000130,0.00000210,0.00000
 366,-0.00000509,0.00000335,-0.00001052,0.00000059,0.00000389,0.0000069
 2,-0.00000909,0.00000578,-0.00000866,0.00010032,0.00015939,0.00135670,
 0.00006240,-0.00004166,-0.00034027,0.00074536,0.00059076,-0.02489228,0
 .06071351,-0.00005731,-0.00009924,0.00010337,-0.00010514,-0.00023258,0
 .00046141,-0.00018336,0.00002553,-0.00038969,-0.00002558,0.00000771,-0
 .00001646,0.00008346,-0.00001987,0.00002698,0.00000102,-0.00001741,-0.
 00003571,-0.00001743,-0.00005049,-0.00001269,-0.00005317,-0.00000350,0
 .00003983,-0.00005150,-0.00098974,0.00825718,-0.00011747,-0.00030109,-
 0.00107806,0.00062093,-0.00195144,0.00700772,0.00489208,-0.00030261,0.
 00355830,0.02245208,-0.00392664,-0.04258309,-0.00283528,0.00008942,0.0
 0411281,0.00001645,0.00005313,-0.00002064,0.00000751,-0.00000267,0.000
 00235,-0.00000668,0.00000830,-0.00000539,-0.00000572,0.00000434,0.0000
 0152,-0.00000352,0.00000345,-0.00000625,-0.00003051,0.00012375,-0.0009
 7478,0.00024398,0.00005655,-0.00015472,-0.00033924,0.00058249,-0.00363
 826,-0.02421968,0.00616137,0.02983617,-0.00016394,-0.00213198,-0.00121
 628,-0.00081735,0.00377230,0.00121308,0.00050742,-0.00009029,-0.000100
 85,-0.00001767,0.00013334,0.00013510,0.00004592,0.00001763,-0.00002630
 ,0.00000477,0.00002077,0.00002711,0.00004923,-0.00004086,-0.00009112,-
 0.00005760,-0.00013117,-0.00003664,-0.00767642,0.02678034,0.00423208,-
 0.00566426,-0.00138281,0.00075484,-0.00016368,-0.00035682,-0.00009013,
 -0.00240533,-0.00350019,0.00014625,0.01255056,-0.01827509,-0.00294797,
 -0.10747531,0.10755736,0.01923987,0.00000624,0.00000991,-0.00004539,0.
 00000960,0.00000427,-0.00000472,-0.00000241,-0.00000571,-0.00000243,0.
 00000355,0.00000597,-0.00000747,-0.00002571,-0.00001638,-0.00004335,-0
 .00033293,0.00136568,0.00017060,0.00009754,0.00007042,-0.00007487,0.00
 048077,-0.00087147,-0.00016317,0.00062063,0.00039028,-0.00024505,0.110
 07983,-0.00232910,-0.00163038,-0.00061917,0.00018521,0.00045512,0.0004
 7596,0.00004392,-0.00000277,-0.00006247,0.00003230,0.00003514,0.000012
 39,0.00000959,-0.00001086,-0.00000352,0.00000031,0.00000009,-0.0000068
 2,-0.00000478,-0.00002306,0.00000738,-0.00002495,0.00003478,-0.0000118
 8,-0.00083994,0.00176273,-0.00027350,-0.00062022,0.00217318,-0.0002720
 9,-0.00130369,-0.00020780,0.00027041,-0.00301112,-0.00262064,-0.001443
 50,0.01177412,-0.01465066,-0.00386678,0.10872013,-0.29592477,-0.039945
 81,0.00001295,0.00001196,-0.00001298,0.00000430,0.00000232,-0.00000098
 ,-0.00000236,0.00000356,-0.00000309,-0.00000028,-0.00000255,0.00000301
 ,0.00000063,0.00000997,-0.00000462,-0.00021421,0.00016974,-0.00023251,
 0.00004881,-0.00004432,0.00011565,0.00067912,-0.00074407,0.00003459,0.
 00007625,0.00070122,0.00077571,-0.11292263,0.31037284,-0.00159292,-0.0
 0103061,0.00019330,0.00005080,-0.00063151,-0.00349327,0.00017619,0.000
 07335,0.00013962,0.00003583,0.00006870,0.00002937,0.00001202,-0.000004
 94,-0.00004224,-0.00000334,0.00001762,0.00002216,0.00003664,0.00004778
 ,-0.00003644,0.00001815,-0.00016106,-0.00002440,0.00228368,-0.00031025
 ,0.00301644,0.00053100,-0.00062708,0.00537118,-0.00013589,0.00049666,-
 0.00117058,-0.00012607,-0.00113673,0.00822273,0.00122656,-0.00230923,0
 .00657120,0.01831584,-0.04021692,-0.04719676,0.00002325,-0.00002933,-0
 .00000003,0.00001242,-0.00000186,-0.00000071,0.00000278,-0.00001245,0.
 00000585,0.00000607,0.00000730,-0.00001210,-0.00001330,-0.00001690,0.0
 0001135,0.00007475,-0.00016848,0.00104922,-0.00004731,0.00008466,-0.00
 096395,-0.00000321,0.00007138,-0.00083589,-0.00034703,0.00074592,-0.00
 448470,-0.02074516,0.04501434,0.03369146,-0.20093132,-0.23489653,0.028
 28104,0.01869063,0.01238927,-0.00674578,-0.00503489,0.00286295,0.00220
 549,0.00133036,-0.00078865,-0.00164633,-0.00097807,-0.00086118,-0.0004
 5847,0.00012277,0.00028424,-0.00003207,-0.00095453,-0.00114044,0.00043
 982,0.00153338,0.00207979,0.00263893,0.00135553,0.00426064,0.00404796,
 0.00053705,-0.00098853,-0.00004179,0.00069783,0.00036204,-0.00047274,-
 0.00015915,0.00001019,0.00002736,-0.00003143,0.00054178,-0.00019410,-0
 .00129432,-0.00023871,0.00011835,-0.00001291,0.00009232,-0.00028276,0.
 00000635,-0.00002907,0.00003960,0.00001889,-0.00001041,-0.00017821,-0.
 00003515,0.00003788,-0.00003104,-0.00212194,0.00039167,-0.00254770,0.0
 0002981,0.00007670,0.00024611,0.00001405,0.00003713,0.00001150,-0.0000
 0803,-0.00004694,0.00009669,-0.00000266,-0.00002175,-0.00002087,0.0003
 4657,-0.00031435,0.00020823,0.18688117,-0.19987426,-0.33254205,0.01237
 883,-0.01668411,-0.04076423,-0.00434972,-0.00298833,0.00192162,0.00400
 919,0.00011729,-0.00070040,-0.00176536,-0.00109618,-0.00044856,0.00017
 619,-0.00010146,0.00022921,0.00044917,-0.00022337,0.00015747,0.0005405
 8,0.00141728,0.00034496,0.00052296,0.00413424,0.00183874,-0.00377169,-
 0.00054107,-0.00093280,-0.00113012,0.00060144,-0.00011147,0.00027422,0
 .00014371,-0.00007395,-0.00014005,-0.00016090,0.00073664,0.00011150,-0
 .00030493,0.00000791,0.00066359,-0.00001781,0.00015950,-0.00002486,-0.
 00010730,-0.00006874,0.00005238,0.00001214,0.00003788,0.00000476,-0.00
 014177,0.00004652,0.00000127,0.00031983,0.00090069,0.00011479,0.000042
 29,-0.00002878,0.00001988,-0.00003992,-0.00004001,0.00011051,-0.000020
 78,-0.00000165,0.00001396,0.00000690,0.00002930,0.00000556,-0.00040289
 ,0.00012923,0.00002961,0.21590996,0.36917298,0.03705098,0.03639941,-0.
 02586458,-0.01331623,-0.02613104,-0.00297646,-0.00250008,0.00063182,-0
 .00363238,0.00089005,0.00010992,-0.00118964,-0.00073857,-0.00081811,-0
 .00010454,0.00033475,0.00056757,0.00058360,0.00056287,-0.00054666,-0.0
 0127889,-0.00012490,0.00183491,0.00261291,0.00587600,-0.00243242,0.004
 49963,-0.00111296,-0.00192420,0.00062767,0.00119819,0.00002747,-0.0006
 0418,-0.00032430,0.00032011,0.00013606,-0.00019988,-0.00000318,0.00003
 406,-0.00029941,0.00052888,-0.00010646,-0.00006225,0.00001554,-0.00007
 164,0.00002186,-0.00001860,-0.00000128,0.00001990,-0.00000788,-0.00007
 434,-0.00005979,-0.00007683,0.00012666,-0.00134983,-0.00014453,-0.0004
 3486,0.00005422,-0.00000786,0.00017387,-0.00009836,-0.00006938,-0.0000
 7578,-0.00003386,-0.00000844,0.00001589,-0.00000113,0.00000040,-0.0000
 0719,-0.00007804,0.00005026,-0.00006281,-0.02570922,-0.00829715,0.0276
 7469\\-0.00000132,0.00000827,-0.00000349,-0.00000855,-0.00000291,0.000
 00452,0.00000653,-0.00000696,-0.00001082,-0.00000235,0.00000428,0.0000
 0153,-0.00000066,-0.00000357,0.00000135,0.00000202,0.00000108,0.000007
 95,0.00000071,-0.00000408,-0.00000356,-0.00000116,0.00000033,0.0000070
 8,0.00001605,0.00000963,0.00000225,-0.00000122,-0.00000833,-0.00000319
 ,0.00000240,0.00000237,-0.00000056,-0.00000058,-0.00000058,-0.00000326
 ,0.00000249,0.00000800,-0.00000169,-0.00001089,-0.00000663,-0.00000036
 ,0.00000257,0.00000082,0.00000078,0.00000192,-0.00000054,0.00000386,0.
 00000088,-0.00000105,0.00000370,-0.00000038,-0.00000139,0.00000316,-0.
 00000226,0.00000005,-0.00000027,-0.00000348,0.00000025,0.00000122,-0.0
 0000146,0.00000250,-0.00000145,-0.00000219,0.00000231,-0.00000245,-0.0
 0000050,0.00000042,-0.00000323,0.,-0.00000035,-0.00000356,0.00000141,-
 0.00000392,0.00000049\\\@


 IT IS BETTER TO THINK YOU ARE HALF DRY THAN TO KNOW YOU
 ARE ALL WET.  -- SNOOPY
 Job cpu time:       0 days  2 hours  6 minutes 23.0 seconds.
 Elapsed time:       0 days  0 hours  5 minutes 17.5 seconds.
 File lengths (MBytes):  RWF=    331 Int=      0 D2E=      0 Chk=     13 Scr=      1
 Normal termination of Gaussian 16 at Mon Oct 14 10:41:16 2019.
real 695.99
user 16489.14
sys 31.73
Machine:
brown-a472
brown-a472
brown-a472
brown-a472
brown-a472
brown-a472
brown-a472
brown-a472
brown-a472
brown-a472
brown-a472
brown-a472
brown-a472
brown-a472
brown-a472
brown-a472
brown-a472
brown-a472
brown-a472
brown-a472
brown-a472
brown-a472
brown-a472
brown-a472
