Title Card Required                                                     
Freq      RM062X                                                      6-311++G(d,p)       
Number of atoms                            I               10
Info1-9                                    I   N=           9
          30          30        1002           0           0         100
           6          18        -502
Full Title                                 C   N=           2
Title Card Required     
Route                                      C   N=           6
#P opt freq m062x/6-311++g(d,p) geom=connectivity temperatur
e=0.001     
Charge                                     I                0
Multiplicity                               I                1
Number of electrons                        I               32
Number of alpha electrons                  I               16
Number of beta electrons                   I               16
Number of basis functions                  I              130
Number of independent functions            I              130
Number of point charges in /Mol/           I                0
Number of translation vectors              I                0
Atomic numbers                             I   N=          10
           6           6           6           8           1           1
           1           1           1           1
Nuclear charges                            R   N=          10
  6.00000000E+00  6.00000000E+00  6.00000000E+00  8.00000000E+00  1.00000000E+00
  1.00000000E+00  1.00000000E+00  1.00000000E+00  1.00000000E+00  1.00000000E+00
Current cartesian coordinates              R   N=          30
 -2.42900924E+00 -1.15608091E+00 -3.04518873E-03  1.10742395E-05  3.52799616E-01
  6.63565251E-05  2.42899240E+00 -1.15609895E+00  3.05695414E-03  1.36911174E-05
  2.63012990E+00 -9.83379493E-06 -2.57579947E+00 -2.22854619E+00  1.75693298E+00
 -4.04031581E+00  1.08646317E-01 -1.78896307E-01 -2.42305313E+00 -2.52241702E+00
 -1.55116445E+00  2.42298421E+00 -2.52285201E+00  1.55079353E+00  2.57576891E+00
 -2.22812787E+00 -1.75720840E+00  4.04034033E+00  1.08539021E-01  1.79152596E-01
Number of symbols in /Mol/                 I                0
Force Field                                I                0
Atom Types                                 C   N=          10
                                                            
                                                            
Int Atom Types                             I   N=          10
           0           0           0           0           0           0
           0           0           0           0
MM charges                                 R   N=          10
  0.00000000E+00  0.00000000E+00  0.00000000E+00  0.00000000E+00  0.00000000E+00
  0.00000000E+00  0.00000000E+00  0.00000000E+00  0.00000000E+00  0.00000000E+00
Integer atomic weights                     I   N=          10
          12          12          12          16           1           1
           1           1           1           1
Real atomic weights                        R   N=          10
  1.20000000E+01  1.20000000E+01  1.20000000E+01  1.59949146E+01  1.00782504E+00
  1.00782504E+00  1.00782504E+00  1.00782504E+00  1.00782504E+00  1.00782504E+00
Atom fragment info                         I   N=          10
           0           0           0           0           0           0
           0           0           0           0
Atom residue num                           I   N=          10
           0           0           0           0           0           0
           0           0           0           0
Nuclear spins                              I   N=          10
           0           0           0           0           1           1
           1           1           1           1
Nuclear ZEff                               R   N=          10
 -3.60000000E+00 -3.60000000E+00 -3.60000000E+00 -5.60000000E+00 -1.00000000E+00
 -1.00000000E+00 -1.00000000E+00 -1.00000000E+00 -1.00000000E+00 -1.00000000E+00
Nuclear ZNuc                               R   N=          10
  6.00000000E+00  6.00000000E+00  6.00000000E+00  8.00000000E+00  1.00000000E+00
  1.00000000E+00  1.00000000E+00  1.00000000E+00  1.00000000E+00  1.00000000E+00
Nuclear QMom                               R   N=          10
  0.00000000E+00  0.00000000E+00  0.00000000E+00  0.00000000E+00  0.00000000E+00
  0.00000000E+00  0.00000000E+00  0.00000000E+00  0.00000000E+00  0.00000000E+00
Nuclear GFac                               R   N=          10
  0.00000000E+00  0.00000000E+00  0.00000000E+00  0.00000000E+00  2.79284600E+00
  2.79284600E+00  2.79284600E+00  2.79284600E+00  2.79284600E+00  2.79284600E+00
MicOpt                                     I   N=          10
          -1          -1          -1          -1          -1          -1
          -1          -1          -1          -1
Number of residues                         I                0
Number of secondary structures             I                0
Redundant internal dimensions              I   N=           4
          36           9          15          12
Redundant internal coordinate indices      I   N=         144
           1           2           0           0           1           5
           0           0           1           6           0           0
           1           7           0           0           2           3
           0           0           2           4           0           0
           3           8           0           0           3           9
           0           0           3          10           0           0
           2           1           5           0           2           1
           6           0           2           1           7           0
           5           1           6           0           5           1
           7           0           6           1           7           0
           1           2           3           0           1           2
           4           0           3           2           4           0
           2           3           8           0           2           3
           9           0           2           3          10           0
           8           3           9           0           8           3
          10           0           9           3          10           0
           5           1           2           3           5           1
           2           4           6           1           2           3
           6           1           2           4           7           1
           2           3           7           1           2           4
           1           2           3           8           1           2
           3           9           1           2           3          10
           4           2           3           8           4           2
           3           9           4           2           3          10
Redundant internal coordinates             R   N=          36
  2.85952265E+00  2.06621691E+00  2.05591037E+00  2.06484457E+00  2.85949893E+00
  2.27733029E+00  2.06483378E+00  2.06623413E+00  2.05590880E+00  1.91060406E+00
  1.91903170E+00  1.92573323E+00  1.91397116E+00  1.87064176E+00  1.92324328E+00
  2.02987266E+00  2.12665114E+00  2.12666151E+00  1.92579949E+00  1.91052037E+00
  1.91905833E+00  1.87062308E+00  1.92329024E+00  1.91393081E+00  1.12801613E+00
 -2.01366307E+00 -3.05149562E+00  9.00104798E-02 -9.26571746E-01  2.21493436E+00
 -9.26376534E-01  1.12817731E+00 -3.05142031E+00  2.21530267E+00 -2.01332879E+00
  9.02588935E-02
ZRed-IntVec                                I   N=          36
           0           0           0           0           0           0
           0           0           0           0           0           0
           0           0           0           0           0           0
           0           0           0           0           0           0
           0           0           0           0           0           0
           0           0           0           0           0           0
ZRed-FPVec                                 R   N=          36
  0.00000000E+00  0.00000000E+00  0.00000000E+00  0.00000000E+00  0.00000000E+00
  0.00000000E+00  0.00000000E+00  0.00000000E+00  0.00000000E+00  0.00000000E+00
  0.00000000E+00  0.00000000E+00  0.00000000E+00  0.00000000E+00  0.00000000E+00
  0.00000000E+00  0.00000000E+00  0.00000000E+00  0.00000000E+00  0.00000000E+00
  0.00000000E+00  0.00000000E+00  0.00000000E+00  0.00000000E+00  0.00000000E+00
  0.00000000E+00  0.00000000E+00  0.00000000E+00  0.00000000E+00  0.00000000E+00
  0.00000000E+00  0.00000000E+00  0.00000000E+00  0.00000000E+00  0.00000000E+00
  0.00000000E+00
ZRed-Constraint1                           R   N=          36
  2.85952265E+00  2.06621691E+00  2.05591037E+00  2.06484457E+00  2.85949893E+00
  2.27733029E+00  2.06483378E+00  2.06623413E+00  2.05590880E+00  1.91060406E+00
  1.91903170E+00  1.92573323E+00  1.91397116E+00  1.87064176E+00  1.92324328E+00
  2.02987266E+00  2.12665114E+00  2.12666151E+00  1.92579949E+00  1.91052037E+00
  1.91905833E+00  1.87062308E+00  1.92329024E+00  1.91393081E+00  1.12801613E+00
 -2.01366307E+00 -3.05149562E+00  9.00104798E-02 -9.26571746E-01  2.21493436E+00
 -9.26376534E-01  1.12817731E+00 -3.05142031E+00  2.21530267E+00 -2.01332879E+00
  9.02588935E-02
ZRed-Constraint2                           R   N=          36
  2.78785094E+00  2.05976473E+00  2.05975333E+00  2.05991161E+00  2.78927910E+00
  2.36876359E+00  2.05978013E+00  2.05991820E+00  2.05973119E+00  1.91067830E+00
  1.91063680E+00  1.91062050E+00  1.91065873E+00  1.91060901E+00  1.91059608E+00
  2.12671798E+00  2.07871409E+00  2.07775322E+00  1.91068521E+00  1.91055014E+00
  1.91060148E+00  1.91062251E+00  1.91077554E+00  1.91056453E+00  1.70063180E+00
 -1.44079800E+00 -2.48809740E+00  6.53658112E-01 -3.93753425E-01  2.74800209E+00
 -1.39816872E+00  6.96194182E-01  2.79043482E+00  1.74326116E+00 -2.44556125E+00
 -3.51320606E-01
SymInf integers                            I   N=          26
           1           1           1           1           1           0
           0           0           0           0           0           0
           0           0           0           0           0           0
           0           0           0           0           0           0
           0           0
RotTr to input orientation                 R   N=          12
  7.24203788E-01  6.25387821E-01 -2.90549388E-01 -6.89241214E-01  6.69776801E-01
 -2.76307049E-01  2.18041769E-02  4.00361225E-01  9.16097957E-01  3.53480042E-01
 -3.02836438E-01 -5.44289293E-01
Number of contracted shells                I               54
Number of primitive shells                 I               94
Pure/Cartesian d shells                    I                0
Pure/Cartesian f shells                    I                0
Highest angular momentum                   I                2
Largest degree of contraction              I                6
Shell types                                I   N=          54
           0          -1          -1          -1          -1          -2
           0          -1          -1          -1          -1          -2
           0          -1          -1          -1          -1          -2
           0          -1          -1          -1          -1          -2
           0           0           0           0           1           0
           0           0           0           1           0           0
           0           0           1           0           0           0
           0           1           0           0           0           0
           1           0           0           0           0           1
Number of primitives per shell             I   N=          54
           6           3           1           1           1           1
           6           3           1           1           1           1
           6           3           1           1           1           1
           6           3           1           1           1           1
           3           1           1           1           1           3
           1           1           1           1           3           1
           1           1           1           3           1           1
           1           1           3           1           1           1
           1           3           1           1           1           1
Shell to atom map                          I   N=          54
           1           1           1           1           1           1
           2           2           2           2           2           2
           3           3           3           3           3           3
           4           4           4           4           4           4
           5           5           5           5           5           6
           6           6           6           6           7           7
           7           7           7           8           8           8
           8           8           9           9           9           9
           9          10          10          10          10          10
Primitive exponents                        R   N=          94
  4.56324000E+03  6.82024000E+02  1.54973000E+02  4.44553000E+01  1.30290000E+01
  1.82773000E+00  2.09642000E+01  4.80331000E+00  1.45933000E+00  4.83456000E-01
  1.45585000E-01  4.38000000E-02  6.26000000E-01  4.56324000E+03  6.82024000E+02
  1.54973000E+02  4.44553000E+01  1.30290000E+01  1.82773000E+00  2.09642000E+01
  4.80331000E+00  1.45933000E+00  4.83456000E-01  1.45585000E-01  4.38000000E-02
  6.26000000E-01  4.56324000E+03  6.82024000E+02  1.54973000E+02  4.44553000E+01
  1.30290000E+01  1.82773000E+00  2.09642000E+01  4.80331000E+00  1.45933000E+00
  4.83456000E-01  1.45585000E-01  4.38000000E-02  6.26000000E-01  8.58850000E+03
  1.29723000E+03  2.99296000E+02  8.73771000E+01  2.56789000E+01  3.74004000E+00
  4.21175000E+01  9.62837000E+00  2.85332000E+00  9.05661000E-01  2.55611000E-01
  8.45000000E-02  1.29200000E+00  3.38650000E+01  5.09479000E+00  1.15879000E+00
  3.25840000E-01  1.02741000E-01  3.60000000E-02  7.50000000E-01  3.38650000E+01
  5.09479000E+00  1.15879000E+00  3.25840000E-01  1.02741000E-01  3.60000000E-02
  7.50000000E-01  3.38650000E+01  5.09479000E+00  1.15879000E+00  3.25840000E-01
  1.02741000E-01  3.60000000E-02  7.50000000E-01  3.38650000E+01  5.09479000E+00
  1.15879000E+00  3.25840000E-01  1.02741000E-01  3.60000000E-02  7.50000000E-01
  3.38650000E+01  5.09479000E+00  1.15879000E+00  3.25840000E-01  1.02741000E-01
  3.60000000E-02  7.50000000E-01  3.38650000E+01  5.09479000E+00  1.15879000E+00
  3.25840000E-01  1.02741000E-01  3.60000000E-02  7.50000000E-01
Contraction coefficients                   R   N=          94
  1.96665025E-03  1.52306019E-02  7.61269097E-02  2.60801033E-01  6.16462078E-01
  2.21006028E-01  1.14660081E-01  9.19999648E-01 -3.03068213E-03  1.00000000E+00
  1.00000000E+00  1.00000000E+00  1.00000000E+00  1.96665025E-03  1.52306019E-02
  7.61269097E-02  2.60801033E-01  6.16462078E-01  2.21006028E-01  1.14660081E-01
  9.19999648E-01 -3.03068213E-03  1.00000000E+00  1.00000000E+00  1.00000000E+00
  1.00000000E+00  1.96665025E-03  1.52306019E-02  7.61269097E-02  2.60801033E-01
  6.16462078E-01  2.21006028E-01  1.14660081E-01  9.19999648E-01 -3.03068213E-03
  1.00000000E+00  1.00000000E+00  1.00000000E+00  1.00000000E+00  1.89515008E-03
  1.43859006E-02  7.07320031E-02  2.40001011E-01  5.94797026E-01  2.80802012E-01
  1.13889012E-01  9.20811101E-01 -3.27447036E-03  1.00000000E+00  1.00000000E+00
  1.00000000E+00  1.00000000E+00  2.54938145E-02  1.90373109E-01  8.52161486E-01
  1.00000000E+00  1.00000000E+00  1.00000000E+00  1.00000000E+00  2.54938145E-02
  1.90373109E-01  8.52161486E-01  1.00000000E+00  1.00000000E+00  1.00000000E+00
  1.00000000E+00  2.54938145E-02  1.90373109E-01  8.52161486E-01  1.00000000E+00
  1.00000000E+00  1.00000000E+00  1.00000000E+00  2.54938145E-02  1.90373109E-01
  8.52161486E-01  1.00000000E+00  1.00000000E+00  1.00000000E+00  1.00000000E+00
  2.54938145E-02  1.90373109E-01  8.52161486E-01  1.00000000E+00  1.00000000E+00
  1.00000000E+00  1.00000000E+00  2.54938145E-02  1.90373109E-01  8.52161486E-01
  1.00000000E+00  1.00000000E+00  1.00000000E+00  1.00000000E+00
P(S=P) Contraction coefficients            R   N=          94
  0.00000000E+00  0.00000000E+00  0.00000000E+00  0.00000000E+00  0.00000000E+00
  0.00000000E+00  4.02486927E-02  2.37593957E-01  8.15853851E-01  1.00000000E+00
  1.00000000E+00  1.00000000E+00  0.00000000E+00  0.00000000E+00  0.00000000E+00
  0.00000000E+00  0.00000000E+00  0.00000000E+00  0.00000000E+00  4.02486927E-02
  2.37593957E-01  8.15853851E-01  1.00000000E+00  1.00000000E+00  1.00000000E+00
  0.00000000E+00  0.00000000E+00  0.00000000E+00  0.00000000E+00  0.00000000E+00
  0.00000000E+00  0.00000000E+00  4.02486927E-02  2.37593957E-01  8.15853851E-01
  1.00000000E+00  1.00000000E+00  1.00000000E+00  0.00000000E+00  0.00000000E+00
  0.00000000E+00  0.00000000E+00  0.00000000E+00  0.00000000E+00  0.00000000E+00
  3.65113974E-02  2.37152983E-01  8.19701941E-01  1.00000000E+00  1.00000000E+00
  1.00000000E+00  0.00000000E+00  0.00000000E+00  0.00000000E+00  0.00000000E+00
  0.00000000E+00  0.00000000E+00  0.00000000E+00  0.00000000E+00  0.00000000E+00
  0.00000000E+00  0.00000000E+00  0.00000000E+00  0.00000000E+00  0.00000000E+00
  0.00000000E+00  0.00000000E+00  0.00000000E+00  0.00000000E+00  0.00000000E+00
  0.00000000E+00  0.00000000E+00  0.00000000E+00  0.00000000E+00  0.00000000E+00
  0.00000000E+00  0.00000000E+00  0.00000000E+00  0.00000000E+00  0.00000000E+00
  0.00000000E+00  0.00000000E+00  0.00000000E+00  0.00000000E+00  0.00000000E+00
  0.00000000E+00  0.00000000E+00  0.00000000E+00  0.00000000E+00  0.00000000E+00
  0.00000000E+00  0.00000000E+00  0.00000000E+00  0.00000000E+00
Coordinates of each shell                  R   N=         162
 -2.42900924E+00 -1.15608091E+00 -3.04518873E-03 -2.42900924E+00 -1.15608091E+00
 -3.04518873E-03 -2.42900924E+00 -1.15608091E+00 -3.04518873E-03 -2.42900924E+00
 -1.15608091E+00 -3.04518873E-03 -2.42900924E+00 -1.15608091E+00 -3.04518873E-03
 -2.42900924E+00 -1.15608091E+00 -3.04518873E-03  1.10742395E-05  3.52799616E-01
  6.63565251E-05  1.10742395E-05  3.52799616E-01  6.63565251E-05  1.10742395E-05
  3.52799616E-01  6.63565251E-05  1.10742395E-05  3.52799616E-01  6.63565251E-05
  1.10742395E-05  3.52799616E-01  6.63565251E-05  1.10742395E-05  3.52799616E-01
  6.63565251E-05  2.42899240E+00 -1.15609895E+00  3.05695414E-03  2.42899240E+00
 -1.15609895E+00  3.05695414E-03  2.42899240E+00 -1.15609895E+00  3.05695414E-03
  2.42899240E+00 -1.15609895E+00  3.05695414E-03  2.42899240E+00 -1.15609895E+00
  3.05695414E-03  2.42899240E+00 -1.15609895E+00  3.05695414E-03  1.36911174E-05
  2.63012990E+00 -9.83379493E-06  1.36911174E-05  2.63012990E+00 -9.83379493E-06
  1.36911174E-05  2.63012990E+00 -9.83379493E-06  1.36911174E-05  2.63012990E+00
 -9.83379493E-06  1.36911174E-05  2.63012990E+00 -9.83379493E-06  1.36911174E-05
  2.63012990E+00 -9.83379493E-06 -2.57579947E+00 -2.22854619E+00  1.75693298E+00
 -2.57579947E+00 -2.22854619E+00  1.75693298E+00 -2.57579947E+00 -2.22854619E+00
  1.75693298E+00 -2.57579947E+00 -2.22854619E+00  1.75693298E+00 -2.57579947E+00
 -2.22854619E+00  1.75693298E+00 -4.04031581E+00  1.08646317E-01 -1.78896307E-01
 -4.04031581E+00  1.08646317E-01 -1.78896307E-01 -4.04031581E+00  1.08646317E-01
 -1.78896307E-01 -4.04031581E+00  1.08646317E-01 -1.78896307E-01 -4.04031581E+00
  1.08646317E-01 -1.78896307E-01 -2.42305313E+00 -2.52241702E+00 -1.55116445E+00
 -2.42305313E+00 -2.52241702E+00 -1.55116445E+00 -2.42305313E+00 -2.52241702E+00
 -1.55116445E+00 -2.42305313E+00 -2.52241702E+00 -1.55116445E+00 -2.42305313E+00
 -2.52241702E+00 -1.55116445E+00  2.42298421E+00 -2.52285201E+00  1.55079353E+00
  2.42298421E+00 -2.52285201E+00  1.55079353E+00  2.42298421E+00 -2.52285201E+00
  1.55079353E+00  2.42298421E+00 -2.52285201E+00  1.55079353E+00  2.42298421E+00
 -2.52285201E+00  1.55079353E+00  2.57576891E+00 -2.22812787E+00 -1.75720840E+00
  2.57576891E+00 -2.22812787E+00 -1.75720840E+00  2.57576891E+00 -2.22812787E+00
 -1.75720840E+00  2.57576891E+00 -2.22812787E+00 -1.75720840E+00  2.57576891E+00
 -2.22812787E+00 -1.75720840E+00  4.04034033E+00  1.08539021E-01  1.79152596E-01
  4.04034033E+00  1.08539021E-01  1.79152596E-01  4.04034033E+00  1.08539021E-01
  1.79152596E-01  4.04034033E+00  1.08539021E-01  1.79152596E-01  4.04034033E+00
  1.08539021E-01  1.79152596E-01
Num ILSW                                   I              100
ILSW                                       I   N=         100
           0           0           0           0           2           0
           0           0           0           0        4336          -1
           5           0           0           0           2           0
           0           0           0           0           1           0
           1           0           0           0           0           0
           0           0      100000           0          -1           0
           0           0           0           0           0           0
           0           0           0           1           0           0
           0 -2000000000           1           0           0           0
           0           0           4          52           0           0
           0           0          55           0           0           0
           0           0           0          10           0           1
           0           0           0           0           0           0
           0           0           0           0           0           0
           0           0           0           0           0           0
           0           0           0           0           0           0
           0           0           0           0
Num RLSW                                   I               52
RLSW                                       R   N=          52
  1.00000000E+00  1.00000000E+00  1.00000000E+00  1.00000000E+00  5.40000000E-01
  0.00000000E+00  0.00000000E+00  1.00000000E+00  0.00000000E+00  0.00000000E+00
  0.00000000E+00  0.00000000E+00  1.00000000E+00  0.00000000E+00  0.00000000E+00
  0.00000000E+00  0.00000000E+00  1.00000000E+00  0.00000000E+00  0.00000000E+00
  0.00000000E+00  0.00000000E+00  1.00000000E+00  0.00000000E+00  0.00000000E+00
  0.00000000E+00  0.00000000E+00  1.00000000E+00  0.00000000E+00  0.00000000E+00
  0.00000000E+00  0.00000000E+00  1.00000000E+00  0.00000000E+00  0.00000000E+00
  0.00000000E+00  0.00000000E+00  0.00000000E+00  1.00000000E+00  1.00000000E+00
  0.00000000E+00  1.00000000E+00  0.00000000E+00  0.00000000E+00  0.00000000E+00
  0.00000000E+00  0.00000000E+00  0.00000000E+00  0.00000000E+00  0.00000000E+00
  0.00000000E+00  0.00000000E+00
MxBond                                     I                4
NBond                                      I   N=          10
           4           3           4           1           1           1
           1           1           1           1
IBond                                      I   N=          40
           2           5           6           7           1           3
           4           0           2           8           9          10
           2           0           0           0           1           0
           0           0           1           0           0           0
           1           0           0           0           3           0
           0           0           3           0           0           0
           3           0           0           0
RBond                                      R   N=          40
  1.00000000E+00  1.00000000E+00  1.00000000E+00  1.00000000E+00  1.00000000E+00
  1.00000000E+00  2.00000000E+00  0.00000000E+00  1.00000000E+00  1.00000000E+00
  1.00000000E+00  1.00000000E+00  2.00000000E+00  0.00000000E+00  0.00000000E+00
  0.00000000E+00  1.00000000E+00  0.00000000E+00  0.00000000E+00  0.00000000E+00
  1.00000000E+00  0.00000000E+00  0.00000000E+00  0.00000000E+00  1.00000000E+00
  0.00000000E+00  0.00000000E+00  0.00000000E+00  1.00000000E+00  0.00000000E+00
  0.00000000E+00  0.00000000E+00  1.00000000E+00  0.00000000E+00  0.00000000E+00
  0.00000000E+00  1.00000000E+00  0.00000000E+00  0.00000000E+00  0.00000000E+00
Virial Ratio                               R      2.003772152349054E+00
SCF Energy                                 R     -1.931195627403126E+02
Total Energy                               R     -1.931195627403126E+02
RMS Force                                  R      2.689577517497804E-06
RMS Density                                R      2.249628117750614E-09
NImag                                      I                0
Job Status                                 I                1
Nuclear derivative order                   I                2
External E-field                           R   N=          35
  0.00000000E+00  0.00000000E+00  0.00000000E+00  0.00000000E+00  0.00000000E+00
  0.00000000E+00  0.00000000E+00  0.00000000E+00  0.00000000E+00  0.00000000E+00
  0.00000000E+00  0.00000000E+00  0.00000000E+00  0.00000000E+00  0.00000000E+00
  0.00000000E+00  0.00000000E+00  0.00000000E+00  0.00000000E+00  0.00000000E+00
  0.00000000E+00  0.00000000E+00  0.00000000E+00  0.00000000E+00  0.00000000E+00
  0.00000000E+00  0.00000000E+00  0.00000000E+00  0.00000000E+00  0.00000000E+00
  0.00000000E+00  0.00000000E+00  0.00000000E+00  0.00000000E+00  0.00000000E+00
IOpCl                                      I                0
IROHF                                      I                0
Alpha Orbital Energies                     R   N=         130
 -1.96176266E+01 -1.06350017E+01 -1.05437863E+01 -1.05437711E+01 -1.17490107E+00
 -8.72448161E-01 -8.08537376E-01 -6.18698236E-01 -5.42245039E-01 -5.37997580E-01
 -5.33738882E-01 -4.72325715E-01 -4.70312727E-01 -4.48755274E-01 -4.23287373E-01
 -3.25675122E-01 -7.05345649E-03  1.29587826E-02  1.80187305E-02  3.41062698E-02
  3.61365742E-02  5.05275893E-02  5.22703639E-02  5.81738912E-02  8.06262511E-02
  9.34188038E-02  1.04148719E-01  1.12847207E-01  1.23678465E-01  1.26938300E-01
  1.27627599E-01  1.30422571E-01  1.57304221E-01  1.66816842E-01  1.73551777E-01
  1.99586290E-01  2.13310923E-01  2.22078150E-01  2.43696339E-01  2.61269924E-01
  2.74705708E-01  2.91301991E-01  3.03744199E-01  3.17572436E-01  3.38706571E-01
  3.66065581E-01  4.10581150E-01  4.34719945E-01  4.42019202E-01  4.93388334E-01
  5.12418575E-01  5.35082989E-01  5.89927034E-01  5.97071626E-01  6.01785823E-01
  6.74722182E-01  6.91770704E-01  6.98623072E-01  7.05445348E-01  7.15754897E-01
  7.31429990E-01  7.37838756E-01  7.91171667E-01  8.78500365E-01  8.99584133E-01
  1.01842416E+00  1.02946065E+00  1.10427323E+00  1.19331813E+00  1.22643802E+00
  1.28254847E+00  1.34594866E+00  1.35074272E+00  1.43564769E+00  1.48422976E+00
  1.48666023E+00  1.53025073E+00  1.54131303E+00  1.59379778E+00  1.59855158E+00
  1.60565307E+00  1.61978617E+00  1.62048217E+00  1.69580102E+00  1.74070355E+00
  1.78002668E+00  1.79899189E+00  1.90544978E+00  1.95254752E+00  1.96047943E+00
  2.08728218E+00  2.10618116E+00  2.11169037E+00  2.24968354E+00  2.26524236E+00
  2.30022218E+00  2.46145993E+00  2.49154615E+00  2.50741717E+00  2.51133405E+00
  2.54336410E+00  2.55659436E+00  2.57248075E+00  2.60534374E+00  2.62863983E+00
  2.70166512E+00  2.77168850E+00  2.85950287E+00  2.92458036E+00  2.94851065E+00
  2.98877186E+00  2.99463210E+00  3.11062087E+00  3.24565938E+00  3.41806020E+00
  3.51044752E+00  3.73789089E+00  3.78225429E+00  3.85963618E+00  3.90005010E+00
  3.91423849E+00  4.14875190E+00  4.25040477E+00  5.16134451E+00  5.32981821E+00
  5.81309229E+00  2.38971987E+01  2.40216335E+01  2.40454618E+01  5.00873232E+01
Alpha MO coefficients                      R   N=       16900
 -3.28213395E-06  2.15209215E-05  3.30934191E-05  5.56208249E-05  2.70818679E-06
 -5.84927421E-05 -2.12784020E-04 -2.41476159E-04 -1.37247352E-05  6.64707669E-04
  6.69197509E-04 -4.82669324E-04 -1.84267879E-06 -1.26359465E-03 -2.27957330E-04
  5.57061900E-04  6.79075354E-06  3.00152448E-05  1.63294426E-07  4.73550889E-06
  5.69588228E-05 -2.03576163E-04 -1.41848618E-05  3.46297237E-05 -1.97932672E-09
  2.99753239E-04 -3.86554407E-09  2.14235686E-04  1.37632121E-08 -7.02340784E-04
  3.06809002E-09  1.86583185E-03 -4.47632363E-08  3.26030851E-03 -1.22631755E-07
 -5.29418428E-04 -8.30469671E-08 -1.36583684E-03  2.35059870E-07  7.63807988E-05
 -1.79630041E-06  2.26130829E-08  5.23400493E-04 -5.33109332E-09 -3.28188245E-06
  2.15198671E-05 -3.30939859E-05  5.56261401E-05 -2.71716019E-06 -5.84994723E-05
  2.12797614E-04 -2.41511299E-04  1.37700048E-05  6.64879544E-04 -6.69268430E-04
 -4.82680243E-04  2.02551077E-06 -1.26349439E-03  2.27960374E-04  5.57149116E-04
 -7.05169139E-06  3.00145400E-05  1.45595631E-07 -4.78916979E-06  5.69540448E-05
  2.03588215E-04  5.52858530E-01  4.69514978E-01  2.58914070E-09 -1.34917316E-03
  4.65330076E-08  8.96372315E-03 -2.99254166E-09 -2.04019161E-04  2.58086269E-09
 -5.82429775E-03  7.94641287E-09  8.59452046E-04 -6.07020977E-09  1.24517804E-03
  1.71724614E-08  5.30216718E-04 -8.13493593E-08 -1.24076255E-04  6.21759828E-07
 -1.45969032E-08 -1.73104250E-04 -3.50952635E-11  6.93455325E-06 -1.42223076E-04
  1.76603406E-04  3.44659310E-04  2.17144967E-06  4.62326250E-05  5.67757536E-05
 -3.15855810E-05  1.88601016E-05  3.07991076E-04 -8.41895903E-05 -7.08457228E-05
  1.29766472E-05 -1.32946809E-06  1.36530674E-06 -1.87751594E-04  1.75952929E-04
  4.26838587E-04  8.97739143E-06  3.09549354E-05 -7.29869972E-05  1.36714777E-06
 -1.87964582E-04  1.76029910E-04  4.27007976E-04 -8.97539449E-06  3.09059872E-05
  7.30207246E-05  6.94282467E-06 -1.42122449E-04  1.76550050E-04  3.44575552E-04
 -2.16891974E-06  4.62492742E-05 -5.67556865E-05 -3.15833582E-05  1.88469355E-05