 Entering Gaussian System, Link 0=/apps/cent7/gaussian/g16-A.03/g16-haswell/g16/g16
 Initial command:
 /apps/cent7/gaussian/g16-A.03/g16-haswell/g16/l1.exe "/scratch/brown/finej/gaussian/Gau-140306.inp" -scrdir="/scratch/brown/finej/gaussian/"
 Entering Link 1 = /apps/cent7/gaussian/g16-A.03/g16-haswell/g16/l1.exe PID=    140308.
  
 Copyright (c) 1988,1990,1992,1993,1995,1998,2003,2009,2016,
            Gaussian, Inc.  All Rights Reserved.
  
 This is part of the Gaussian(R) 16 program.  It is based on
 the Gaussian(R) 09 system (copyright 2009, Gaussian, Inc.),
 the Gaussian(R) 03 system (copyright 2003, Gaussian, Inc.),
 the Gaussian(R) 98 system (copyright 1998, Gaussian, Inc.),
 the Gaussian(R) 94 system (copyright 1995, Gaussian, Inc.),
 the Gaussian 92(TM) system (copyright 1992, Gaussian, Inc.),
 the Gaussian 90(TM) system (copyright 1990, Gaussian, Inc.),
 the Gaussian 88(TM) system (copyright 1988, Gaussian, Inc.),
 the Gaussian 86(TM) system (copyright 1986, Carnegie Mellon
 University), and the Gaussian 82(TM) system (copyright 1983,
 Carnegie Mellon University). Gaussian is a federally registered
 trademark of Gaussian, Inc.
  
 This software contains proprietary and confidential information,
 including trade secrets, belonging to Gaussian, Inc.
  
 This software is provided under written license and may be
 used, copied, transmitted, or stored only in accord with that
 written license.
  
 The following legend is applicable only to US Government
 contracts under FAR:
  
                    RESTRICTED RIGHTS LEGEND
  
 Use, reproduction and disclosure by the US Government is
 subject to restrictions as set forth in subparagraphs (a)
 and (c) of the Commercial Computer Software - Restricted
 Rights clause in FAR 52.227-19.
  
 Gaussian, Inc.
 340 Quinnipiac St., Bldg. 40, Wallingford CT 06492
  
  
 ---------------------------------------------------------------
 Warning -- This program may not be used in any manner that
 competes with the business of Gaussian, Inc. or will provide
 assistance to any competitor of Gaussian, Inc.  The licensee
 of this program is prohibited from giving any competitor of
 Gaussian, Inc. access to this program.  By using this program,
 the user acknowledges that Gaussian, Inc. is engaged in the
 business of creating and licensing software in the field of
 computational chemistry and represents and warrants to the
 licensee that it is not a competitor of Gaussian, Inc. and that
 it will not use this program in any manner prohibited above.
 ---------------------------------------------------------------
  

 Cite this work as:
 Gaussian 16, Revision A.03,
 M. J. Frisch, G. W. Trucks, H. B. Schlegel, G. E. Scuseria, 
 M. A. Robb, J. R. Cheeseman, G. Scalmani, V. Barone, 
 G. A. Petersson, H. Nakatsuji, X. Li, M. Caricato, A. V. Marenich, 
 J. Bloino, B. G. Janesko, R. Gomperts, B. Mennucci, H. P. Hratchian, 
 J. V. Ortiz, A. F. Izmaylov, J. L. Sonnenberg, D. Williams-Young, 
 F. Ding, F. Lipparini, F. Egidi, J. Goings, B. Peng, A. Petrone, 
 T. Henderson, D. Ranasinghe, V. G. Zakrzewski, J. Gao, N. Rega, 
 G. Zheng, W. Liang, M. Hada, M. Ehara, K. Toyota, R. Fukuda, 
 J. Hasegawa, M. Ishida, T. Nakajima, Y. Honda, O. Kitao, H. Nakai, 
 T. Vreven, K. Throssell, J. A. Montgomery, Jr., J. E. Peralta, 
 F. Ogliaro, M. J. Bearpark, J. J. Heyd, E. N. Brothers, K. N. Kudin, 
 V. N. Staroverov, T. A. Keith, R. Kobayashi, J. Normand, 
 K. Raghavachari, A. P. Rendell, J. C. Burant, S. S. Iyengar, 
 J. Tomasi, M. Cossi, J. M. Millam, M. Klene, C. Adamo, R. Cammi, 
 J. W. Ochterski, R. L. Martin, K. Morokuma, O. Farkas, 
 J. B. Foresman, and D. J. Fox, Gaussian, Inc., Wallingford CT, 2016.
 
 ******************************************
 Gaussian 16:  ES64L-G16RevA.03 25-Dec-2016
                13-Oct-2019 
 ******************************************
 %chk=16.chk
 %nprocshared=24
 Will use up to   24 processors via shared memory.
 %mem=80GB
 -------------------------------------------------------------------
 #P opt freq m062x/6-311++g(d,p) geom=connectivity temperature=0.001
 -------------------------------------------------------------------
 1/18=20,19=15,26=3,38=1,57=2,112=-1000/1,3;
 2/9=110,12=2,17=6,18=5,40=1/2;
 3/5=4,6=6,7=1111,11=2,25=1,30=1,71=1,74=-55/1,2,3;
 4//1;
 5/5=2,38=5/2;
 6/7=2,8=2,9=2,10=2,28=1/1;
 7//1,2,3,16;
 1/18=20,19=15,26=3/3(2);
 2/9=110/2;
 99//99;
 2/9=110/2;
 3/5=4,6=6,7=1111,11=2,25=1,30=1,71=1,74=-55/1,2,3;
 4/5=5,16=3,69=1/1;
 5/5=2,38=5/2;
 7//1,2,3,16;
 1/18=20,19=15,26=3/3(-5);
 2/9=110/2;
 6/7=2,8=2,9=2,10=2,19=2,28=1/1;
 99/9=1/99;
 Leave Link    1 at Sun Oct 13 20:06:01 2019, MaxMem= 10737418240 cpu:               0.9 elap:               0.0
 (Enter /apps/cent7/gaussian/g16-A.03/g16-haswell/g16/l101.exe)
 -------------------
 Title Card Required
 -------------------
 Symbolic Z-matrix:
 Charge =  0 Multiplicity = 1
 C                    -0.3278   -1.3878    0.2277 
 C                     0.1379   -0.0472   -0.1752 
 C                     1.5436    0.2108   -0.5441 
 O                    -0.6828    0.8998   -0.2051 
 H                    -0.3504   -1.4529    1.3155 
 H                    -1.3292   -1.5585   -0.1674 
 H                     0.3522   -2.1426   -0.1674 
 H                     2.1423    0.3206    0.3601 
 H                     1.9239   -0.6243   -1.1325 
 H                     1.6026    1.1264   -1.1325 
 
 ITRead=  0  0  0  0  0  0  0  0  0  0
 MicOpt= -1 -1 -1 -1 -1 -1 -1 -1 -1 -1
 NAtoms=     10 NQM=       10 NQMF=       0 NMMI=      0 NMMIF=      0
                NMic=       0 NMicF=      0.
                    Isotopes and Nuclear Properties:
 (Nuclear quadrupole moments (NQMom) in fm**2, nuclear magnetic moments (NMagM)
  in nuclear magnetons)

  Atom         1           2           3           4           5           6           7           8           9          10
 IAtWgt=          12          12          12          16           1           1           1           1           1           1
 AtmWgt=  12.0000000  12.0000000  12.0000000  15.9949146   1.0078250   1.0078250   1.0078250   1.0078250   1.0078250   1.0078250
 NucSpn=           0           0           0           0           1           1           1           1           1           1
 AtZEff=  -0.0000000  -0.0000000  -0.0000000  -0.0000000  -0.0000000  -0.0000000  -0.0000000  -0.0000000  -0.0000000  -0.0000000
 NQMom=    0.0000000   0.0000000   0.0000000   0.0000000   0.0000000   0.0000000   0.0000000   0.0000000   0.0000000   0.0000000
 NMagM=    0.0000000   0.0000000   0.0000000   0.0000000   2.7928460   2.7928460   2.7928460   2.7928460   2.7928460   2.7928460
 AtZNuc=   6.0000000   6.0000000   6.0000000   8.0000000   1.0000000   1.0000000   1.0000000   1.0000000   1.0000000   1.0000000
 Leave Link  101 at Sun Oct 13 20:06:02 2019, MaxMem= 10737418240 cpu:              10.7 elap:               0.5
 (Enter /apps/cent7/gaussian/g16-A.03/g16-haswell/g16/l103.exe)

 GradGradGradGradGradGradGradGradGradGradGradGradGradGradGradGradGradGrad
 Berny optimization.
 Initialization pass.
                           ----------------------------
                           !    Initial Parameters    !
                           ! (Angstroms and Degrees)  !
 --------------------------                            --------------------------
 ! Name  Definition              Value          Derivative Info.                !
 --------------------------------------------------------------------------------
 ! R1    R(1,2)                  1.4753         estimate D2E/DX2                !
 ! R2    R(1,5)                  1.09           estimate D2E/DX2                !
 ! R3    R(1,6)                  1.09           estimate D2E/DX2                !
 ! R4    R(1,7)                  1.0901         estimate D2E/DX2                !
 ! R5    R(2,3)                  1.476          estimate D2E/DX2                !
 ! R6    R(2,4)                  1.2535         estimate D2E/DX2                !
 ! R7    R(3,8)                  1.09           estimate D2E/DX2                !
 ! R8    R(3,9)                  1.0901         estimate D2E/DX2                !
 ! R9    R(3,10)                 1.09           estimate D2E/DX2                !
 ! A1    A(2,1,5)              109.4738         estimate D2E/DX2                !
 ! A2    A(2,1,6)              109.4714         estimate D2E/DX2                !
 ! A3    A(2,1,7)              109.4705         estimate D2E/DX2                !
 ! A4    A(5,1,6)              109.4727         estimate D2E/DX2                !
 ! A5    A(5,1,7)              109.4698         estimate D2E/DX2                !
 ! A6    A(6,1,7)              109.4691         estimate D2E/DX2                !
 ! A7    A(1,2,3)              121.852          estimate D2E/DX2                !
 ! A8    A(1,2,4)              119.1015         estimate D2E/DX2                !
 ! A9    A(3,2,4)              119.0465         estimate D2E/DX2                !
 ! A10   A(2,3,8)              109.4742         estimate D2E/DX2                !
 ! A11   A(2,3,9)              109.4665         estimate D2E/DX2                !
 ! A12   A(2,3,10)             109.4694         estimate D2E/DX2                !
 ! A13   A(8,3,9)              109.4706         estimate D2E/DX2                !
 ! A14   A(8,3,10)             109.4794         estimate D2E/DX2                !
 ! A15   A(9,3,10)             109.4673         estimate D2E/DX2                !
 ! D1    D(5,1,2,3)             97.439          estimate D2E/DX2                !
 ! D2    D(5,1,2,4)            -82.5516         estimate D2E/DX2                !
 ! D3    D(6,1,2,3)           -142.5575         estimate D2E/DX2                !
 ! D4    D(6,1,2,4)             37.4519         estimate D2E/DX2                !
 ! D5    D(7,1,2,3)            -22.5604         estimate D2E/DX2                !
 ! D6    D(7,1,2,4)            157.4489         estimate D2E/DX2                !
 ! D7    D(1,2,3,8)            -80.1092         estimate D2E/DX2                !
 ! D8    D(1,2,3,9)             39.889          estimate D2E/DX2                !
 ! D9    D(1,2,3,10)           159.8801         estimate D2E/DX2                !
 ! D10   D(4,2,3,8)             99.8815         estimate D2E/DX2                !
 ! D11   D(4,2,3,9)           -140.1203         estimate D2E/DX2                !
 ! D12   D(4,2,3,10)           -20.1292         estimate D2E/DX2                !
 --------------------------------------------------------------------------------
 Trust Radius=3.00D-01 FncErr=1.00D-07 GrdErr=1.00D-06 EigMax=2.50D+02 EigMin=1.00D-04
 Number of steps in this run=     46 maximum allowed number of steps=    100.
 GradGradGradGradGradGradGradGradGradGradGradGradGradGradGradGradGradGrad

 Leave Link  103 at Sun Oct 13 20:06:02 2019, MaxMem= 10737418240 cpu:               0.3 elap:               0.0
 (Enter /apps/cent7/gaussian/g16-A.03/g16-haswell/g16/l202.exe)
                          Input orientation:                          
 ---------------------------------------------------------------------
 Center     Atomic      Atomic             Coordinates (Angstroms)
 Number     Number       Type             X           Y           Z
 ---------------------------------------------------------------------
      1          6           0       -0.327800   -1.387800    0.227700
      2          6           0        0.137900   -0.047200   -0.175200
      3          6           0        1.543600    0.210800   -0.544100
      4          8           0       -0.682800    0.899800   -0.205100
      5          1           0       -0.350400   -1.452900    1.315500
      6          1           0       -1.329200   -1.558500   -0.167400
      7          1           0        0.352200   -2.142600   -0.167400
      8          1           0        2.142300    0.320600    0.360100
      9          1           0        1.923900   -0.624300   -1.132500
     10          1           0        1.602600    1.126400   -1.132500
 ---------------------------------------------------------------------
                    Distance matrix (angstroms):
                    1          2          3          4          5
     1  C    0.000000
     2  C    1.475267   0.000000
     3  C    2.579406   1.476023   0.000000
     4  O    2.355091   1.253496   2.355101   0.000000
     5  H    1.089981   2.106328   3.132610   2.820977   0.000000
     6  H    1.089975   2.106293   3.394894   2.542143   1.779942
     7  H    1.090058   2.106344   2.664550   3.213852   1.779979
     8  H    3.006253   2.106998   1.089989   2.938727   3.204941
     9  H    2.739202   2.106956   1.090062   3.158771   3.442633
    10  H    3.449317   2.106919   1.089963   2.476787   4.057056
                    6          7          8          9         10
     6  H    0.000000
     7  H    1.779966   0.000000
     8  H    3.982535   3.090319   0.000000
     9  H    3.519490   2.388911   1.779997   0.000000
    10  H    4.090912   3.630603   1.780012   1.779939   0.000000
 Stoichiometry    C3H6O
 Framework group  C1[X(C3H6O)]
 Deg. of freedom    24
 Full point group                 C1      NOp   1
 Largest Abelian subgroup         C1      NOp   1
 Largest concise Abelian subgroup C1      NOp   1
                         Standard orientation:                         
 ---------------------------------------------------------------------
 Center     Atomic      Atomic             Coordinates (Angstroms)
 Number     Number       Type             X           Y           Z
 ---------------------------------------------------------------------
      1          6           0       -1.289607   -0.594012    0.000013
      2          6           0       -0.000353    0.123092   -0.000047
      3          6           0        1.289799   -0.593951    0.000030
      4          8           0        0.000041    1.376588    0.000012
      5          1           0       -1.671842   -0.654272    1.018994
      6          1           0       -2.003719   -0.057650   -0.624810
      7          1           0       -1.145800   -1.600072   -0.394182
      8          1           0        1.521664   -0.924673    1.012422
      9          1           0        1.224239   -1.459765   -0.658986
     10          1           0        2.076098    0.072949   -0.353520
 ---------------------------------------------------------------------
 Rotational constants (GHZ):          10.5681359           8.4955490           5.0076085
 Leave Link  202 at Sun Oct 13 20:06:02 2019, MaxMem= 10737418240 cpu:               0.4 elap:               0.0
 (Enter /apps/cent7/gaussian/g16-A.03/g16-haswell/g16/l301.exe)
 Standard basis: 6-311++G(d,p) (5D, 7F)
 Ernie: Thresh=  0.10000D-02 Tol=  0.10000D-05 Strict=F.
 There are   134 symmetry adapted cartesian basis functions of A   symmetry.
 There are   130 symmetry adapted basis functions of A   symmetry.
   130 basis functions,   198 primitive gaussians,   134 cartesian basis functions
    16 alpha electrons       16 beta electrons
       nuclear repulsion energy       119.9935887436 Hartrees.
 IExCor= 4336 DFT=T Ex+Corr=M062X ExCW=0 ScaHFX=  0.540000
 ScaDFX=  1.000000  1.000000  1.000000  1.000000 ScalE2=  1.000000  1.000000
 IRadAn=      5 IRanWt=     -1 IRanGd=            0 ICorTp=0 IEmpDi=  4
 NAtoms=   10 NActive=   10 NUniq=   10 SFac= 1.00D+00 NAtFMM=   60 NAOKFM=F Big=F
 Integral buffers will be    131072 words long.
 Raffenetti 2 integral format.
 Two-electron integral symmetry is turned on.
 Leave Link  301 at Sun Oct 13 20:06:02 2019, MaxMem= 10737418240 cpu:               1.3 elap:               0.1
 (Enter /apps/cent7/gaussian/g16-A.03/g16-haswell/g16/l302.exe)
 NPDir=0 NMtPBC=     1 NCelOv=     1 NCel=       1 NClECP=     1 NCelD=      1
         NCelK=      1 NCelE2=     1 NClLst=     1 CellRange=     0.0.
 One-electron integrals computed using PRISM.
 One-electron integral symmetry used in STVInt
 NBasis=   130 RedAO= T EigKep=  6.49D-05  NBF=   130
 NBsUse=   130 1.00D-06 EigRej= -1.00D+00 NBFU=   130
 Precomputing XC quadrature grid using
 IXCGrd= 4 IRadAn=           5 IRanWt=          -1 IRanGd=           0 AccXCQ= 0.00D+00.
 Generated NRdTot=       0 NPtTot=           0 NUsed=           0 NTot=          32
 NSgBfM=   134   134   134   134   134 MxSgAt=    10 MxSgA2=    10.
 Leave Link  302 at Sun Oct 13 20:06:02 2019, MaxMem= 10737418240 cpu:               3.3 elap:               0.2
 (Enter /apps/cent7/gaussian/g16-A.03/g16-haswell/g16/l303.exe)
 DipDrv:  MaxL=1.
 Leave Link  303 at Sun Oct 13 20:06:02 2019, MaxMem= 10737418240 cpu:               1.5 elap:               0.1
 (Enter /apps/cent7/gaussian/g16-A.03/g16-haswell/g16/l401.exe)
 ExpMin= 3.60D-02 ExpMax= 8.59D+03 ExpMxC= 1.30D+03 IAcc=3 IRadAn=         5 AccDes= 0.00D+00
 Harris functional with IExCor= 1009 and IRadAn=       5 diagonalized for initial guess.
 HarFok:  IExCor= 1009 AccDes= 0.00D+00 IRadAn=         5 IDoV= 1 UseB2=F ITyADJ=14
 ICtDFT=  3500011 ScaDFX=  1.000000  1.000000  1.000000  1.000000
 FoFCou: FMM=F IPFlag=           0 FMFlag=      100000 FMFlg1=           0
         NFxFlg=           0 DoJE=T BraDBF=F KetDBF=T FulRan=T
         wScrn=  0.000000 ICntrl=       500 IOpCl=  0 I1Cent=   200000004 NGrid=           0
         NMat0=    1 NMatS0=      1 NMatT0=    0 NMatD0=    1 NMtDS0=    0 NMtDT0=    0
 Petite list used in FoFCou.
 Harris En= -193.078804431079    
 JPrj=0 DoOrth=F DoCkMO=F.
 Leave Link  401 at Sun Oct 13 20:06:03 2019, MaxMem= 10737418240 cpu:               5.1 elap:               0.3
 (Enter /apps/cent7/gaussian/g16-A.03/g16-haswell/g16/l502.exe)
 Keep R1 ints in memory in canonical form, NReq=59283136.
 FoFCou: FMM=F IPFlag=           0 FMFlag=           0 FMFlg1=           0
         NFxFlg=           0 DoJE=F BraDBF=F KetDBF=F FulRan=T
         wScrn=  0.000000 ICntrl=       600 IOpCl=  0 I1Cent=           0 NGrid=           0
         NMat0=    1 NMatS0=   8515 NMatT0=    0 NMatD0=    1 NMtDS0=    0 NMtDT0=    0
 Symmetry not used in FoFCou.
 Two-electron integral symmetry not used.
 Closed shell SCF:
 Using DIIS extrapolation, IDIIS=  1040.
 NGot= 10737418240 LenX= 10701120772 LenY= 10701102375
 Requested convergence on RMS density matrix=1.00D-08 within 128 cycles.
 Requested convergence on MAX density matrix=1.00D-06.
 Requested convergence on             energy=1.00D-06.
 No special actions if energy rises.

 Cycle   1  Pass 1  IDiag  1:
 E= -192.940508023690    
 DIIS: error= 5.23D-02 at cycle   1 NSaved=   1.
 NSaved= 1 IEnMin= 1 EnMin= -192.940508023690     IErMin= 1 ErrMin= 5.23D-02
 ErrMax= 5.23D-02  0.00D+00 EMaxC= 1.00D-01 BMatC= 2.19D-01 BMatP= 2.19D-01
 IDIUse=3 WtCom= 4.77D-01 WtEn= 5.23D-01
 Coeff-Com:  0.100D+01
 Coeff-En:   0.100D+01
 Coeff:      0.100D+01
 Gap=     0.247 Goal=   None    Shift=    0.000
 GapD=    0.247 DampG=1.000 DampE=0.500 DampFc=0.5000 IDamp=-1.
 Damping current iteration by 5.00D-01
 RMSDP=8.16D-03 MaxDP=2.04D-01              OVMax= 2.14D-01

 Cycle   2  Pass 1  IDiag  1:
 E= -193.024113138236     Delta-E=       -0.083605114546 Rises=F Damp=T
 DIIS: error= 9.32D-03 at cycle   2 NSaved=   2.
 NSaved= 2 IEnMin= 2 EnMin= -193.024113138236     IErMin= 2 ErrMin= 9.32D-03
 ErrMax= 9.32D-03  0.00D+00 EMaxC= 1.00D-01 BMatC= 1.49D-02 BMatP= 2.19D-01
 IDIUse=3 WtCom= 9.07D-01 WtEn= 9.32D-02
 Coeff-Com: -0.114D-01 0.101D+01
 Coeff-En:   0.000D+00 0.100D+01
 Coeff:     -0.104D-01 0.101D+01
 Gap=     0.334 Goal=   None    Shift=    0.000
 RMSDP=4.52D-03 MaxDP=1.81D-01 DE=-8.36D-02 OVMax= 1.42D-01

 Cycle   3  Pass 1  IDiag  1:
 E= -193.101908922085     Delta-E=       -0.077795783849 Rises=F Damp=F
 DIIS: error= 1.50D-02 at cycle   3 NSaved=   3.
 NSaved= 3 IEnMin= 3 EnMin= -193.101908922085     IErMin= 2 ErrMin= 9.32D-03
 ErrMax= 1.50D-02  0.00D+00 EMaxC= 1.00D-01 BMatC= 1.42D-02 BMatP= 1.49D-02
 IDIUse=3 WtCom= 8.50D-01 WtEn= 1.50D-01
 Coeff-Com: -0.635D-01 0.529D+00 0.534D+00
 Coeff-En:   0.000D+00 0.000D+00 0.100D+01
 Coeff:     -0.540D-01 0.450D+00 0.604D+00
 Gap=     0.316 Goal=   None    Shift=    0.000
 RMSDP=1.02D-03 MaxDP=1.64D-02 DE=-7.78D-02 OVMax= 5.77D-02

 Cycle   4  Pass 1  IDiag  1:
 E= -193.110422162640     Delta-E=       -0.008513240555 Rises=F Damp=F
 DIIS: error= 6.88D-03 at cycle   4 NSaved=   4.
 NSaved= 4 IEnMin= 4 EnMin= -193.110422162640     IErMin= 4 ErrMin= 6.88D-03
 ErrMax= 6.88D-03  0.00D+00 EMaxC= 1.00D-01 BMatC= 2.98D-03 BMatP= 1.42D-02
 IDIUse=3 WtCom= 9.31D-01 WtEn= 6.88D-02
 Coeff-Com: -0.639D-02 0.138D-01 0.321D+00 0.672D+00
 Coeff-En:   0.000D+00 0.000D+00 0.192D+00 0.808D+00
 Coeff:     -0.595D-02 0.129D-01 0.312D+00 0.681D+00
 Gap=     0.319 Goal=   None    Shift=    0.000
 RMSDP=5.05D-04 MaxDP=1.22D-02 DE=-8.51D-03 OVMax= 1.44D-02

 Cycle   5  Pass 1  IDiag  1:
 E= -193.112667327399     Delta-E=       -0.002245164759 Rises=F Damp=F
 DIIS: error= 4.61D-04 at cycle   5 NSaved=   5.
 NSaved= 5 IEnMin= 5 EnMin= -193.112667327399     IErMin= 5 ErrMin= 4.61D-04
 ErrMax= 4.61D-04  0.00D+00 EMaxC= 1.00D-01 BMatC= 5.50D-06 BMatP= 2.98D-03
 IDIUse=3 WtCom= 9.95D-01 WtEn= 4.61D-03
 Coeff-Com:  0.100D-02-0.595D-02 0.101D-01 0.597D-01 0.935D+00
 Coeff-En:   0.000D+00 0.000D+00 0.000D+00 0.000D+00 0.100D+01
 Coeff:      0.999D-03-0.593D-02 0.101D-01 0.594D-01 0.935D+00
 Gap=     0.319 Goal=   None    Shift=    0.000
 RMSDP=4.82D-05 MaxDP=1.42D-03 DE=-2.25D-03 OVMax= 1.88D-03

 Cycle   6  Pass 1  IDiag  1:
 E= -193.112674962878     Delta-E=       -0.000007635479 Rises=F Damp=F
 DIIS: error= 1.49D-04 at cycle   6 NSaved=   6.
 NSaved= 6 IEnMin= 6 EnMin= -193.112674962878     IErMin= 6 ErrMin= 1.49D-04
 ErrMax= 1.49D-04  0.00D+00 EMaxC= 1.00D-01 BMatC= 1.02D-06 BMatP= 5.50D-06
 IDIUse=3 WtCom= 9.99D-01 WtEn= 1.49D-03
 Coeff-Com:  0.125D-02-0.408D-02-0.202D-01-0.376D-01 0.243D+00 0.818D+00
 Coeff-En:   0.000D+00 0.000D+00 0.000D+00 0.000D+00 0.000D+00 0.100D+01
 Coeff:      0.124D-02-0.407D-02-0.201D-01-0.375D-01 0.243D+00 0.818D+00
 Gap=     0.319 Goal=   None    Shift=    0.000
 RMSDP=1.75D-05 MaxDP=4.21D-04 DE=-7.64D-06 OVMax= 3.87D-04

 Cycle   7  Pass 1  IDiag  1:
 E= -193.112676049646     Delta-E=       -0.000001086768 Rises=F Damp=F
 DIIS: error= 3.34D-05 at cycle   7 NSaved=   7.
 NSaved= 7 IEnMin= 7 EnMin= -193.112676049646     IErMin= 7 ErrMin= 3.34D-05
 ErrMax= 3.34D-05  0.00D+00 EMaxC= 1.00D-01 BMatC= 8.75D-08 BMatP= 1.02D-06
 IDIUse=1 WtCom= 1.00D+00 WtEn= 0.00D+00
 Coeff-Com:  0.249D-03-0.349D-03-0.494D-02-0.161D-01-0.527D-01 0.196D+00
 Coeff-Com:  0.877D+00
 Coeff:      0.249D-03-0.349D-03-0.494D-02-0.161D-01-0.527D-01 0.196D+00
 Coeff:      0.877D+00
 Gap=     0.320 Goal=   None    Shift=    0.000
 RMSDP=5.98D-06 MaxDP=1.01D-04 DE=-1.09D-06 OVMax= 1.60D-04

 Cycle   8  Pass 1  IDiag  1:
 E= -193.112676161285     Delta-E=       -0.000000111639 Rises=F Damp=F
 DIIS: error= 1.10D-05 at cycle   8 NSaved=   8.
 NSaved= 8 IEnMin= 8 EnMin= -193.112676161285     IErMin= 8 ErrMin= 1.10D-05
 ErrMax= 1.10D-05  0.00D+00 EMaxC= 1.00D-01 BMatC= 4.14D-09 BMatP= 8.75D-08
 IDIUse=1 WtCom= 1.00D+00 WtEn= 0.00D+00
 Coeff-Com: -0.374D-04 0.144D-03 0.940D-03 0.798D-03-0.156D-01-0.399D-01
 Coeff-Com:  0.948D-01 0.959D+00
 Coeff:     -0.374D-04 0.144D-03 0.940D-03 0.798D-03-0.156D-01-0.399D-01
 Coeff:      0.948D-01 0.959D+00
 Gap=     0.320 Goal=   None    Shift=    0.000
 RMSDP=1.16D-06 MaxDP=2.01D-05 DE=-1.12D-07 OVMax= 3.45D-05

 Cycle   9  Pass 1  IDiag  1:
 E= -193.112676166041     Delta-E=       -0.000000004756 Rises=F Damp=F
 DIIS: error= 2.02D-06 at cycle   9 NSaved=   9.
 NSaved= 9 IEnMin= 9 EnMin= -193.112676166041     IErMin= 9 ErrMin= 2.02D-06
 ErrMax= 2.02D-06  0.00D+00 EMaxC= 1.00D-01 BMatC= 2.36D-10 BMatP= 4.14D-09
 IDIUse=1 WtCom= 1.00D+00 WtEn= 0.00D+00
 Coeff-Com: -0.162D-04 0.377D-04 0.478D-03 0.981D-03 0.144D-03-0.202D-01
 Coeff-Com: -0.295D-01 0.165D+00 0.883D+00
 Coeff:     -0.162D-04 0.377D-04 0.478D-03 0.981D-03 0.144D-03-0.202D-01
 Coeff:     -0.295D-01 0.165D+00 0.883D+00
 Gap=     0.320 Goal=   None    Shift=    0.000
 RMSDP=2.27D-07 MaxDP=3.11D-06 DE=-4.76D-09 OVMax= 5.34D-06

 Cycle  10  Pass 1  IDiag  1:
 E= -193.112676166291     Delta-E=       -0.000000000250 Rises=F Damp=F
 DIIS: error= 3.27D-07 at cycle  10 NSaved=  10.
 NSaved=10 IEnMin=10 EnMin= -193.112676166291     IErMin=10 ErrMin= 3.27D-07
 ErrMax= 3.27D-07  0.00D+00 EMaxC= 1.00D-01 BMatC= 4.92D-12 BMatP= 2.36D-10
 IDIUse=1 WtCom= 1.00D+00 WtEn= 0.00D+00
 Coeff-Com:  0.271D-05-0.681D-05-0.151D-04-0.136D-04 0.516D-03 0.819D-03
 Coeff-Com: -0.320D-02-0.289D-01 0.936D-02 0.102D+01
 Coeff:      0.271D-05-0.681D-05-0.151D-04-0.136D-04 0.516D-03 0.819D-03
 Coeff:     -0.320D-02-0.289D-01 0.936D-02 0.102D+01
 Gap=     0.320 Goal=   None    Shift=    0.000
 RMSDP=4.83D-08 MaxDP=1.20D-06 DE=-2.50D-10 OVMax= 9.03D-07

 Cycle  11  Pass 1  IDiag  1:
 E= -193.112676166298     Delta-E=       -0.000000000007 Rises=F Damp=F
 DIIS: error= 5.55D-08 at cycle  11 NSaved=  11.
 NSaved=11 IEnMin=11 EnMin= -193.112676166298     IErMin=11 ErrMin= 5.55D-08
 ErrMax= 5.55D-08  0.00D+00 EMaxC= 1.00D-01 BMatC= 1.92D-13 BMatP= 4.92D-12
 IDIUse=1 WtCom= 1.00D+00 WtEn= 0.00D+00
 Coeff-Com:  0.925D-06-0.229D-05-0.124D-04-0.232D-04 0.972D-04 0.617D-03
 Coeff-Com:  0.157D-04-0.981D-02-0.235D-01 0.162D+00 0.871D+00
 Coeff:      0.925D-06-0.229D-05-0.124D-04-0.232D-04 0.972D-04 0.617D-03
 Coeff:      0.157D-04-0.981D-02-0.235D-01 0.162D+00 0.871D+00
 Gap=     0.320 Goal=   None    Shift=    0.000
 RMSDP=7.04D-09 MaxDP=1.33D-07 DE=-7.05D-12 OVMax= 1.65D-07

 SCF Done:  E(RM062X) =  -193.112676166     A.U. after   11 cycles
            NFock= 11  Conv=0.70D-08     -V/T= 2.0038
 KE= 1.923729036709D+02 PE=-6.907922863404D+02 EE= 1.853131177596D+02
 Leave Link  502 at Sun Oct 13 20:06:05 2019, MaxMem= 10737418240 cpu:              48.4 elap:               2.5
 (Enter /apps/cent7/gaussian/g16-A.03/g16-haswell/g16/l601.exe)
 Copying SCF densities to generalized density rwf, IOpCl= 0 IROHF=0.

 **********************************************************************

            Population analysis using the SCF density.

 **********************************************************************

 Orbital symmetries:
       Occupied  (A) (A) (A) (A) (A) (A) (A) (A) (A) (A) (A) (A)
                 (A) (A) (A) (A)
       Virtual   (A) (A) (A) (A) (A) (A) (A) (A) (A) (A) (A) (A)
                 (A) (A) (A) (A) (A) (A) (A) (A) (A) (A) (A) (A)
                 (A) (A) (A) (A) (A) (A) (A) (A) (A) (A) (A) (A)
                 (A) (A) (A) (A) (A) (A) (A) (A) (A) (A) (A) (A)
                 (A) (A) (A) (A) (A) (A) (A) (A) (A) (A) (A) (A)
                 (A) (A) (A) (A) (A) (A) (A) (A) (A) (A) (A) (A)
                 (A) (A) (A) (A) (A) (A) (A) (A) (A) (A) (A) (A)
                 (A) (A) (A) (A) (A) (A) (A) (A) (A) (A) (A) (A)
                 (A) (A) (A) (A) (A) (A) (A) (A) (A) (A) (A) (A)
                 (A) (A) (A) (A) (A) (A)
 The electronic state is 1-A.
 Alpha  occ. eigenvalues --  -19.61022 -10.63388 -10.54484 -10.54464  -1.14550
 Alpha  occ. eigenvalues --   -0.88084  -0.81819  -0.61976  -0.54223  -0.53762
 Alpha  occ. eigenvalues --   -0.53383  -0.48264  -0.45930  -0.44988  -0.40253
 Alpha  occ. eigenvalues --   -0.32673
 Alpha virt. eigenvalues --   -0.00710   0.00499   0.01714   0.02778   0.03316
 Alpha virt. eigenvalues --    0.04865   0.05241   0.05952   0.08047   0.09218
 Alpha virt. eigenvalues --    0.11040   0.11371   0.12462   0.12607   0.13009
 Alpha virt. eigenvalues --    0.13443   0.15709   0.15947   0.17229   0.18730
 Alpha virt. eigenvalues --    0.22151   0.22626   0.23406   0.27339   0.28834
 Alpha virt. eigenvalues --    0.29698   0.29935   0.32405   0.34369   0.36766
 Alpha virt. eigenvalues --    0.41502   0.43442   0.45605   0.46450   0.50010
 Alpha virt. eigenvalues --    0.52140   0.58727   0.59611   0.60439   0.68054
 Alpha virt. eigenvalues --    0.68903   0.69757   0.70009   0.71505   0.73533
 Alpha virt. eigenvalues --    0.75387   0.77877   0.86500   0.87617   0.96266
 Alpha virt. eigenvalues --    1.02092   1.12126   1.18954   1.25134   1.29380
 Alpha virt. eigenvalues --    1.33260   1.36268   1.46270   1.48564   1.48838
 Alpha virt. eigenvalues --    1.49151   1.55376   1.58359   1.59782   1.60337
 Alpha virt. eigenvalues --    1.61527   1.62439   1.72962   1.76158   1.79511
 Alpha virt. eigenvalues --    1.83990   1.89367   1.93681   1.95540   2.04303
 Alpha virt. eigenvalues --    2.11416   2.11680   2.23697   2.28801   2.34745
 Alpha virt. eigenvalues --    2.47149   2.50343   2.50988   2.51502   2.53813
 Alpha virt. eigenvalues --    2.55099   2.57496   2.62243   2.63714   2.65058
 Alpha virt. eigenvalues --    2.73701   2.87037   2.90634   2.95993   2.98791
 Alpha virt. eigenvalues --    3.02066   3.15769   3.23681   3.37928   3.49448
 Alpha virt. eigenvalues --    3.66881   3.81332   3.86454   3.90236   3.92136
 Alpha virt. eigenvalues --    4.19001   4.30319   5.16354   5.32638   5.79102
 Alpha virt. eigenvalues --   23.87531  24.02508  24.07357  50.05981
          Condensed to atoms (all electrons):
               1          2          3          4          5          6
     1  C    5.949912   0.025558  -0.523118  -0.151483   0.407266   0.407930
     2  C    0.025558   5.466573  -0.047806   0.504974  -0.013219  -0.017043
     3  C   -0.523118  -0.047806   6.066216  -0.143477  -0.014370  -0.005913
     4  O   -0.151483   0.504974  -0.143477   8.077418  -0.010002  -0.007841
     5  H    0.407266  -0.013219  -0.014370  -0.010002   0.500782  -0.023492
     6  H    0.407930  -0.017043  -0.005913  -0.007841  -0.023492   0.489805
     7  H    0.379948  -0.066083   0.003868   0.013319  -0.038257  -0.029819
     8  H    0.004862   0.000686   0.368297  -0.007696  -0.004919  -0.000071
     9  H   -0.010547  -0.063961   0.407413   0.012227   0.003960  -0.001287
    10  H    0.001990  -0.029151   0.399590  -0.001311  -0.000428  -0.002079
               7          8          9         10
     1  C    0.379948   0.004862  -0.010547   0.001990
     2  C   -0.066083   0.000686  -0.063961  -0.029151
     3  C    0.003868   0.368297   0.407413   0.399590
     4  O    0.013319  -0.007696   0.012227  -0.001311
     5  H   -0.038257  -0.004919   0.003960  -0.000428
     6  H   -0.029819  -0.000071  -0.001287  -0.002079
     7  H    0.590508   0.002510  -0.001196  -0.000204
     8  H    0.002510   0.525803  -0.050284  -0.022575
     9  H   -0.001196  -0.050284   0.578551  -0.025572
    10  H   -0.000204  -0.022575  -0.025572   0.492043
 Mulliken charges:
               1
     1  C   -0.492318
     2  C    0.239472
     3  C   -0.510701
     4  O   -0.286128
     5  H    0.192677
     6  H    0.189811
     7  H    0.145406
     8  H    0.183386
     9  H    0.150697
    10  H    0.187697
 Sum of Mulliken charges =  -0.00000
 Mulliken charges with hydrogens summed into heavy atoms:
               1
     1  C    0.035577
     2  C    0.239472
     3  C    0.011079
     4  O   -0.286128
 Electronic spatial extent (au):  <R**2>=            289.0491
 Charge=             -0.0000 electrons
 Dipole moment (field-independent basis, Debye):
    X=             -0.0221    Y=             -3.3273    Z=              0.0795  Tot=              3.3284
 Quadrupole moment (field-independent basis, Debye-Ang):
   XX=            -23.2460   YY=            -29.8882   ZZ=            -24.1921
   XY=             -0.0308   XZ=              0.0070   YZ=             -0.1374
 Traceless Quadrupole moment (field-independent basis, Debye-Ang):
   XX=              2.5294   YY=             -4.1128   ZZ=              1.5834
   XY=             -0.0308   XZ=              0.0070   YZ=             -0.1374
 Octapole moment (field-independent basis, Debye-Ang**2):
  XXX=             -0.0656  YYY=             -4.4553  ZZZ=              1.4627  XYY=              0.3425
  XXY=              1.4511  XXZ=             -0.1787  XZZ=             -0.4006  YZZ=              0.3809
  YYZ=             -0.8676  XYZ=              0.0201
 Hexadecapole moment (field-independent basis, Debye-Ang**3):
 XXXX=           -196.5481 YYYY=           -151.3172 ZZZZ=            -37.5231 XXXY=              0.6936
 XXXZ=              0.0834 YYYX=              0.0170 YYYZ=              2.2565 ZZZX=             -0.0628
 ZZZY=             -1.2832 XXYY=            -59.7887 XXZZ=            -37.0295 YYZZ=            -29.3401
 XXYZ=             -2.1503 YYXZ=              0.0252 ZZXY=             -0.7370
 N-N= 1.199935887436D+02 E-N=-6.907922870262D+02  KE= 1.923729036709D+02
 No NMR shielding tensors so no spin-rotation constants.
 Leave Link  601 at Sun Oct 13 20:06:05 2019, MaxMem= 10737418240 cpu:               2.1 elap:               0.1
 (Enter /apps/cent7/gaussian/g16-A.03/g16-haswell/g16/l701.exe)
 ... and contract with generalized density number  0.
 Compute integral first derivatives.
 Leave Link  701 at Sun Oct 13 20:06:05 2019, MaxMem= 10737418240 cpu:               2.4 elap:               0.1
 (Enter /apps/cent7/gaussian/g16-A.03/g16-haswell/g16/l702.exe)
 L702 exits ... SP integral derivatives will be done elsewhere.
 Leave Link  702 at Sun Oct 13 20:06:05 2019, MaxMem= 10737418240 cpu:               0.4 elap:               0.0
 (Enter /apps/cent7/gaussian/g16-A.03/g16-haswell/g16/l703.exe)
 Integral derivatives from FoFJK, PRISM(SPDF).
 Compute integral first derivatives, UseDBF=F ICtDFT=           0.
 Calling FoFJK, ICntrl=      2127 FMM=F ISym2X=0 I1Cent= 0 IOpClX= 0 NMat=1 NMatS=1 NMatT=0.
 FoFJK:  IHMeth= 1 ICntrl=    2127 DoSepK=F KAlg= 0 I1Cent=           0 FoldK=F
 IRaf=         0 NMat=       1 IRICut=       1 DoRegI=T DoRafI=F ISym2E= 0 IDoP0=0 IntGTp=1.
 FoFCou: FMM=F IPFlag=           0 FMFlag=      100000 FMFlg1=         800
         NFxFlg=           0 DoJE=F BraDBF=F KetDBF=F FulRan=T
         wScrn=  0.000000 ICntrl=      2127 IOpCl=  0 I1Cent=           0 NGrid=           0
         NMat0=    1 NMatS0=      1 NMatT0=    0 NMatD0=    1 NMtDS0=    0 NMtDT0=    0
 Symmetry not used in FoFCou.
 Leave Link  703 at Sun Oct 13 20:06:06 2019, MaxMem= 10737418240 cpu:              11.7 elap:               0.5
 (Enter /apps/cent7/gaussian/g16-A.03/g16-haswell/g16/l716.exe)
 Dipole        =-8.69674012D-03-1.30907561D+00 3.12817959D-02
 ***** Axes restored to original set *****
 -------------------------------------------------------------------
 Center     Atomic                   Forces (Hartrees/Bohr)
 Number     Number              X              Y              Z
 -------------------------------------------------------------------
      1        6           0.003231228   -0.017248096   -0.003135911
      2        6          -0.057729159    0.068940749   -0.003020908
      3        6           0.011531346   -0.001894096   -0.008834272
      4        8           0.036617227   -0.043193560    0.001858436
      5        1          -0.000389744   -0.001201764    0.001589321
      6        1          -0.000291225    0.001037122    0.002800259
      7        1          -0.001117324   -0.004436647    0.003531954
      8        1           0.003001373   -0.001494248    0.001207674
      9        1           0.005017854   -0.000544198    0.001172900
     10        1           0.000128425    0.000034738    0.002830545
 -------------------------------------------------------------------
 Cartesian Forces:  Max     0.068940749 RMS     0.019942462
 Leave Link  716 at Sun Oct 13 20:06:06 2019, MaxMem= 10737418240 cpu:               1.0 elap:               0.1
 (Enter /apps/cent7/gaussian/g16-A.03/g16-haswell/g16/l103.exe)

 GradGradGradGradGradGradGradGradGradGradGradGradGradGradGradGradGradGrad
 Berny optimization.
 FormGI is forming the generalized inverse of G from B-inverse, IUseBI=4.
 Internal  Forces:  Max     0.056650873 RMS     0.010979391
 Search for a local minimum.
 Step number   1 out of a maximum of   46
 All quantities printed in internal units (Hartrees-Bohrs-Radians)
 RMS Force = .10979D-01 SwitMx=.10000D-02 MixMth= 1
 Mixed Optimization -- RFO/linear search
 Second derivative matrix not updated -- first step.
 ITU=  0
     Eigenvalues ---    0.01083   0.01088   0.01093   0.07712   0.07714
     Eigenvalues ---    0.07718   0.07719   0.16000   0.16000   0.16000
     Eigenvalues ---    0.16000   0.16000   0.16000   0.25000   0.25000
     Eigenvalues ---    0.34806   0.34806   0.34814   0.34815   0.34816
     Eigenvalues ---    0.34817   0.35029   0.35117   0.81958
 RFO step:  Lambda=-8.23163915D-03 EMin= 1.08311815D-02
 Linear search not attempted -- first point.
 Iteration  1 RMS(Cart)=  0.03811503 RMS(Int)=  0.00103315
 Iteration  2 RMS(Cart)=  0.00132918 RMS(Int)=  0.00021355
 Iteration  3 RMS(Cart)=  0.00000060 RMS(Int)=  0.00021355
 ITry= 1 IFail=0 DXMaxC= 8.13D-02 DCOld= 1.00D+10 DXMaxT= 3.00D-01 DXLimC= 3.00D+00 Rises=F
 Variable       Old X    -DE/DX   Delta X   Delta X   Delta X     New X
                                 (Linear)    (Quad)   (Total)
    R1        2.78785   0.02071   0.00000   0.05762   0.05762   2.84547
    R2        2.05976   0.00167   0.00000   0.00467   0.00467   2.06444
    R3        2.05975  -0.00091   0.00000  -0.00255  -0.00255   2.05720
    R4        2.05991   0.00109   0.00000   0.00307   0.00307   2.06298
    R5        2.78928   0.01897   0.00000   0.05290   0.05290   2.84218
    R6        2.36876  -0.05665   0.00000  -0.06843  -0.06843   2.30033
    R7        2.05978   0.00250   0.00000   0.00701   0.00701   2.06679
    R8        2.05992   0.00153   0.00000   0.00431   0.00431   2.06423
    R9        2.05973  -0.00149   0.00000  -0.00419  -0.00419   2.05555
    A1        1.91068  -0.00052   0.00000  -0.00923  -0.00935   1.90132
    A2        1.91064  -0.00099   0.00000  -0.00589  -0.00631   1.90433
    A3        1.91062   0.00839   0.00000   0.05599   0.05569   1.96631
    A4        1.91066  -0.00189   0.00000  -0.02341  -0.02364   1.88702
    A5        1.91061  -0.00394   0.00000  -0.02347  -0.02349   1.88712
    A6        1.91060  -0.00105   0.00000   0.00600   0.00545   1.91605
    A7        2.12672  -0.00984   0.00000  -0.03811  -0.03852   2.08820
    A8        2.07871   0.00404   0.00000   0.01566   0.01526   2.09397
    A9        2.07775   0.00580   0.00000   0.02244   0.02203   2.09979
   A10        1.91069   0.00044   0.00000  -0.00293  -0.00293   1.90775
   A11        1.91055   0.00611   0.00000   0.03912   0.03894   1.94949
   A12        1.91060  -0.00081   0.00000  -0.00203  -0.00226   1.90834
   A13        1.91062  -0.00448   0.00000  -0.03223  -0.03218   1.87845
   A14        1.91078  -0.00102   0.00000  -0.01164  -0.01169   1.89909
   A15        1.91056  -0.00024   0.00000   0.00972   0.00933   1.91989
    D1        1.70063   0.00031   0.00000  -0.02764  -0.02768   1.67296
    D2       -1.44080   0.00132   0.00000   0.02535   0.02520  -1.41559
    D3       -2.48810  -0.00293   0.00000  -0.06557  -0.06563  -2.55373
    D4        0.65366  -0.00192   0.00000  -0.01258  -0.01275   0.64091
    D5       -0.39375   0.00032   0.00000  -0.02754  -0.02728  -0.42103
    D6        2.74800   0.00133   0.00000   0.02545   0.02560   2.77360
    D7       -1.39817   0.00105   0.00000   0.05485   0.05493  -1.34324
    D8        0.69619  -0.00043   0.00000   0.03754   0.03741   0.73360
    D9        2.79043   0.00252   0.00000   0.07215   0.07233   2.86276
   D10        1.74326   0.00003   0.00000   0.00188   0.00187   1.74513
   D11       -2.44556  -0.00144   0.00000  -0.01543  -0.01565  -2.46121
   D12       -0.35132   0.00151   0.00000   0.01918   0.01927  -0.33205
         Item               Value     Threshold  Converged?
 Maximum Force            0.056651     0.000450     NO 
 RMS     Force            0.010979     0.000300     NO 
 Maximum Displacement     0.081296     0.001800     NO 
 RMS     Displacement     0.038095     0.001200     NO 
 Predicted change in Energy=-4.274431D-03
 Lowest energy point so far.  Saving SCF results.
 GradGradGradGradGradGradGradGradGradGradGradGradGradGradGradGradGradGrad

 Leave Link  103 at Sun Oct 13 20:06:06 2019, MaxMem= 10737418240 cpu:               0.7 elap:               0.1
 (Enter /apps/cent7/gaussian/g16-A.03/g16-haswell/g16/l202.exe)
                          Input orientation:                          
 ---------------------------------------------------------------------
 Center     Atomic      Atomic             Coordinates (Angstroms)
 Number     Number       Type             X           Y           Z
 ---------------------------------------------------------------------
      1          6           0       -0.332089   -1.398244    0.222277
      2          6           0        0.107378   -0.023803   -0.207941
      3          6           0        1.549383    0.220303   -0.558799
      4          8           0       -0.691102    0.894958   -0.217052
      5          1           0       -0.337311   -1.443338    1.313788
      6          1           0       -1.347517   -1.573869   -0.128667
      7          1           0        0.327806   -2.185620   -0.146983
      8          1           0        2.137655    0.294107    0.360260
      9          1           0        1.964529   -0.597235   -1.152513
     10          1           0        1.633569    1.157041   -1.105270
 ---------------------------------------------------------------------
                    Distance matrix (angstroms):
                    1          2          3          4          5
     1  C    0.000000
     2  C    1.505759   0.000000
     3  C    2.601867   1.504017   0.000000
     4  O    2.362346   1.217282   2.364683   0.000000
     5  H    1.092454   2.128025   3.135905   2.817138   0.000000
     6  H    1.088624   2.127372   3.434545   2.556130   1.765852
     7  H    1.091684   2.173881   2.729526   3.245465   1.768393
     8  H    2.997120   2.132121   1.093700   2.948928   3.170708
     9  H    2.793943   2.161029   1.092342   3.186550   3.478074
    10  H    3.486499   2.128109   1.087748   2.502342   4.061796
                    6          7          8          9         10
     6  H    0.000000
     7  H    1.783615   0.000000
     8  H    3.984321   3.111575   0.000000
     9  H    3.601628   2.492573   1.764354   0.000000
    10  H    4.159147   3.714393   1.773847   1.785847   0.000000
 Stoichiometry    C3H6O
 Framework group  C1[X(C3H6O)]
 Deg. of freedom    24
 Full point group                 C1      NOp   1
 RotChk:  IX=0 Diff= 7.80D-03
 Largest Abelian subgroup         C1      NOp   1
 Largest concise Abelian subgroup C1      NOp   1
                         Standard orientation:                         
 ---------------------------------------------------------------------
 Center     Atomic      Atomic             Coordinates (Angstroms)
 Number     Number       Type             X           Y           Z
 ---------------------------------------------------------------------
      1          6           0       -1.297676   -0.605357   -0.001670
      2          6           0        0.001642    0.155380   -0.020699
      3          6           0        1.304176   -0.596354   -0.001497
      4          8           0       -0.005701    1.372379    0.004461
      5          1           0       -1.657029   -0.667603    1.028110
      6          1           0       -2.037702   -0.061469   -0.586177
      7          1           0       -1.195901   -1.621376   -0.387833
      8          1           0        1.500749   -0.953282    1.013462
      9          1           0        1.277102   -1.468045   -0.659244
     10          1           0        2.109537    0.070729   -0.300810
 ---------------------------------------------------------------------
 Rotational constants (GHZ):          10.5211594           8.3473968           4.9395723
 Leave Link  202 at Sun Oct 13 20:06:06 2019, MaxMem= 10737418240 cpu:               0.5 elap:               0.0
 (Enter /apps/cent7/gaussian/g16-A.03/g16-haswell/g16/l301.exe)
 Standard basis: 6-311++G(d,p) (5D, 7F)
 Ernie: Thresh=  0.10000D-02 Tol=  0.10000D-05 Strict=F.
 There are   134 symmetry adapted cartesian basis functions of A   symmetry.
 There are   130 symmetry adapted basis functions of A   symmetry.
   130 basis functions,   198 primitive gaussians,   134 cartesian basis functions
    16 alpha electrons       16 beta electrons
       nuclear repulsion energy       119.6527940413 Hartrees.
 IExCor= 4336 DFT=T Ex+Corr=M062X ExCW=0 ScaHFX=  0.540000
 ScaDFX=  1.000000  1.000000  1.000000  1.000000 ScalE2=  1.000000  1.000000
 IRadAn=      5 IRanWt=     -1 IRanGd=            0 ICorTp=0 IEmpDi=  4
 NAtoms=   10 NActive=   10 NUniq=   10 SFac= 1.00D+00 NAtFMM=   60 NAOKFM=F Big=F
 Integral buffers will be    131072 words long.
 Raffenetti 2 integral format.
 Two-electron integral symmetry is turned on.
 Leave Link  301 at Sun Oct 13 20:06:06 2019, MaxMem= 10737418240 cpu:               1.4 elap:               0.1
 (Enter /apps/cent7/gaussian/g16-A.03/g16-haswell/g16/l302.exe)
 NPDir=0 NMtPBC=     1 NCelOv=     1 NCel=       1 NClECP=     1 NCelD=      1
         NCelK=      1 NCelE2=     1 NClLst=     1 CellRange=     0.0.
 One-electron integrals computed using PRISM.
 One-electron integral symmetry used in STVInt
 NBasis=   130 RedAO= T EigKep=  7.78D-05  NBF=   130
 NBsUse=   130 1.00D-06 EigRej= -1.00D+00 NBFU=   130
 Precomputing XC quadrature grid using
 IXCGrd= 4 IRadAn=           5 IRanWt=          -1 IRanGd=           0 AccXCQ= 0.00D+00.
 Generated NRdTot=       0 NPtTot=           0 NUsed=           0 NTot=          32
 NSgBfM=   134   134   134   134   134 MxSgAt=    10 MxSgA2=    10.
 Leave Link  302 at Sun Oct 13 20:06:06 2019, MaxMem= 10737418240 cpu:               2.9 elap:               0.1
 (Enter /apps/cent7/gaussian/g16-A.03/g16-haswell/g16/l303.exe)
 DipDrv:  MaxL=1.
 Leave Link  303 at Sun Oct 13 20:06:06 2019, MaxMem= 10737418240 cpu:               0.5 elap:               0.0
 (Enter /apps/cent7/gaussian/g16-A.03/g16-haswell/g16/l401.exe)
 Initial guess from the checkpoint file:  "16.chk"
 B after Tr=     0.000000   -0.000000    0.000000
         Rot=    0.999999   -0.000969    0.000299   -0.001065 Ang=  -0.17 deg.
 Guess basis will be translated and rotated to current coordinates.
 JPrj=2 DoOrth=T DoCkMO=T.
 Generating alternative initial guess.
 ExpMin= 3.60D-02 ExpMax= 8.59D+03 ExpMxC= 1.30D+03 IAcc=3 IRadAn=         5 AccDes= 0.00D+00
 Harris functional with IExCor= 1009 and IRadAn=       5 diagonalized for initial guess.
 HarFok:  IExCor= 1009 AccDes= 0.00D+00 IRadAn=         5 IDoV= 1 UseB2=F ITyADJ=14
 ICtDFT=  3500011 ScaDFX=  1.000000  1.000000  1.000000  1.000000
 FoFCou: FMM=F IPFlag=           0 FMFlag=      100000 FMFlg1=           0
         NFxFlg=           0 DoJE=T BraDBF=F KetDBF=T FulRan=T
         wScrn=  0.000000 ICntrl=       500 IOpCl=  0 I1Cent=   200000004 NGrid=           0
         NMat0=    1 NMatS0=      1 NMatT0=    0 NMatD0=    1 NMtDS0=    0 NMtDT0=    0
 Petite list used in FoFCou.
 Harris En= -193.081650698464    
 Leave Link  401 at Sun Oct 13 20:06:07 2019, MaxMem= 10737418240 cpu:               6.2 elap:               0.3
 (Enter /apps/cent7/gaussian/g16-A.03/g16-haswell/g16/l502.exe)
 Keep R1 ints in memory in canonical form, NReq=59283136.
 FoFCou: FMM=F IPFlag=           0 FMFlag=           0 FMFlg1=           0
         NFxFlg=           0 DoJE=F BraDBF=F KetDBF=F FulRan=T
         wScrn=  0.000000 ICntrl=       600 IOpCl=  0 I1Cent=           0 NGrid=           0
         NMat0=    1 NMatS0=   8515 NMatT0=    0 NMatD0=    1 NMtDS0=    0 NMtDT0=    0
 Symmetry not used in FoFCou.
 Two-electron integral symmetry not used.
 Closed shell SCF:
 Using DIIS extrapolation, IDIIS=  1040.
 NGot= 10737418240 LenX= 10701120772 LenY= 10701102375
 Requested convergence on RMS density matrix=1.00D-08 within 128 cycles.
 Requested convergence on MAX density matrix=1.00D-06.
 Requested convergence on             energy=1.00D-06.
 No special actions if energy rises.

 Cycle   1  Pass 1  IDiag  1:
 E= -193.115010425975    
 DIIS: error= 3.65D-03 at cycle   1 NSaved=   1.
 NSaved= 1 IEnMin= 1 EnMin= -193.115010425975     IErMin= 1 ErrMin= 3.65D-03
 ErrMax= 3.65D-03  0.00D+00 EMaxC= 1.00D-01 BMatC= 2.23D-03 BMatP= 2.23D-03
 IDIUse=3 WtCom= 9.64D-01 WtEn= 3.65D-02
 Coeff-Com:  0.100D+01
 Coeff-En:   0.100D+01
 Coeff:      0.100D+01
 Gap=     0.451 Goal=   None    Shift=    0.000
 GapD=    0.451 DampG=2.000 DampE=1.000 DampFc=2.0000 IDamp=-1.
 RMSDP=1.49D-03 MaxDP=5.72D-02              OVMax= 1.50D-02

 Cycle   2  Pass 1  IDiag  1:
 E= -193.117453151679     Delta-E=       -0.002442725704 Rises=F Damp=F
 DIIS: error= 1.83D-03 at cycle   2 NSaved=   2.
 NSaved= 2 IEnMin= 2 EnMin= -193.117453151679     IErMin= 2 ErrMin= 1.83D-03
 ErrMax= 1.83D-03  0.00D+00 EMaxC= 1.00D-01 BMatC= 4.16D-04 BMatP= 2.23D-03
 IDIUse=3 WtCom= 9.82D-01 WtEn= 1.83D-02
 Coeff-Com:  0.184D+00 0.816D+00
 Coeff-En:   0.000D+00 0.100D+01
 Coeff:      0.181D+00 0.819D+00
 Gap=     0.316 Goal=   None    Shift=    0.000
 RMSDP=2.13D-04 MaxDP=5.92D-03 DE=-2.44D-03 OVMax= 1.12D-02

 Cycle   3  Pass 1  IDiag  1:
 E= -193.117493500826     Delta-E=       -0.000040349146 Rises=F Damp=F
 DIIS: error= 2.04D-03 at cycle   3 NSaved=   3.
 NSaved= 3 IEnMin= 3 EnMin= -193.117493500826     IErMin= 2 ErrMin= 1.83D-03
 ErrMax= 2.04D-03  0.00D+00 EMaxC= 1.00D-01 BMatC= 4.01D-04 BMatP= 4.16D-04
 IDIUse=3 WtCom= 9.80D-01 WtEn= 2.04D-02
 Coeff-Com: -0.456D-01 0.504D+00 0.541D+00
 Coeff-En:   0.000D+00 0.467D+00 0.533D+00
 Coeff:     -0.447D-01 0.504D+00 0.541D+00
 Gap=     0.320 Goal=   None    Shift=    0.000
 RMSDP=1.66D-04 MaxDP=3.33D-03 DE=-4.03D-05 OVMax= 6.89D-03

 Cycle   4  Pass 1  IDiag  1:
 E= -193.117777137215     Delta-E=       -0.000283636389 Rises=F Damp=F
 DIIS: error= 3.63D-04 at cycle   4 NSaved=   4.
 NSaved= 4 IEnMin= 4 EnMin= -193.117777137215     IErMin= 4 ErrMin= 3.63D-04
 ErrMax= 3.63D-04  0.00D+00 EMaxC= 1.00D-01 BMatC= 9.11D-06 BMatP= 4.01D-04
 IDIUse=3 WtCom= 9.96D-01 WtEn= 3.63D-03
 Coeff-Com: -0.248D-01 0.817D-01 0.184D+00 0.759D+00
 Coeff-En:   0.000D+00 0.000D+00 0.000D+00 0.100D+01
 Coeff:     -0.247D-01 0.814D-01 0.184D+00 0.760D+00
 Gap=     0.320 Goal=   None    Shift=    0.000
 RMSDP=2.50D-05 MaxDP=6.52D-04 DE=-2.84D-04 OVMax= 9.17D-04

 Cycle   5  Pass 1  IDiag  1:
 E= -193.117784540420     Delta-E=       -0.000007403205 Rises=F Damp=F
 DIIS: error= 7.51D-05 at cycle   5 NSaved=   5.
 NSaved= 5 IEnMin= 5 EnMin= -193.117784540420     IErMin= 5 ErrMin= 7.51D-05
 ErrMax= 7.51D-05  0.00D+00 EMaxC= 1.00D-01 BMatC= 4.31D-07 BMatP= 9.11D-06
 IDIUse=1 WtCom= 1.00D+00 WtEn= 0.00D+00
 Coeff-Com: -0.322D-02-0.126D-01 0.192D-01 0.223D+00 0.773D+00
 Coeff:     -0.322D-02-0.126D-01 0.192D-01 0.223D+00 0.773D+00
 Gap=     0.320 Goal=   None    Shift=    0.000
 RMSDP=8.64D-06 MaxDP=1.80D-04 DE=-7.40D-06 OVMax= 2.57D-04

 Cycle   6  Pass 1  IDiag  1:
 E= -193.117785023306     Delta-E=       -0.000000482886 Rises=F Damp=F
 DIIS: error= 2.11D-05 at cycle   6 NSaved=   6.
 NSaved= 6 IEnMin= 6 EnMin= -193.117785023306     IErMin= 6 ErrMin= 2.11D-05
 ErrMax= 2.11D-05  0.00D+00 EMaxC= 1.00D-01 BMatC= 2.82D-08 BMatP= 4.31D-07
 IDIUse=1 WtCom= 1.00D+00 WtEn= 0.00D+00
 Coeff-Com:  0.126D-02-0.102D-01-0.137D-01-0.256D-01 0.177D+00 0.871D+00
 Coeff:      0.126D-02-0.102D-01-0.137D-01-0.256D-01 0.177D+00 0.871D+00
 Gap=     0.320 Goal=   None    Shift=    0.000
 RMSDP=3.08D-06 MaxDP=8.79D-05 DE=-4.83D-07 OVMax= 8.47D-05

 Cycle   7  Pass 1  IDiag  1:
 E= -193.117785064421     Delta-E=       -0.000000041116 Rises=F Damp=F
 DIIS: error= 5.03D-06 at cycle   7 NSaved=   7.
 NSaved= 7 IEnMin= 7 EnMin= -193.117785064421     IErMin= 7 ErrMin= 5.03D-06
 ErrMax= 5.03D-06  0.00D+00 EMaxC= 1.00D-01 BMatC= 9.46D-10 BMatP= 2.82D-08
 IDIUse=1 WtCom= 1.00D+00 WtEn= 0.00D+00
 Coeff-Com:  0.250D-03-0.166D-03-0.235D-02-0.121D-01-0.185D-01 0.736D-01
 Coeff-Com:  0.959D+00
 Coeff:      0.250D-03-0.166D-03-0.235D-02-0.121D-01-0.185D-01 0.736D-01
 Coeff:      0.959D+00
 Gap=     0.320 Goal=   None    Shift=    0.000
 RMSDP=5.51D-07 MaxDP=8.52D-06 DE=-4.11D-08 OVMax= 2.31D-05

 Cycle   8  Pass 1  IDiag  1:
 E= -193.117785066425     Delta-E=       -0.000000002003 Rises=F Damp=F
 DIIS: error= 1.43D-06 at cycle   8 NSaved=   8.
 NSaved= 8 IEnMin= 8 EnMin= -193.117785066425     IErMin= 8 ErrMin= 1.43D-06
 ErrMax= 1.43D-06  0.00D+00 EMaxC= 1.00D-01 BMatC= 1.14D-10 BMatP= 9.46D-10
 IDIUse=1 WtCom= 1.00D+00 WtEn= 0.00D+00
 Coeff-Com: -0.796D-04 0.101D-02 0.102D-02 0.441D-03-0.221D-01-0.744D-01
 Coeff-Com:  0.179D+00 0.915D+00
 Coeff:     -0.796D-04 0.101D-02 0.102D-02 0.441D-03-0.221D-01-0.744D-01
 Coeff:      0.179D+00 0.915D+00
 Gap=     0.320 Goal=   None    Shift=    0.000
 RMSDP=2.52D-07 MaxDP=7.58D-06 DE=-2.00D-09 OVMax= 9.07D-06

 Cycle   9  Pass 1  IDiag  1:
 E= -193.117785066623     Delta-E=       -0.000000000198 Rises=F Damp=F
 DIIS: error= 2.59D-07 at cycle   9 NSaved=   9.
 NSaved= 9 IEnMin= 9 EnMin= -193.117785066623     IErMin= 9 ErrMin= 2.59D-07
 ErrMax= 2.59D-07  0.00D+00 EMaxC= 1.00D-01 BMatC= 5.79D-12 BMatP= 1.14D-10
 IDIUse=1 WtCom= 1.00D+00 WtEn= 0.00D+00
 Coeff-Com: -0.240D-04 0.147D-03 0.305D-03 0.644D-03-0.256D-02-0.144D-01
 Coeff-Com: -0.143D-01 0.129D+00 0.901D+00
 Coeff:     -0.240D-04 0.147D-03 0.305D-03 0.644D-03-0.256D-02-0.144D-01
 Coeff:     -0.143D-01 0.129D+00 0.901D+00
 Gap=     0.320 Goal=   None    Shift=    0.000
 RMSDP=3.29D-08 MaxDP=5.14D-07 DE=-1.98D-10 OVMax= 1.55D-06

 Cycle  10  Pass 1  IDiag  1:
 E= -193.117785066631     Delta-E=       -0.000000000008 Rises=F Damp=F
 DIIS: error= 7.97D-08 at cycle  10 NSaved=  10.
 NSaved=10 IEnMin=10 EnMin= -193.117785066631     IErMin=10 ErrMin= 7.97D-08
 ErrMax= 7.97D-08  0.00D+00 EMaxC= 1.00D-01 BMatC= 8.30D-13 BMatP= 5.79D-12
 IDIUse=1 WtCom= 1.00D+00 WtEn= 0.00D+00
 Coeff-Com:  0.702D-06-0.531D-04-0.388D-05 0.182D-03 0.133D-02 0.233D-02
 Coeff-Com: -0.221D-01-0.455D-01 0.299D+00 0.765D+00
 Coeff:      0.702D-06-0.531D-04-0.388D-05 0.182D-03 0.133D-02 0.233D-02
 Coeff:     -0.221D-01-0.455D-01 0.299D+00 0.765D+00
 Gap=     0.320 Goal=   None    Shift=    0.000
 RMSDP=1.34D-08 MaxDP=2.69D-07 DE=-7.90D-12 OVMax= 4.13D-07

 Cycle  11  Pass 1  IDiag  1:
 E= -193.117785066632     Delta-E=       -0.000000000001 Rises=F Damp=F
 DIIS: error= 1.73D-08 at cycle  11 NSaved=  11.
 NSaved=11 IEnMin=11 EnMin= -193.117785066632     IErMin=11 ErrMin= 1.73D-08
 ErrMax= 1.73D-08  0.00D+00 EMaxC= 1.00D-01 BMatC= 2.89D-14 BMatP= 8.30D-13
 IDIUse=1 WtCom= 1.00D+00 WtEn= 0.00D+00
 Coeff-Com:  0.854D-06-0.822D-05-0.153D-04-0.928D-05 0.211D-03 0.687D-03
 Coeff-Com: -0.102D-02-0.892D-02-0.258D-01 0.788D-01 0.956D+00
 Coeff:      0.854D-06-0.822D-05-0.153D-04-0.928D-05 0.211D-03 0.687D-03
 Coeff:     -0.102D-02-0.892D-02-0.258D-01 0.788D-01 0.956D+00
 Gap=     0.320 Goal=   None    Shift=    0.000
 RMSDP=3.46D-09 MaxDP=4.49D-08 DE=-1.31D-12 OVMax= 2.12D-07

 SCF Done:  E(RM062X) =  -193.117785067     A.U. after   11 cycles
            NFock= 11  Conv=0.35D-08     -V/T= 2.0038
 KE= 1.923794861704D+02 PE=-6.900909008645D+02 EE= 1.849408355862D+02
 Leave Link  502 at Sun Oct 13 20:06:09 2019, MaxMem= 10737418240 cpu:              45.0 elap:               2.4
 (Enter /apps/cent7/gaussian/g16-A.03/g16-haswell/g16/l701.exe)
 ... and contract with generalized density number  0.
 Compute integral first derivatives.
 Leave Link  701 at Sun Oct 13 20:06:09 2019, MaxMem= 10737418240 cpu:               2.3 elap:               0.1
 (Enter /apps/cent7/gaussian/g16-A.03/g16-haswell/g16/l702.exe)
 L702 exits ... SP integral derivatives will be done elsewhere.
 Leave Link  702 at Sun Oct 13 20:06:09 2019, MaxMem= 10737418240 cpu:               0.4 elap:               0.0
 (Enter /apps/cent7/gaussian/g16-A.03/g16-haswell/g16/l703.exe)
 Integral derivatives from FoFJK, PRISM(SPDF).
 Compute integral first derivatives, UseDBF=F ICtDFT=           0.
 Calling FoFJK, ICntrl=      2127 FMM=F ISym2X=0 I1Cent= 0 IOpClX= 0 NMat=1 NMatS=1 NMatT=0.
 FoFJK:  IHMeth= 1 ICntrl=    2127 DoSepK=F KAlg= 0 I1Cent=           0 FoldK=F
 IRaf=         0 NMat=       1 IRICut=       1 DoRegI=T DoRafI=F ISym2E= 0 IDoP0=0 IntGTp=1.
 FoFCou: FMM=F IPFlag=           0 FMFlag=      100000 FMFlg1=         800
         NFxFlg=           0 DoJE=F BraDBF=F KetDBF=F FulRan=T
         wScrn=  0.000000 ICntrl=      2127 IOpCl=  0 I1Cent=           0 NGrid=           0
         NMat0=    1 NMatS0=      1 NMatT0=    0 NMatD0=    1 NMtDS0=    0 NMtDT0=    0
 Symmetry not used in FoFCou.
 Leave Link  703 at Sun Oct 13 20:06:10 2019, MaxMem= 10737418240 cpu:              11.1 elap:               0.5
 (Enter /apps/cent7/gaussian/g16-A.03/g16-haswell/g16/l716.exe)
 Dipole        =-2.04997702D-03-1.22832145D+00 2.96282080D-02
 ***** Axes restored to original set *****
 -------------------------------------------------------------------
 Center     Atomic                   Forces (Hartrees/Bohr)
 Number     Number              X              Y              Z
 -------------------------------------------------------------------
      1        6           0.002459457   -0.006546443   -0.001897713
      2        6          -0.014676047    0.019251072    0.002455908
      3        6           0.004049256   -0.002642538   -0.003253669
      4        8           0.009296684   -0.011957281   -0.001338622
      5        1           0.000186860    0.000695265    0.000633703
      6        1          -0.000866742    0.000408472    0.000803231
      7        1          -0.000173937    0.000684922    0.000509965
      8        1          -0.000243687   -0.000869863    0.000707065
      9        1          -0.000078869    0.000153136    0.000694832
     10        1           0.000047025    0.000823256    0.000685299
 -------------------------------------------------------------------
 Cartesian Forces:  Max     0.019251072 RMS     0.005525429
 Leave Link  716 at Sun Oct 13 20:06:10 2019, MaxMem= 10737418240 cpu:               0.5 elap:               0.0
 (Enter /apps/cent7/gaussian/g16-A.03/g16-haswell/g16/l103.exe)

 GradGradGradGradGradGradGradGradGradGradGradGradGradGradGradGradGradGrad
 Berny optimization.
 Using GEDIIS/GDIIS optimizer.
 FormGI is forming the generalized inverse of G from B-inverse, IUseBI=4.
 Internal  Forces:  Max     0.015113104 RMS     0.002981089
 Search for a local minimum.
 Step number   2 out of a maximum of   46
 All quantities printed in internal units (Hartrees-Bohrs-Radians)
 RMS Force = .29811D-02 SwitMx=.10000D-02 MixMth= 1
 Mixed Optimization -- RFO/linear search
 Update second derivatives using D2CorX and points    1    2
 DE= -5.11D-03 DEPred=-4.27D-03 R= 1.20D+00
 TightC=F SS=  1.41D+00  RLast= 1.94D-01 DXNew= 5.0454D-01 5.8346D-01
 Trust test= 1.20D+00 RLast= 1.94D-01 DXMaxT set to 5.05D-01
 ITU=  1  0
 Use linear search instead of GDIIS.
     Eigenvalues ---    0.01069   0.01092   0.01143   0.07226   0.07386
     Eigenvalues ---    0.07740   0.07787   0.15852   0.16000   0.16000
     Eigenvalues ---    0.16000   0.16000   0.16807   0.22472   0.24967
     Eigenvalues ---    0.33870   0.34806   0.34812   0.34815   0.34816
     Eigenvalues ---    0.34818   0.35069   0.35226   0.70708
 RFO step:  Lambda=-5.95203018D-04 EMin= 1.06902497D-02
 Quartic linear search produced a step of  0.29872.
 Iteration  1 RMS(Cart)=  0.02399369 RMS(Int)=  0.00054172
 Iteration  2 RMS(Cart)=  0.00076291 RMS(Int)=  0.00017953
 Iteration  3 RMS(Cart)=  0.00000036 RMS(Int)=  0.00017953
 ITry= 1 IFail=0 DXMaxC= 6.86D-02 DCOld= 1.00D+10 DXMaxT= 5.05D-01 DXLimC= 3.00D+00 Rises=F
 Variable       Old X    -DE/DX   Delta X   Delta X   Delta X     New X
                                 (Linear)    (Quad)   (Total)
    R1        2.84547   0.00389   0.01721   0.00096   0.01817   2.86364
    R2        2.06444   0.00060   0.00140   0.00116   0.00256   2.06700
    R3        2.05720   0.00048  -0.00076   0.00240   0.00163   2.05883
    R4        2.06298  -0.00077   0.00092  -0.00359  -0.00267   2.06031
    R5        2.84218   0.00348   0.01580   0.00058   0.01638   2.85856
    R6        2.30033  -0.01511  -0.02044  -0.00846  -0.02890   2.27143
    R7        2.06679   0.00040   0.00210  -0.00012   0.00197   2.06877
    R8        2.06423  -0.00052   0.00129  -0.00295  -0.00166   2.06257
    R9        2.05555   0.00037  -0.00125   0.00234   0.00109   2.05664
    A1        1.90132  -0.00138  -0.00279  -0.01169  -0.01454   1.88679
    A2        1.90433   0.00022  -0.00188   0.00443   0.00236   1.90669
    A3        1.96631   0.00021   0.01664  -0.01017   0.00634   1.97265
    A4        1.88702  -0.00005  -0.00706   0.00188  -0.00529   1.88173
    A5        1.88712   0.00034  -0.00702   0.00650  -0.00051   1.88661
    A6        1.91605   0.00063   0.00163   0.00929   0.01068   1.92673
    A7        2.08820  -0.00593  -0.01151  -0.02067  -0.03273   2.05546
    A8        2.09397   0.00256   0.00456   0.01063   0.01463   2.10860
    A9        2.09979   0.00339   0.00658   0.01331   0.01933   2.11912
   A10        1.90775  -0.00135  -0.00088  -0.01303  -0.01392   1.89383
   A11        1.94949   0.00023   0.01163  -0.00710   0.00442   1.95391
   A12        1.90834   0.00026  -0.00068   0.00490   0.00411   1.91245
   A13        1.87845  -0.00007  -0.00961   0.00296  -0.00666   1.87178
   A14        1.89909   0.00033  -0.00349   0.00439   0.00088   1.89996
   A15        1.91989   0.00059   0.00279   0.00795   0.01055   1.93045
    D1        1.67296   0.00007  -0.00827   0.01464   0.00630   1.67926
    D2       -1.41559  -0.00031   0.00753  -0.05625  -0.04874  -1.46434
    D3       -2.55373  -0.00066  -0.01961   0.01273  -0.00694  -2.56067
    D4        0.64091  -0.00104  -0.00381  -0.05815  -0.06198   0.57892
    D5       -0.42103   0.00044  -0.00815   0.02089   0.01281  -0.40822
    D6        2.77360   0.00006   0.00765  -0.05000  -0.04223   2.73137
    D7       -1.34324   0.00044   0.01641   0.00054   0.01693  -1.32630
    D8        0.73360  -0.00038   0.01118  -0.00865   0.00243   0.73603
    D9        2.86276   0.00069   0.02161   0.00006   0.02171   2.88447
   D10        1.74513   0.00080   0.00056   0.07158   0.07217   1.81730
   D11       -2.46121  -0.00003  -0.00468   0.06239   0.05767  -2.40354
   D12       -0.33205   0.00105   0.00576   0.07110   0.07694  -0.25511
         Item               Value     Threshold  Converged?
 Maximum Force            0.015113     0.000450     NO 
 RMS     Force            0.002981     0.000300     NO 
 Maximum Displacement     0.068631     0.001800     NO 
 RMS     Displacement     0.024259     0.001200     NO 
 Predicted change in Energy=-5.998463D-04
 Lowest energy point so far.  Saving SCF results.
 GradGradGradGradGradGradGradGradGradGradGradGradGradGradGradGradGradGrad

 Leave Link  103 at Sun Oct 13 20:06:10 2019, MaxMem= 10737418240 cpu:               0.4 elap:               0.0
 (Enter /apps/cent7/gaussian/g16-A.03/g16-haswell/g16/l202.exe)
                          Input orientation:                          
 ---------------------------------------------------------------------
 Center     Atomic      Atomic             Coordinates (Angstroms)
 Number     Number       Type             X           Y           Z
 ---------------------------------------------------------------------
      1          6           0       -0.325754   -1.396411    0.220982
      2          6           0        0.093037   -0.002768   -0.201791
      3          6           0        1.545978    0.218302   -0.559999
      4          8           0       -0.707590    0.892421   -0.250917
      5          1           0       -0.318724   -1.436538    1.314030
      6          1           0       -1.346202   -1.581498   -0.112807
      7          1           0        0.342422   -2.173633   -0.150709
      8          1           0        2.129877    0.257790    0.365186
      9          1           0        1.947030   -0.599717   -1.161076
     10          1           0        1.652226    1.166352   -1.083800
 ---------------------------------------------------------------------
                    Distance matrix (angstroms):
                    1          2          3          4          5
     1  C    0.000000
     2  C    1.515376   0.000000
     3  C    2.592414   1.512687   0.000000
     4  O    2.367960   1.201990   2.372454   0.000000
     5  H    1.093807   2.126725   3.118909   2.832724   0.000000
     6  H    1.089489   2.138157   3.435690   2.558745   1.764252
     7  H    1.090269   2.185740   2.708767   3.242414   1.768017
     8  H    2.964338   2.130275   1.094744   2.972130   3.125172
     9  H    2.776752   2.171144   1.091463   3.178344   3.458332
    10  H    3.490360   2.139124   1.088326   2.517432   4.050836
                    6          7          8          9         10
     6  H    0.000000
     7  H    1.789835   0.000000
     8  H    3.961638   3.061529   0.000000
     9  H    3.592790   2.464309   1.760177   0.000000
    10  H    4.181396   3.706986   1.775723   1.792172   0.000000
 Stoichiometry    C3H6O
 Framework group  C1[X(C3H6O)]
 Deg. of freedom    24
 Full point group                 C1      NOp   1
 RotChk:  IX=0 Diff= 2.50D-02
 Largest Abelian subgroup         C1      NOp   1
 Largest concise Abelian subgroup C1      NOp   1
                         Standard orientation:                         
 ---------------------------------------------------------------------
 Center     Atomic      Atomic             Coordinates (Angstroms)
 Number     Number       Type             X           Y           Z
 ---------------------------------------------------------------------
      1          6           0       -1.290137   -0.616458   -0.006315
      2          6           0        0.002258    0.174786   -0.003117
      3          6           0        1.302216   -0.598729   -0.005877
      4          8           0       -0.011640    1.376692   -0.000606
      5          1           0       -1.638942   -0.701896    1.026860
      6          1           0       -2.045302   -0.068476   -0.568834
      7          1           0       -1.172885   -1.623043   -0.408467
      8          1           0        1.472223   -0.996222    0.999887
      9          1           0        1.269276   -1.449536   -0.688764
     10          1           0        2.122731    0.068046   -0.263982
 ---------------------------------------------------------------------
 Rotational constants (GHZ):          10.4092904           8.4093133           4.9343347
 Leave Link  202 at Sun Oct 13 20:06:10 2019, MaxMem= 10737418240 cpu:               0.9 elap:               0.1
 (Enter /apps/cent7/gaussian/g16-A.03/g16-haswell/g16/l301.exe)
 Standard basis: 6-311++G(d,p) (5D, 7F)
 Ernie: Thresh=  0.10000D-02 Tol=  0.10000D-05 Strict=F.
 There are   134 symmetry adapted cartesian basis functions of A   symmetry.
 There are   130 symmetry adapted basis functions of A   symmetry.
   130 basis functions,   198 primitive gaussians,   134 cartesian basis functions
    16 alpha electrons       16 beta electrons
       nuclear repulsion energy       119.7129784938 Hartrees.
 IExCor= 4336 DFT=T Ex+Corr=M062X ExCW=0 ScaHFX=  0.540000
 ScaDFX=  1.000000  1.000000  1.000000  1.000000 ScalE2=  1.000000  1.000000
 IRadAn=      5 IRanWt=     -1 IRanGd=            0 ICorTp=0 IEmpDi=  4
 NAtoms=   10 NActive=   10 NUniq=   10 SFac= 1.00D+00 NAtFMM=   60 NAOKFM=F Big=F
 Integral buffers will be    131072 words long.
 Raffenetti 2 integral format.
 Two-electron integral symmetry is turned on.
 Leave Link  301 at Sun Oct 13 20:06:10 2019, MaxMem= 10737418240 cpu:               1.9 elap:               0.1
 (Enter /apps/cent7/gaussian/g16-A.03/g16-haswell/g16/l302.exe)
 NPDir=0 NMtPBC=     1 NCelOv=     1 NCel=       1 NClECP=     1 NCelD=      1
         NCelK=      1 NCelE2=     1 NClLst=     1 CellRange=     0.0.
 One-electron integrals computed using PRISM.
 One-electron integral symmetry used in STVInt
 NBasis=   130 RedAO= T EigKep=  8.09D-05  NBF=   130
 NBsUse=   130 1.00D-06 EigRej= -1.00D+00 NBFU=   130
 Precomputing XC quadrature grid using
 IXCGrd= 4 IRadAn=           5 IRanWt=          -1 IRanGd=           0 AccXCQ= 0.00D+00.
 Generated NRdTot=       0 NPtTot=           0 NUsed=           0 NTot=          32
 NSgBfM=   134   134   134   134   134 MxSgAt=    10 MxSgA2=    10.
 Leave Link  302 at Sun Oct 13 20:06:10 2019, MaxMem= 10737418240 cpu:               2.8 elap:               0.1
 (Enter /apps/cent7/gaussian/g16-A.03/g16-haswell/g16/l303.exe)
 DipDrv:  MaxL=1.
 Leave Link  303 at Sun Oct 13 20:06:10 2019, MaxMem= 10737418240 cpu:               0.7 elap:               0.1
 (Enter /apps/cent7/gaussian/g16-A.03/g16-haswell/g16/l401.exe)
 Initial guess from the checkpoint file:  "16.chk"
 B after Tr=    -0.000000   -0.000000   -0.000000
         Rot=    0.999994   -0.002988    0.000341   -0.001506 Ang=  -0.39 deg.
 Guess basis will be translated and rotated to current coordinates.
 JPrj=2 DoOrth=T DoCkMO=T.
 Generating alternative initial guess.
 ExpMin= 3.60D-02 ExpMax= 8.59D+03 ExpMxC= 1.30D+03 IAcc=3 IRadAn=         5 AccDes= 0.00D+00
 Harris functional with IExCor= 1009 and IRadAn=       5 diagonalized for initial guess.
 HarFok:  IExCor= 1009 AccDes= 0.00D+00 IRadAn=         5 IDoV= 1 UseB2=F ITyADJ=14
 ICtDFT=  3500011 ScaDFX=  1.000000  1.000000  1.000000  1.000000
 FoFCou: FMM=F IPFlag=           0 FMFlag=      100000 FMFlg1=           0
         NFxFlg=           0 DoJE=T BraDBF=F KetDBF=T FulRan=T
         wScrn=  0.000000 ICntrl=       500 IOpCl=  0 I1Cent=   200000004 NGrid=           0
         NMat0=    1 NMatS0=      1 NMatT0=    0 NMatD0=    1 NMtDS0=    0 NMtDT0=    0
 Petite list used in FoFCou.
 Harris En= -193.081739632351    
 Leave Link  401 at Sun Oct 13 20:06:11 2019, MaxMem= 10737418240 cpu:               6.2 elap:               0.3
 (Enter /apps/cent7/gaussian/g16-A.03/g16-haswell/g16/l502.exe)
 Keep R1 ints in memory in canonical form, NReq=59283136.
 FoFCou: FMM=F IPFlag=           0 FMFlag=           0 FMFlg1=           0
         NFxFlg=           0 DoJE=F BraDBF=F KetDBF=F FulRan=T
         wScrn=  0.000000 ICntrl=       600 IOpCl=  0 I1Cent=           0 NGrid=           0
         NMat0=    1 NMatS0=   8515 NMatT0=    0 NMatD0=    1 NMtDS0=    0 NMtDT0=    0
 Symmetry not used in FoFCou.
 Two-electron integral symmetry not used.
 Closed shell SCF:
 Using DIIS extrapolation, IDIIS=  1040.
 NGot= 10737418240 LenX= 10701120772 LenY= 10701102375
 Requested convergence on RMS density matrix=1.00D-08 within 128 cycles.
 Requested convergence on MAX density matrix=1.00D-06.
 Requested convergence on             energy=1.00D-06.
 No special actions if energy rises.

 Cycle   1  Pass 1  IDiag  1:
 E= -193.117024599328    
 DIIS: error= 2.07D-03 at cycle   1 NSaved=   1.
 NSaved= 1 IEnMin= 1 EnMin= -193.117024599328     IErMin= 1 ErrMin= 2.07D-03
 ErrMax= 2.07D-03  0.00D+00 EMaxC= 1.00D-01 BMatC= 8.39D-04 BMatP= 8.39D-04
 IDIUse=3 WtCom= 9.79D-01 WtEn= 2.07D-02
 Coeff-Com:  0.100D+01
 Coeff-En:   0.100D+01
 Coeff:      0.100D+01
 Gap=     0.447 Goal=   None    Shift=    0.000
 GapD=    0.447 DampG=2.000 DampE=1.000 DampFc=2.0000 IDamp=-1.
 RMSDP=5.35D-04 MaxDP=1.16D-02              OVMax= 9.51D-03

 Cycle   2  Pass 1  IDiag  1:
 E= -193.118162930871     Delta-E=       -0.001138331543 Rises=F Damp=F
 DIIS: error= 8.68D-04 at cycle   2 NSaved=   2.
 NSaved= 2 IEnMin= 2 EnMin= -193.118162930871     IErMin= 2 ErrMin= 8.68D-04
 ErrMax= 8.68D-04  0.00D+00 EMaxC= 1.00D-01 BMatC= 9.90D-05 BMatP= 8.39D-04
 IDIUse=3 WtCom= 9.91D-01 WtEn= 8.68D-03
 Coeff-Com:  0.647D-01 0.935D+00
 Coeff-En:   0.000D+00 0.100D+01
 Coeff:      0.642D-01 0.936D+00
 Gap=     0.316 Goal=   None    Shift=    0.000
 RMSDP=1.17D-04 MaxDP=3.15D-03 DE=-1.14D-03 OVMax= 5.69D-03

 Cycle   3  Pass 1  IDiag  1:
 E= -193.118177776368     Delta-E=       -0.000014845497 Rises=F Damp=F
 DIIS: error= 1.21D-03 at cycle   3 NSaved=   3.
 NSaved= 3 IEnMin= 3 EnMin= -193.118177776368     IErMin= 2 ErrMin= 8.68D-04
 ErrMax= 1.21D-03  0.00D+00 EMaxC= 1.00D-01 BMatC= 1.20D-04 BMatP= 9.90D-05
 IDIUse=3 WtCom= 2.23D-01 WtEn= 7.77D-01
 Coeff-Com: -0.786D-01 0.559D+00 0.520D+00
 Coeff-En:   0.000D+00 0.446D+00 0.554D+00
 Coeff:     -0.175D-01 0.471D+00 0.546D+00
 Gap=     0.319 Goal=   None    Shift=    0.000
 RMSDP=8.92D-05 MaxDP=1.79D-03 DE=-1.48D-05 OVMax= 4.20D-03

 Cycle   4  Pass 1  IDiag  1:
 E= -193.118253977694     Delta-E=       -0.000076201327 Rises=F Damp=F
 DIIS: error= 4.11D-04 at cycle   4 NSaved=   4.
 NSaved= 4 IEnMin= 4 EnMin= -193.118253977694     IErMin= 4 ErrMin= 4.11D-04
 ErrMax= 4.11D-04  0.00D+00 EMaxC= 1.00D-01 BMatC= 1.30D-05 BMatP= 9.90D-05
 IDIUse=3 WtCom= 9.96D-01 WtEn= 4.11D-03
 Coeff-Com: -0.268D-01 0.324D-01 0.270D+00 0.725D+00
 Coeff-En:   0.000D+00 0.000D+00 0.590D-01 0.941D+00
 Coeff:     -0.267D-01 0.322D-01 0.269D+00 0.726D+00
 Gap=     0.319 Goal=   None    Shift=    0.000
 RMSDP=2.84D-05 MaxDP=5.04D-04 DE=-7.62D-05 OVMax= 1.13D-03

 Cycle   5  Pass 1  IDiag  1:
 E= -193.118263922589     Delta-E=       -0.000009944895 Rises=F Damp=F
 DIIS: error= 5.46D-05 at cycle   5 NSaved=   5.
 NSaved= 5 IEnMin= 5 EnMin= -193.118263922589     IErMin= 5 ErrMin= 5.46D-05
 ErrMax= 5.46D-05  0.00D+00 EMaxC= 1.00D-01 BMatC= 2.06D-07 BMatP= 1.30D-05
 IDIUse=1 WtCom= 1.00D+00 WtEn= 0.00D+00
 Coeff-Com: -0.133D-03-0.441D-01 0.342D-01 0.229D+00 0.781D+00
 Coeff:     -0.133D-03-0.441D-01 0.342D-01 0.229D+00 0.781D+00
 Gap=     0.319 Goal=   None    Shift=    0.000
 RMSDP=4.53D-06 MaxDP=1.18D-04 DE=-9.94D-06 OVMax= 1.94D-04

 Cycle   6  Pass 1  IDiag  1:
 E= -193.118264172865     Delta-E=       -0.000000250276 Rises=F Damp=F
 DIIS: error= 1.22D-05 at cycle   6 NSaved=   6.
 NSaved= 6 IEnMin= 6 EnMin= -193.118264172865     IErMin= 6 ErrMin= 1.22D-05
 ErrMax= 1.22D-05  0.00D+00 EMaxC= 1.00D-01 BMatC= 1.15D-08 BMatP= 2.06D-07
 IDIUse=1 WtCom= 1.00D+00 WtEn= 0.00D+00
 Coeff-Com:  0.230D-02-0.120D-01-0.215D-01-0.253D-01 0.156D+00 0.900D+00
 Coeff:      0.230D-02-0.120D-01-0.215D-01-0.253D-01 0.156D+00 0.900D+00
 Gap=     0.319 Goal=   None    Shift=    0.000
 RMSDP=1.28D-06 MaxDP=2.15D-05 DE=-2.50D-07 OVMax= 8.08D-05

 Cycle   7  Pass 1  IDiag  1:
 E= -193.118264192618     Delta-E=       -0.000000019753 Rises=F Damp=F
 DIIS: error= 3.23D-06 at cycle   7 NSaved=   7.
 NSaved= 7 IEnMin= 7 EnMin= -193.118264192618     IErMin= 7 ErrMin= 3.23D-06
 ErrMax= 3.23D-06  0.00D+00 EMaxC= 1.00D-01 BMatC= 3.22D-10 BMatP= 1.15D-08
 IDIUse=1 WtCom= 1.00D+00 WtEn= 0.00D+00
 Coeff-Com:  0.508D-05 0.239D-02-0.129D-02-0.983D-02-0.418D-01-0.291D-01
 Coeff-Com:  0.108D+01
 Coeff:      0.508D-05 0.239D-02-0.129D-02-0.983D-02-0.418D-01-0.291D-01
 Coeff:      0.108D+01
 Gap=     0.319 Goal=   None    Shift=    0.000
 RMSDP=3.78D-07 MaxDP=7.88D-06 DE=-1.98D-08 OVMax= 1.97D-05

 Cycle   8  Pass 1  IDiag  1:
 E= -193.118264193453     Delta-E=       -0.000000000835 Rises=F Damp=F
 DIIS: error= 7.69D-07 at cycle   8 NSaved=   8.
 NSaved= 8 IEnMin= 8 EnMin= -193.118264193453     IErMin= 8 ErrMin= 7.69D-07
 ErrMax= 7.69D-07  0.00D+00 EMaxC= 1.00D-01 BMatC= 6.51D-11 BMatP= 3.22D-10
 IDIUse=1 WtCom= 1.00D+00 WtEn= 0.00D+00
 Coeff-Com: -0.126D-03 0.151D-02 0.812D-03-0.185D-02-0.243D-01-0.634D-01
 Coeff-Com:  0.371D+00 0.717D+00
 Coeff:     -0.126D-03 0.151D-02 0.812D-03-0.185D-02-0.243D-01-0.634D-01
 Coeff:      0.371D+00 0.717D+00
 Gap=     0.319 Goal=   None    Shift=    0.000
 RMSDP=8.36D-08 MaxDP=1.63D-06 DE=-8.35D-10 OVMax= 3.23D-06

 Cycle   9  Pass 1  IDiag  1:
 E= -193.118264193530     Delta-E=       -0.000000000078 Rises=F Damp=F
 DIIS: error= 1.68D-07 at cycle   9 NSaved=   9.
 NSaved= 9 IEnMin= 9 EnMin= -193.118264193530     IErMin= 9 ErrMin= 1.68D-07
 ErrMax= 1.68D-07  0.00D+00 EMaxC= 1.00D-01 BMatC= 3.05D-12 BMatP= 6.51D-11
 IDIUse=1 WtCom= 1.00D+00 WtEn= 0.00D+00
 Coeff-Com: -0.242D-04 0.116D-03 0.280D-03 0.319D-03-0.203D-02-0.108D-01
 Coeff-Com: -0.691D-02 0.151D+00 0.868D+00
 Coeff:     -0.242D-04 0.116D-03 0.280D-03 0.319D-03-0.203D-02-0.108D-01
 Coeff:     -0.691D-02 0.151D+00 0.868D+00
 Gap=     0.319 Goal=   None    Shift=    0.000
 RMSDP=3.56D-08 MaxDP=7.52D-07 DE=-7.78D-11 OVMax= 1.10D-06

 Cycle  10  Pass 1  IDiag  1:
 E= -193.118264193535     Delta-E=       -0.000000000004 Rises=F Damp=F
 DIIS: error= 5.20D-08 at cycle  10 NSaved=  10.
 NSaved=10 IEnMin=10 EnMin= -193.118264193535     IErMin=10 ErrMin= 5.20D-08
 ErrMax= 5.20D-08  0.00D+00 EMaxC= 1.00D-01 BMatC= 1.49D-13 BMatP= 3.05D-12
 IDIUse=1 WtCom= 1.00D+00 WtEn= 0.00D+00
 Coeff-Com:  0.476D-05-0.818D-04-0.110D-04 0.174D-03 0.134D-02 0.255D-02
 Coeff-Com: -0.244D-01-0.252D-01 0.999D-01 0.946D+00
 Coeff:      0.476D-05-0.818D-04-0.110D-04 0.174D-03 0.134D-02 0.255D-02
 Coeff:     -0.244D-01-0.252D-01 0.999D-01 0.946D+00
 Gap=     0.319 Goal=   None    Shift=    0.000
 RMSDP=9.86D-09 MaxDP=1.63D-07 DE=-4.49D-12 OVMax= 6.21D-07

 SCF Done:  E(RM062X) =  -193.118264194     A.U. after   10 cycles
            NFock= 10  Conv=0.99D-08     -V/T= 2.0037
 KE= 1.924061378967D+02 PE=-6.902147399448D+02 EE= 1.849773593608D+02
 Leave Link  502 at Sun Oct 13 20:06:13 2019, MaxMem= 10737418240 cpu:              41.3 elap:               2.2
 (Enter /apps/cent7/gaussian/g16-A.03/g16-haswell/g16/l701.exe)
 ... and contract with generalized density number  0.
 Compute integral first derivatives.
 Leave Link  701 at Sun Oct 13 20:06:13 2019, MaxMem= 10737418240 cpu:               2.8 elap:               0.1
 (Enter /apps/cent7/gaussian/g16-A.03/g16-haswell/g16/l702.exe)
 L702 exits ... SP integral derivatives will be done elsewhere.
 Leave Link  702 at Sun Oct 13 20:06:13 2019, MaxMem= 10737418240 cpu:               0.5 elap:               0.0
 (Enter /apps/cent7/gaussian/g16-A.03/g16-haswell/g16/l703.exe)
 Integral derivatives from FoFJK, PRISM(SPDF).
 Compute integral first derivatives, UseDBF=F ICtDFT=           0.
 Calling FoFJK, ICntrl=      2127 FMM=F ISym2X=0 I1Cent= 0 IOpClX= 0 NMat=1 NMatS=1 NMatT=0.
 FoFJK:  IHMeth= 1 ICntrl=    2127 DoSepK=F KAlg= 0 I1Cent=           0 FoldK=F
 IRaf=         0 NMat=       1 IRICut=       1 DoRegI=T DoRafI=F ISym2E= 0 IDoP0=0 IntGTp=1.
 FoFCou: FMM=F IPFlag=           0 FMFlag=      100000 FMFlg1=         800
         NFxFlg=           0 DoJE=F BraDBF=F KetDBF=F FulRan=T
         wScrn=  0.000000 ICntrl=      2127 IOpCl=  0 I1Cent=           0 NGrid=           0
         NMat0=    1 NMatS0=      1 NMatT0=    0 NMatD0=    1 NMtDS0=    0 NMtDT0=    0
 Symmetry not used in FoFCou.
 Leave Link  703 at Sun Oct 13 20:06:13 2019, MaxMem= 10737418240 cpu:              11.5 elap:               0.5
 (Enter /apps/cent7/gaussian/g16-A.03/g16-haswell/g16/l716.exe)
 Dipole        = 3.73877525D-03-1.20030191D+00 3.59419850D-02
 ***** Axes restored to original set *****
 -------------------------------------------------------------------
 Center     Atomic                   Forces (Hartrees/Bohr)
 Number     Number              X              Y              Z
 -------------------------------------------------------------------
      1        6           0.000394804   -0.000670314    0.002396761
      2        6           0.002239645   -0.005294529   -0.006055758
      3        6           0.001356318    0.000627169    0.002253375
      4        8          -0.003676545    0.004784391    0.000909577
      5        1           0.000130925   -0.000390864    0.000237558
      6        1           0.000027684    0.000306874    0.000305323
      7        1           0.000105175    0.000764625   -0.000253525
      8        1           0.000378115   -0.000419190   -0.000035062
      9        1          -0.001092015    0.000134020   -0.000142747
     10        1           0.000135893    0.000157818    0.000384497
 -------------------------------------------------------------------
 Cartesian Forces:  Max     0.006055758 RMS     0.002028396
 Leave Link  716 at Sun Oct 13 20:06:14 2019, MaxMem= 10737418240 cpu:               0.7 elap:               0.0
 (Enter /apps/cent7/gaussian/g16-A.03/g16-haswell/g16/l103.exe)

 GradGradGradGradGradGradGradGradGradGradGradGradGradGradGradGradGradGrad
 Berny optimization.
 Using GEDIIS/GDIIS optimizer.
 FormGI is forming the generalized inverse of G from B-inverse, IUseBI=4.
[...]
     32 -0.256538D-02  0.130568D-01
     33 -0.186017D-02 -0.199590D-02  0.136215D-01
     34  0.747554D-02 -0.829224D-02 -0.646631D-02  0.118523D-01
     35 -0.838598D-02  0.732997D-02 -0.660204D-02 -0.391551D-02  0.118004D-01
     36 -0.768077D-02 -0.772276D-02  0.901541D-02 -0.208958D-02 -0.213156D-02
               36 
     36  0.146066D-01
 Leave Link  716 at Sun Oct 13 20:07:21 2019, MaxMem= 10737418240 cpu:               1.3 elap:               0.1
 (Enter /apps/cent7/gaussian/g16-A.03/g16-haswell/g16/l103.exe)

 GradGradGradGradGradGradGradGradGradGradGradGradGradGradGradGradGradGrad
 Berny optimization.
 Red2BG is reusing G-inverse.
 Internal  Forces:  Max     0.000004486 RMS     0.000001701
 Search for a local minimum.
 Step number   1 out of a maximum of    2
 All quantities printed in internal units (Hartrees-Bohrs-Radians)
 Second derivative matrix not updated -- analytic derivatives used.
 ITU=  0
     Eigenvalues ---    0.00011   0.00114   0.02810   0.05236   0.05351
     Eigenvalues ---    0.05459   0.05697   0.12067   0.12190   0.12459
     Eigenvalues ---    0.12738   0.12837   0.13920   0.21457   0.21960
     Eigenvalues ---    0.30542   0.31225   0.34090   0.34260   0.34734
     Eigenvalues ---    0.34821   0.35587   0.35706   0.90673
 Angle between quadratic step and forces=  83.77 degrees.
 Linear search not attempted -- first point.
 Iteration  1 RMS(Cart)=  0.00030169 RMS(Int)=  0.00000005
 Iteration  2 RMS(Cart)=  0.00000006 RMS(Int)=  0.00000000
 ITry= 1 IFail=0 DXMaxC= 7.93D-04 DCOld= 1.00D+10 DXMaxT= 3.00D-01 DXLimC= 3.00D+00 Rises=F
 Variable       Old X    -DE/DX   Delta X   Delta X   Delta X     New X
                                 (Linear)    (Quad)   (Total)
    R1        2.85952  -0.00000   0.00000  -0.00001  -0.00001   2.85951
    R2        2.06622   0.00000   0.00000   0.00001   0.00001   2.06622
    R3        2.05591  -0.00000   0.00000  -0.00000  -0.00000   2.05591
    R4        2.06484  -0.00000   0.00000  -0.00000  -0.00000   2.06484
    R5        2.85950   0.00000   0.00000   0.00001   0.00001   2.85951
    R6        2.27733  -0.00000   0.00000  -0.00000  -0.00000   2.27733
    R7        2.06483   0.00000   0.00000   0.00001   0.00001   2.06484
    R8        2.06623  -0.00000   0.00000  -0.00001  -0.00001   2.06622
    R9        2.05591  -0.00000   0.00000  -0.00000  -0.00000   2.05591
    A1        1.91060  -0.00000   0.00000  -0.00001  -0.00001   1.91059
    A2        1.91903  -0.00000   0.00000   0.00000   0.00000   1.91903
    A3        1.92573   0.00000   0.00000   0.00001   0.00001   1.92575
    A4        1.91397   0.00000   0.00000   0.00001   0.00001   1.91398
    A5        1.87064  -0.00000   0.00000  -0.00003  -0.00003   1.87061
    A6        1.92324   0.00000   0.00000   0.00002   0.00002   1.92326
    A7        2.02987   0.00000   0.00000   0.00001   0.00001   2.02988
    A8        2.12665   0.00000   0.00000   0.00000   0.00000   2.12665
    A9        2.12666  -0.00000   0.00000  -0.00001  -0.00001   2.12665
   A10        1.92580  -0.00000   0.00000  -0.00005  -0.00005   1.92575
   A11        1.91052   0.00000   0.00000   0.00007   0.00007   1.91059
   A12        1.91906  -0.00000   0.00000  -0.00003  -0.00003   1.91903
   A13        1.87062  -0.00000   0.00000  -0.00001  -0.00001   1.87061
   A14        1.92329   0.00000   0.00000  -0.00003  -0.00003   1.92326
   A15        1.91393   0.00000   0.00000   0.00005   0.00005   1.91398
    D1        1.12802  -0.00000   0.00000  -0.00032  -0.00032   1.12769
    D2       -2.01366   0.00000   0.00000  -0.00024  -0.00024  -2.01390
    D3       -3.05150  -0.00000   0.00000  -0.00032  -0.00032  -3.05182
    D4        0.09001  -0.00000   0.00000  -0.00023  -0.00023   0.08978
    D5       -0.92657   0.00000   0.00000  -0.00028  -0.00028  -0.92686
    D6        2.21493   0.00000   0.00000  -0.00020  -0.00020   2.21474
    D7       -0.92638   0.00000   0.00000  -0.00048  -0.00048  -0.92686
    D8        1.12818   0.00000   0.00000  -0.00049  -0.00049   1.12769
    D9       -3.05142   0.00000   0.00000  -0.00040  -0.00040  -3.05182
   D10        2.21530  -0.00000   0.00000  -0.00057  -0.00057   2.21474
   D11       -2.01333  -0.00000   0.00000  -0.00057  -0.00057  -2.01390
   D12        0.09026   0.00000   0.00000  -0.00048  -0.00048   0.08978
         Item               Value     Threshold  Converged?
 Maximum Force            0.000004     0.000450     YES
 RMS     Force            0.000002     0.000300     YES
 Maximum Displacement     0.000793     0.001800     YES
 RMS     Displacement     0.000302     0.001200     YES
 Predicted change in Energy=-7.752870D-10
 Optimization completed.
    -- Stationary point found.
                           ----------------------------
                           !   Optimized Parameters   !
                           ! (Angstroms and Degrees)  !
 --------------------------                            --------------------------
 ! Name  Definition              Value          Derivative Info.                !
 --------------------------------------------------------------------------------
 ! R1    R(1,2)                  1.5132         -DE/DX =    0.0                 !
 ! R2    R(1,5)                  1.0934         -DE/DX =    0.0                 !
 ! R3    R(1,6)                  1.0879         -DE/DX =    0.0                 !
 ! R4    R(1,7)                  1.0927         -DE/DX =    0.0                 !
 ! R5    R(2,3)                  1.5132         -DE/DX =    0.0                 !
 ! R6    R(2,4)                  1.2051         -DE/DX =    0.0                 !
 ! R7    R(3,8)                  1.0927         -DE/DX =    0.0                 !
 ! R8    R(3,9)                  1.0934         -DE/DX =    0.0                 !
 ! R9    R(3,10)                 1.0879         -DE/DX =    0.0                 !
 ! A1    A(2,1,5)              109.4695         -DE/DX =    0.0                 !
 ! A2    A(2,1,6)              109.9524         -DE/DX =    0.0                 !
 ! A3    A(2,1,7)              110.3364         -DE/DX =    0.0                 !
 ! A4    A(5,1,6)              109.6625         -DE/DX =    0.0                 !
 ! A5    A(5,1,7)              107.1799         -DE/DX =    0.0                 !
 ! A6    A(6,1,7)              110.1937         -DE/DX =    0.0                 !
 ! A7    A(1,2,3)              116.3031         -DE/DX =    0.0                 !
 ! A8    A(1,2,4)              121.8481         -DE/DX =    0.0                 !
 ! A9    A(3,2,4)              121.8487         -DE/DX =    0.0                 !
 ! A10   A(2,3,8)              110.3402         -DE/DX =    0.0                 !
 ! A11   A(2,3,9)              109.4648         -DE/DX =    0.0                 !
 ! A12   A(2,3,10)             109.9539         -DE/DX =    0.0                 !
 ! A13   A(8,3,9)              107.1788         -DE/DX =    0.0                 !
 ! A14   A(8,3,10)             110.1964         -DE/DX =    0.0                 !
 ! A15   A(9,3,10)             109.6602         -DE/DX =    0.0                 !
 ! D1    D(5,1,2,3)             64.6306         -DE/DX =    0.0                 !
 ! D2    D(5,1,2,4)           -115.3744         -DE/DX =    0.0                 !
 ! D3    D(6,1,2,3)           -174.8378         -DE/DX =    0.0                 !
 ! D4    D(6,1,2,4)              5.1572         -DE/DX =    0.0                 !
 ! D5    D(7,1,2,3)            -53.0887         -DE/DX =    0.0                 !
 ! D6    D(7,1,2,4)            126.9064         -DE/DX =    0.0                 !
 ! D7    D(1,2,3,8)            -53.0775         -DE/DX =    0.0                 !
 ! D8    D(1,2,3,9)             64.6398         -DE/DX =    0.0                 !
 ! D9    D(1,2,3,10)          -174.8335         -DE/DX =    0.0                 !
 ! D10   D(4,2,3,8)            126.9275         -DE/DX =    0.0                 !
 ! D11   D(4,2,3,9)           -115.3552         -DE/DX =    0.0                 !
 ! D12   D(4,2,3,10)             5.1715         -DE/DX =    0.0                 !
 --------------------------------------------------------------------------------
 GradGradGradGradGradGradGradGradGradGradGradGradGradGradGradGradGradGrad

 Leave Link  103 at Sun Oct 13 20:07:21 2019, MaxMem= 10737418240 cpu:               0.4 elap:               0.0
 (Enter /apps/cent7/gaussian/g16-A.03/g16-haswell/g16/l9999.exe)

 ----------------------------------------------------------------------

 Electric dipole moment (input orientation):
 (Debye = 10**-18 statcoulomb cm , SI units = C m)
                  (au)            (Debye)         (10**-30 SI)
   Tot        0.123146D+01      0.313006D+01      0.104408D+02
   x          0.848778D+00      0.215738D+01      0.719624D+01
   y         -0.824804D+00     -0.209644D+01     -0.699298D+01
   z          0.340246D+00      0.864819D+00      0.288472D+01

 Dipole polarizability, Alpha (input orientation).
 (esu units = cm**3 , SI units = C**2 m**2 J**-1)
 Alpha(0;0):
               (au)            (10**-24 esu)      (10**-40 SI)
   iso        0.389872D+02      0.577730D+01      0.642811D+01
   aniso      0.119771D+02      0.177483D+01      0.197476D+01
   xx         0.427675D+02      0.633749D+01      0.705141D+01
   yx        -0.167078D+01     -0.247585D+00     -0.275475D+00
   yy         0.410363D+02      0.608096D+01      0.676598D+01
   zx         0.364719D+00      0.540457D-01      0.601340D-01
   zy        -0.431924D+01     -0.640046D+00     -0.712147D+00
   zz         0.331576D+02      0.491345D+01      0.546695D+01

 ----------------------------------------------------------------------

 Dipole orientation:
     6         -1.65127079         -1.58448257          1.45214884
     6          0.48750256         -0.43302945         -0.05671632
     6          2.62626558          0.71832004          1.45219760
     8          0.48756594         -0.43311148         -2.33404660
     1         -2.61294214         -0.10316426          2.52459306
     1         -2.98782856         -2.50144770          0.18741342
     1         -0.91390770         -2.94571580          2.81850270
     1          1.88900753          2.07921081          2.81893292
     1          3.58803707         -0.76324261          2.52424760
     1          3.96277196          1.63550226          0.18756783

 Electric dipole moment (dipole orientation):
 (Debye = 10**-18 statcoulomb cm , SI units = C m)
                  (au)            (Debye)         (10**-30 SI)
   Tot        0.123146D+01      0.313006D+01      0.104408D+02
   x          0.000000D+00      0.000000D+00      0.000000D+00
   y          0.000000D+00      0.000000D+00      0.000000D+00
   z          0.123146D+01      0.313006D+01      0.104408D+02

 Dipole polarizability, Alpha (dipole orientation).
 (esu units = cm**3 , SI units = C**2 m**2 J**-1)
 Alpha(0;0):
               (au)            (10**-24 esu)      (10**-40 SI)
   iso        0.389872D+02      0.577730D+01      0.642811D+01
   aniso      0.119771D+02      0.177483D+01      0.197476D+01
   xx         0.390550D+02      0.578735D+01      0.643929D+01
   yx         0.407812D+01      0.604315D+00      0.672391D+00
   yy         0.333691D+02      0.494479D+01      0.550182D+01
   zx        -0.143955D-03     -0.213320D-04     -0.237350D-04
   zy         0.491322D-04      0.728064D-05      0.810081D-05
   zz         0.445374D+02      0.659976D+01      0.734323D+01

 ----------------------------------------------------------------------
 1\1\GINC-BROWN-A364\Freq\RM062X\6-311++G(d,p)\C3H6O1\FINEJ\13-Oct-2019
 \0\\#P Geom=AllCheck Guess=TCheck SCRF=Check GenChk RM062X/6-311++G(d,
 p) Freq\\Title Card Required\\0,1\C,-0.322197715,-1.3745084789,0.25300
 04017\C,0.0583817263,-0.0351934319,-0.3395797592\C,1.5396216422,0.2344
 897775,-0.4909668024\O,-0.7722305171,0.771946876,-0.6725978405\H,0.033
 0157193,-1.4303293584,1.2855796254\H,-1.4030161008,-1.4967539804,0.230
 5708238\H,0.160567019,-2.1847964113,-0.298630403\H,2.0536741778,0.0759
 889073,0.4601061986\H,1.9665625995,-0.4698291417,-1.2101250745\H,1.697
 9214487,1.2532852419,-0.8382571698\\Version=ES64L-G16RevA.03\State=1-A
 \HF=-193.1195627\RMSD=2.250e-09\RMSF=2.690e-06\ZeroPoint=0.0841824\The
 rmal=0.0841824\Dipole=0.8487783,-0.8248041,0.3402459\DipoleDeriv=-0.07
 2893,-0.0970032,0.0449707,-0.07189,-0.324188,0.1802913,0.0292684,0.196
 7789,-0.0338553,1.2165621,-0.1090942,0.0118556,-0.1064921,1.0439729,-0
 .4212286,0.0181264,-0.4147747,0.2765801,-0.4232321,-0.0466641,0.044516
 4,-0.0674591,-0.0465194,0.046053,0.0707222,0.0402814,0.0388105,-0.9015
 432,0.2725791,-0.1050249,0.2713441,-0.8398823,0.2167156,-0.1079938,0.2
 137115,-0.4211673,0.0631442,-0.02732,-0.0656394,-0.0149767,0.0642526,-
 0.0257534,-0.0507137,0.0198211,-0.0386066,-0.0622502,-0.0494888,0.0122
 144,-0.0039986,0.0498337,0.0193411,-0.007356,0.0122486,0.0853844,0.041
 9322,0.0456208,0.067872,0.037842,0.0042695,-0.0226592,0.0529617,-0.077
 1232,0.0357165,0.0455528,0.0076997,-0.0196493,-0.0119609,0.0860844,0.0
 438481,-0.0712932,0.0298373,-0.0497157,0.0516841,0.0085737,0.0048853,0
 .0209841,0.0052388,-0.0843555,0.0499932,-0.0681471,0.0318632,0.0410432
 ,-0.004903,0.0039993,-0.0533928,-0.043062,0.0477475,0.0162848,0.047366
 2,0.0749901\Polar=42.7675193,-1.670784,41.0363391,0.3647186,-4.319244,
 33.1576124\Quadrupole=-0.4255061,-0.4100522,0.8355584,1.9213381,-0.828
 0333,0.5753604\PG=C01 [X(C3H6O1)]\NImag=0\\0.61062285,-0.02150336,0.48
 907343,0.01018386,0.02295964,0.51783791,-0.10853323,-0.04258538,0.0188
 1552,0.74881589,-0.04397970,-0.15955186,0.02962754,-0.22948102,0.69340
 862,0.02021664,0.03091816,-0.10164334,0.08935065,-0.18919205,0.3261860
 6,-0.00583910,-0.00397964,0.00266971,-0.17706248,-0.03918038,0.0181006
 3,0.47505185,-0.03030787,-0.00041847,0.00764907,-0.04136917,-0.1006997
 7,0.00677482,-0.01331791,0.60124623,0.01276127,0.00839350,0.01410865,0
 .01757172,0.00607839,-0.09198014,0.01224419,-0.02857515,0.54124350,0.0
 1149704,0.01390301,-0.00646959,-0.43413573,0.31417265,-0.12921671,-0.0
 5027081,0.03878411,-0.01513324,0.47648691,0.03509544,-0.04073794,0.028
 35963,0.31412878,-0.40992246,0.14069993,0.01761541,0.01039849,0.005702
 27,-0.36721326,0.44371376,-0.01598072,0.02916400,0.01359061,-0.1293234
 6,0.14059183,-0.12792482,-0.00556332,0.00495292,0.02422142,0.15036077,
 -0.17452029,0.09558157,-0.07439662,0.00040073,-0.08221383,0.00158275,0
 .00425409,0.00817856,-0.00102906,0.00000234,-0.00105759,0.00119914,-0.
 00077309,-0.00048763,0.07584519,0.00174726,-0.04135803,0.01767803,0.01
 303336,0.00233917,0.02999579,-0.00057274,-0.00057487,-0.00296305,-0.00
 084587,-0.00705485,-0.00199974,-0.00336146,0.04577089,-0.08314333,0.01
 277990,-0.28675207,-0.00561566,-0.00138206,-0.01160750,-0.00006255,0.0
 0034358,0.00066975,0.00145707,0.00188631,0.00030582,0.09138666,-0.0147
 8829,0.31000318,-0.32729577,-0.03130052,-0.00620064,-0.01031937,0.0006
 8691,-0.00062286,0.00105067,-0.00199870,0.00072333,0.00276219,0.001375
 43,-0.00042860,-0.00689857,-0.00072298,0.00087430,0.35062384,-0.026712
 57,-0.05085308,-0.00143769,-0.03394984,-0.00278825,-0.00193581,0.00009
 388,-0.00501903,0.00276034,0.00239925,0.00343121,-0.00156314,0.0018505
 2,-0.00112846,-0.00046117,0.03386746,0.05245048,-0.00804273,-0.0017102
 0,-0.04728030,0.01562683,0.00129649,-0.00128692,-0.00017620,0.00316306
 ,-0.00036136,-0.00085057,-0.00223673,-0.00016809,-0.03036549,-0.003673
 60,0.00164154,0.00675701,-0.00050155,0.04656680,-0.10116434,0.08578272
 ,0.06318987,0.00287900,-0.00360762,-0.00868417,-0.00082483,0.00076035,
 0.00119766,0.00150915,-0.00040943,0.00170497,0.00402548,-0.00874695,-0
 .00538262,-0.00992154,0.02368216,0.01641628,0.10369595,0.08643448,-0.1
 9557539,-0.10551383,0.01685338,-0.01780066,-0.01891886,-0.00046162,0.0
 0182141,0.00159250,-0.00177758,-0.00457400,0.00561569,-0.00144264,0.00
 207372,0.00139223,-0.00218769,0.00397168,0.00348885,-0.09666272,0.2099
 7031,0.06255650,-0.10245034,-0.10998626,-0.00795957,0.01050344,0.00852
 410,0.00025873,-0.00078855,-0.00107774,0.00003200,0.00266140,-0.003660
 20,0.01422492,-0.02410404,-0.01517532,-0.00103745,0.00254836,0.0000573
 9,-0.06825773,0.11157546,0.12109313,0.00109756,0.00040288,0.00260654,-
 0.01004308,0.00735977,-0.03268067,-0.10428097,0.01355745,-0.11460012,-
 0.00747335,0.00046846,0.00430014,-0.00059043,-0.00117926,0.00067200,0.
 00030164,0.00048557,0.00024045,0.00005663,0.00020806,-0.00007981,0.112
 06163,0.00018424,-0.00027518,0.00122989,0.00149031,-0.00131681,-0.0067
 8887,0.01393810,-0.05198564,0.03701342,-0.00011623,0.00143866,0.000260
 57,-0.00081191,-0.00023522,0.00014979,0.00021168,0.00003311,-0.0000943
 9,-0.00005781,-0.00005206,-0.00024966,-0.01879345,0.05071164,0.0000532
 1,0.00001674,-0.00090367,0.00198189,0.00020219,0.00496607,-0.11146893,
 0.03652293,-0.25047379,0.00124105,-0.00165790,-0.00069193,0.00043407,0
 .00036143,0.00042545,-0.00009508,-0.00012623,0.00028642,-0.00018719,-0
 .00003881,-0.00008649,0.12169963,-0.03857532,0.27199726,0.00052082,-0.
 00170852,-0.00261258,-0.00900203,0.02549129,0.02321035,-0.08447295,0.0
 6778476,0.07569238,-0.00601633,-0.00266177,-0.00388991,0.00022033,0.00
 046006,-0.00030100,0.00017412,-0.00006119,-0.00047347,-0.00043301,-0.0
 0122969,0.00057075,0.00692456,-0.01107899,-0.01065891,0.09075949,0.000
 40679,-0.00132838,-0.00045646,0.00099955,0.00338598,0.00644659,0.06443
 283,-0.15824186,-0.11458244,-0.00039858,0.00116286,-0.00132681,-0.0002
 2466,0.00015151,-0.00002784,0.00016461,0.00007722,-0.00005534,-0.00091
 091,-0.00023912,0.00039777,-0.00243730,0.00256884,0.00373697,-0.073627
 44,0.16825899,0.00012591,0.00007842,-0.00012626,-0.00109781,-0.0013804
 7,-0.00207619,0.07176215,-0.11468423,-0.15976826,-0.00052712,0.0002466
 9,-0.00069328,0.00011082,-0.00015375,0.00008498,-0.00005127,0.00025378
 ,0.00021089,0.00021488,0.00048806,0.00027169,0.01219277,-0.01842102,-0
 .01857034,-0.07707471,0.12657591,0.17258295,-0.00650921,0.00058807,0.0
 0003113,-0.00418173,-0.03571598,0.01214757,-0.05232233,-0.03389537,0.0
 1060041,0.00444179,0.00237402,-0.00069225,0.00004179,0.00018858,0.0001
 1513,-0.00047720,-0.00165523,0.00086788,0.00017750,0.00026603,-0.00030
 835,0.00194581,0.01503405,-0.00299975,0.00132499,0.01159510,-0.0056556
 1,0.05555859,-0.00136472,0.00102489,-0.00009581,0.00088003,-0.00705395
 ,0.00200030,-0.03856793,-0.29652649,0.08458023,0.00109250,0.00214427,-
 0.00117503,0.00010609,0.00001614,0.00010755,-0.00009621,-0.00017489,0.
 00032341,0.00017022,0.00040412,-0.00009383,-0.00007219,-0.00088734,-0.
 00044198,-0.00336851,-0.01579605,0.00699662,0.04122073,0.31684930,0.00
 126939,-0.00014981,0.00115474,0.00064989,0.00365472,-0.00315732,0.0122
 3558,0.08464155,-0.07658202,-0.00089365,-0.00114130,-0.00056111,-0.000
 21049,-0.00035277,0.00040417,0.00008125,0.00046312,0.00033361,-0.00021
 195,0.00031872,0.00003970,0.00564907,0.02547559,-0.00694898,-0.0044629
 1,-0.02070836,0.00808382,-0.01410618,-0.09220146,0.07723340\\0.0000039
 6,-0.00000193,0.00000771,0.00000636,0.00000167,0.00000244,-0.00000186,
 -0.00000090,0.00000377,-0.00000370,0.00000159,-0.00000315,-0.00000181,
 0.00000107,-0.00000095,-0.00000084,-0.00000122,0.00000002,-0.00000208,
 0.00000053,-0.00000201,-0.00000055,0.00000059,-0.00000220,-0.00000142,
 -0.00000084,-0.00000288,0.00000193,-0.00000057,-0.00000275\\\@


 THE BEST WAY TO CONVINCE A FOOL THAT HE IS WRONG 
 IS TO LET HIM HAVE HIS OWN WAY.

                                         JOSH BILLINGS
 Job cpu time:       0 days  0 hours  6 minutes 25.7 seconds.
 Elapsed time:       0 days  0 hours  0 minutes 16.7 seconds.
 File lengths (MBytes):  RWF=     20 Int=      0 D2E=      0 Chk=      3 Scr=      1
 Normal termination of Gaussian 16 at Sun Oct 13 20:07:21 2019.
real 80.24
user 1555.94
sys 20.67
Machine:
brown-a364
brown-a364
brown-a364
brown-a364
brown-a364
brown-a364
brown-a364
brown-a364
brown-a364
brown-a364
brown-a364
brown-a364
brown-a364
brown-a364
brown-a364
brown-a364
brown-a364
brown-a364
brown-a364
brown-a364
brown-a364
brown-a364
brown-a364
brown-a364
