 Entering Gaussian System, Link 0=/apps/cent7/gaussian/g16-A.03/g16-haswell/g16/g16
 Initial command:
 /apps/cent7/gaussian/g16-A.03/g16-haswell/g16/l1.exe "/scratch/brown/finej/gaussian/Gau-293625.inp" -scrdir="/scratch/brown/finej/gaussian/"
 Entering Link 1 = /apps/cent7/gaussian/g16-A.03/g16-haswell/g16/l1.exe PID=    293626.
  
 Copyright (c) 1988,1990,1992,1993,1995,1998,2003,2009,2016,
            Gaussian, Inc.  All Rights Reserved.
  
 This is part of the Gaussian(R) 16 program.  It is based on
 the Gaussian(R) 09 system (copyright 2009, Gaussian, Inc.),
 the Gaussian(R) 03 system (copyright 2003, Gaussian, Inc.),
 the Gaussian(R) 98 system (copyright 1998, Gaussian, Inc.),
 the Gaussian(R) 94 system (copyright 1995, Gaussian, Inc.),
 the Gaussian 92(TM) system (copyright 1992, Gaussian, Inc.),
 the Gaussian 90(TM) system (copyright 1990, Gaussian, Inc.),
 the Gaussian 88(TM) system (copyright 1988, Gaussian, Inc.),
 the Gaussian 86(TM) system (copyright 1986, Carnegie Mellon
 University), and the Gaussian 82(TM) system (copyright 1983,
 Carnegie Mellon University). Gaussian is a federally registered
 trademark of Gaussian, Inc.
  
 This software contains proprietary and confidential information,
 including trade secrets, belonging to Gaussian, Inc.
  
 This software is provided under written license and may be
 used, copied, transmitted, or stored only in accord with that
 written license.
  
 The following legend is applicable only to US Government
 contracts under FAR:
  
                    RESTRICTED RIGHTS LEGEND
  
 Use, reproduction and disclosure by the US Government is
 subject to restrictions as set forth in subparagraphs (a)
 and (c) of the Commercial Computer Software - Restricted
 Rights clause in FAR 52.227-19.
  
 Gaussian, Inc.
 340 Quinnipiac St., Bldg. 40, Wallingford CT 06492
  
  
 ---------------------------------------------------------------
 Warning -- This program may not be used in any manner that
 competes with the business of Gaussian, Inc. or will provide
 assistance to any competitor of Gaussian, Inc.  The licensee
 of this program is prohibited from giving any competitor of
 Gaussian, Inc. access to this program.  By using this program,
 the user acknowledges that Gaussian, Inc. is engaged in the
 business of creating and licensing software in the field of
 computational chemistry and represents and warrants to the
 licensee that it is not a competitor of Gaussian, Inc. and that
 it will not use this program in any manner prohibited above.
 ---------------------------------------------------------------
  

 Cite this work as:
 Gaussian 16, Revision A.03,
 M. J. Frisch, G. W. Trucks, H. B. Schlegel, G. E. Scuseria, 
 M. A. Robb, J. R. Cheeseman, G. Scalmani, V. Barone, 
 G. A. Petersson, H. Nakatsuji, X. Li, M. Caricato, A. V. Marenich, 
 J. Bloino, B. G. Janesko, R. Gomperts, B. Mennucci, H. P. Hratchian, 
 J. V. Ortiz, A. F. Izmaylov, J. L. Sonnenberg, D. Williams-Young, 
 F. Ding, F. Lipparini, F. Egidi, J. Goings, B. Peng, A. Petrone, 
 T. Henderson, D. Ranasinghe, V. G. Zakrzewski, J. Gao, N. Rega, 
 G. Zheng, W. Liang, M. Hada, M. Ehara, K. Toyota, R. Fukuda, 
 J. Hasegawa, M. Ishida, T. Nakajima, Y. Honda, O. Kitao, H. Nakai, 
 T. Vreven, K. Throssell, J. A. Montgomery, Jr., J. E. Peralta, 
 F. Ogliaro, M. J. Bearpark, J. J. Heyd, E. N. Brothers, K. N. Kudin, 
 V. N. Staroverov, T. A. Keith, R. Kobayashi, J. Normand, 
 K. Raghavachari, A. P. Rendell, J. C. Burant, S. S. Iyengar, 
 J. Tomasi, M. Cossi, J. M. Millam, M. Klene, C. Adamo, R. Cammi, 
 J. W. Ochterski, R. L. Martin, K. Morokuma, O. Farkas, 
 J. B. Foresman, and D. J. Fox, Gaussian, Inc., Wallingford CT, 2016.
 
 ******************************************
 Gaussian 16:  ES64L-G16RevA.03 25-Dec-2016
                13-Oct-2019 
 ******************************************
 %chk=16_p.chk
 %nprocshared=24
 Will use up to   24 processors via shared memory.
 %mem=80GB
 -------------------------------------------------------------------
 #P opt freq m062x/6-311++g(d,p) geom=connectivity temperature=0.001
 -------------------------------------------------------------------
 1/18=20,19=15,26=3,38=1,57=2,112=-1000/1,3;
 2/9=110,12=2,17=6,18=5,40=1/2;
 3/5=4,6=6,7=1111,11=2,25=1,30=1,71=1,74=-55/1,2,3;
 4//1;
 5/5=2,38=5/2;
 6/7=2,8=2,9=2,10=2,28=1/1;
 7//1,2,3,16;
 1/18=20,19=15,26=3/3(2);
 2/9=110/2;
 99//99;
 2/9=110/2;
 3/5=4,6=6,7=1111,11=2,25=1,30=1,71=1,74=-55/1,2,3;
 4/5=5,16=3,69=1/1;
 5/5=2,38=5/2;
 7//1,2,3,16;
 1/18=20,19=15,26=3/3(-5);
 2/9=110/2;
 6/7=2,8=2,9=2,10=2,19=2,28=1/1;
 99/9=1/99;
 Leave Link    1 at Sun Oct 13 20:08:14 2019, MaxMem= 10737418240 cpu:               1.0 elap:               0.0
 (Enter /apps/cent7/gaussian/g16-A.03/g16-haswell/g16/l101.exe)
 -------------------
 Title Card Required
 -------------------
 Symbolic Z-matrix:
 Charge =  1 Multiplicity = 1
 C                    -0.3278   -1.3878    0.2277 
 C                     0.1379   -0.0472   -0.1752 
 C                     1.5436    0.2108   -0.5441 
 O                    -0.6828    0.8998   -0.2051 
 H                    -0.3504   -1.4529    1.3155 
 H                    -1.3292   -1.5585   -0.1674 
 H                     0.3522   -2.1426   -0.1674 
 H                     2.1423    0.3206    0.3601 
 H                     1.9239   -0.6243   -1.1325 
 H                     1.6026    1.1264   -1.1325 
 H                    -0.36866   1.80649  -0.23373 
 
 ITRead=  0  0  0  0  0  0  0  0  0  0  0
 MicOpt= -1 -1 -1 -1 -1 -1 -1 -1 -1 -1 -1
 NAtoms=     11 NQM=       11 NQMF=       0 NMMI=      0 NMMIF=      0
                NMic=       0 NMicF=      0.
                    Isotopes and Nuclear Properties:
 (Nuclear quadrupole moments (NQMom) in fm**2, nuclear magnetic moments (NMagM)
  in nuclear magnetons)

  Atom         1           2           3           4           5           6           7           8           9          10
 IAtWgt=          12          12          12          16           1           1           1           1           1           1
 AtmWgt=  12.0000000  12.0000000  12.0000000  15.9949146   1.0078250   1.0078250   1.0078250   1.0078250   1.0078250   1.0078250
 NucSpn=           0           0           0           0           1           1           1           1           1           1
 AtZEff=  -0.0000000  -0.0000000  -0.0000000  -0.0000000  -0.0000000  -0.0000000  -0.0000000  -0.0000000  -0.0000000  -0.0000000
 NQMom=    0.0000000   0.0000000   0.0000000   0.0000000   0.0000000   0.0000000   0.0000000   0.0000000   0.0000000   0.0000000
 NMagM=    0.0000000   0.0000000   0.0000000   0.0000000   2.7928460   2.7928460   2.7928460   2.7928460   2.7928460   2.7928460
 AtZNuc=   6.0000000   6.0000000   6.0000000   8.0000000   1.0000000   1.0000000   1.0000000   1.0000000   1.0000000   1.0000000

  Atom        11
 IAtWgt=           1
 AtmWgt=   1.0078250
 NucSpn=           1
 AtZEff=  -0.0000000
 NQMom=    0.0000000
 NMagM=    2.7928460
 AtZNuc=   1.0000000
 Leave Link  101 at Sun Oct 13 20:08:14 2019, MaxMem= 10737418240 cpu:               8.2 elap:               0.4
 (Enter /apps/cent7/gaussian/g16-A.03/g16-haswell/g16/l103.exe)

 GradGradGradGradGradGradGradGradGradGradGradGradGradGradGradGradGradGrad
 Berny optimization.
 Initialization pass.
                           ----------------------------
                           !    Initial Parameters    !
                           ! (Angstroms and Degrees)  !
 --------------------------                            --------------------------
 ! Name  Definition              Value          Derivative Info.                !
 --------------------------------------------------------------------------------
 ! R1    R(1,2)                  1.4753         estimate D2E/DX2                !
 ! R2    R(1,5)                  1.09           estimate D2E/DX2                !
 ! R3    R(1,6)                  1.09           estimate D2E/DX2                !
 ! R4    R(1,7)                  1.0901         estimate D2E/DX2                !
 ! R5    R(2,3)                  1.476          estimate D2E/DX2                !
 ! R6    R(2,4)                  1.2535         estimate D2E/DX2                !
 ! R7    R(3,8)                  1.09           estimate D2E/DX2                !
 ! R8    R(3,9)                  1.0901         estimate D2E/DX2                !
 ! R9    R(3,10)                 1.09           estimate D2E/DX2                !
 ! R10   R(4,11)                 0.96           estimate D2E/DX2                !
 ! A1    A(2,1,5)              109.4738         estimate D2E/DX2                !
 ! A2    A(2,1,6)              109.4714         estimate D2E/DX2                !
 ! A3    A(2,1,7)              109.4705         estimate D2E/DX2                !
 ! A4    A(5,1,6)              109.4727         estimate D2E/DX2                !
 ! A5    A(5,1,7)              109.4698         estimate D2E/DX2                !
 ! A6    A(6,1,7)              109.4691         estimate D2E/DX2                !
 ! A7    A(1,2,3)              121.852          estimate D2E/DX2                !
 ! A8    A(1,2,4)              119.1015         estimate D2E/DX2                !
 ! A9    A(3,2,4)              119.0465         estimate D2E/DX2                !
 ! A10   A(2,3,8)              109.4742         estimate D2E/DX2                !
 ! A11   A(2,3,9)              109.4665         estimate D2E/DX2                !
 ! A12   A(2,3,10)             109.4694         estimate D2E/DX2                !
 ! A13   A(8,3,9)              109.4706         estimate D2E/DX2                !
 ! A14   A(8,3,10)             109.4794         estimate D2E/DX2                !
 ! A15   A(9,3,10)             109.4673         estimate D2E/DX2                !
 ! A16   A(2,4,11)             120.0            estimate D2E/DX2                !
 ! D1    D(5,1,2,3)             97.439          estimate D2E/DX2                !
 ! D2    D(5,1,2,4)            -82.5516         estimate D2E/DX2                !
 ! D3    D(6,1,2,3)           -142.5575         estimate D2E/DX2                !
 ! D4    D(6,1,2,4)             37.4519         estimate D2E/DX2                !
 ! D5    D(7,1,2,3)            -22.5604         estimate D2E/DX2                !
 ! D6    D(7,1,2,4)            157.4489         estimate D2E/DX2                !
 ! D7    D(1,2,3,8)            -80.1092         estimate D2E/DX2                !
 ! D8    D(1,2,3,9)             39.889          estimate D2E/DX2                !
 ! D9    D(1,2,3,10)           159.8801         estimate D2E/DX2                !
 ! D10   D(4,2,3,8)             99.8815         estimate D2E/DX2                !
 ! D11   D(4,2,3,9)           -140.1203         estimate D2E/DX2                !
 ! D12   D(4,2,3,10)           -20.1292         estimate D2E/DX2                !
 ! D13   D(1,2,4,11)           163.7646         estimate D2E/DX2                !
 ! D14   D(3,2,4,11)           -16.2264         estimate D2E/DX2                !
 --------------------------------------------------------------------------------
 Trust Radius=3.00D-01 FncErr=1.00D-07 GrdErr=1.00D-06 EigMax=2.50D+02 EigMin=1.00D-04
 Number of steps in this run=     50 maximum allowed number of steps=    100.
 GradGradGradGradGradGradGradGradGradGradGradGradGradGradGradGradGradGrad

 Leave Link  103 at Sun Oct 13 20:08:14 2019, MaxMem= 10737418240 cpu:               0.3 elap:               0.0
 (Enter /apps/cent7/gaussian/g16-A.03/g16-haswell/g16/l202.exe)
                          Input orientation:                          
 ---------------------------------------------------------------------
 Center     Atomic      Atomic             Coordinates (Angstroms)
 Number     Number       Type             X           Y           Z
 ---------------------------------------------------------------------
      1          6           0       -0.327800   -1.387800    0.227700
      2          6           0        0.137900   -0.047200   -0.175200
      3          6           0        1.543600    0.210800   -0.544100
      4          8           0       -0.682800    0.899800   -0.205100
      5          1           0       -0.350400   -1.452900    1.315500
      6          1           0       -1.329200   -1.558500   -0.167400
      7          1           0        0.352200   -2.142600   -0.167400
      8          1           0        2.142300    0.320600    0.360100
      9          1           0        1.923900   -0.624300   -1.132500
     10          1           0        1.602600    1.126400   -1.132500
     11          1           0       -0.368657    1.806494   -0.233727
 ---------------------------------------------------------------------
                    Distance matrix (angstroms):
                    1          2          3          4          5
     1  C    0.000000
     2  C    1.475267   0.000000
     3  C    2.579406   1.476023   0.000000
     4  O    2.355091   1.253496   2.355101   0.000000
     5  H    1.089981   2.106328   3.132610   2.820977   0.000000
     6  H    1.089975   2.106293   3.394894   2.542143   1.779942
     7  H    1.090058   2.106344   2.664550   3.213852   1.779979
     8  H    3.006253   2.106998   1.089989   2.938727   3.204941
     9  H    2.739202   2.106956   1.090062   3.158771   3.442633
    10  H    3.449317   2.106919   1.089963   2.476787   4.057056
    11  H    3.227708   1.922552   2.509840   0.960000   3.608890
                    6          7          8          9         10
     6  H    0.000000
     7  H    1.779966   0.000000
     8  H    3.982535   3.090319   0.000000
     9  H    3.519490   2.388911   1.779997   0.000000
    10  H    4.090912   3.630603   1.780012   1.779939   0.000000
    11  H    3.500033   4.014895   2.977485   3.460111   2.270721
                   11
    11  H    0.000000
 Stoichiometry    C3H7O(1+)
 Framework group  C1[X(C3H7O)]
 Deg. of freedom    27
 Full point group                 C1      NOp   1
 Largest Abelian subgroup         C1      NOp   1
 Largest concise Abelian subgroup C1      NOp   1
                         Standard orientation:                         
 ---------------------------------------------------------------------
 Center     Atomic      Atomic             Coordinates (Angstroms)
 Number     Number       Type             X           Y           Z
 ---------------------------------------------------------------------
      1          6           0       -1.405923   -0.415040    0.009558
      2          6           0       -0.012765    0.069948   -0.008049
      3          6           0        1.135153   -0.857897   -0.002460
      4          8           0        0.202748    1.304615   -0.028150
      5          1           0       -1.785322   -0.393436    1.031148
      6          1           0       -2.021967    0.226519   -0.620472
      7          1           0       -1.439813   -1.436664   -0.369075
      8          1           0        1.314262   -1.208256    1.014026
      9          1           0        0.917129   -1.709407   -0.647155
     10          1           0        2.021616   -0.341315   -0.370354
     11          1           0        1.073320    1.643573    0.192786
 ---------------------------------------------------------------------
 Rotational constants (GHZ):           9.9499188           8.3699623           4.8274940
 Leave Link  202 at Sun Oct 13 20:08:14 2019, MaxMem= 10737418240 cpu:               0.7 elap:               0.0
 (Enter /apps/cent7/gaussian/g16-A.03/g16-haswell/g16/l301.exe)
 Standard basis: 6-311++G(d,p) (5D, 7F)
 Ernie: Thresh=  0.10000D-02 Tol=  0.10000D-05 Strict=F.
 There are   141 symmetry adapted cartesian basis functions of A   symmetry.
 There are   137 symmetry adapted basis functions of A   symmetry.
   137 basis functions,   207 primitive gaussians,   141 cartesian basis functions
    16 alpha electrons       16 beta electrons
       nuclear repulsion energy       129.2969516160 Hartrees.
 IExCor= 4336 DFT=T Ex+Corr=M062X ExCW=0 ScaHFX=  0.540000
 ScaDFX=  1.000000  1.000000  1.000000  1.000000 ScalE2=  1.000000  1.000000
 IRadAn=      5 IRanWt=     -1 IRanGd=            0 ICorTp=0 IEmpDi=  4
 NAtoms=   11 NActive=   11 NUniq=   11 SFac= 1.00D+00 NAtFMM=   60 NAOKFM=F Big=F
 Integral buffers will be    131072 words long.
 Raffenetti 2 integral format.
 Two-electron integral symmetry is turned on.
 Leave Link  301 at Sun Oct 13 20:08:14 2019, MaxMem= 10737418240 cpu:               1.7 elap:               0.1
 (Enter /apps/cent7/gaussian/g16-A.03/g16-haswell/g16/l302.exe)
 NPDir=0 NMtPBC=     1 NCelOv=     1 NCel=       1 NClECP=     1 NCelD=      1
         NCelK=      1 NCelE2=     1 NClLst=     1 CellRange=     0.0.
 One-electron integrals computed using PRISM.
 One-electron integral symmetry used in STVInt
 NBasis=   137 RedAO= T EigKep=  5.75D-05  NBF=   137
 NBsUse=   137 1.00D-06 EigRej= -1.00D+00 NBFU=   137
 Precomputing XC quadrature grid using
 IXCGrd= 4 IRadAn=           5 IRanWt=          -1 IRanGd=           0 AccXCQ= 0.00D+00.
 Generated NRdTot=       0 NPtTot=           0 NUsed=           0 NTot=          32
 NSgBfM=   141   141   141   141   141 MxSgAt=    11 MxSgA2=    11.
 Leave Link  302 at Sun Oct 13 20:08:15 2019, MaxMem= 10737418240 cpu:               3.3 elap:               0.2
 (Enter /apps/cent7/gaussian/g16-A.03/g16-haswell/g16/l303.exe)
 DipDrv:  MaxL=1.
 Leave Link  303 at Sun Oct 13 20:08:15 2019, MaxMem= 10737418240 cpu:               0.9 elap:               0.1
 (Enter /apps/cent7/gaussian/g16-A.03/g16-haswell/g16/l401.exe)
 ExpMin= 3.60D-02 ExpMax= 8.59D+03 ExpMxC= 1.30D+03 IAcc=3 IRadAn=         5 AccDes= 0.00D+00
 Harris functional with IExCor= 1009 and IRadAn=       5 diagonalized for initial guess.
 HarFok:  IExCor= 1009 AccDes= 0.00D+00 IRadAn=         5 IDoV= 1 UseB2=F ITyADJ=14
 ICtDFT=  3500011 ScaDFX=  1.000000  1.000000  1.000000  1.000000
 FoFCou: FMM=F IPFlag=           0 FMFlag=      100000 FMFlg1=           0
         NFxFlg=           0 DoJE=T BraDBF=F KetDBF=T FulRan=T
         wScrn=  0.000000 ICntrl=       500 IOpCl=  0 I1Cent=   200000004 NGrid=           0
         NMat0=    1 NMatS0=      1 NMatT0=    0 NMatD0=    1 NMtDS0=    0 NMtDT0=    0
 Petite list used in FoFCou.
 Harris En= -193.436319349634    
 JPrj=0 DoOrth=F DoCkMO=F.
 Leave Link  401 at Sun Oct 13 20:08:15 2019, MaxMem= 10737418240 cpu:               5.4 elap:               0.3
 (Enter /apps/cent7/gaussian/g16-A.03/g16-haswell/g16/l502.exe)
 Keep R1 ints in memory in canonical form, NReq=67909234.
 FoFCou: FMM=F IPFlag=           0 FMFlag=           0 FMFlg1=           0
         NFxFlg=           0 DoJE=F BraDBF=F KetDBF=F FulRan=T
         wScrn=  0.000000 ICntrl=       600 IOpCl=  0 I1Cent=           0 NGrid=           0
         NMat0=    1 NMatS0=   9453 NMatT0=    0 NMatD0=    1 NMtDS0=    0 NMtDT0=    0
 Symmetry not used in FoFCou.
 Two-electron integral symmetry not used.
 Closed shell SCF:
 Using DIIS extrapolation, IDIIS=  1040.
 NGot= 10737418240 LenX= 10692689208 LenY= 10692668886
 Requested convergence on RMS density matrix=1.00D-08 within 128 cycles.
 Requested convergence on MAX density matrix=1.00D-06.
 Requested convergence on             energy=1.00D-06.
 No special actions if energy rises.

 Cycle   1  Pass 1  IDiag  1:
 E= -193.304257220054    
 DIIS: error= 3.86D-02 at cycle   1 NSaved=   1.
 NSaved= 1 IEnMin= 1 EnMin= -193.304257220054     IErMin= 1 ErrMin= 3.86D-02
 ErrMax= 3.86D-02  0.00D+00 EMaxC= 1.00D-01 BMatC= 1.73D-01 BMatP= 1.73D-01
 IDIUse=3 WtCom= 6.14D-01 WtEn= 3.86D-01
 Coeff-Com:  0.100D+01
 Coeff-En:   0.100D+01
 Coeff:      0.100D+01
 Gap=     0.358 Goal=   None    Shift=    0.000
 GapD=    0.358 DampG=1.000 DampE=0.500 DampFc=0.5000 IDamp=-1.
 Damping current iteration by 5.00D-01
 RMSDP=4.17D-03 MaxDP=1.06D-01              OVMax= 1.19D-01

 Cycle   2  Pass 1  IDiag  1:
 E= -193.372514312111     Delta-E=       -0.068257092057 Rises=F Damp=T
 DIIS: error= 6.93D-03 at cycle   2 NSaved=   2.
 NSaved= 2 IEnMin= 2 EnMin= -193.372514312111     IErMin= 2 ErrMin= 6.93D-03
 ErrMax= 6.93D-03  0.00D+00 EMaxC= 1.00D-01 BMatC= 1.08D-02 BMatP= 1.73D-01
 IDIUse=3 WtCom= 9.31D-01 WtEn= 6.93D-02
 Coeff-Com: -0.159D+00 0.116D+01
 Coeff-En:   0.000D+00 0.100D+01
 Coeff:     -0.148D+00 0.115D+01
 Gap=     0.398 Goal=   None    Shift=    0.000
 RMSDP=1.37D-03 MaxDP=3.20D-02 DE=-6.83D-02 OVMax= 6.12D-02

 Cycle   3  Pass 1  IDiag  1:
 E= -193.431257896647     Delta-E=       -0.058743584536 Rises=F Damp=F
 DIIS: error= 3.00D-03 at cycle   3 NSaved=   3.
 NSaved= 3 IEnMin= 3 EnMin= -193.431257896647     IErMin= 3 ErrMin= 3.00D-03
 ErrMax= 3.00D-03  0.00D+00 EMaxC= 1.00D-01 BMatC= 1.16D-03 BMatP= 1.08D-02
 IDIUse=3 WtCom= 9.70D-01 WtEn= 3.00D-02
 Coeff-Com: -0.709D-01 0.251D+00 0.820D+00
 Coeff-En:   0.000D+00 0.000D+00 0.100D+01
 Coeff:     -0.688D-01 0.244D+00 0.825D+00
 Gap=     0.391 Goal=   None    Shift=    0.000
 RMSDP=2.92D-04 MaxDP=1.02D-02 DE=-5.87D-02 OVMax= 1.33D-02

 Cycle   4  Pass 1  IDiag  1:
 E= -193.431728816797     Delta-E=       -0.000470920150 Rises=F Damp=F
 DIIS: error= 2.19D-03 at cycle   4 NSaved=   4.
 NSaved= 4 IEnMin= 4 EnMin= -193.431728816797     IErMin= 4 ErrMin= 2.19D-03
 ErrMax= 2.19D-03  0.00D+00 EMaxC= 1.00D-01 BMatC= 5.21D-04 BMatP= 1.16D-03
 IDIUse=3 WtCom= 9.78D-01 WtEn= 2.19D-02
 Coeff-Com: -0.256D-01 0.615D-01 0.444D+00 0.520D+00
 Coeff-En:   0.000D+00 0.000D+00 0.299D+00 0.701D+00
 Coeff:     -0.250D-01 0.601D-01 0.441D+00 0.524D+00
 Gap=     0.391 Goal=   None    Shift=    0.000
 RMSDP=1.22D-04 MaxDP=2.83D-03 DE=-4.71D-04 OVMax= 6.15D-03

 Cycle   5  Pass 1  IDiag  1:
 E= -193.432120433711     Delta-E=       -0.000391616914 Rises=F Damp=F
 DIIS: error= 2.85D-04 at cycle   5 NSaved=   5.
 NSaved= 5 IEnMin= 5 EnMin= -193.432120433711     IErMin= 5 ErrMin= 2.85D-04
 ErrMax= 2.85D-04  0.00D+00 EMaxC= 1.00D-01 BMatC= 7.88D-06 BMatP= 5.21D-04
 IDIUse=3 WtCom= 9.97D-01 WtEn= 2.85D-03
 Coeff-Com: -0.589D-02 0.102D-01 0.120D+00 0.186D+00 0.690D+00
 Coeff-En:   0.000D+00 0.000D+00 0.000D+00 0.000D+00 0.100D+01
 Coeff:     -0.587D-02 0.101D-01 0.120D+00 0.185D+00 0.691D+00
 Gap=     0.391 Goal=   None    Shift=    0.000
 RMSDP=2.12D-05 MaxDP=4.39D-04 DE=-3.92D-04 OVMax= 8.52D-04

 Cycle   6  Pass 1  IDiag  1:
 E= -193.432126213333     Delta-E=       -0.000005779622 Rises=F Damp=F
 DIIS: error= 6.89D-05 at cycle   6 NSaved=   6.
 NSaved= 6 IEnMin= 6 EnMin= -193.432126213333     IErMin= 6 ErrMin= 6.89D-05
 ErrMax= 6.89D-05  0.00D+00 EMaxC= 1.00D-01 BMatC= 6.37D-07 BMatP= 7.88D-06
 IDIUse=1 WtCom= 1.00D+00 WtEn= 0.00D+00
 Coeff-Com:  0.845D-03-0.273D-02-0.106D-01 0.447D-02 0.209D+00 0.799D+00
 Coeff:      0.845D-03-0.273D-02-0.106D-01 0.447D-02 0.209D+00 0.799D+00
 Gap=     0.391 Goal=   None    Shift=    0.000
 RMSDP=9.17D-06 MaxDP=2.12D-04 DE=-5.78D-06 OVMax= 2.51D-04

 Cycle   7  Pass 1  IDiag  1:
 E= -193.432126858416     Delta-E=       -0.000000645083 Rises=F Damp=F
 DIIS: error= 2.33D-05 at cycle   7 NSaved=   7.
 NSaved= 7 IEnMin= 7 EnMin= -193.432126858416     IErMin= 7 ErrMin= 2.33D-05
 ErrMax= 2.33D-05  0.00D+00 EMaxC= 1.00D-01 BMatC= 1.85D-08 BMatP= 6.37D-07
 IDIUse=1 WtCom= 1.00D+00 WtEn= 0.00D+00
 Coeff-Com:  0.469D-03-0.104D-02-0.104D-01-0.119D-01-0.253D-01 0.105D+00
 Coeff-Com:  0.943D+00
 Coeff:      0.469D-03-0.104D-02-0.104D-01-0.119D-01-0.253D-01 0.105D+00
 Coeff:      0.943D+00
 Gap=     0.391 Goal=   None    Shift=    0.000
 RMSDP=2.05D-06 MaxDP=5.42D-05 DE=-6.45D-07 OVMax= 9.11D-05

 Cycle   8  Pass 1  IDiag  1:
 E= -193.432126893079     Delta-E=       -0.000000034664 Rises=F Damp=F
 DIIS: error= 2.08D-06 at cycle   8 NSaved=   8.
 NSaved= 8 IEnMin= 8 EnMin= -193.432126893079     IErMin= 8 ErrMin= 2.08D-06
 ErrMax= 2.08D-06  0.00D+00 EMaxC= 1.00D-01 BMatC= 7.94D-10 BMatP= 1.85D-08
 IDIUse=1 WtCom= 1.00D+00 WtEn= 0.00D+00
 Coeff-Com: -0.729D-06 0.989D-05-0.803D-03-0.116D-02-0.807D-02-0.188D-01
 Coeff-Com:  0.851D-01 0.944D+00
 Coeff:     -0.729D-06 0.989D-05-0.803D-03-0.116D-02-0.807D-02-0.188D-01
 Coeff:      0.851D-01 0.944D+00
 Gap=     0.391 Goal=   None    Shift=    0.000
 RMSDP=4.89D-07 MaxDP=1.37D-05 DE=-3.47D-08 OVMax= 1.73D-05

 Cycle   9  Pass 1  IDiag  1:
 E= -193.432126894453     Delta-E=       -0.000000001374 Rises=F Damp=F
 DIIS: error= 6.55D-07 at cycle   9 NSaved=   9.
 NSaved= 9 IEnMin= 9 EnMin= -193.432126894453     IErMin= 9 ErrMin= 6.55D-07
 ErrMax= 6.55D-07  0.00D+00 EMaxC= 1.00D-01 BMatC= 5.14D-11 BMatP= 7.94D-10
 IDIUse=1 WtCom= 1.00D+00 WtEn= 0.00D+00
 Coeff-Com: -0.274D-04 0.594D-04 0.432D-03 0.452D-03 0.399D-03-0.101D-01
 Coeff-Com: -0.402D-01 0.149D+00 0.900D+00
 Coeff:     -0.274D-04 0.594D-04 0.432D-03 0.452D-03 0.399D-03-0.101D-01
 Coeff:     -0.402D-01 0.149D+00 0.900D+00
 Gap=     0.391 Goal=   None    Shift=    0.000
 RMSDP=1.24D-07 MaxDP=2.85D-06 DE=-1.37D-09 OVMax= 6.13D-06

 Cycle  10  Pass 1  IDiag  1:
 E= -193.432126894551     Delta-E=       -0.000000000098 Rises=F Damp=F
 DIIS: error= 2.29D-07 at cycle  10 NSaved=  10.
 NSaved=10 IEnMin=10 EnMin= -193.432126894551     IErMin=10 ErrMin= 2.29D-07
 ErrMax= 2.29D-07  0.00D+00 EMaxC= 1.00D-01 BMatC= 6.56D-12 BMatP= 5.14D-11
 IDIUse=1 WtCom= 1.00D+00 WtEn= 0.00D+00
 Coeff-Com: -0.758D-05 0.166D-04 0.172D-03 0.196D-03 0.597D-03-0.219D-02
 Coeff-Com: -0.164D-01-0.829D-02 0.273D+00 0.753D+00
 Coeff:     -0.758D-05 0.166D-04 0.172D-03 0.196D-03 0.597D-03-0.219D-02
 Coeff:     -0.164D-01-0.829D-02 0.273D+00 0.753D+00
 Gap=     0.391 Goal=   None    Shift=    0.000
 RMSDP=2.55D-08 MaxDP=4.76D-07 DE=-9.78D-11 OVMax= 1.87D-06

 Cycle  11  Pass 1  IDiag  1:
 E= -193.432126894562     Delta-E=       -0.000000000011 Rises=F Damp=F
 DIIS: error= 8.73D-08 at cycle  11 NSaved=  11.
 NSaved=11 IEnMin=11 EnMin= -193.432126894562     IErMin=11 ErrMin= 8.73D-08
 ErrMax= 8.73D-08  0.00D+00 EMaxC= 1.00D-01 BMatC= 6.52D-13 BMatP= 6.56D-12
 IDIUse=1 WtCom= 1.00D+00 WtEn= 0.00D+00
 Coeff-Com:  0.251D-05-0.509D-05-0.235D-04-0.223D-04 0.684D-04 0.860D-03
 Coeff-Com:  0.229D-02-0.225D-01-0.647D-01 0.149D+00 0.935D+00
 Coeff:      0.251D-05-0.509D-05-0.235D-04-0.223D-04 0.684D-04 0.860D-03
 Coeff:      0.229D-02-0.225D-01-0.647D-01 0.149D+00 0.935D+00
 Gap=     0.391 Goal=   None    Shift=    0.000
 RMSDP=1.32D-08 MaxDP=3.33D-07 DE=-1.07D-11 OVMax= 1.11D-06

 Cycle  12  Pass 1  IDiag  1:
 E= -193.432126894563     Delta-E=       -0.000000000001 Rises=F Damp=F
 DIIS: error= 2.97D-08 at cycle  12 NSaved=  12.
 NSaved=12 IEnMin=12 EnMin= -193.432126894563     IErMin=12 ErrMin= 2.97D-08
 ErrMax= 2.97D-08  0.00D+00 EMaxC= 1.00D-01 BMatC= 4.71D-14 BMatP= 6.52D-13
 IDIUse=1 WtCom= 1.00D+00 WtEn= 0.00D+00
 Coeff-Com:  0.900D-06-0.200D-05-0.168D-04-0.200D-04-0.482D-04 0.296D-03
 Coeff-Com:  0.175D-02-0.156D-02-0.308D-01-0.547D-01 0.915D-01 0.994D+00
 Coeff:      0.900D-06-0.200D-05-0.168D-04-0.200D-04-0.482D-04 0.296D-03
 Coeff:      0.175D-02-0.156D-02-0.308D-01-0.547D-01 0.915D-01 0.994D+00
 Gap=     0.391 Goal=   None    Shift=    0.000
 RMSDP=3.89D-09 MaxDP=6.61D-08 DE=-1.42D-12 OVMax= 3.86D-07

 SCF Done:  E(RM062X) =  -193.432126895     A.U. after   12 cycles
            NFock= 12  Conv=0.39D-08     -V/T= 2.0033
 KE= 1.928024014276D+02 PE=-7.017970003403D+02 EE= 1.862655204022D+02
 Leave Link  502 at Sun Oct 13 20:08:18 2019, MaxMem= 10737418240 cpu:              60.4 elap:               3.2
 (Enter /apps/cent7/gaussian/g16-A.03/g16-haswell/g16/l601.exe)
 Copying SCF densities to generalized density rwf, IOpCl= 0 IROHF=0.

 **********************************************************************

            Population analysis using the SCF density.

 **********************************************************************

 Orbital symmetries:
       Occupied  (A) (A) (A) (A) (A) (A) (A) (A) (A) (A) (A) (A)
                 (A) (A) (A) (A)
       Virtual   (A) (A) (A) (A) (A) (A) (A) (A) (A) (A) (A) (A)
                 (A) (A) (A) (A) (A) (A) (A) (A) (A) (A) (A) (A)
                 (A) (A) (A) (A) (A) (A) (A) (A) (A) (A) (A) (A)
                 (A) (A) (A) (A) (A) (A) (A) (A) (A) (A) (A) (A)
                 (A) (A) (A) (A) (A) (A) (A) (A) (A) (A) (A) (A)
                 (A) (A) (A) (A) (A) (A) (A) (A) (A) (A) (A) (A)
                 (A) (A) (A) (A) (A) (A) (A) (A) (A) (A) (A) (A)
                 (A) (A) (A) (A) (A) (A) (A) (A) (A) (A) (A) (A)
                 (A) (A) (A) (A) (A) (A) (A) (A) (A) (A) (A) (A)
                 (A) (A) (A) (A) (A) (A) (A) (A) (A) (A) (A) (A)
                 (A)
 The electronic state is 1-A.
 Alpha  occ. eigenvalues --  -19.94751 -10.92144 -10.76161 -10.75349  -1.50817
 Alpha  occ. eigenvalues --   -1.13355  -1.04362  -0.97808  -0.82605  -0.79561
 Alpha  occ. eigenvalues --   -0.79047  -0.69637  -0.69185  -0.68304  -0.66782
 Alpha  occ. eigenvalues --   -0.64768
 Alpha virt. eigenvalues --   -0.25654  -0.16728  -0.12821  -0.11011  -0.10721
 Alpha virt. eigenvalues --   -0.09298  -0.08739  -0.07404  -0.07127  -0.06745
 Alpha virt. eigenvalues --   -0.05055  -0.03495  -0.02699  -0.02271  -0.01945
 Alpha virt. eigenvalues --   -0.00258   0.00375   0.01704   0.02186   0.02691
 Alpha virt. eigenvalues --    0.03697   0.05324   0.06026   0.06244   0.06912
 Alpha virt. eigenvalues --    0.08729   0.10134   0.11635   0.12687   0.15380
 Alpha virt. eigenvalues --    0.16074   0.18743   0.19957   0.22588   0.27077
 Alpha virt. eigenvalues --    0.28478   0.30662   0.34133   0.36869   0.38682
 Alpha virt. eigenvalues --    0.40462   0.40727   0.48657   0.49387   0.49856
 Alpha virt. eigenvalues --    0.50961   0.51379   0.52129   0.56007   0.59901
 Alpha virt. eigenvalues --    0.65718   0.68356   0.76286   0.80864   0.85710
 Alpha virt. eigenvalues --    0.88807   0.95252   1.04184   1.09541   1.14550
 Alpha virt. eigenvalues --    1.18785   1.24061   1.26606   1.29858   1.30684
 Alpha virt. eigenvalues --    1.33115   1.35893   1.37856   1.40105   1.41237
 Alpha virt. eigenvalues --    1.44581   1.50025   1.51215   1.53613   1.61238
 Alpha virt. eigenvalues --    1.63405   1.67932   1.72049   1.74769   1.83689
 Alpha virt. eigenvalues --    1.88288   1.90719   1.95457   2.02943   2.09091
 Alpha virt. eigenvalues --    2.15224   2.27505   2.30246   2.31223   2.32410
 Alpha virt. eigenvalues --    2.33956   2.35741   2.37845   2.39906   2.42538
 Alpha virt. eigenvalues --    2.44716   2.45935   2.53649   2.64238   2.73473
 Alpha virt. eigenvalues --    2.75747   2.86408   2.92700   2.96898   3.08635
 Alpha virt. eigenvalues --    3.19211   3.38846   3.59049   3.61255   3.66258
 Alpha virt. eigenvalues --    3.71313   3.80418   3.91563   4.07322   4.84772
 Alpha virt. eigenvalues --    5.21189   5.65193  23.61482  23.81329  23.86210
 Alpha virt. eigenvalues --   49.76209
          Condensed to atoms (all electrons):
               1          2          3          4          5          6
     1  C    5.942826   0.037459  -0.353601  -0.227505   0.393978   0.390674
     2  C    0.037459   5.423800   0.011430   0.343567  -0.002964  -0.002241
     3  C   -0.353601   0.011430   5.798975  -0.041173  -0.015348  -0.021420
     4  O   -0.227505   0.343567  -0.041173   7.634271  -0.007492  -0.011338
     5  H    0.393978  -0.002964  -0.015348  -0.007492   0.416069  -0.025522
     6  H    0.390674  -0.002241  -0.021420  -0.011338  -0.025522   0.450397
     7  H    0.352166  -0.030382  -0.009941   0.021538  -0.020756  -0.019523
     8  H    0.007502   0.021528   0.343491  -0.007748  -0.005836   0.000144
     9  H   -0.020662  -0.078988   0.444836   0.016226   0.002440   0.000276
    10  H    0.022412  -0.072121   0.411589  -0.008509   0.000524  -0.003838
    11  H    0.031481   0.007523  -0.044434   0.289320   0.000759   0.000887
               7          8          9         10         11
     1  C    0.352166   0.007502  -0.020662   0.022412   0.031481
     2  C   -0.030382   0.021528  -0.078988  -0.072121   0.007523
     3  C   -0.009941   0.343491   0.444836   0.411589  -0.044434
     4  O    0.021538  -0.007748   0.016226  -0.008509   0.289320
     5  H   -0.020756  -0.005836   0.002440   0.000524   0.000759
     6  H   -0.019523   0.000144   0.000276  -0.003838   0.000887
     7  H    0.489620   0.002387   0.000564  -0.001788   0.000649
     8  H    0.002387   0.425535  -0.031038  -0.023464   0.000859
     9  H    0.000564  -0.031038   0.454728  -0.020071  -0.000090
    10  H   -0.001788  -0.023464  -0.020071   0.515481  -0.002418
    11  H    0.000649   0.000859  -0.000090  -0.002418   0.356308
 Mulliken charges:
               1
     1  C   -0.576730
     2  C    0.341389
     3  C   -0.524404
     4  O   -0.001156
     5  H    0.264149
     6  H    0.241506
     7  H    0.215465
     8  H    0.266640
     9  H    0.231780
    10  H    0.182203
    11  H    0.359157
 Sum of Mulliken charges =   1.00000
 Mulliken charges with hydrogens summed into heavy atoms:
               1
     1  C    0.144390
     2  C    0.341389
     3  C    0.156220
     4  O    0.358001
 Electronic spatial extent (au):  <R**2>=            285.9709
 Charge=              1.0000 electrons
 Dipole moment (field-independent basis, Debye):
    X=              1.3840    Y=             -0.2817    Z=              0.5571  Tot=              1.5183
 Quadrupole moment (field-independent basis, Debye-Ang):
   XX=            -14.3422   YY=            -17.7848   ZZ=            -21.7882
   XY=              2.9674   XZ=              0.4538   YZ=              0.6620
 Traceless Quadrupole moment (field-independent basis, Debye-Ang):
   XX=              3.6296   YY=              0.1869   ZZ=             -3.8165
   XY=              2.9674   XZ=              0.4538   YZ=              0.6620
 Octapole moment (field-independent basis, Debye-Ang**2):
  XXX=              0.9414  YYY=              6.3258  ZZZ=              2.2302  XYY=              8.2190
  XXY=              3.1895  XXZ=              0.7122  XZZ=             -0.1980  YZZ=              0.2843
  YYZ=              0.1622  XYZ=              0.8080
 Hexadecapole moment (field-independent basis, Debye-Ang**3):
 XXXX=           -158.5272 YYYY=           -113.9109 ZZZZ=            -31.2082 XXXY=              6.9564
 XXXZ=             -0.4514 YYYX=             13.9709 YYYZ=              5.8888 ZZZX=             -0.2462
 ZZZY=             -1.4343 XXYY=            -41.2696 XXZZ=            -30.6497 YYZZ=            -25.2783
 XXYZ=             -1.2809 YYXZ=              3.0525 ZZXY=             -0.4408
 N-N= 1.292969516160D+02 E-N=-7.017970003843D+02  KE= 1.928024014276D+02
 No NMR shielding tensors so no spin-rotation constants.
 Leave Link  601 at Sun Oct 13 20:08:19 2019, MaxMem= 10737418240 cpu:               3.1 elap:               0.2
 (Enter /apps/cent7/gaussian/g16-A.03/g16-haswell/g16/l701.exe)
 ... and contract with generalized density number  0.
 Compute integral first derivatives.
 Leave Link  701 at Sun Oct 13 20:08:19 2019, MaxMem= 10737418240 cpu:               2.4 elap:               0.1
 (Enter /apps/cent7/gaussian/g16-A.03/g16-haswell/g16/l702.exe)
 L702 exits ... SP integral derivatives will be done elsewhere.
 Leave Link  702 at Sun Oct 13 20:08:19 2019, MaxMem= 10737418240 cpu:               0.5 elap:               0.0
 (Enter /apps/cent7/gaussian/g16-A.03/g16-haswell/g16/l703.exe)
 Integral derivatives from FoFJK, PRISM(SPDF).
 Compute integral first derivatives, UseDBF=F ICtDFT=           0.
 Calling FoFJK, ICntrl=      2127 FMM=F ISym2X=0 I1Cent= 0 IOpClX= 0 NMat=1 NMatS=1 NMatT=0.
 FoFJK:  IHMeth= 1 ICntrl=    2127 DoSepK=F KAlg= 0 I1Cent=           0 FoldK=F
 IRaf=         0 NMat=       1 IRICut=       1 DoRegI=T DoRafI=F ISym2E= 0 IDoP0=0 IntGTp=1.
 FoFCou: FMM=F IPFlag=           0 FMFlag=      100000 FMFlg1=         800
         NFxFlg=           0 DoJE=F BraDBF=F KetDBF=F FulRan=T
         wScrn=  0.000000 ICntrl=      2127 IOpCl=  0 I1Cent=           0 NGrid=           0
         NMat0=    1 NMatS0=      1 NMatT0=    0 NMatD0=    1 NMtDS0=    0 NMtDT0=    0
 Symmetry not used in FoFCou.
 Leave Link  703 at Sun Oct 13 20:08:19 2019, MaxMem= 10737418240 cpu:              13.1 elap:               0.6
 (Enter /apps/cent7/gaussian/g16-A.03/g16-haswell/g16/l716.exe)
 Dipole        = 5.44509761D-01-1.10829901D-01 2.19178870D-01
 ***** Axes restored to original set *****
 -------------------------------------------------------------------
 Center     Atomic                   Forces (Hartrees/Bohr)
 Number     Number              X              Y              Z
 -------------------------------------------------------------------
      1        6          -0.001631358    0.001274582   -0.017447765
      2        6           0.024216088   -0.006427164   -0.000828854
      3        6          -0.004803099    0.003091619   -0.007028677
      4        8          -0.033723539   -0.008651856    0.016639088
      5        1          -0.000901765    0.002025855    0.004507212
      6        1          -0.003555500   -0.000053327    0.003867362
      7        1          -0.000270812    0.000084201    0.003321948
      8        1           0.003330785   -0.002204210    0.003875564
      9        1           0.002591986   -0.000872994    0.002423539
     10        1           0.003750907    0.001367043    0.000795875
     11        1           0.010996306    0.010366252   -0.010125293
 -------------------------------------------------------------------
 Cartesian Forces:  Max     0.033723539 RMS     0.009477074
 Leave Link  716 at Sun Oct 13 20:08:19 2019, MaxMem= 10737418240 cpu:               0.6 elap:               0.0
 (Enter /apps/cent7/gaussian/g16-A.03/g16-haswell/g16/l103.exe)

 GradGradGradGradGradGradGradGradGradGradGradGradGradGradGradGradGradGrad
 Berny optimization.
 FormGI is forming the generalized inverse of G from B-inverse, IUseBI=4.
 Internal  Forces:  Max     0.016019995 RMS     0.005805739
 Search for a local minimum.
 Step number   1 out of a maximum of   50
 All quantities printed in internal units (Hartrees-Bohrs-Radians)
 RMS Force = .58057D-02 SwitMx=.10000D-02 MixMth= 1
 Mixed Optimization -- RFO/linear search
 Second derivative matrix not updated -- first step.
 ITU=  0
     Eigenvalues ---    0.01083   0.01093   0.01434   0.03630   0.07712
     Eigenvalues ---    0.07714   0.07718   0.07719   0.16000   0.16000
     Eigenvalues ---    0.16000   0.16000   0.16000   0.16000   0.16000
     Eigenvalues ---    0.25000   0.25000   0.34806   0.34806   0.34814
     Eigenvalues ---    0.34815   0.34816   0.34817   0.35029   0.35117
     Eigenvalues ---    0.55473   0.81958
 RFO step:  Lambda=-7.57036672D-03 EMin= 1.08311815D-02
 Linear search not attempted -- first point.
 Iteration  1 RMS(Cart)=  0.04968359 RMS(Int)=  0.00400040
 Iteration  2 RMS(Cart)=  0.00411185 RMS(Int)=  0.00034598
 Iteration  3 RMS(Cart)=  0.00003734 RMS(Int)=  0.00034378
 Iteration  4 RMS(Cart)=  0.00000000 RMS(Int)=  0.00034378
 ITry= 1 IFail=0 DXMaxC= 1.48D-01 DCOld= 1.00D+10 DXMaxT= 3.00D-01 DXLimC= 3.00D+00 Rises=F
 Variable       Old X    -DE/DX   Delta X   Delta X   Delta X     New X
                                 (Linear)    (Quad)   (Total)
    R1        2.78785  -0.00259   0.00000  -0.00722  -0.00722   2.78063
    R2        2.05976   0.00440   0.00000   0.01236   0.01236   2.07212
    R3        2.05975   0.00187   0.00000   0.00527   0.00527   2.06502
    R4        2.05991  -0.00143   0.00000  -0.00402  -0.00402   2.05589
    R5        2.78928   0.00486   0.00000   0.01359   0.01359   2.80287
    R6        2.36876   0.01602   0.00000   0.01937   0.01937   2.38813
    R7        2.05978   0.00482   0.00000   0.01356   0.01356   2.07334
    R8        2.05992   0.00026   0.00000   0.00074   0.00074   2.06066
    R9        2.05973   0.00092   0.00000   0.00259   0.00259   2.06232
   R10        1.81414   0.01369   0.00000   0.02435   0.02435   1.83849
    A1        1.91068  -0.00509   0.00000  -0.04029  -0.04026   1.87042
    A2        1.91064   0.00297   0.00000   0.02019   0.01954   1.93018
    A3        1.91062   0.00344   0.00000   0.02795   0.02745   1.93807
    A4        1.91066  -0.00211   0.00000  -0.02744  -0.02757   1.88309
    A5        1.91061  -0.00025   0.00000  -0.00646  -0.00627   1.90434
    A6        1.91060   0.00104   0.00000   0.02604   0.02497   1.93557
    A7        2.12672   0.00480   0.00000   0.01862   0.01859   2.14531
    A8        2.07871  -0.01574   0.00000  -0.06110  -0.06112   2.01759
    A9        2.07775   0.01094   0.00000   0.04248   0.04244   2.12019
   A10        1.91069  -0.00194   0.00000  -0.01848  -0.01853   1.89215
   A11        1.91055   0.00153   0.00000   0.00811   0.00756   1.91811
   A12        1.91060   0.00602   0.00000   0.04386   0.04348   1.95408
   A13        1.91062  -0.00321   0.00000  -0.03505  -0.03526   1.87536
   A14        1.91078  -0.00159   0.00000  -0.00741  -0.00731   1.90346
   A15        1.91056  -0.00081   0.00000   0.00897   0.00817   1.91874
   A16        2.09440  -0.01251   0.00000  -0.07466  -0.07466   2.01974
    D1        1.70063   0.00055   0.00000  -0.00531  -0.00525   1.69539
    D2       -1.44080   0.00087   0.00000   0.00933   0.00901  -1.43179
    D3       -2.48810  -0.00334   0.00000  -0.05122  -0.05139  -2.53949
    D4        0.65366  -0.00302   0.00000  -0.03658  -0.03714   0.61652
    D5       -0.39375   0.00186   0.00000   0.01016   0.01085  -0.38291
    D6        2.74800   0.00218   0.00000   0.02480   0.02510   2.77310
    D7       -1.39817   0.00219   0.00000   0.05070   0.05079  -1.34738
    D8        0.69619  -0.00198   0.00000   0.00143   0.00142   0.69762
    D9        2.79043   0.00164   0.00000   0.04423   0.04479   2.83523
   D10        1.74326   0.00187   0.00000   0.03605   0.03571   1.77897
   D11       -2.44556  -0.00230   0.00000  -0.01322  -0.01366  -2.45922
   D12       -0.35132   0.00132   0.00000   0.02958   0.02971  -0.32161
   D13        2.85823   0.00754   0.00000   0.16823   0.16833   3.02656
   D14       -0.28320   0.00785   0.00000   0.18246   0.18236  -0.10084
         Item               Value     Threshold  Converged?
 Maximum Force            0.016020     0.000450     NO 
 RMS     Force            0.005806     0.000300     NO 
 Maximum Displacement     0.148484     0.001800     NO 
 RMS     Displacement     0.051476     0.001200     NO 
 Predicted change in Energy=-4.152131D-03
 Lowest energy point so far.  Saving SCF results.
 GradGradGradGradGradGradGradGradGradGradGradGradGradGradGradGradGradGrad

 Leave Link  103 at Sun Oct 13 20:08:20 2019, MaxMem= 10737418240 cpu:               0.9 elap:               0.1
 (Enter /apps/cent7/gaussian/g16-A.03/g16-haswell/g16/l202.exe)
                          Input orientation:                          
 ---------------------------------------------------------------------
 Center     Atomic      Atomic             Coordinates (Angstroms)
 Number     Number       Type             X           Y           Z
 ---------------------------------------------------------------------
      1          6           0       -0.331265   -1.385912    0.212773
      2          6           0        0.145528   -0.049038   -0.175285
      3          6           0        1.553449    0.226742   -0.551621
      4          8           0       -0.723550    0.868181   -0.153702
      5          1           0       -0.331295   -1.424029    1.308630
      6          1           0       -1.357523   -1.542004   -0.128629
      7          1           0        0.327586   -2.162141   -0.170599
      8          1           0        2.154567    0.272615    0.365068
      9          1           0        1.942916   -0.592048   -1.157420
     10          1           0        1.654363    1.169776   -1.091541
     11          1           0       -0.391133    1.768652   -0.312302
 ---------------------------------------------------------------------
                    Distance matrix (angstroms):
                    1          2          3          4          5
     1  C    0.000000
     2  C    1.471446   0.000000
     3  C    2.595592   1.483214   0.000000
     4  O    2.317138   1.263745   2.398855   0.000000
     5  H    1.096520   2.078452   3.120551   2.747090   0.000000
     6  H    1.092761   2.119030   3.432367   2.492296   1.769965
     7  H    1.087929   2.120937   2.711952   3.207495   1.779621
     8  H    2.992201   2.105156   1.097163   2.984522   3.154111
     9  H    2.771200   2.118975   1.090456   3.201524   3.456245
    10  H    3.489340   2.145138   1.091334   2.573902   4.053576
    11  H    3.198526   1.900204   2.493222   0.972884   3.581091
                    6          7          8          9         10
     6  H    0.000000
     7  H    1.796086   0.000000
     8  H    3.983887   3.090767   0.000000
     9  H    3.585209   2.459329   1.763635   0.000000
    10  H    4.165622   3.702721   1.782361   1.786512   0.000000
    11  H    3.453707   3.998471   3.029446   3.425626   2.269344
                   11
    11  H    0.000000
 Stoichiometry    C3H7O(1+)
 Framework group  C1[X(C3H7O)]
 Deg. of freedom    27
 Full point group                 C1      NOp   1
 RotChk:  IX=0 Diff= 1.63D-01
 Largest Abelian subgroup         C1      NOp   1
 Largest concise Abelian subgroup C1      NOp   1
                         Standard orientation:                         
 ---------------------------------------------------------------------
 Center     Atomic      Atomic             Coordinates (Angstroms)
 Number     Number       Type             X           Y           Z
 ---------------------------------------------------------------------
      1          6           0       -1.336425   -0.571053   -0.001955
      2          6           0       -0.007122    0.059821   -0.012248
      3          6           0        1.254924   -0.719354   -0.005173
      4          8           0       -0.002448    1.323556   -0.011279
      5          1           0       -1.682614   -0.579499    1.038447
      6          1           0       -2.046244    0.018663   -0.587208
      7          1           0       -1.286212   -1.593986   -0.368938
      8          1           0        1.430595   -1.085226    1.014162
      9          1           0        1.156649   -1.590955   -0.653051
     10          1           0        2.108571   -0.116437   -0.319482
     11          1           0        0.870581    1.742503    0.082566
 ---------------------------------------------------------------------
 Rotational constants (GHZ):           9.9466435           8.2928488           4.7926554
 Leave Link  202 at Sun Oct 13 20:08:20 2019, MaxMem= 10737418240 cpu:               0.3 elap:               0.0
 (Enter /apps/cent7/gaussian/g16-A.03/g16-haswell/g16/l301.exe)
 Standard basis: 6-311++G(d,p) (5D, 7F)
 Ernie: Thresh=  0.10000D-02 Tol=  0.10000D-05 Strict=F.
 There are   141 symmetry adapted cartesian basis functions of A   symmetry.
 There are   137 symmetry adapted basis functions of A   symmetry.
   137 basis functions,   207 primitive gaussians,   141 cartesian basis functions
    16 alpha electrons       16 beta electrons
       nuclear repulsion energy       128.8559334940 Hartrees.
 IExCor= 4336 DFT=T Ex+Corr=M062X ExCW=0 ScaHFX=  0.540000
 ScaDFX=  1.000000  1.000000  1.000000  1.000000 ScalE2=  1.000000  1.000000
 IRadAn=      5 IRanWt=     -1 IRanGd=            0 ICorTp=0 IEmpDi=  4
 NAtoms=   11 NActive=   11 NUniq=   11 SFac= 1.00D+00 NAtFMM=   60 NAOKFM=F Big=F
 Integral buffers will be    131072 words long.
 Raffenetti 2 integral format.
 Two-electron integral symmetry is turned on.
 Leave Link  301 at Sun Oct 13 20:08:20 2019, MaxMem= 10737418240 cpu:               1.2 elap:               0.1
 (Enter /apps/cent7/gaussian/g16-A.03/g16-haswell/g16/l302.exe)
 NPDir=0 NMtPBC=     1 NCelOv=     1 NCel=       1 NClECP=     1 NCelD=      1
         NCelK=      1 NCelE2=     1 NClLst=     1 CellRange=     0.0.
 One-electron integrals computed using PRISM.
 One-electron integral symmetry used in STVInt
 NBasis=   137 RedAO= T EigKep=  5.59D-05  NBF=   137
 NBsUse=   137 1.00D-06 EigRej= -1.00D+00 NBFU=   137
 Precomputing XC quadrature grid using
 IXCGrd= 4 IRadAn=           5 IRanWt=          -1 IRanGd=           0 AccXCQ= 0.00D+00.
 Generated NRdTot=       0 NPtTot=           0 NUsed=           0 NTot=          32
 NSgBfM=   141   141   141   141   141 MxSgAt=    11 MxSgA2=    11.
 Leave Link  302 at Sun Oct 13 20:08:20 2019, MaxMem= 10737418240 cpu:               2.8 elap:               0.1
 (Enter /apps/cent7/gaussian/g16-A.03/g16-haswell/g16/l303.exe)
 DipDrv:  MaxL=1.
 Leave Link  303 at Sun Oct 13 20:08:20 2019, MaxMem= 10737418240 cpu:               0.5 elap:               0.0
 (Enter /apps/cent7/gaussian/g16-A.03/g16-haswell/g16/l401.exe)
 Initial guess from the checkpoint file:  "16_p.chk"
 B after Tr=    -0.000000   -0.000000    0.000000
         Rot=    0.998049   -0.001083    0.000015   -0.062426 Ang=  -7.16 deg.
 Guess basis will be translated and rotated to current coordinates.
 JPrj=2 DoOrth=T DoCkMO=T.
 Generating alternative initial guess.
 ExpMin= 3.60D-02 ExpMax= 8.59D+03 ExpMxC= 1.30D+03 IAcc=3 IRadAn=         5 AccDes= 0.00D+00
 Harris functional with IExCor= 1009 and IRadAn=       5 diagonalized for initial guess.
 HarFok:  IExCor= 1009 AccDes= 0.00D+00 IRadAn=         5 IDoV= 1 UseB2=F ITyADJ=14
 ICtDFT=  3500011 ScaDFX=  1.000000  1.000000  1.000000  1.000000
 FoFCou: FMM=F IPFlag=           0 FMFlag=      100000 FMFlg1=           0
         NFxFlg=           0 DoJE=T BraDBF=F KetDBF=T FulRan=T
         wScrn=  0.000000 ICntrl=       500 IOpCl=  0 I1Cent=   200000004 NGrid=           0
         NMat0=    1 NMatS0=      1 NMatT0=    0 NMatD0=    1 NMtDS0=    0 NMtDT0=    0
 Petite list used in FoFCou.
 Harris En= -193.439003496513    
 Leave Link  401 at Sun Oct 13 20:08:20 2019, MaxMem= 10737418240 cpu:               6.5 elap:               0.3
 (Enter /apps/cent7/gaussian/g16-A.03/g16-haswell/g16/l502.exe)
 Keep R1 ints in memory in canonical form, NReq=67909234.
 FoFCou: FMM=F IPFlag=           0 FMFlag=           0 FMFlg1=           0
         NFxFlg=           0 DoJE=F BraDBF=F KetDBF=F FulRan=T
         wScrn=  0.000000 ICntrl=       600 IOpCl=  0 I1Cent=           0 NGrid=           0
         NMat0=    1 NMatS0=   9453 NMatT0=    0 NMatD0=    1 NMtDS0=    0 NMtDT0=    0
 Symmetry not used in FoFCou.
 Two-electron integral symmetry not used.
 Closed shell SCF:
 Using DIIS extrapolation, IDIIS=  1040.
 NGot= 10737418240 LenX= 10692689208 LenY= 10692668886
 Requested convergence on RMS density matrix=1.00D-08 within 128 cycles.
 Requested convergence on MAX density matrix=1.00D-06.
 Requested convergence on             energy=1.00D-06.
 No special actions if energy rises.

 Cycle   1  Pass 1  IDiag  1:
 E= -193.432664850921    
 DIIS: error= 4.59D-03 at cycle   1 NSaved=   1.
 NSaved= 1 IEnMin= 1 EnMin= -193.432664850921     IErMin= 1 ErrMin= 4.59D-03
 ErrMax= 4.59D-03  0.00D+00 EMaxC= 1.00D-01 BMatC= 3.32D-03 BMatP= 3.32D-03
 IDIUse=3 WtCom= 9.54D-01 WtEn= 4.59D-02
 Coeff-Com:  0.100D+01
 Coeff-En:   0.100D+01
 Coeff:      0.100D+01
 Gap=     0.579 Goal=   None    Shift=    0.000
 GapD=    0.579 DampG=2.000 DampE=1.000 DampFc=2.0000 IDamp=-1.
 RMSDP=1.18D-03 MaxDP=2.54D-02              OVMax= 1.64D-02

 Cycle   2  Pass 1  IDiag  1:
 E= -193.436652067563     Delta-E=       -0.003987216642 Rises=F Damp=F
 DIIS: error= 8.04D-04 at cycle   2 NSaved=   2.
 NSaved= 2 IEnMin= 2 EnMin= -193.436652067563     IErMin= 2 ErrMin= 8.04D-04
 ErrMax= 8.04D-04  0.00D+00 EMaxC= 1.00D-01 BMatC= 1.22D-04 BMatP= 3.32D-03
 IDIUse=3 WtCom= 9.92D-01 WtEn= 8.04D-03
 Coeff-Com: -0.941D-01 0.109D+01
 Coeff-En:   0.000D+00 0.100D+01
 Coeff:     -0.934D-01 0.109D+01
 Gap=     0.399 Goal=   None    Shift=    0.000
 RMSDP=2.13D-04 MaxDP=5.86D-03 DE=-3.99D-03 OVMax= 4.66D-03

 Cycle   3  Pass 1  IDiag  1:
 E= -193.436774421875     Delta-E=       -0.000122354312 Rises=F Damp=F
 DIIS: error= 1.05D-03 at cycle   3 NSaved=   3.
 NSaved= 3 IEnMin= 3 EnMin= -193.436774421875     IErMin= 2 ErrMin= 8.04D-04
 ErrMax= 1.05D-03  0.00D+00 EMaxC= 1.00D-01 BMatC= 8.86D-05 BMatP= 1.22D-04
 IDIUse=3 WtCom= 9.89D-01 WtEn= 1.05D-02
 Coeff-Com: -0.738D-01 0.546D+00 0.528D+00
 Coeff-En:   0.000D+00 0.000D+00 0.100D+01
 Coeff:     -0.730D-01 0.540D+00 0.533D+00
 Gap=     0.400 Goal=   None    Shift=    0.000
 RMSDP=5.23D-05 MaxDP=1.57D-03 DE=-1.22D-04 OVMax= 2.13D-03

 Cycle   4  Pass 1  IDiag  1:
 E= -193.436831195422     Delta-E=       -0.000056773547 Rises=F Damp=F
 DIIS: error= 1.75D-04 at cycle   4 NSaved=   4.
 NSaved= 4 IEnMin= 4 EnMin= -193.436831195422     IErMin= 4 ErrMin= 1.75D-04
 ErrMax= 1.75D-04  0.00D+00 EMaxC= 1.00D-01 BMatC= 3.79D-06 BMatP= 8.86D-05
 IDIUse=3 WtCom= 9.98D-01 WtEn= 1.75D-03
 Coeff-Com: -0.800D-02 0.999D-02 0.160D+00 0.838D+00
 Coeff-En:   0.000D+00 0.000D+00 0.000D+00 0.100D+01
 Coeff:     -0.798D-02 0.997D-02 0.160D+00 0.838D+00
 Gap=     0.399 Goal=   None    Shift=    0.000
 RMSDP=1.85D-05 MaxDP=2.94D-04 DE=-5.68D-05 OVMax= 6.57D-04

 Cycle   5  Pass 1  IDiag  1:
 E= -193.436834705223     Delta-E=       -0.000003509801 Rises=F Damp=F
 DIIS: error= 6.41D-05 at cycle   5 NSaved=   5.
 NSaved= 5 IEnMin= 5 EnMin= -193.436834705223     IErMin= 5 ErrMin= 6.41D-05
 ErrMax= 6.41D-05  0.00D+00 EMaxC= 1.00D-01 BMatC= 3.61D-07 BMatP= 3.79D-06
 IDIUse=1 WtCom= 1.00D+00 WtEn= 0.00D+00
 Coeff-Com:  0.386D-02-0.481D-01 0.184D-02 0.305D+00 0.738D+00
 Coeff:      0.386D-02-0.481D-01 0.184D-02 0.305D+00 0.738D+00
 Gap=     0.399 Goal=   None    Shift=    0.000
 RMSDP=5.76D-06 MaxDP=9.17D-05 DE=-3.51D-06 OVMax= 2.18D-04

 Cycle   6  Pass 1  IDiag  1:
 E= -193.436835144359     Delta-E=       -0.000000439136 Rises=F Damp=F
 DIIS: error= 1.45D-05 at cycle   6 NSaved=   6.
 NSaved= 6 IEnMin= 6 EnMin= -193.436835144359     IErMin= 6 ErrMin= 1.45D-05
 ErrMax= 1.45D-05  0.00D+00 EMaxC= 1.00D-01 BMatC= 1.50D-08 BMatP= 3.61D-07
 IDIUse=1 WtCom= 1.00D+00 WtEn= 0.00D+00
 Coeff-Com:  0.127D-02-0.109D-01-0.119D-01 0.135D-01 0.146D+00 0.862D+00
 Coeff:      0.127D-02-0.109D-01-0.119D-01 0.135D-01 0.146D+00 0.862D+00
 Gap=     0.399 Goal=   None    Shift=    0.000
 RMSDP=1.94D-06 MaxDP=3.95D-05 DE=-4.39D-07 OVMax= 9.73D-05

 Cycle   7  Pass 1  IDiag  1:
 E= -193.436835176927     Delta-E=       -0.000000032568 Rises=F Damp=F
 DIIS: error= 5.88D-06 at cycle   7 NSaved=   7.
 NSaved= 7 IEnMin= 7 EnMin= -193.436835176927     IErMin= 7 ErrMin= 5.88D-06
 ErrMax= 5.88D-06  0.00D+00 EMaxC= 1.00D-01 BMatC= 1.55D-09 BMatP= 1.50D-08
 IDIUse=1 WtCom= 1.00D+00 WtEn= 0.00D+00
 Coeff-Com: -0.320D-03 0.459D-02-0.150D-02-0.317D-01-0.783D-01 0.761D-01
 Coeff-Com:  0.103D+01
 Coeff:     -0.320D-03 0.459D-02-0.150D-02-0.317D-01-0.783D-01 0.761D-01
 Coeff:      0.103D+01
 Gap=     0.399 Goal=   None    Shift=    0.000
 RMSDP=9.03D-07 MaxDP=3.11D-05 DE=-3.26D-08 OVMax= 5.38D-05

 Cycle   8  Pass 1  IDiag  1:
 E= -193.436835182097     Delta-E=       -0.000000005170 Rises=F Damp=F
 DIIS: error= 1.38D-06 at cycle   8 NSaved=   8.
 NSaved= 8 IEnMin= 8 EnMin= -193.436835182097     IErMin= 8 ErrMin= 1.38D-06
 ErrMax= 1.38D-06  0.00D+00 EMaxC= 1.00D-01 BMatC= 1.61D-10 BMatP= 1.55D-09
 IDIUse=1 WtCom= 1.00D+00 WtEn= 0.00D+00
 Coeff-Com: -0.182D-03 0.196D-02 0.626D-03-0.891D-02-0.308D-01-0.460D-01
 Coeff-Com:  0.233D+00 0.850D+00
 Coeff:     -0.182D-03 0.196D-02 0.626D-03-0.891D-02-0.308D-01-0.460D-01
 Coeff:      0.233D+00 0.850D+00
 Gap=     0.399 Goal=   None    Shift=    0.000
 RMSDP=2.22D-07 MaxDP=5.68D-06 DE=-5.17D-09 OVMax= 1.39D-05

 Cycle   9  Pass 1  IDiag  1:
 E= -193.436835182461     Delta-E=       -0.000000000364 Rises=F Damp=F
 DIIS: error= 4.51D-07 at cycle   9 NSaved=   9.
 NSaved= 9 IEnMin= 9 EnMin= -193.436835182461     IErMin= 9 ErrMin= 4.51D-07
 ErrMax= 4.51D-07  0.00D+00 EMaxC= 1.00D-01 BMatC= 2.36D-11 BMatP= 1.61D-10
 IDIUse=1 WtCom= 1.00D+00 WtEn= 0.00D+00
 Coeff-Com: -0.957D-05-0.346D-04 0.368D-03 0.144D-02 0.109D-02-0.231D-01
 Coeff-Com: -0.654D-01 0.256D+00 0.830D+00
 Coeff:     -0.957D-05-0.346D-04 0.368D-03 0.144D-02 0.109D-02-0.231D-01
 Coeff:     -0.654D-01 0.256D+00 0.830D+00
 Gap=     0.399 Goal=   None    Shift=    0.000
 RMSDP=6.73D-08 MaxDP=1.43D-06 DE=-3.64D-10 OVMax= 4.54D-06

 Cycle  10  Pass 1  IDiag  1:
 E= -193.436835182503     Delta-E=       -0.000000000042 Rises=F Damp=F
 DIIS: error= 7.65D-08 at cycle  10 NSaved=  10.
 NSaved=10 IEnMin=10 EnMin= -193.436835182503     IErMin=10 ErrMin= 7.65D-08
 ErrMax= 7.65D-08  0.00D+00 EMaxC= 1.00D-01 BMatC= 8.21D-13 BMatP= 2.36D-11
 IDIUse=1 WtCom= 1.00D+00 WtEn= 0.00D+00
 Coeff-Com:  0.880D-05-0.112D-03-0.762D-05 0.717D-03 0.204D-02 0.724D-04
 Coeff-Com: -0.217D-01-0.278D-01 0.110D+00 0.936D+00
 Coeff:      0.880D-05-0.112D-03-0.762D-05 0.717D-03 0.204D-02 0.724D-04
 Coeff:     -0.217D-01-0.278D-01 0.110D+00 0.936D+00
 Gap=     0.399 Goal=   None    Shift=    0.000
 RMSDP=1.45D-08 MaxDP=2.82D-07 DE=-4.18D-11 OVMax= 8.36D-07

 Cycle  11  Pass 1  IDiag  1:
 E= -193.436835182504     Delta-E=       -0.000000000001 Rises=F Damp=F
 DIIS: error= 2.02D-08 at cycle  11 NSaved=  11.
 NSaved=11 IEnMin=11 EnMin= -193.436835182504     IErMin=11 ErrMin= 2.02D-08
 ErrMax= 2.02D-08  0.00D+00 EMaxC= 1.00D-01 BMatC= 4.92D-14 BMatP= 8.21D-13
 IDIUse=1 WtCom= 1.00D+00 WtEn= 0.00D+00
 Coeff-Com:  0.175D-05-0.149D-04-0.202D-04 0.341D-04 0.294D-03 0.132D-02
 Coeff-Com:  0.108D-03-0.215D-01-0.306D-01 0.181D+00 0.869D+00
 Coeff:      0.175D-05-0.149D-04-0.202D-04 0.341D-04 0.294D-03 0.132D-02
 Coeff:      0.108D-03-0.215D-01-0.306D-01 0.181D+00 0.869D+00
 Gap=     0.399 Goal=   None    Shift=    0.000
 RMSDP=3.06D-09 MaxDP=3.48D-08 DE=-1.31D-12 OVMax= 1.58D-07

 SCF Done:  E(RM062X) =  -193.436835183     A.U. after   11 cycles
            NFock= 11  Conv=0.31D-08     -V/T= 2.0037
 KE= 1.927239974386D+02 PE=-7.008746660074D+02 EE= 1.858578998923D+02
 Leave Link  502 at Sun Oct 13 20:08:23 2019, MaxMem= 10737418240 cpu:              52.0 elap:               2.8
 (Enter /apps/cent7/gaussian/g16-A.03/g16-haswell/g16/l701.exe)
 ... and contract with generalized density number  0.
 Compute integral first derivatives.
 Leave Link  701 at Sun Oct 13 20:08:23 2019, MaxMem= 10737418240 cpu:               2.3 elap:               0.1
 (Enter /apps/cent7/gaussian/g16-A.03/g16-haswell/g16/l702.exe)
 L702 exits ... SP integral derivatives will be done elsewhere.
 Leave Link  702 at Sun Oct 13 20:08:23 2019, MaxMem= 10737418240 cpu:               0.5 elap:               0.0
 (Enter /apps/cent7/gaussian/g16-A.03/g16-haswell/g16/l703.exe)
 Integral derivatives from FoFJK, PRISM(SPDF).
 Compute integral first derivatives, UseDBF=F ICtDFT=           0.
 Calling FoFJK, ICntrl=      2127 FMM=F ISym2X=0 I1Cent= 0 IOpClX= 0 NMat=1 NMatS=1 NMatT=0.
 FoFJK:  IHMeth= 1 ICntrl=    2127 DoSepK=F KAlg= 0 I1Cent=           0 FoldK=F
 IRaf=         0 NMat=       1 IRICut=       1 DoRegI=T DoRafI=F ISym2E= 0 IDoP0=0 IntGTp=1.
 FoFCou: FMM=F IPFlag=           0 FMFlag=      100000 FMFlg1=         800
         NFxFlg=           0 DoJE=F BraDBF=F KetDBF=F FulRan=T
         wScrn=  0.000000 ICntrl=      2127 IOpCl=  0 I1Cent=           0 NGrid=           0
         NMat0=    1 NMatS0=      1 NMatT0=    0 NMatD0=    1 NMtDS0=    0 NMtDT0=    0
 Symmetry not used in FoFCou.
 Leave Link  703 at Sun Oct 13 20:08:24 2019, MaxMem= 10737418240 cpu:              12.5 elap:               0.5
 (Enter /apps/cent7/gaussian/g16-A.03/g16-haswell/g16/l716.exe)
 Dipole        = 6.09328479D-01-9.07263315D-02 1.40328467D-01
 ***** Axes restored to original set *****
 -------------------------------------------------------------------
 Center     Atomic                   Forces (Hartrees/Bohr)
 Number     Number              X              Y              Z
 -------------------------------------------------------------------
      1        6           0.000281777   -0.000960694   -0.005856998
      2        6           0.008705249   -0.004984728   -0.003272893
      3        6          -0.005588553    0.002470827   -0.000816402
      4        8          -0.005389936    0.003685019    0.005276297
      5        1          -0.000077806   -0.000137156    0.001692730
      6        1           0.000162540    0.001189331    0.001907243
      7        1           0.000231795   -0.000296506    0.001697867
      8        1          -0.000081462   -0.001250225    0.001159484
      9        1           0.000112703   -0.000811644    0.000734245
     10        1           0.000482568    0.000358006    0.001236656
     11        1           0.001161124    0.000737769   -0.003758228
 -------------------------------------------------------------------
 Cartesian Forces:  Max     0.008705249 RMS     0.002954944
 Leave Link  716 at Sun Oct 13 20:08:24 2019, MaxMem= 10737418240 cpu:               0.5 elap:               0.0
 (Enter /apps/cent7/gaussian/g16-A.03/g16-haswell/g16/l103.exe)

 GradGradGradGradGradGradGradGradGradGradGradGradGradGradGradGradGradGrad
 Berny optimization.
 Using GEDIIS/GDIIS optimizer.
 FormGI is forming the generalized inverse of G from B-inverse, IUseBI=4.
 Internal  Forces:  Max     0.006143866 RMS     0.001716491
 Search for a local minimum.
 Step number   2 out of a maximum of   50
 All quantities printed in internal units (Hartrees-Bohrs-Radians)
 RMS Force = .17165D-02 SwitMx=.10000D-02 MixMth= 1
 Mixed Optimization -- RFO/linear search
 Update second derivatives using D2CorX and points    1    2
 DE= -4.71D-03 DEPred=-4.15D-03 R= 1.13D+00
 TightC=F SS=  1.41D+00  RLast= 3.07D-01 DXNew= 5.0454D-01 9.2117D-01
 Trust test= 1.13D+00 RLast= 3.07D-01 DXMaxT set to 5.05D-01
 ITU=  1  0
 Use linear search instead of GDIIS.
     Eigenvalues ---    0.01065   0.01092   0.01408   0.03164   0.06995
     Eigenvalues ---    0.07367   0.07744   0.07941   0.15419   0.16000
     Eigenvalues ---    0.16000   0.16000   0.16000   0.16000   0.16421
     Eigenvalues ---    0.24919   0.26451   0.34533   0.34806   0.34806
     Eigenvalues ---    0.34815   0.34817   0.34827   0.35101   0.37214
     Eigenvalues ---    0.55352   0.80083
 RFO step:  Lambda=-8.41236389D-04 EMin= 1.06476536D-02
 Quartic linear search produced a step of  0.29129.
 Iteration  1 RMS(Cart)=  0.04195057 RMS(Int)=  0.00164714
 Iteration  2 RMS(Cart)=  0.00173580 RMS(Int)=  0.00021394
 Iteration  3 RMS(Cart)=  0.00000413 RMS(Int)=  0.00021392
 Iteration  4 RMS(Cart)=  0.00000000 RMS(Int)=  0.00021392
 ITry= 1 IFail=0 DXMaxC= 1.26D-01 DCOld= 1.00D+10 DXMaxT= 5.05D-01 DXLimC= 3.00D+00 Rises=F
 Variable       Old X    -DE/DX   Delta X   Delta X   Delta X     New X
                                 (Linear)    (Quad)   (Total)
    R1        2.78063  -0.00016  -0.00210   0.00091  -0.00119   2.77944
    R2        2.07212   0.00170   0.00360   0.00372   0.00732   2.07944
    R3        2.06502  -0.00092   0.00153  -0.00447  -0.00294   2.06208
    R4        2.05589  -0.00025  -0.00117  -0.00008  -0.00126   2.05463
    R5        2.80287  -0.00526   0.00396  -0.02209  -0.01813   2.78474
    R6        2.38813   0.00614   0.00564   0.00576   0.01140   2.39953
    R7        2.07334   0.00087   0.00395   0.00043   0.00438   2.07772
    R8        2.06066   0.00024   0.00022   0.00074   0.00096   2.06162
    R9        2.06232  -0.00026   0.00075  -0.00149  -0.00073   2.06159
   R10        1.83849   0.00169   0.00709  -0.00100   0.00609   1.84457
    A1        1.87042  -0.00061  -0.01173  -0.00160  -0.01335   1.85707
    A2        1.93018  -0.00048   0.00569  -0.00643  -0.00113   1.92904
    A3        1.93807   0.00168   0.00800   0.01132   0.01904   1.95711
    A4        1.88309  -0.00070  -0.00803  -0.00735  -0.01554   1.86755
    A5        1.90434  -0.00095  -0.00183  -0.00935  -0.01106   1.89327
    A6        1.93557   0.00093   0.00727   0.01223   0.01894   1.95451
    A7        2.14531   0.00080   0.00542   0.00004   0.00507   2.15038
    A8        2.01759   0.00030  -0.01780   0.01413  -0.00404   2.01355
    A9        2.12019  -0.00111   0.01236  -0.01475  -0.00276   2.11743
   A10        1.89215  -0.00188  -0.00540  -0.01542  -0.02088   1.87127
   A11        1.91811  -0.00034   0.00220  -0.00375  -0.00189   1.91622
   A12        1.95408   0.00125   0.01267   0.00458   0.01707   1.97115
   A13        1.87536  -0.00020  -0.01027  -0.00198  -0.01251   1.86285
   A14        1.90346   0.00027  -0.00213   0.00289   0.00086   1.90432
   A15        1.91874   0.00080   0.00238   0.01305   0.01503   1.93377
   A16        2.01974  -0.00217  -0.02175  -0.00128  -0.02303   1.99671
    D1        1.69539  -0.00016  -0.00153  -0.03304  -0.03463   1.66075
    D2       -1.43179   0.00045   0.00262   0.01275   0.01521  -1.41658
    D3       -2.53949  -0.00161  -0.01497  -0.04626  -0.06133  -2.60082
    D4        0.61652  -0.00101  -0.01082  -0.00047  -0.01148   0.60504
    D5       -0.38291   0.00042   0.00316  -0.02714  -0.02367  -0.40657
    D6        2.77310   0.00102   0.00731   0.01865   0.02618   2.79928
    D7       -1.34738   0.00124   0.01479   0.06699   0.08172  -1.26567
    D8        0.69762  -0.00028   0.00041   0.05360   0.05405   0.75167
    D9        2.83523   0.00136   0.01305   0.07076   0.08408   2.91931
   D10        1.77897   0.00061   0.01040   0.01881   0.02898   1.80795
   D11       -2.45922  -0.00091  -0.00398   0.00542   0.00132  -2.45790
   D12       -0.32161   0.00073   0.00866   0.02258   0.03135  -0.29026
   D13        3.02656   0.00255   0.04903   0.02775   0.07693   3.10349
   D14       -0.10084   0.00313   0.05312   0.07270   0.12568   0.02484
         Item               Value     Threshold  Converged?
 Maximum Force            0.006144     0.000450     NO 
 RMS     Force            0.001716     0.000300     NO 
 Maximum Displacement     0.126460     0.001800     NO 
 RMS     Displacement     0.041990     0.001200     NO 
 Predicted change in Energy=-7.288473D-04
 Lowest energy point so far.  Saving SCF results.
 GradGradGradGradGradGradGradGradGradGradGradGradGradGradGradGradGradGrad

 Leave Link  103 at Sun Oct 13 20:08:24 2019, MaxMem= 10737418240 cpu:               0.7 elap:               0.1
 (Enter /apps/cent7/gaussian/g16-A.03/g16-haswell/g16/l202.exe)
                          Input orientation:                          
 ---------------------------------------------------------------------
 Center     Atomic      Atomic             Coordinates (Angstroms)
 Number     Number       Type             X           Y           Z
 ---------------------------------------------------------------------
      1          6           0       -0.324636   -1.388259    0.207413
      2          6           0        0.145715   -0.053673   -0.193778
      3          6           0        1.545488    0.234394   -0.553243
      4          8           0       -0.725724    0.868436   -0.142392
      5          1           0       -0.300692   -1.408489    1.307359
      6          1           0       -1.363884   -1.533630   -0.091861
      7          1           0        0.320927   -2.179476   -0.165905
      8          1           0        2.131336    0.213025    0.376910
      9          1           0        1.935264   -0.562435   -1.188331
     10          1           0        1.670134    1.206929   -1.031577
     11          1           0       -0.390286    1.753972   -0.379221
 ---------------------------------------------------------------------
                    Distance matrix (angstroms):
                    1          2          3          4          5
     1  C    0.000000
     2  C    1.470817   0.000000
     3  C    2.590166   1.473622   0.000000
     4  O    2.318600   1.269776   2.393577   0.000000
     5  H    1.100394   2.070802   3.093426   2.732548   0.000000
     6  H    1.091207   2.116494   3.435582   2.485905   1.761776
     7  H    1.087264   2.133194   2.734291   3.222700   1.775202
     8  H    2.936773   2.083148   1.099481   2.976916   3.067541
     9  H    2.781588   2.109611   1.090962   3.197223   3.455977
    10  H    3.499886   2.148227   1.090947   2.577860   4.024325
    11  H    3.197197   1.894536   2.467108   0.976106   3.585212
                    6          7          8          9         10
     6  H    0.000000
     7  H    1.805876   0.000000
     8  H    3.935367   3.048982   0.000000
     9  H    3.609687   2.503250   1.757772   0.000000
    10  H    4.195116   3.746664   1.784486   1.795972   0.000000
    11  H    3.440756   4.002917   3.050382   3.380619   2.229384
                   11
    11  H    0.000000
 Stoichiometry    C3H7O(1+)
 Framework group  C1[X(C3H7O)]
 Deg. of freedom    27
 Full point group                 C1      NOp   1
 RotChk:  IX=0 Diff= 2.38D-02
 Largest Abelian subgroup         C1      NOp   1
 Largest concise Abelian subgroup C1      NOp   1
                         Standard orientation:                         
 ---------------------------------------------------------------------
 Center     Atomic      Atomic             Coordinates (Angstroms)
 Number     Number       Type             X           Y           Z
 ---------------------------------------------------------------------
      1          6           0       -1.341442   -0.555524   -0.007058
      2          6           0       -0.003773    0.055584   -0.029227
      3          6           0        1.242851   -0.729818   -0.004056
      4          8           0        0.015036    1.324847    0.001538
      5          1           0       -1.662293   -0.562887    1.045494
      6          1           0       -2.054261    0.064076   -0.553609
      7          1           0       -1.329870   -1.580027   -0.370931
      8          1           0        1.351021   -1.136138    1.011849
      9          1           0        1.154666   -1.584423   -0.676418
     10          1           0        2.124860   -0.135411   -0.246764
     11          1           0        0.909767    1.714582    0.020124
 ---------------------------------------------------------------------
 Rotational constants (GHZ):           9.9604272           8.3268058           4.8038154
 Leave Link  202 at Sun Oct 13 20:08:24 2019, MaxMem= 10737418240 cpu:               0.2 elap:               0.0
 (Enter /apps/cent7/gaussian/g16-A.03/g16-haswell/g16/l301.exe)
 Standard basis: 6-311++G(d,p) (5D, 7F)
 Ernie: Thresh=  0.10000D-02 Tol=  0.10000D-05 Strict=F.
 There are   141 symmetry adapted cartesian basis functions of A   symmetry.
 There are   137 symmetry adapted basis functions of A   symmetry.
   137 basis functions,   207 primitive gaussians,   141 cartesian basis functions
    16 alpha electrons       16 beta electrons
       nuclear repulsion energy       128.9225214605 Hartrees.
 IExCor= 4336 DFT=T Ex+Corr=M062X ExCW=0 ScaHFX=  0.540000
 ScaDFX=  1.000000  1.000000  1.000000  1.000000 ScalE2=  1.000000  1.000000
 IRadAn=      5 IRanWt=     -1 IRanGd=            0 ICorTp=0 IEmpDi=  4
 NAtoms=   11 NActive=   11 NUniq=   11 SFac= 1.00D+00 NAtFMM=   60 NAOKFM=F Big=F
 Integral buffers will be    131072 words long.
 Raffenetti 2 integral format.
 Two-electron integral symmetry is turned on.
 Leave Link  301 at Sun Oct 13 20:08:24 2019, MaxMem= 10737418240 cpu:               1.8 elap:               0.1
 (Enter /apps/cent7/gaussian/g16-A.03/g16-haswell/g16/l302.exe)
 NPDir=0 NMtPBC=     1 NCelOv=     1 NCel=       1 NClECP=     1 NCelD=      1
         NCelK=      1 NCelE2=     1 NClLst=     1 CellRange=     0.0.
 One-electron integrals computed using PRISM.
 One-electron integral symmetry used in STVInt
 NBasis=   137 RedAO= T EigKep=  5.46D-05  NBF=   137
 NBsUse=   137 1.00D-06 EigRej= -1.00D+00 NBFU=   137
 Precomputing XC quadrature grid using
 IXCGrd= 4 IRadAn=           5 IRanWt=          -1 IRanGd=           0 AccXCQ= 0.00D+00.
 Generated NRdTot=       0 NPtTot=           0 NUsed=           0 NTot=          32
 NSgBfM=   141   141   141   141   141 MxSgAt=    11 MxSgA2=    11.
 Leave Link  302 at Sun Oct 13 20:08:24 2019, MaxMem= 10737418240 cpu:               2.8 elap:               0.1
 (Enter /apps/cent7/gaussian/g16-A.03/g16-haswell/g16/l303.exe)
 DipDrv:  MaxL=1.
 Leave Link  303 at Sun Oct 13 20:08:24 2019, MaxMem= 10737418240 cpu:               1.2 elap:               0.1
 (Enter /apps/cent7/gaussian/g16-A.03/g16-haswell/g16/l401.exe)
 Initial guess from the checkpoint file:  "16_p.chk"
 B after Tr=     0.000000   -0.000000    0.000000
         Rot=    0.999972   -0.002056    0.001004    0.007119 Ang=  -0.86 deg.
 Guess basis will be translated and rotated to current coordinates.
 JPrj=2 DoOrth=T DoCkMO=T.
 Generating alternative initial guess.
 ExpMin= 3.60D-02 ExpMax= 8.59D+03 ExpMxC= 1.30D+03 IAcc=3 IRadAn=         5 AccDes= 0.00D+00
 Harris functional with IExCor= 1009 and IRadAn=       5 diagonalized for initial guess.
 HarFok:  IExCor= 1009 AccDes= 0.00D+00 IRadAn=         5 IDoV= 1 UseB2=F ITyADJ=14
 ICtDFT=  3500011 ScaDFX=  1.000000  1.000000  1.000000  1.000000
 FoFCou: FMM=F IPFlag=           0 FMFlag=      100000 FMFlg1=           0
         NFxFlg=           0 DoJE=T BraDBF=F KetDBF=T FulRan=T
         wScrn=  0.000000 ICntrl=       500 IOpCl=  0 I1Cent=   200000004 NGrid=           0
         NMat0=    1 NMatS0=      1 NMatT0=    0 NMatD0=    1 NMtDS0=    0 NMtDT0=    0
 Petite list used in FoFCou.
 Harris En= -193.439239373812    
 Leave Link  401 at Sun Oct 13 20:08:24 2019, MaxMem= 10737418240 cpu:               6.7 elap:               0.3
 (Enter /apps/cent7/gaussian/g16-A.03/g16-haswell/g16/l502.exe)
 Keep R1 ints in memory in canonical form, NReq=67909234.
 FoFCou: FMM=F IPFlag=           0 FMFlag=           0 FMFlg1=           0
         NFxFlg=           0 DoJE=F BraDBF=F KetDBF=F FulRan=T
         wScrn=  0.000000 ICntrl=       600 IOpCl=  0 I1Cent=           0 NGrid=           0
         NMat0=    1 NMatS0=   9453 NMatT0=    0 NMatD0=    1 NMtDS0=    0 NMtDT0=    0
 Symmetry not used in FoFCou.
 Two-electron integral symmetry not used.
 Closed shell SCF:
 Using DIIS extrapolation, IDIIS=  1040.
 NGot= 10737418240 LenX= 10692689208 LenY= 10692668886
 Requested convergence on RMS density matrix=1.00D-08 within 128 cycles.
 Requested convergence on MAX density matrix=1.00D-06.
 Requested convergence on             energy=1.00D-06.
 No special actions if energy rises.

 Cycle   1  Pass 1  IDiag  1:
 E= -193.435630488187    
 DIIS: error= 2.98D-03 at cycle   1 NSaved=   1.
 NSaved= 1 IEnMin= 1 EnMin= -193.435630488187     IErMin= 1 ErrMin= 2.98D-03
 ErrMax= 2.98D-03  0.00D+00 EMaxC= 1.00D-01 BMatC= 1.36D-03 BMatP= 1.36D-03
 IDIUse=3 WtCom= 9.70D-01 WtEn= 2.98D-02
 Coeff-Com:  0.100D+01
 Coeff-En:   0.100D+01
 Coeff:      0.100D+01
 Gap=     0.582 Goal=   None    Shift=    0.000
 GapD=    0.582 DampG=2.000 DampE=1.000 DampFc=2.0000 IDamp=-1.
 RMSDP=6.45D-04 MaxDP=1.22D-02              OVMax= 1.25D-02

 Cycle   2  Pass 1  IDiag  1:
 E= -193.437483472256     Delta-E=       -0.001852984069 Rises=F Damp=F
 DIIS: error= 5.24D-04 at cycle   2 NSaved=   2.
 NSaved= 2 IEnMin= 2 EnMin= -193.437483472256     IErMin= 2 ErrMin= 5.24D-04
 ErrMax= 5.24D-04  0.00D+00 EMaxC= 1.00D-01 BMatC= 4.69D-05 BMatP= 1.36D-03
 IDIUse=3 WtCom= 9.95D-01 WtEn= 5.24D-03
 Coeff-Com: -0.128D+00 0.113D+01
 Coeff-En:   0.000D+00 0.100D+01
 Coeff:     -0.128D+00 0.113D+01
 Gap=     0.403 Goal=   None    Shift=    0.000
 RMSDP=1.01D-04 MaxDP=1.91D-03 DE=-1.85D-03 OVMax= 3.69D-03

 Cycle   3  Pass 1  IDiag  1:
 E= -193.437558236178     Delta-E=       -0.000074763923 Rises=F Damp=F
 DIIS: error= 4.04D-04 at cycle   3 NSaved=   3.
 NSaved= 3 IEnMin= 3 EnMin= -193.437558236178     IErMin= 3 ErrMin= 4.04D-04
 ErrMax= 4.04D-04  0.00D+00 EMaxC= 1.00D-01 BMatC= 1.86D-05 BMatP= 4.69D-05
 IDIUse=3 WtCom= 9.96D-01 WtEn= 4.04D-03
 Coeff-Com: -0.745D-01 0.491D+00 0.584D+00
 Coeff-En:   0.000D+00 0.000D+00 0.100D+01
 Coeff:     -0.742D-01 0.489D+00 0.585D+00
 Gap=     0.403 Goal=   None    Shift=    0.000
 RMSDP=2.97D-05 MaxDP=7.37D-04 DE=-7.48D-05 OVMax= 1.21D-03

 Cycle   4  Pass 1  IDiag  1:
 E= -193.437570633305     Delta-E=       -0.000012397127 Rises=F Damp=F
 DIIS: error= 1.42D-04 at cycle   4 NSaved=   4.
 NSaved= 4 IEnMin= 4 EnMin= -193.437570633305     IErMin= 4 ErrMin= 1.42D-04
 ErrMax= 1.42D-04  0.00D+00 EMaxC= 1.00D-01 BMatC= 2.11D-06 BMatP= 1.86D-05
 IDIUse=3 WtCom= 9.99D-01 WtEn= 1.42D-03
 Coeff-Com: -0.829D-02 0.110D-01 0.243D+00 0.755D+00
 Coeff-En:   0.000D+00 0.000D+00 0.000D+00 0.100D+01
 Coeff:     -0.828D-02 0.109D-01 0.242D+00 0.755D+00
 Gap=     0.403 Goal=   None    Shift=    0.000
 RMSDP=1.23D-05 MaxDP=2.52D-04 DE=-1.24D-05 OVMax= 4.30D-04

 Cycle   5  Pass 1  IDiag  1:
 E= -193.437572547500     Delta-E=       -0.000001914195 Rises=F Damp=F
 DIIS: error= 2.83D-05 at cycle   5 NSaved=   5.
 NSaved= 5 IEnMin= 5 EnMin= -193.437572547500     IErMin= 5 ErrMin= 2.83D-05
 ErrMax= 2.83D-05  0.00D+00 EMaxC= 1.00D-01 BMatC= 1.26D-07 BMatP= 2.11D-06
 IDIUse=1 WtCom= 1.00D+00 WtEn= 0.00D+00
 Coeff-Com:  0.517D-02-0.511D-01 0.406D-02 0.229D+00 0.813D+00
 Coeff:      0.517D-02-0.511D-01 0.406D-02 0.229D+00 0.813D+00
 Gap=     0.403 Goal=   None    Shift=    0.000
 RMSDP=4.45D-06 MaxDP=9.37D-05 DE=-1.91D-06 OVMax= 1.96D-04

 Cycle   6  Pass 1  IDiag  1:
 E= -193.437572723774     Delta-E=       -0.000000176274 Rises=F Damp=F
 DIIS: error= 9.93D-06 at cycle   6 NSaved=   6.
 NSaved= 6 IEnMin= 6 EnMin= -193.437572723774     IErMin= 6 ErrMin= 9.93D-06
 ErrMax= 9.93D-06  0.00D+00 EMaxC= 1.00D-01 BMatC= 4.88D-09 BMatP= 1.26D-07
 IDIUse=1 WtCom= 1.00D+00 WtEn= 0.00D+00
 Coeff-Com:  0.116D-02-0.788D-02-0.126D-01-0.181D-02 0.764D-01 0.945D+00
 Coeff:      0.116D-02-0.788D-02-0.126D-01-0.181D-02 0.764D-01 0.945D+00
 Gap=     0.403 Goal=   None    Shift=    0.000
 RMSDP=1.21D-06 MaxDP=2.19D-05 DE=-1.76D-07 OVMax= 7.84D-05

 Cycle   7  Pass 1  IDiag  1:
 E= -193.437572737580     Delta-E=       -0.000000013806 Rises=F Damp=F
 DIIS: error= 3.49D-06 at cycle   7 NSaved=   7.
 NSaved= 7 IEnMin= 7 EnMin= -193.437572737580     IErMin= 7 ErrMin= 3.49D-06
 ErrMax= 3.49D-06  0.00D+00 EMaxC= 1.00D-01 BMatC= 1.04D-09 BMatP= 4.88D-09
 IDIUse=1 WtCom= 1.00D+00 WtEn= 0.00D+00
 Coeff-Com: -0.504D-03 0.585D-02-0.308D-02-0.325D-01-0.112D+00 0.245D+00
 Coeff-Com:  0.897D+00
 Coeff:     -0.504D-03 0.585D-02-0.308D-02-0.325D-01-0.112D+00 0.245D+00
 Coeff:      0.897D+00
 Gap=     0.403 Goal=   None    Shift=    0.000
 RMSDP=5.35D-07 MaxDP=1.58D-05 DE=-1.38D-08 OVMax= 3.79D-05

 Cycle   8  Pass 1  IDiag  1:
 E= -193.437572740072     Delta-E=       -0.000000002492 Rises=F Damp=F
 DIIS: error= 8.76D-07 at cycle   8 NSaved=   8.
 NSaved= 8 IEnMin= 8 EnMin= -193.437572740072     IErMin= 8 ErrMin= 8.76D-07
 ErrMax= 8.76D-07  0.00D+00 EMaxC= 1.00D-01 BMatC= 7.69D-11 BMatP= 1.04D-09
 IDIUse=1 WtCom= 1.00D+00 WtEn= 0.00D+00
 Coeff-Com: -0.221D-03 0.207D-02 0.660D-03-0.766D-02-0.329D-01-0.304D-01
 Coeff-Com:  0.215D+00 0.854D+00
 Coeff:     -0.221D-03 0.207D-02 0.660D-03-0.766D-02-0.329D-01-0.304D-01
 Coeff:      0.215D+00 0.854D+00
 Gap=     0.403 Goal=   None    Shift=    0.000
 RMSDP=1.34D-07 MaxDP=2.31D-06 DE=-2.49D-09 OVMax= 8.77D-06

 Cycle   9  Pass 1  IDiag  1:
 E= -193.437572740232     Delta-E=       -0.000000000160 Rises=F Damp=F
 DIIS: error= 1.50D-07 at cycle   9 NSaved=   9.
 NSaved= 9 IEnMin= 9 EnMin= -193.437572740232     IErMin= 9 ErrMin= 1.50D-07
 ErrMax= 1.50D-07  0.00D+00 EMaxC= 1.00D-01 BMatC= 3.35D-12 BMatP= 7.69D-11
 IDIUse=1 WtCom= 1.00D+00 WtEn= 0.00D+00
 Coeff-Com:  0.158D-05-0.943D-04 0.232D-03 0.785D-03 0.326D-02-0.190D-01
 Coeff-Com: -0.345D-01 0.911D-01 0.958D+00
 Coeff:      0.158D-05-0.943D-04 0.232D-03 0.785D-03 0.326D-02-0.190D-01
 Coeff:     -0.345D-01 0.911D-01 0.958D+00
 Gap=     0.403 Goal=   None    Shift=    0.000
 RMSDP=3.34D-08 MaxDP=5.47D-07 DE=-1.60D-10 OVMax= 2.17D-06

 Cycle  10  Pass 1  IDiag  1:
 E= -193.437572740239     Delta-E=       -0.000000000007 Rises=F Damp=F
 DIIS: error= 6.09D-08 at cycle  10 NSaved=  10.
 NSaved=10 IEnMin=10 EnMin= -193.437572740239     IErMin=10 ErrMin= 6.09D-08
 ErrMax= 6.09D-08  0.00D+00 EMaxC= 1.00D-01 BMatC= 5.79D-13 BMatP= 3.35D-12
 IDIUse=1 WtCom= 1.00D+00 WtEn= 0.00D+00
 Coeff-Com:  0.156D-04-0.174D-03 0.248D-04 0.803D-03 0.350D-02-0.415D-02
 Coeff-Com: -0.274D-01-0.309D-01 0.327D+00 0.732D+00
[...]
    R4        2.06184  -0.00000   0.00000  -0.00000  -0.00000   2.06184
    R5        2.78221  -0.00001   0.00000  -0.00006  -0.00006   2.78215
    R6        2.39869   0.00001   0.00000   0.00002   0.00002   2.39871
    R7        2.06393  -0.00000   0.00000  -0.00001  -0.00001   2.06391
    R8        2.07758   0.00001   0.00000   0.00005   0.00005   2.07763
    R9        2.05983  -0.00000   0.00000  -0.00001  -0.00001   2.05981
   R10        1.84170   0.00000   0.00000   0.00001   0.00001   1.84170
    A1        1.85477  -0.00000   0.00000  -0.00000  -0.00000   1.85477
    A2        1.94955  -0.00000   0.00000  -0.00004  -0.00004   1.94951
    A3        1.93199   0.00000   0.00000  -0.00000  -0.00000   1.93199
    A4        1.89834   0.00000   0.00000   0.00002   0.00002   1.89836
    A5        1.86229   0.00001   0.00000   0.00008   0.00008   1.86238
    A6        1.96128  -0.00000   0.00000  -0.00005  -0.00005   1.96123
    A7        2.13566  -0.00000   0.00000  -0.00002  -0.00002   2.13565
    A8        2.02485  -0.00001   0.00000  -0.00003  -0.00003   2.02481
    A9        2.12268   0.00001   0.00000   0.00005   0.00005   2.12273
   A10        1.91980   0.00000   0.00000   0.00007   0.00007   1.91986
   A11        1.86099  -0.00001   0.00000  -0.00015  -0.00015   1.86084
   A12        1.97900   0.00000   0.00000   0.00006   0.00006   1.97906
   A13        1.85661  -0.00000   0.00000  -0.00007  -0.00007   1.85654
   A14        1.93658   0.00000   0.00000   0.00012   0.00012   1.93670
   A15        1.90522   0.00000   0.00000  -0.00005  -0.00005   1.90518
   A16        2.00292  -0.00000   0.00000  -0.00003  -0.00003   2.00290
    D1        1.40825   0.00000   0.00000  -0.00012  -0.00012   1.40813
    D2       -1.73552   0.00000   0.00000  -0.00013  -0.00013  -1.73565
    D3       -2.80705  -0.00000   0.00000  -0.00012  -0.00012  -2.80717
    D4        0.33236   0.00000   0.00000  -0.00013  -0.00013   0.33222
    D5       -0.60735  -0.00000   0.00000  -0.00022  -0.00022  -0.60756
    D6        2.53206  -0.00000   0.00000  -0.00023  -0.00023   2.53184
    D7       -0.68606   0.00001   0.00000   0.00059   0.00059  -0.68546
    D8        1.32015  -0.00000   0.00000   0.00046   0.00046   1.32061
    D9       -2.86590  -0.00000   0.00000   0.00034   0.00034  -2.86556
   D10        2.45784   0.00001   0.00000   0.00061   0.00061   2.45844
   D11       -1.81914  -0.00000   0.00000   0.00048   0.00048  -1.81866
   D12        0.27800  -0.00000   0.00000   0.00035   0.00035   0.27835
   D13        3.10505  -0.00000   0.00000  -0.00009  -0.00009   3.10495
   D14       -0.03871  -0.00000   0.00000  -0.00011  -0.00011  -0.03881
         Item               Value     Threshold  Converged?
 Maximum Force            0.000014     0.000450     YES
 RMS     Force            0.000005     0.000300     YES
 Maximum Displacement     0.000649     0.001800     YES
 RMS     Displacement     0.000214     0.001200     YES
 Predicted change in Energy=-5.242802D-09
 Optimization completed.
    -- Stationary point found.
                           ----------------------------
                           !   Optimized Parameters   !
                           ! (Angstroms and Degrees)  !
 --------------------------                            --------------------------
 ! Name  Definition              Value          Derivative Info.                !
 --------------------------------------------------------------------------------
 ! R1    R(1,2)                  1.4678         -DE/DX =    0.0                 !
 ! R2    R(1,5)                  1.1006         -DE/DX =    0.0                 !
 ! R3    R(1,6)                  1.0881         -DE/DX =    0.0                 !
 ! R4    R(1,7)                  1.0911         -DE/DX =    0.0                 !
 ! R5    R(2,3)                  1.4723         -DE/DX =    0.0                 !
 ! R6    R(2,4)                  1.2693         -DE/DX =    0.0                 !
 ! R7    R(3,8)                  1.0922         -DE/DX =    0.0                 !
 ! R8    R(3,9)                  1.0994         -DE/DX =    0.0                 !
 ! R9    R(3,10)                 1.09           -DE/DX =    0.0                 !
 ! R10   R(4,11)                 0.9746         -DE/DX =    0.0                 !
 ! A1    A(2,1,5)              106.2706         -DE/DX =    0.0                 !
 ! A2    A(2,1,6)              111.7011         -DE/DX =    0.0                 !
 ! A3    A(2,1,7)              110.695          -DE/DX =    0.0                 !
 ! A4    A(5,1,6)              108.7671         -DE/DX =    0.0                 !
 ! A5    A(5,1,7)              106.7015         -DE/DX =    0.0                 !
 ! A6    A(6,1,7)              112.3728         -DE/DX =    0.0                 !
 ! A7    A(1,2,3)              122.3644         -DE/DX =    0.0                 !
 ! A8    A(1,2,4)              116.0151         -DE/DX =    0.0                 !
 ! A9    A(3,2,4)              121.6204         -DE/DX =    0.0                 !
 ! A10   A(2,3,8)              109.9963         -DE/DX =    0.0                 !
 ! A11   A(2,3,9)              106.6268         -DE/DX =    0.0                 !
 ! A12   A(2,3,10)             113.3885         -DE/DX =    0.0                 !
 ! A13   A(8,3,9)              106.376          -DE/DX =    0.0                 !
 ! A14   A(8,3,10)             110.9576         -DE/DX =    0.0                 !
 ! A15   A(9,3,10)             109.1613         -DE/DX =    0.0                 !
 ! A16   A(2,4,11)             114.7589         -DE/DX =    0.0                 !
 ! D1    D(5,1,2,3)             80.687          -DE/DX =    0.0                 !
 ! D2    D(5,1,2,4)            -99.438          -DE/DX =    0.0                 !
 ! D3    D(6,1,2,3)           -160.8323         -DE/DX =    0.0                 !
 ! D4    D(6,1,2,4)             19.0427         -DE/DX =    0.0                 !
 ! D5    D(7,1,2,3)            -34.7984         -DE/DX =    0.0                 !
 ! D6    D(7,1,2,4)            145.0766         -DE/DX =    0.0                 !
 ! D7    D(1,2,3,8)            -39.3083         -DE/DX =    0.0                 !
 ! D8    D(1,2,3,9)             75.6391         -DE/DX =    0.0                 !
 ! D9    D(1,2,3,10)          -164.2038         -DE/DX =    0.0                 !
 ! D10   D(4,2,3,8)            140.8236         -DE/DX =    0.0                 !
 ! D11   D(4,2,3,9)           -104.229          -DE/DX =    0.0                 !
 ! D12   D(4,2,3,10)            15.9281         -DE/DX =    0.0                 !
 ! D13   D(1,2,4,11)           177.9062         -DE/DX =    0.0                 !
 ! D14   D(3,2,4,11)            -2.2178         -DE/DX =    0.0                 !
 --------------------------------------------------------------------------------
 GradGradGradGradGradGradGradGradGradGradGradGradGradGradGradGradGradGrad

 Leave Link  103 at Sun Oct 13 20:09:31 2019, MaxMem= 10737418240 cpu:               0.5 elap:               0.0
 (Enter /apps/cent7/gaussian/g16-A.03/g16-haswell/g16/l9999.exe)

 ----------------------------------------------------------------------

 Electric dipole moment (input orientation):
 (Debye = 10**-18 statcoulomb cm , SI units = C m)
                  (au)            (Debye)         (10**-30 SI)
   Tot        0.649167D+00      0.165002D+01      0.550387D+01
   x          0.553546D+00      0.140697D+01      0.469315D+01
   y          0.311102D+00      0.790742D+00      0.263763D+01
   z         -0.134985D+00     -0.343099D+00     -0.114445D+01

 Dipole polarizability, Alpha (input orientation).
 (esu units = cm**3 , SI units = C**2 m**2 J**-1)
 Alpha(0;0):
               (au)            (10**-24 esu)      (10**-40 SI)
   iso        0.359419D+02      0.532605D+01      0.592603D+01
   aniso      0.121302D+02      0.179751D+01      0.200000D+01
   xx         0.384534D+02      0.569820D+01      0.634010D+01
   yx        -0.570054D+00     -0.844733D-01     -0.939892D-01
   yy         0.395766D+02      0.586465D+01      0.652530D+01
   zx        -0.152735D+01     -0.226330D+00     -0.251826D+00
   zy        -0.421227D+01     -0.624194D+00     -0.694509D+00
   zz         0.297959D+02      0.441529D+01      0.491267D+01

 ----------------------------------------------------------------------

 Dipole orientation:
     6          1.07681340          1.62410041         -1.85622757
     6         -0.20608009          0.35252423          0.24864796
     6          0.24753233          1.04369222          2.90519186
     8         -1.74415288         -1.38695414         -0.35325192
     1          2.96417164          0.76141249         -1.99491816
     1          0.08606222          1.33747044         -3.63516758
     1          1.36768826          3.62091511         -1.43279944
     1          2.25039853          1.44741286          3.19732597
     1         -0.76402320          2.82792345          3.23629958
     1         -0.42170905         -0.37143279          4.24400375
     1         -2.53062321         -2.24832535          1.07200247

 Electric dipole moment (dipole orientation):
 (Debye = 10**-18 statcoulomb cm , SI units = C m)
                  (au)            (Debye)         (10**-30 SI)
   Tot        0.649167D+00      0.165002D+01      0.550387D+01
   x          0.000000D+00      0.000000D+00      0.000000D+00
   y          0.000000D+00      0.000000D+00      0.000000D+00
   z          0.649167D+00      0.165002D+01      0.550387D+01

 Dipole polarizability, Alpha (dipole orientation).
 (esu units = cm**3 , SI units = C**2 m**2 J**-1)
 Alpha(0;0):
               (au)            (10**-24 esu)      (10**-40 SI)
   iso        0.359419D+02      0.532605D+01      0.592603D+01
   aniso      0.121302D+02      0.179751D+01      0.200000D+01
   xx         0.338339D+02      0.501367D+01      0.557846D+01
   yx         0.617135D+01      0.914500D+00      0.101752D+01
   yy         0.347397D+02      0.514789D+01      0.572780D+01
   zx        -0.159310D+01     -0.236073D+00     -0.262667D+00
   zy        -0.779669D-02     -0.115535D-02     -0.128550D-02
   zz         0.392522D+02      0.581658D+01      0.647182D+01

 ----------------------------------------------------------------------
 1\1\GINC-BROWN-A477\Freq\RM062X\6-311++G(d,p)\C3H7O1(1+)\FINEJ\13-Oct-
 2019\0\\#P Geom=AllCheck Guess=TCheck SCRF=Check GenChk RM062X/6-311++
 G(d,p) Freq\\Title Card Required\\1,1\C,-0.320012916,-1.3595404965,0.2
 782710065\C,0.131895927,-0.0511306015,-0.2097491975\C,1.549892665,0.24
 51492982,-0.4726580173\O,-0.7750897365,0.8170533862,-0.3964142804\H,-0
 .1394659345,-1.3628675217,1.3639410079\H,-1.3827349492,-1.5104740433,0
 .0996491685\H,0.2897907625,-2.1599976647,-0.1434590252\H,2.1758836151,
 -0.2123382549,0.2965672831\H,1.805629185,-0.2544541319,-1.418014347\H,
 1.7596965009,1.3109509873,-0.5630822958\H,-0.4518417594,1.6884432726,-
 0.6896787129\\Version=ES64L-G16RevA.03\State=1-A\HF=-193.4384537\RMSD=
 6.468e-10\RMSF=9.406e-06\ZeroPoint=0.0968403\Thermal=0.0968403\Dipole=
 0.5535455,0.3111017,-0.1349853\DipoleDeriv=-0.1185601,-0.0623448,0.047
 1179,-0.0532887,-0.3486083,0.1588032,0.0692661,0.3081225,-0.2650963,1.
 3372714,-0.280908,-0.0949247,-0.1889228,1.2701762,-0.3731575,-0.088787
 7,-0.3353627,0.4703383,-0.4818744,0.0214008,0.1025174,0.0429083,-0.055
 5756,0.0037699,0.2135672,0.019946,-0.153294,-0.7124727,0.4573395,-0.09
 31502,0.4422913,-0.9197459,0.1884182,-0.0931731,0.176015,-0.2749352,0.
 1231974,-0.0628226,-0.0151528,-0.0233832,0.1020479,-0.0303677,-0.04828
 7,-0.0960749,0.1691151,0.0934076,0.0228785,-0.0173408,0.0199472,0.0770
 005,0.0269916,-0.0230134,-0.0116651,0.1404055,0.0546045,-0.0337607,0.0
 599315,0.0041565,0.1514672,-0.0011905,0.0309927,-0.0452778,0.1289858,0
 .1700945,-0.0108897,0.0203055,-0.0665698,0.0937257,0.0550994,-0.008033
 3,0.0371019,0.1043339,0.1386541,-0.0274967,-0.0383557,-0.0940037,0.104
 8722,-0.0127392,-0.0678484,-0.0267547,0.1544808,0.0687117,0.0480771,0.
 0035123,0.020925,0.0194678,0.0139003,-0.0182736,0.0081125,0.1343472,0.
 326966,-0.0714734,0.0255395,-0.1040601,0.5051724,-0.0295277,0.0335905,
 -0.0341628,0.3913189\Polar=38.4533602,-0.5700541,39.5766266,-1.5273526
 ,-4.2122672,29.7958501\Quadrupole=-0.9558944,3.138139,-2.1822446,0.446
 7294,-0.6174141,-2.2124958\PG=C01 [X(C3H7O1)]\NImag=0\\0.62224938,-0.0
 1922654,0.54034200,0.00642243,0.02716864,0.48563908,-0.12168290,-0.050
 35766,0.01602328,0.71169496,-0.06636385,-0.20595900,0.02315620,-0.1041
 9547,0.70111126,0.02681554,0.03588300,-0.09235168,-0.00929059,-0.12742
 585,0.29674846,-0.00356188,-0.00773494,0.00846606,-0.21759742,-0.03616
 108,0.01767965,0.51221127,-0.02610153,0.00281389,0.00428167,-0.0646287
 8,-0.11432338,0.01634831,0.00562674,0.61544252,0.01075088,0.00741872,0
 .00874113,0.01349901,0.00903993,-0.09655587,0.02987428,-0.02766368,0.5
 1023535,0.01231067,0.00731496,-0.00847944,-0.34824719,0.17500393,-0.02
 845494,-0.04088504,0.04179871,-0.00280855,0.48918649,0.03600168,-0.049
 08059,0.02072838,0.21714104,-0.31527035,0.05683790,0.01295888,0.001042
 08,0.00391163,-0.09478489,0.74117719,-0.01550358,0.02044125,0.00120919
 ,-0.04207906,0.05951035,-0.08125773,0.00739327,0.00133412,0.03733427,-
 0.01012499,-0.20178219,0.11639785,-0.04297671,-0.00631267,-0.04024572,
 -0.00063312,0.00553378,0.00853628,-0.00191817,-0.00059362,-0.00073760,
 0.00087640,-0.00012869,0.00085682,0.04672066,-0.00350848,-0.03769290,0
 .00843138,0.00667170,0.00073256,0.03283782,-0.00088383,-0.00114777,-0.
 00263888,-0.00024008,-0.00407026,-0.00008703,0.00127425,0.04241322,-0.
 04429633,0.00019859,-0.29263658,-0.00144724,0.00715016,-0.01777512,-0.
 00154228,0.00174005,0.00158665,0.00319907,-0.00333048,0.00080938,0.045
 52783,-0.00577054,0.32260515,-0.32025198,-0.03783413,-0.04692483,-0.00
 909586,-0.00346160,0.00015258,0.00135802,-0.00159082,-0.00089075,0.000
 39781,0.00307751,-0.00047572,-0.00294925,0.00016502,0.00030268,0.34061
 173,-0.03198896,-0.05776852,-0.00621822,-0.03436927,-0.00375781,-0.008
 05035,0.00051343,-0.00340656,0.00293492,0.00108135,0.00142169,-0.00018
 430,0.00180849,-0.00048659,-0.00031209,0.04236894,0.05780546,-0.049467
 47,-0.00947274,-0.04987240,0.01638589,0.00535138,-0.00187586,-0.000649
 11,0.00416166,0.00109076,0.00043564,-0.00246725,-0.00015028,-0.0298302
 6,-0.00512386,-0.00325102,0.05038340,0.00440360,0.05293106,-0.13941626
 ,0.11056121,0.06439694,0.00605620,-0.00254748,-0.01162385,-0.00094882,
 0.00020846,0.00204233,0.00172072,-0.00417490,0.00314939,0.00126890,-0.
 00342564,-0.00207003,-0.01035293,0.02153252,0.01207152,0.14105830,0.10
 921256,-0.19527743,-0.08022653,0.01843539,-0.02152445,-0.01370471,0.00
 041113,0.00222145,0.00124552,-0.00274103,-0.00496977,0.00161942,-0.000
 54745,0.00125769,0.00053363,-0.00325608,0.00627601,0.00388366,-0.12179
 150,0.21254292,0.06231707,-0.08443725,-0.07750001,-0.00943137,0.013588
 78,0.00199748,-0.00017297,0.00005370,-0.00040213,0.00170486,0.00318883
 ,-0.00085662,0.01692071,-0.02446828,-0.01201184,-0.00309921,0.00650115
 ,0.00140209,-0.06788742,0.08498276,0.08824086,0.00198758,0.00070639,0.
 00218288,-0.01987900,0.01584624,-0.02624936,-0.13402101,0.06073288,-0.
 11384595,-0.00552317,-0.00045986,0.00413462,-0.00066723,-0.00064287,0.
 00044627,0.00014228,0.00046960,0.00008753,-0.00003491,-0.00017101,-0.0
 0025958,0.14794168,-0.00068926,-0.00043038,0.00221024,0.00519249,0.000
 59035,-0.01042412,0.05941625,-0.09616018,0.08793091,-0.00246694,0.0040
 1146,0.00221159,-0.00071034,-0.00025880,-0.00048890,0.00030256,-0.0000
 6971,-0.00034441,-0.00007675,-0.00023227,-0.00045372,-0.06961394,0.097
 39797,0.00066205,0.00015996,-0.00059639,0.00599609,-0.00536854,0.00629
 898,-0.11652232,0.08652680,-0.17669084,0.00389592,-0.00101809,-0.00253
 195,0.00042388,0.00031689,0.00032081,-0.00005370,-0.00012491,0.0000292
 3,-0.00045388,-0.00019277,0.00011244,0.12153014,-0.09093308,0.19269307
 ,-0.00085365,-0.00131002,-0.00294232,-0.00875565,0.01820843,0.03259938
 ,-0.05409105,0.02653911,0.06085228,-0.00425160,-0.00250123,-0.00658599
 ,0.00054926,0.00084228,-0.00043998,0.00013076,-0.00052638,-0.00040512,
 -0.00030002,-0.00067619,0.00035110,0.00554789,-0.00842159,-0.01695812,
 0.06075622,-0.00029081,-0.00219896,0.00092463,0.00788440,0.00107301,0.
 00506986,0.02032900,-0.09344350,-0.10314458,-0.00123846,0.00216822,-0.
 00063790,-0.00059530,0.00026766,-0.00067602,0.00025950,-0.00049915,-0.
 00048485,-0.00103812,-0.00032901,0.00032844,-0.00329501,0.00436956,0.0
 1124044,-0.03020032,0.10028514,0.00093516,-0.00070990,0.00150714,0.006
 48765,-0.00191174,-0.00788317,0.05462799,-0.10571581,-0.23178217,-0.00
 308178,0.00223195,-0.00190751,-0.00040991,-0.00024855,0.00014931,-0.00
 002123,0.00022492,0.00017153,-0.00028618,0.00051238,0.00004610,0.00614
 037,-0.00979994,-0.01957009,-0.06216578,0.11313830,0.25510404,-0.00462
 647,0.00140669,0.00088029,-0.00691167,-0.03653486,0.00221783,-0.061013
 90,-0.04600742,0.00134716,0.00383592,-0.00001688,0.00103645,-0.0004158
 4,-0.00033931,0.00017306,-0.00017245,-0.00110058,0.00086184,0.00012987
 ,0.00031659,-0.00018034,0.00485738,0.01820974,0.00158934,0.00126385,0.
 00859253,-0.00212738,0.06460698,-0.00033514,0.00128148,-0.00081272,0.0
 0146988,-0.00511317,0.00060904,-0.05089471,-0.31750603,0.02381600,0.00
 118397,0.00338329,-0.00052614,0.00005817,-0.00000604,0.00007897,-0.000
 02867,0.00000167,0.00015281,0.00019506,0.00027482,-0.00003779,-0.00238
 223,-0.00877445,-0.00114887,-0.00215350,-0.01139302,0.00262718,0.05463
 212,0.33744008,0.00291337,-0.00033584,0.00306786,0.00461251,0.00801116
 ,-0.00517487,0.00067556,0.02253262,-0.04554684,-0.00203125,0.00016666,
 -0.00142618,-0.00072398,-0.00048314,0.00014718,0.00006594,0.00064632,-
 0.00010187,-0.00033973,0.00017997,-0.00014051,0.00632938,0.02004045,-0
 .00033352,-0.00624661,-0.02554316,0.00377997,-0.00499760,-0.02480242,0
 .04466115,-0.00317778,0.00278670,0.00022043,0.01505163,0.03467194,-0.0
 1238252,0.00046800,0.00401627,-0.00008311,-0.10942102,-0.16711267,0.05
 819880,0.00014510,0.00008697,0.00014695,0.00018187,0.00021086,0.000126
 15,0.00081896,0.00080760,-0.00026285,-0.00035148,-0.00114222,-0.000109
 42,0.00000398,-0.00040740,-0.00009891,-0.00155367,-0.00174494,-0.00025
 758,0.09783440,0.00329034,0.00397042,0.00035633,-0.00324372,-0.0375590
 2,0.01201910,-0.00358086,0.00446748,-0.00285049,-0.12491152,-0.3798129
 7,0.11810082,0.00021337,-0.00100877,0.00087663,-0.00000224,0.00048351,
 -0.00006001,0.00055715,-0.00023995,0.00075338,-0.00119020,-0.00044356,
 0.00054216,0.00019941,-0.00029995,-0.00034880,0.00084139,0.00041137,-0
 .00041263,0.12782690,0.41003143,-0.00154911,0.00368557,0.01279265,-0.0
 0075617,0.00889817,-0.00217062,0.00016986,-0.00359943,-0.00801032,0.04
 574546,0.12153263,-0.06762043,-0.00031806,-0.00276582,0.00005607,0.000
 56084,0.00017894,-0.00037325,0.00100091,0.00116666,-0.00088786,-0.0004
 9630,0.00005097,0.00026826,0.00194115,-0.00021514,0.00038485,-0.000800
 65,0.00004394,0.00106763,-0.04549793,-0.12897649,0.06449301\\-0.000007
 56,0.00000811,-0.00001729,-0.00002466,-0.00000953,0.00001726,0.0000108
 4,-0.00001371,-0.00002488,0.00001482,0.00000363,-0.00000009,0.00000467
 ,-0.00000429,0.00000513,0.00000079,-0.00000131,0.00000239,0.00000485,-
 0.00000073,0.00000508,-0.00000038,0.00000784,0.00000466,0.00000031,0.0
 0000771,0.00000478,0.00000048,0.00000400,0.00000403,-0.00000415,-0.000
 00172,-0.00000109\\\@


 GARBAGE IN, GARBAGE OUT
 Job cpu time:       0 days  0 hours  7 minutes 50.7 seconds.
 Elapsed time:       0 days  0 hours  0 minutes 20.2 seconds.
 File lengths (MBytes):  RWF=     23 Int=      0 D2E=      0 Chk=      3 Scr=      1
 Normal termination of Gaussian 16 at Sun Oct 13 20:09:31 2019.
real 77.38
user 1512.37
sys 20.21
Machine:
brown-a477
brown-a477
brown-a477
brown-a477
brown-a477
brown-a477
brown-a477
brown-a477
brown-a477
brown-a477
brown-a477
brown-a477
brown-a477
brown-a477
brown-a477
brown-a477
brown-a477
brown-a477
brown-a477
brown-a477
brown-a477
brown-a477
brown-a477
brown-a477
