Title Card Required                                                     
Freq      RM062X                                                      6-311++G(d,p)       
Number of atoms                            I               11
Info1-9                                    I   N=           9
          32          32        1002           0           0         100
           6          18        -502
Full Title                                 C   N=           2
Title Card Required     
Route                                      C   N=           6
#P opt freq m062x/6-311++g(d,p) geom=connectivity temperatur
e=0.001     
Charge                                     I                1
Multiplicity                               I                1
Number of electrons                        I               32
Number of alpha electrons                  I               16
Number of beta electrons                   I               16
Number of basis functions                  I              137
Number of independent functions            I              137
Number of point charges in /Mol/           I                0
Number of translation vectors              I                0
Atomic numbers                             I   N=          11
           6           6           6           8           1           1
           1           1           1           1           1
Nuclear charges                            R   N=          11
  6.00000000E+00  6.00000000E+00  6.00000000E+00  8.00000000E+00  1.00000000E+00
  1.00000000E+00  1.00000000E+00  1.00000000E+00  1.00000000E+00  1.00000000E+00
  1.00000000E+00
Current cartesian coordinates              R   N=          33
 -2.54322249E+00 -1.00754030E+00 -1.54581269E-02 -9.53448808E-03  1.20945093E-01
 -2.47541033E-03  2.30702977E+00 -1.41984101E+00  1.20543126E-02  7.45355860E-02
  2.51815671E+00 -9.18684059E-03 -2.95506799E+00 -1.53772060E+00  1.95301306E+00
 -3.96849170E+00  3.30984609E-01 -6.52114195E-01 -2.55828543E+00 -2.75197279E+00
 -1.11450175E+00  2.05675016E+00 -3.05898023E+00  1.24103294E+00  2.53933939E+00
 -2.16217808E+00 -1.91442588E+00  3.99243561E+00 -3.57394862E-01  5.35022214E-01
  1.77139852E+00  3.23062560E+00  6.07436882E-02
Number of symbols in /Mol/                 I                0
Force Field                                I                0
Atom Types                                 C   N=          11
                                                            
                                                            
            
Int Atom Types                             I   N=          11
           0           0           0           0           0           0
           0           0           0           0           0
MM charges                                 R   N=          11
  0.00000000E+00  0.00000000E+00  0.00000000E+00  0.00000000E+00  0.00000000E+00
  0.00000000E+00  0.00000000E+00  0.00000000E+00  0.00000000E+00  0.00000000E+00
  0.00000000E+00
Integer atomic weights                     I   N=          11
          12          12          12          16           1           1
           1           1           1           1           1
Real atomic weights                        R   N=          11
  1.20000000E+01  1.20000000E+01  1.20000000E+01  1.59949146E+01  1.00782504E+00
  1.00782504E+00  1.00782504E+00  1.00782504E+00  1.00782504E+00  1.00782504E+00
  1.00782504E+00
Atom fragment info                         I   N=          11
           0           0           0           0           0           0
           0           0           0           0           0
Atom residue num                           I   N=          11
           0           0           0           0           0           0
           0           0           0           0           0
Nuclear spins                              I   N=          11
           0           0           0           0           1           1
           1           1           1           1           1
Nuclear ZEff                               R   N=          11
 -3.60000000E+00 -3.60000000E+00 -3.60000000E+00 -5.60000000E+00 -1.00000000E+00
 -1.00000000E+00 -1.00000000E+00 -1.00000000E+00 -1.00000000E+00 -1.00000000E+00
 -1.00000000E+00
Nuclear ZNuc                               R   N=          11
  6.00000000E+00  6.00000000E+00  6.00000000E+00  8.00000000E+00  1.00000000E+00
  1.00000000E+00  1.00000000E+00  1.00000000E+00  1.00000000E+00  1.00000000E+00
  1.00000000E+00
Nuclear QMom                               R   N=          11
  0.00000000E+00  0.00000000E+00  0.00000000E+00  0.00000000E+00  0.00000000E+00
  0.00000000E+00  0.00000000E+00  0.00000000E+00  0.00000000E+00  0.00000000E+00
  0.00000000E+00
Nuclear GFac                               R   N=          11
  0.00000000E+00  0.00000000E+00  0.00000000E+00  0.00000000E+00  2.79284600E+00
  2.79284600E+00  2.79284600E+00  2.79284600E+00  2.79284600E+00  2.79284600E+00
  2.79284600E+00
MicOpt                                     I   N=          11
          -1          -1          -1          -1          -1          -1
          -1          -1          -1          -1          -1
Number of residues                         I                0
Number of secondary structures             I                0
Redundant internal dimensions              I   N=           4
          40          10          16          14
Redundant internal coordinate indices      I   N=         160
           1           2           0           0           1           5
           0           0           1           6           0           0
           1           7           0           0           2           3
           0           0           2           4           0           0
           3           8           0           0           3           9
           0           0           3          10           0           0
           4          11           0           0           2           1
           5           0           2           1           6           0
           2           1           7           0           5           1
           6           0           5           1           7           0
           6           1           7           0           1           2
           3           0           1           2           4           0
           3           2           4           0           2           3
           8           0           2           3           9           0
           2           3          10           0           8           3
           9           0           8           3          10           0
           9           3          10           0           2           4
          11           0           5           1           2           3
           5           1           2           4           6           1
           2           3           6           1           2           4
           7           1           2           3           7           1
           2           4           1           2           3           8
           1           2           3           9           1           2
           3          10           4           2           3           8
           4           2           3           9           4           2
           3          10           1           2           4          11
           3           2           4          11
Redundant internal coordinates             R   N=          40
  2.77366593E+00  2.07980448E+00  2.05630061E+00  2.06183619E+00  2.78221187E+00
  2.39869472E+00  2.06392968E+00  2.07758466E+00  2.05982526E+00  1.84169650E+00
  1.85477127E+00  1.94955163E+00  1.93199203E+00  1.89834356E+00  1.86229172E+00
  1.96127556E+00  2.13566142E+00  2.02484572E+00  2.12267605E+00  1.91979771E+00
  1.86098905E+00  1.97900264E+00  1.85661090E+00  1.93657520E+00  1.90522470E+00
  2.00292115E+00  1.40825444E+00 -1.73551972E+00 -2.80705315E+00  3.32357994E-01
 -6.07346217E-01  2.53206493E+00 -6.86058696E-01  1.32015193E+00 -2.86589731E+00
  2.45783622E+00 -1.81913846E+00  2.77997610E-01  3.10504842E+00 -3.87081161E-02
ZRed-IntVec                                I   N=          40
           0           0           0           0           0           0
           0           0           0           0           0           0
           0           0           0           0           0           0
           0           0           0           0           0           0
           0           0           0           0           0           0
           0           0           0           0           0           0
           0           0           0           0
ZRed-FPVec                                 R   N=          40
  0.00000000E+00  0.00000000E+00  0.00000000E+00  0.00000000E+00  0.00000000E+00
  0.00000000E+00  0.00000000E+00  0.00000000E+00  0.00000000E+00  0.00000000E+00
  0.00000000E+00  0.00000000E+00  0.00000000E+00  0.00000000E+00  0.00000000E+00
  0.00000000E+00  0.00000000E+00  0.00000000E+00  0.00000000E+00  0.00000000E+00
  0.00000000E+00  0.00000000E+00  0.00000000E+00  0.00000000E+00  0.00000000E+00
  0.00000000E+00  0.00000000E+00  0.00000000E+00  0.00000000E+00  0.00000000E+00
  0.00000000E+00  0.00000000E+00  0.00000000E+00  0.00000000E+00  0.00000000E+00
  0.00000000E+00  0.00000000E+00  0.00000000E+00  0.00000000E+00  0.00000000E+00
ZRed-Constraint1                           R   N=          40
  2.77366593E+00  2.07980448E+00  2.05630061E+00  2.06183619E+00  2.78221187E+00
  2.39869472E+00  2.06392968E+00  2.07758466E+00  2.05982526E+00  1.84169650E+00
  1.85477127E+00  1.94955163E+00  1.93199203E+00  1.89834356E+00  1.86229172E+00
  1.96127556E+00  2.13566142E+00  2.02484572E+00  2.12267605E+00  1.91979771E+00
  1.86098905E+00  1.97900264E+00  1.85661090E+00  1.93657520E+00  1.90522470E+00
  2.00292115E+00  1.40825444E+00 -1.73551972E+00 -2.80705315E+00  3.32357994E-01
 -6.07346217E-01  2.53206493E+00 -6.86058696E-01  1.32015193E+00 -2.86589731E+00
  2.45783622E+00 -1.81913846E+00  2.77997610E-01  3.10504842E+00 -3.87081161E-02
ZRed-Constraint2                           R   N=          40
  2.78785094E+00  2.05976473E+00  2.05975333E+00  2.05991161E+00  2.78927910E+00
  2.36876359E+00  2.05978013E+00  2.05991820E+00  2.05973119E+00  1.81413709E+00
  1.91067830E+00  1.91063680E+00  1.91062050E+00  1.91065873E+00  1.91060901E+00
  1.91059608E+00  2.12671798E+00  2.07871409E+00  2.07775322E+00  1.91068521E+00
  1.91055014E+00  1.91060148E+00  1.91062251E+00  1.91077554E+00  1.91056453E+00
  2.09439510E+00  1.70063180E+00 -1.44079800E+00 -2.48809740E+00  6.53658112E-01
 -3.93753425E-01  2.74800209E+00 -1.39816872E+00  6.96194182E-01  2.79043482E+00
  1.74326116E+00 -2.44556125E+00 -3.51320606E-01  2.85823065E+00 -2.83203760E-01
SymInf integers                            I   N=          26
           1           1           1           1           1           0
           0           0           0           0           0           0
           0           0           0           0           0           0
           0           0           0           0           0           0
           0           0
RotTr to input orientation                 R   N=          12
  6.65162919E-01  6.79637326E-01 -3.09275600E-01 -7.37987224E-01  6.61444041E-01
 -1.33666145E-01  1.13724001E-01  3.17151205E-01  9.41531712E-01  3.45126614E-01
 -1.69356171E-01 -3.80820381E-01
Number of contracted shells                I               59
Number of primitive shells                 I              101
Pure/Cartesian d shells                    I                0
Pure/Cartesian f shells                    I                0
Highest angular momentum                   I                2
Largest degree of contraction              I                6
Shell types                                I   N=          59
           0          -1          -1          -1          -1          -2
           0          -1          -1          -1          -1          -2
           0          -1          -1          -1          -1          -2
           0          -1          -1          -1          -1          -2
           0           0           0           0           1           0
           0           0           0           1           0           0
           0           0           1           0           0           0
           0           1           0           0           0           0
           1           0           0           0           0           1
           0           0           0           0           1
Number of primitives per shell             I   N=          59
           6           3           1           1           1           1
           6           3           1           1           1           1
           6           3           1           1           1           1
           6           3           1           1           1           1
           3           1           1           1           1           3
           1           1           1           1           3           1
           1           1           1           3           1           1
           1           1           3           1           1           1
           1           3           1           1           1           1
           3           1           1           1           1
Shell to atom map                          I   N=          59
           1           1           1           1           1           1
           2           2           2           2           2           2
           3           3           3           3           3           3
           4           4           4           4           4           4
           5           5           5           5           5           6
           6           6           6           6           7           7
           7           7           7           8           8           8
           8           8           9           9           9           9
           9          10          10          10          10          10
          11          11          11          11          11
Primitive exponents                        R   N=         101
  4.56324000E+03  6.82024000E+02  1.54973000E+02  4.44553000E+01  1.30290000E+01
  1.82773000E+00  2.09642000E+01  4.80331000E+00  1.45933000E+00  4.83456000E-01
  1.45585000E-01  4.38000000E-02  6.26000000E-01  4.56324000E+03  6.82024000E+02
  1.54973000E+02  4.44553000E+01  1.30290000E+01  1.82773000E+00  2.09642000E+01
  4.80331000E+00  1.45933000E+00  4.83456000E-01  1.45585000E-01  4.38000000E-02
  6.26000000E-01  4.56324000E+03  6.82024000E+02  1.54973000E+02  4.44553000E+01
  1.30290000E+01  1.82773000E+00  2.09642000E+01  4.80331000E+00  1.45933000E+00
  4.83456000E-01  1.45585000E-01  4.38000000E-02  6.26000000E-01  8.58850000E+03
  1.29723000E+03  2.99296000E+02  8.73771000E+01  2.56789000E+01  3.74004000E+00
  4.21175000E+01  9.62837000E+00  2.85332000E+00  9.05661000E-01  2.55611000E-01
  8.45000000E-02  1.29200000E+00  3.38650000E+01  5.09479000E+00  1.15879000E+00
  3.25840000E-01  1.02741000E-01  3.60000000E-02  7.50000000E-01  3.38650000E+01
  5.09479000E+00  1.15879000E+00  3.25840000E-01  1.02741000E-01  3.60000000E-02
  7.50000000E-01  3.38650000E+01  5.09479000E+00  1.15879000E+00  3.25840000E-01
  1.02741000E-01  3.60000000E-02  7.50000000E-01  3.38650000E+01  5.09479000E+00
  1.15879000E+00  3.25840000E-01  1.02741000E-01  3.60000000E-02  7.50000000E-01
  3.38650000E+01  5.09479000E+00  1.15879000E+00  3.25840000E-01  1.02741000E-01
  3.60000000E-02  7.50000000E-01  3.38650000E+01  5.09479000E+00  1.15879000E+00
  3.25840000E-01  1.02741000E-01  3.60000000E-02  7.50000000E-01  3.38650000E+01
  5.09479000E+00  1.15879000E+00  3.25840000E-01  1.02741000E-01  3.60000000E-02
  7.50000000E-01
Contraction coefficients                   R   N=         101
  1.96665025E-03  1.52306019E-02  7.61269097E-02  2.60801033E-01  6.16462078E-01
  2.21006028E-01  1.14660081E-01  9.19999648E-01 -3.03068213E-03  1.00000000E+00
  1.00000000E+00  1.00000000E+00  1.00000000E+00  1.96665025E-03  1.52306019E-02
  7.61269097E-02  2.60801033E-01  6.16462078E-01  2.21006028E-01  1.14660081E-01
  9.19999648E-01 -3.03068213E-03  1.00000000E+00  1.00000000E+00  1.00000000E+00
  1.00000000E+00  1.96665025E-03  1.52306019E-02  7.61269097E-02  2.60801033E-01
  6.16462078E-01  2.21006028E-01  1.14660081E-01  9.19999648E-01 -3.03068213E-03
  1.00000000E+00  1.00000000E+00  1.00000000E+00  1.00000000E+00  1.89515008E-03
  1.43859006E-02  7.07320031E-02  2.40001011E-01  5.94797026E-01  2.80802012E-01
  1.13889012E-01  9.20811101E-01 -3.27447036E-03  1.00000000E+00  1.00000000E+00
  1.00000000E+00  1.00000000E+00  2.54938145E-02  1.90373109E-01  8.52161486E-01
  1.00000000E+00  1.00000000E+00  1.00000000E+00  1.00000000E+00  2.54938145E-02
  1.90373109E-01  8.52161486E-01  1.00000000E+00  1.00000000E+00  1.00000000E+00
  1.00000000E+00  2.54938145E-02  1.90373109E-01  8.52161486E-01  1.00000000E+00
  1.00000000E+00  1.00000000E+00  1.00000000E+00  2.54938145E-02  1.90373109E-01
  8.52161486E-01  1.00000000E+00  1.00000000E+00  1.00000000E+00  1.00000000E+00
  2.54938145E-02  1.90373109E-01  8.52161486E-01  1.00000000E+00  1.00000000E+00
  1.00000000E+00  1.00000000E+00  2.54938145E-02  1.90373109E-01  8.52161486E-01
  1.00000000E+00  1.00000000E+00  1.00000000E+00  1.00000000E+00  2.54938145E-02
  1.90373109E-01  8.52161486E-01  1.00000000E+00  1.00000000E+00  1.00000000E+00
  1.00000000E+00
P(S=P) Contraction coefficients            R   N=         101
  0.00000000E+00  0.00000000E+00  0.00000000E+00  0.00000000E+00  0.00000000E+00
  0.00000000E+00  4.02486927E-02  2.37593957E-01  8.15853851E-01  1.00000000E+00
  1.00000000E+00  1.00000000E+00  0.00000000E+00  0.00000000E+00  0.00000000E+00
  0.00000000E+00  0.00000000E+00  0.00000000E+00  0.00000000E+00  4.02486927E-02
  2.37593957E-01  8.15853851E-01  1.00000000E+00  1.00000000E+00  1.00000000E+00
  0.00000000E+00  0.00000000E+00  0.00000000E+00  0.00000000E+00  0.00000000E+00
  0.00000000E+00  0.00000000E+00  4.02486927E-02  2.37593957E-01  8.15853851E-01
  1.00000000E+00  1.00000000E+00  1.00000000E+00  0.00000000E+00  0.00000000E+00
  0.00000000E+00  0.00000000E+00  0.00000000E+00  0.00000000E+00  0.00000000E+00
  3.65113974E-02  2.37152983E-01  8.19701941E-01  1.00000000E+00  1.00000000E+00
  1.00000000E+00  0.00000000E+00  0.00000000E+00  0.00000000E+00  0.00000000E+00
  0.00000000E+00  0.00000000E+00  0.00000000E+00  0.00000000E+00  0.00000000E+00
  0.00000000E+00  0.00000000E+00  0.00000000E+00  0.00000000E+00  0.00000000E+00
  0.00000000E+00  0.00000000E+00  0.00000000E+00  0.00000000E+00  0.00000000E+00
  0.00000000E+00  0.00000000E+00  0.00000000E+00  0.00000000E+00  0.00000000E+00
  0.00000000E+00  0.00000000E+00  0.00000000E+00  0.00000000E+00  0.00000000E+00
  0.00000000E+00  0.00000000E+00  0.00000000E+00  0.00000000E+00  0.00000000E+00
  0.00000000E+00  0.00000000E+00  0.00000000E+00  0.00000000E+00  0.00000000E+00
  0.00000000E+00  0.00000000E+00  0.00000000E+00  0.00000000E+00  0.00000000E+00
  0.00000000E+00  0.00000000E+00  0.00000000E+00  0.00000000E+00  0.00000000E+00
  0.00000000E+00
Coordinates of each shell                  R   N=         177
 -2.54322249E+00 -1.00754030E+00 -1.54581269E-02 -2.54322249E+00 -1.00754030E+00
 -1.54581269E-02 -2.54322249E+00 -1.00754030E+00 -1.54581269E-02 -2.54322249E+00
 -1.00754030E+00 -1.54581269E-02 -2.54322249E+00 -1.00754030E+00 -1.54581269E-02
 -2.54322249E+00 -1.00754030E+00 -1.54581269E-02 -9.53448808E-03  1.20945093E-01
 -2.47541033E-03 -9.53448808E-03  1.20945093E-01 -2.47541033E-03 -9.53448808E-03
  1.20945093E-01 -2.47541033E-03 -9.53448808E-03  1.20945093E-01 -2.47541033E-03
 -9.53448808E-03  1.20945093E-01 -2.47541033E-03 -9.53448808E-03  1.20945093E-01
 -2.47541033E-03  2.30702977E+00 -1.41984101E+00  1.20543126E-02  2.30702977E+00
 -1.41984101E+00  1.20543126E-02  2.30702977E+00 -1.41984101E+00  1.20543126E-02
  2.30702977E+00 -1.41984101E+00  1.20543126E-02  2.30702977E+00 -1.41984101E+00
  1.20543126E-02  2.30702977E+00 -1.41984101E+00  1.20543126E-02  7.45355860E-02
  2.51815671E+00 -9.18684059E-03  7.45355860E-02  2.51815671E+00 -9.18684059E-03
  7.45355860E-02  2.51815671E+00 -9.18684059E-03  7.45355860E-02  2.51815671E+00
 -9.18684059E-03  7.45355860E-02  2.51815671E+00 -9.18684059E-03  7.45355860E-02
  2.51815671E+00 -9.18684059E-03 -2.95506799E+00 -1.53772060E+00  1.95301306E+00
 -2.95506799E+00 -1.53772060E+00  1.95301306E+00 -2.95506799E+00 -1.53772060E+00
  1.95301306E+00 -2.95506799E+00 -1.53772060E+00  1.95301306E+00 -2.95506799E+00
 -1.53772060E+00  1.95301306E+00 -3.96849170E+00  3.30984609E-01 -6.52114195E-01
 -3.96849170E+00  3.30984609E-01 -6.52114195E-01 -3.96849170E+00  3.30984609E-01
 -6.52114195E-01 -3.96849170E+00  3.30984609E-01 -6.52114195E-01 -3.96849170E+00
  3.30984609E-01 -6.52114195E-01 -2.55828543E+00 -2.75197279E+00 -1.11450175E+00
 -2.55828543E+00 -2.75197279E+00 -1.11450175E+00 -2.55828543E+00 -2.75197279E+00
 -1.11450175E+00 -2.55828543E+00 -2.75197279E+00 -1.11450175E+00 -2.55828543E+00
 -2.75197279E+00 -1.11450175E+00  2.05675016E+00 -3.05898023E+00  1.24103294E+00
  2.05675016E+00 -3.05898023E+00  1.24103294E+00  2.05675016E+00 -3.05898023E+00
  1.24103294E+00  2.05675016E+00 -3.05898023E+00  1.24103294E+00  2.05675016E+00
 -3.05898023E+00  1.24103294E+00  2.53933939E+00 -2.16217808E+00 -1.91442588E+00
  2.53933939E+00 -2.16217808E+00 -1.91442588E+00  2.53933939E+00 -2.16217808E+00
 -1.91442588E+00  2.53933939E+00 -2.16217808E+00 -1.91442588E+00  2.53933939E+00
 -2.16217808E+00 -1.91442588E+00  3.99243561E+00 -3.57394862E-01  5.35022214E-01
  3.99243561E+00 -3.57394862E-01  5.35022214E-01  3.99243561E+00 -3.57394862E-01
  5.35022214E-01  3.99243561E+00 -3.57394862E-01  5.35022214E-01  3.99243561E+00
 -3.57394862E-01  5.35022214E-01  1.77139852E+00  3.23062560E+00  6.07436882E-02
  1.77139852E+00  3.23062560E+00  6.07436882E-02  1.77139852E+00  3.23062560E+00
  6.07436882E-02  1.77139852E+00  3.23062560E+00  6.07436882E-02  1.77139852E+00
  3.23062560E+00  6.07436882E-02
Num ILSW                                   I              100
ILSW                                       I   N=         100
           0           0           0           0           2           0
           0           0           0           0        4336          -1
           5           0           0           0           2           0
           0           0           0           0           1           0
           1           0           0           0           0           0
           0           0      100000           0          -1           0
           0           0           0           0           0           0
           0           0           0           1           0           0
           0 -2000000000           1           0           0           0
           0           0           4          52           0           0
           0           0          55           0           0           0
           0           0           0          11           0           1
           0           0           0           0           0           0
           0           0           0           0           0           0
           0           0           0           0           0           0
           0           0           0           0           0           0
           0           0           0           0
Num RLSW                                   I               52
RLSW                                       R   N=          52
  1.00000000E+00  1.00000000E+00  1.00000000E+00  1.00000000E+00  5.40000000E-01
  0.00000000E+00  0.00000000E+00  1.00000000E+00  0.00000000E+00  0.00000000E+00
  0.00000000E+00  0.00000000E+00  1.00000000E+00  0.00000000E+00  0.00000000E+00
  0.00000000E+00  0.00000000E+00  1.00000000E+00  0.00000000E+00  0.00000000E+00
  0.00000000E+00  0.00000000E+00  1.00000000E+00  0.00000000E+00  0.00000000E+00
  0.00000000E+00  0.00000000E+00  1.00000000E+00  0.00000000E+00  0.00000000E+00
  0.00000000E+00  0.00000000E+00  1.00000000E+00  0.00000000E+00  0.00000000E+00
  0.00000000E+00  0.00000000E+00  0.00000000E+00  1.00000000E+00  1.00000000E+00
  0.00000000E+00  1.00000000E+00  0.00000000E+00  0.00000000E+00  0.00000000E+00
  0.00000000E+00  0.00000000E+00  0.00000000E+00  0.00000000E+00  0.00000000E+00
  0.00000000E+00  0.00000000E+00
MxBond                                     I                4
NBond                                      I   N=          11
           4           3           4           2           1           1
           1           1           1           1           1
IBond                                      I   N=          44
           2           5           6           7           1           3
           4           0           2           8           9          10
           2          11           0           0           1           0
           0           0           1           0           0           0
           1           0           0           0           3           0
           0           0           3           0           0           0
           3           0           0           0           4           0
           0           0
RBond                                      R   N=          44
  1.00000000E+00  1.00000000E+00  1.00000000E+00  1.00000000E+00  1.00000000E+00
  1.00000000E+00  2.00000000E+00  0.00000000E+00  1.00000000E+00  1.00000000E+00
  1.00000000E+00  1.00000000E+00  2.00000000E+00  1.00000000E+00  0.00000000E+00
  0.00000000E+00  1.00000000E+00  0.00000000E+00  0.00000000E+00  0.00000000E+00
  1.00000000E+00  0.00000000E+00  0.00000000E+00  0.00000000E+00  1.00000000E+00
  0.00000000E+00  0.00000000E+00  0.00000000E+00  1.00000000E+00  0.00000000E+00
  0.00000000E+00  0.00000000E+00  1.00000000E+00  0.00000000E+00  0.00000000E+00
  0.00000000E+00  1.00000000E+00  0.00000000E+00  0.00000000E+00  0.00000000E+00
  1.00000000E+00  0.00000000E+00  0.00000000E+00  0.00000000E+00
Virial Ratio                               R      2.003724158271855E+00
SCF Energy                                 R     -1.934384536537804E+02
Total Energy                               R     -1.934384536537804E+02
RMS Force                                  R      9.405553564237296E-06
RMS Density                                R      6.468361506908977E-10
NImag                                      I                0
Job Status                                 I                1
Nuclear derivative order                   I                2
External E-field                           R   N=          35
  0.00000000E+00  0.00000000E+00  0.00000000E+00  0.00000000E+00  0.00000000E+00
  0.00000000E+00  0.00000000E+00  0.00000000E+00  0.00000000E+00  0.00000000E+00
  0.00000000E+00  0.00000000E+00  0.00000000E+00  0.00000000E+00  0.00000000E+00
  0.00000000E+00  0.00000000E+00  0.00000000E+00  0.00000000E+00  0.00000000E+00
  0.00000000E+00  0.00000000E+00  0.00000000E+00  0.00000000E+00  0.00000000E+00
  0.00000000E+00  0.00000000E+00  0.00000000E+00  0.00000000E+00  0.00000000E+00
  0.00000000E+00  0.00000000E+00  0.00000000E+00  0.00000000E+00  0.00000000E+00
IOpCl                                      I                0
IROHF                                      I                0
Alpha Orbital Energies                     R   N=         137
 -1.99494209E+01 -1.09206166E+01 -1.07675569E+01 -1.07539026E+01 -1.50042141E+00
 -1.13427376E+00 -1.04515665E+00 -9.62577203E-01 -8.30264942E-01 -7.91200732E-01
 -7.88674793E-01 -6.97349483E-01 -6.87367079E-01 -6.77293170E-01 -6.74360596E-01
 -6.59652617E-01 -2.53079614E-01 -1.67568683E-01 -1.29409386E-01 -1.09338597E-01
 -1.07702981E-01 -9.23113133E-02 -8.89806740E-02 -7.92334639E-02 -6.86690908E-02
 -6.44650292E-02 -5.64149396E-02 -3.55685734E-02 -2.92938993E-02 -1.88615624E-02
 -1.26833654E-02 -9.17799059E-03  1.71840309E-03  1.77322591E-02  2.12344728E-02
  2.69323949E-02  3.12897330E-02  4.60979063E-02  5.42100790E-02  6.38781570E-02
  7.16422752E-02  8.08627911E-02  9.46179922E-02  1.18301484E-01  1.20125076E-01
  1.58327353E-01  1.77718768E-01  1.86824840E-01  2.05336322E-01  2.31842149E-01
  2.69094616E-01  3.02387874E-01  3.12015851E-01  3.32381138E-01  3.61874216E-01
  3.84708363E-01  4.00190783E-01  4.04166728E-01  4.84229193E-01  4.88858108E-01
  4.91918842E-01  5.01840476E-01  5.12583547E-01  5.19022196E-01  5.67717282E-01
  6.00417019E-01  6.51759791E-01  6.90594799E-01  7.81792440E-01  8.05761296E-01
  8.60006148E-01  8.82277557E-01  9.44327357E-01  1.02267180E+00  1.07373922E+00
  1.13453179E+00  1.19033991E+00  1.24546567E+00  1.27345509E+00  1.28551879E+00
  1.30997751E+00  1.33716525E+00  1.37281312E+00  1.38280815E+00  1.39662226E+00
  1.41481958E+00  1.44256264E+00  1.48450826E+00  1.51007786E+00  1.54091111E+00
  1.58162292E+00  1.59947219E+00  1.66329988E+00  1.72690684E+00  1.76923337E+00
  1.84617616E+00  1.85839563E+00  1.90439717E+00  1.93693343E+00  2.01601290E+00
  2.11196394E+00  2.12166638E+00  2.26373479E+00  2.29378438E+00  2.30844018E+00
  2.31681407E+00  2.32933868E+00  2.35591722E+00  2.36943256E+00  2.40106078E+00
  2.41391189E+00  2.44474947E+00  2.47538168E+00  2.59760110E+00  2.61165829E+00
  2.73431107E+00  2.76770334E+00  2.87423981E+00  2.91266891E+00  2.95429765E+00
  3.05188330E+00  3.21703088E+00  3.38670138E+00  3.57265874E+00  3.59992631E+00
  3.64371646E+00  3.68889863E+00  3.78634241E+00  3.91755145E+00  4.09672463E+00
  4.83506880E+00  5.24704239E+00  5.60127519E+00  2.36037621E+01  2.38142256E+01
  2.38506981E+01  4.97478126E+01
Alpha MO coefficients                      R   N=       18769
 -4.32742481E-06  2.27289248E-05  3.28233788E-05  3.02390191E-05  7.24713952E-06
 -1.11383581E-04 -2.56460619E-04 -1.96975947E-04 -2.63037256E-05  5.20867570E-04
  4.79932239E-04 -6.25976115E-04  7.11439263E-05  1.64681010E-03  4.51247220E-04