 Entering Gaussian System, Link 0=/apps/cent7/gaussian/g16-A.03/g16-haswell/g16/g16
 Initial command:
 /apps/cent7/gaussian/g16-A.03/g16-haswell/g16/l1.exe "/scratch/brown/finej/gaussian/Gau-85676.inp" -scrdir="/scratch/brown/finej/gaussian/"
 Entering Link 1 = /apps/cent7/gaussian/g16-A.03/g16-haswell/g16/l1.exe PID=     85678.
  
 Copyright (c) 1988,1990,1992,1993,1995,1998,2003,2009,2016,
            Gaussian, Inc.  All Rights Reserved.
  
 This is part of the Gaussian(R) 16 program.  It is based on
 the Gaussian(R) 09 system (copyright 2009, Gaussian, Inc.),
 the Gaussian(R) 03 system (copyright 2003, Gaussian, Inc.),
 the Gaussian(R) 98 system (copyright 1998, Gaussian, Inc.),
 the Gaussian(R) 94 system (copyright 1995, Gaussian, Inc.),
 the Gaussian 92(TM) system (copyright 1992, Gaussian, Inc.),
 the Gaussian 90(TM) system (copyright 1990, Gaussian, Inc.),
 the Gaussian 88(TM) system (copyright 1988, Gaussian, Inc.),
 the Gaussian 86(TM) system (copyright 1986, Carnegie Mellon
 University), and the Gaussian 82(TM) system (copyright 1983,
 Carnegie Mellon University). Gaussian is a federally registered
 trademark of Gaussian, Inc.
  
 This software contains proprietary and confidential information,
 including trade secrets, belonging to Gaussian, Inc.
  
 This software is provided under written license and may be
 used, copied, transmitted, or stored only in accord with that
 written license.
  
 The following legend is applicable only to US Government
 contracts under FAR:
  
                    RESTRICTED RIGHTS LEGEND
  
 Use, reproduction and disclosure by the US Government is
 subject to restrictions as set forth in subparagraphs (a)
 and (c) of the Commercial Computer Software - Restricted
 Rights clause in FAR 52.227-19.
  
 Gaussian, Inc.
 340 Quinnipiac St., Bldg. 40, Wallingford CT 06492
  
  
 ---------------------------------------------------------------
 Warning -- This program may not be used in any manner that
 competes with the business of Gaussian, Inc. or will provide
 assistance to any competitor of Gaussian, Inc.  The licensee
 of this program is prohibited from giving any competitor of
 Gaussian, Inc. access to this program.  By using this program,
 the user acknowledges that Gaussian, Inc. is engaged in the
 business of creating and licensing software in the field of
 computational chemistry and represents and warrants to the
 licensee that it is not a competitor of Gaussian, Inc. and that
 it will not use this program in any manner prohibited above.
 ---------------------------------------------------------------
  

 Cite this work as:
 Gaussian 16, Revision A.03,
 M. J. Frisch, G. W. Trucks, H. B. Schlegel, G. E. Scuseria, 
 M. A. Robb, J. R. Cheeseman, G. Scalmani, V. Barone, 
 G. A. Petersson, H. Nakatsuji, X. Li, M. Caricato, A. V. Marenich, 
 J. Bloino, B. G. Janesko, R. Gomperts, B. Mennucci, H. P. Hratchian, 
 J. V. Ortiz, A. F. Izmaylov, J. L. Sonnenberg, D. Williams-Young, 
 F. Ding, F. Lipparini, F. Egidi, J. Goings, B. Peng, A. Petrone, 
 T. Henderson, D. Ranasinghe, V. G. Zakrzewski, J. Gao, N. Rega, 
 G. Zheng, W. Liang, M. Hada, M. Ehara, K. Toyota, R. Fukuda, 
 J. Hasegawa, M. Ishida, T. Nakajima, Y. Honda, O. Kitao, H. Nakai, 
 T. Vreven, K. Throssell, J. A. Montgomery, Jr., J. E. Peralta, 
 F. Ogliaro, M. J. Bearpark, J. J. Heyd, E. N. Brothers, K. N. Kudin, 
 V. N. Staroverov, T. A. Keith, R. Kobayashi, J. Normand, 
 K. Raghavachari, A. P. Rendell, J. C. Burant, S. S. Iyengar, 
 J. Tomasi, M. Cossi, J. M. Millam, M. Klene, C. Adamo, R. Cammi, 
 J. W. Ochterski, R. L. Martin, K. Morokuma, O. Farkas, 
 J. B. Foresman, and D. J. Fox, Gaussian, Inc., Wallingford CT, 2016.
 
 ******************************************
 Gaussian 16:  ES64L-G16RevA.03 25-Dec-2016
                13-Oct-2019 
 ******************************************
 %chk=17.chk
 %nprocshared=24
 Will use up to   24 processors via shared memory.
 %mem=80GB
 -------------------------------------------------------------------
 #P opt freq m062x/6-311++g(d,p) geom=connectivity temperature=0.001
 -------------------------------------------------------------------
 1/18=20,19=15,26=3,38=1,57=2,112=-1000/1,3;
 2/9=110,12=2,17=6,18=5,40=1/2;
 3/5=4,6=6,7=1111,11=2,25=1,30=1,71=1,74=-55/1,2,3;
 4//1;
 5/5=2,38=5/2;
 6/7=2,8=2,9=2,10=2,28=1/1;
 7//1,2,3,16;
 1/18=20,19=15,26=3/3(2);
 2/9=110/2;
 99//99;
 2/9=110/2;
 3/5=4,6=6,7=1111,11=2,25=1,30=1,71=1,74=-55/1,2,3;
 4/5=5,16=3,69=1/1;
 5/5=2,38=5/2;
 7//1,2,3,16;
 1/18=20,19=15,26=3/3(-5);
 2/9=110/2;
 6/7=2,8=2,9=2,10=2,19=2,28=1/1;
 99/9=1/99;
 Leave Link    1 at Sun Oct 13 20:20:26 2019, MaxMem= 10737418240 cpu:               1.8 elap:               0.1
 (Enter /apps/cent7/gaussian/g16-A.03/g16-haswell/g16/l101.exe)
 -------------------
 Title Card Required
 -------------------
 Symbolic Z-matrix:
 Charge =  0 Multiplicity = 1
 O                     2.4576    0.2295   -0.0454 
 C                     1.7876   -0.3309   -0.9427 
 O                     1.91      0.11     -2.2228 
 C                     2.6851   -0.5479   -3.2246 
 C                     0.7745   -1.3463   -0.5955 
 C                    -0.5318   -0.6788   -0.0878 
 C                    -1.6572   -1.7033    0.2052 
 C                    -2.9629   -1.0333    0.7163 
 C                    -4.067    -2.0766    1.0353 
 C                    -5.3747   -1.4369    1.5731 
 C                    -6.4657   -2.4915    1.9014 
 C                    -7.7679   -1.8438    2.4423 
 C                    -8.8641   -2.8906    2.7732 
 C                    -10.1633  -2.2332    3.3125 
 C                    -11.262   -3.2766    3.6435 
 C                    -12.5576  -2.6174    4.1811 
 C                    -13.6471  -3.669     4.5078 
 C                    -14.9465  -3.0195    5.0461 
 C                    -16.0348  -4.0751    5.372 
 C                    -17.3387  -3.4332    5.9114 
 C                    -18.4237  -4.4832    6.2365 
 H                     3.4323   -1.1821   -2.7476 
 H                     2.0315   -1.1605   -3.8456 
 H                     3.1833    0.1966   -3.8456 
 H                     0.5377   -1.8539   -1.5306 
 H                     1.1975   -1.9077    0.2375 
 H                    -0.2844   -0.2215    0.8702 
 H                    -0.894    -0.0608   -0.9093 
 H                    -1.906    -2.159    -0.7532 
 H                    -1.2939   -2.3228    1.0252 
 H                    -2.7108   -0.5578    1.6642 
 H                    -3.3416   -0.4329   -0.1109 
 H                    -4.3283   -2.5379    0.0829 
 H                    -3.676    -2.6886    1.8482 
 H                    -5.1133   -0.9672    2.5214 
 H                    -5.7733   -0.8335    0.7576 
 H                    -6.7308   -2.9594    0.9533 
 H                    -6.0674   -3.0972    2.7155 
 H                    -7.5014   -1.3758    3.39 
 H                    -8.1648   -1.2379    1.6278 
 H                    -9.1314   -3.3594    1.8262 
 H                    -8.4689   -3.4962    3.5887 
 H                    -9.8957   -1.7649    4.2597 
 H                    -10.5577  -1.6269    2.497 
 H                    -11.5305  -3.7454    2.6968 
 H                    -10.869   -3.8829    4.4596 
 H                    -12.2916  -2.1491    5.1287 
 H                    -12.9531  -2.0115    3.3658 
 H                    -13.9116  -4.137     3.5596 
 H                    -13.2501  -4.2747    5.3225 
 H                    -14.6823  -2.5515    5.9943 
 H                    -15.3437  -2.4139    4.2314 
 H                    -16.2974  -4.5428    4.4231 
 H                    -15.636   -4.6804    6.186 
 H                    -17.0773  -2.9657    6.8607 
 H                    -17.7388  -2.8281    5.0978 
 H                    -18.5235  -4.5797    7.3177 
 H                    -19.3756  -4.1658    5.8107 
 H                    -18.1378  -5.4449    5.8107 
 
 ITRead=  0  0  0  0  0  0  0  0  0  0  0  0  0  0  0  0  0  0  0  0
 ITRead=  0  0  0  0  0  0  0  0  0  0  0  0  0  0  0  0  0  0  0  0
 ITRead=  0  0  0  0  0  0  0  0  0  0  0  0  0  0  0  0  0  0  0
 MicOpt= -1 -1 -1 -1 -1 -1 -1 -1 -1 -1 -1 -1 -1 -1 -1 -1 -1 -1 -1 -1
 MicOpt= -1 -1 -1 -1 -1 -1 -1 -1 -1 -1 -1 -1 -1 -1 -1 -1 -1 -1 -1 -1
 MicOpt= -1 -1 -1 -1 -1 -1 -1 -1 -1 -1 -1 -1 -1 -1 -1 -1 -1 -1 -1
 NAtoms=     59 NQM=       59 NQMF=       0 NMMI=      0 NMMIF=      0
                NMic=       0 NMicF=      0.
                    Isotopes and Nuclear Properties:
 (Nuclear quadrupole moments (NQMom) in fm**2, nuclear magnetic moments (NMagM)
  in nuclear magnetons)

  Atom         1           2           3           4           5           6           7           8           9          10
 IAtWgt=          16          12          16          12          12          12          12          12          12          12
 AtmWgt=  15.9949146  12.0000000  15.9949146  12.0000000  12.0000000  12.0000000  12.0000000  12.0000000  12.0000000  12.0000000
 NucSpn=           0           0           0           0           0           0           0           0           0           0
 AtZEff=  -0.0000000  -0.0000000  -0.0000000  -0.0000000  -0.0000000  -0.0000000  -0.0000000  -0.0000000  -0.0000000  -0.0000000
 NQMom=    0.0000000   0.0000000   0.0000000   0.0000000   0.0000000   0.0000000   0.0000000   0.0000000   0.0000000   0.0000000
 NMagM=    0.0000000   0.0000000   0.0000000   0.0000000   0.0000000   0.0000000   0.0000000   0.0000000   0.0000000   0.0000000
 AtZNuc=   8.0000000   6.0000000   8.0000000   6.0000000   6.0000000   6.0000000   6.0000000   6.0000000   6.0000000   6.0000000

  Atom        11          12          13          14          15          16          17          18          19          20
 IAtWgt=          12          12          12          12          12          12          12          12          12          12
 AtmWgt=  12.0000000  12.0000000  12.0000000  12.0000000  12.0000000  12.0000000  12.0000000  12.0000000  12.0000000  12.0000000
 NucSpn=           0           0           0           0           0           0           0           0           0           0
 AtZEff=  -0.0000000  -0.0000000  -0.0000000  -0.0000000  -0.0000000  -0.0000000  -0.0000000  -0.0000000  -0.0000000  -0.0000000
 NQMom=    0.0000000   0.0000000   0.0000000   0.0000000   0.0000000   0.0000000   0.0000000   0.0000000   0.0000000   0.0000000
 NMagM=    0.0000000   0.0000000   0.0000000   0.0000000   0.0000000   0.0000000   0.0000000   0.0000000   0.0000000   0.0000000
 AtZNuc=   6.0000000   6.0000000   6.0000000   6.0000000   6.0000000   6.0000000   6.0000000   6.0000000   6.0000000   6.0000000

  Atom        21          22          23          24          25          26          27          28          29          30
 IAtWgt=          12           1           1           1           1           1           1           1           1           1
 AtmWgt=  12.0000000   1.0078250   1.0078250   1.0078250   1.0078250   1.0078250   1.0078250   1.0078250   1.0078250   1.0078250
 NucSpn=           0           1           1           1           1           1           1           1           1           1
 AtZEff=  -0.0000000  -0.0000000  -0.0000000  -0.0000000  -0.0000000  -0.0000000  -0.0000000  -0.0000000  -0.0000000  -0.0000000
 NQMom=    0.0000000   0.0000000   0.0000000   0.0000000   0.0000000   0.0000000   0.0000000   0.0000000   0.0000000   0.0000000
 NMagM=    0.0000000   2.7928460   2.7928460   2.7928460   2.7928460   2.7928460   2.7928460   2.7928460   2.7928460   2.7928460
 AtZNuc=   6.0000000   1.0000000   1.0000000   1.0000000   1.0000000   1.0000000   1.0000000   1.0000000   1.0000000   1.0000000

  Atom        31          32          33          34          35          36          37          38          39          40
 IAtWgt=           1           1           1           1           1           1           1           1           1           1
 AtmWgt=   1.0078250   1.0078250   1.0078250   1.0078250   1.0078250   1.0078250   1.0078250   1.0078250   1.0078250   1.0078250
 NucSpn=           1           1           1           1           1           1           1           1           1           1
 AtZEff=  -0.0000000  -0.0000000  -0.0000000  -0.0000000  -0.0000000  -0.0000000  -0.0000000  -0.0000000  -0.0000000  -0.0000000
 NQMom=    0.0000000   0.0000000   0.0000000   0.0000000   0.0000000   0.0000000   0.0000000   0.0000000   0.0000000   0.0000000
 NMagM=    2.7928460   2.7928460   2.7928460   2.7928460   2.7928460   2.7928460   2.7928460   2.7928460   2.7928460   2.7928460
 AtZNuc=   1.0000000   1.0000000   1.0000000   1.0000000   1.0000000   1.0000000   1.0000000   1.0000000   1.0000000   1.0000000

  Atom        41          42          43          44          45          46          47          48          49          50
 IAtWgt=           1           1           1           1           1           1           1           1           1           1
 AtmWgt=   1.0078250   1.0078250   1.0078250   1.0078250   1.0078250   1.0078250   1.0078250   1.0078250   1.0078250   1.0078250
 NucSpn=           1           1           1           1           1           1           1           1           1           1
 AtZEff=  -0.0000000  -0.0000000  -0.0000000  -0.0000000  -0.0000000  -0.0000000  -0.0000000  -0.0000000  -0.0000000  -0.0000000
 NQMom=    0.0000000   0.0000000   0.0000000   0.0000000   0.0000000   0.0000000   0.0000000   0.0000000   0.0000000   0.0000000
 NMagM=    2.7928460   2.7928460   2.7928460   2.7928460   2.7928460   2.7928460   2.7928460   2.7928460   2.7928460   2.7928460
 AtZNuc=   1.0000000   1.0000000   1.0000000   1.0000000   1.0000000   1.0000000   1.0000000   1.0000000   1.0000000   1.0000000

  Atom        51          52          53          54          55          56          57          58          59
 IAtWgt=           1           1           1           1           1           1           1           1           1
 AtmWgt=   1.0078250   1.0078250   1.0078250   1.0078250   1.0078250   1.0078250   1.0078250   1.0078250   1.0078250
 NucSpn=           1           1           1           1           1           1           1           1           1
 AtZEff=  -0.0000000  -0.0000000  -0.0000000  -0.0000000  -0.0000000  -0.0000000  -0.0000000  -0.0000000  -0.0000000
 NQMom=    0.0000000   0.0000000   0.0000000   0.0000000   0.0000000   0.0000000   0.0000000   0.0000000   0.0000000
 NMagM=    2.7928460   2.7928460   2.7928460   2.7928460   2.7928460   2.7928460   2.7928460   2.7928460   2.7928460
 AtZNuc=   1.0000000   1.0000000   1.0000000   1.0000000   1.0000000   1.0000000   1.0000000   1.0000000   1.0000000
 Leave Link  101 at Sun Oct 13 20:20:27 2019, MaxMem= 10737418240 cpu:               9.2 elap:               0.4
 (Enter /apps/cent7/gaussian/g16-A.03/g16-haswell/g16/l103.exe)

 GradGradGradGradGradGradGradGradGradGradGradGradGradGradGradGradGradGrad
 Berny optimization.
 Initialization pass.
                           ----------------------------
                           !    Initial Parameters    !
                           ! (Angstroms and Degrees)  !
 --------------------------                            --------------------------
 ! Name  Definition              Value          Derivative Info.                !
 --------------------------------------------------------------------------------
 ! R1    R(1,2)                  1.2522         estimate D2E/DX2                !
 ! R2    R(2,3)                  1.3594         estimate D2E/DX2                !
 ! R3    R(2,5)                  1.4758         estimate D2E/DX2                !
 ! R4    R(3,4)                  1.4273         estimate D2E/DX2                !
 ! R5    R(4,22)                 1.09           estimate D2E/DX2                !
 ! R6    R(4,23)                 1.09           estimate D2E/DX2                !
 ! R7    R(4,24)                 1.09           estimate D2E/DX2                !
 ! R8    R(5,6)                  1.5523         estimate D2E/DX2                !
 ! R9    R(5,25)                 1.09           estimate D2E/DX2                !
 ! R10   R(5,26)                 1.0899         estimate D2E/DX2                !
 ! R11   R(6,7)                  1.5498         estimate D2E/DX2                !
 ! R12   R(6,27)                 1.09           estimate D2E/DX2                !
 ! R13   R(6,28)                 1.0899         estimate D2E/DX2                !
 ! R14   R(7,8)                  1.554          estimate D2E/DX2                !
 ! R15   R(7,29)                 1.09           estimate D2E/DX2                !
 ! R16   R(7,30)                 1.09           estimate D2E/DX2                !
 ! R17   R(8,9)                  1.5522         estimate D2E/DX2                !
 ! R18   R(8,31)                 1.09           estimate D2E/DX2                !
 ! R19   R(8,32)                 1.09           estimate D2E/DX2                !
 ! R20   R(9,10)                 1.5519         estimate D2E/DX2                !
 ! R21   R(9,33)                 1.09           estimate D2E/DX2                !
 ! R22   R(9,34)                 1.0901         estimate D2E/DX2                !
 ! R23   R(10,11)                1.5525         estimate D2E/DX2                !
 ! R24   R(10,35)                1.0901         estimate D2E/DX2                !
 ! R25   R(10,36)                1.09           estimate D2E/DX2                !
 ! R26   R(11,12)                1.5517         estimate D2E/DX2                !
 ! R27   R(11,37)                1.09           estimate D2E/DX2                !
 ! R28   R(11,38)                1.0901         estimate D2E/DX2                !
 ! R29   R(12,13)                1.5514         estimate D2E/DX2                !
 ! R30   R(12,39)                1.09           estimate D2E/DX2                !
 ! R31   R(12,40)                1.09           estimate D2E/DX2                !
 ! R32   R(13,14)                1.5527         estimate D2E/DX2                !
 ! R33   R(13,41)                1.09           estimate D2E/DX2                !
 ! R34   R(13,42)                1.0899         estimate D2E/DX2                !
 ! R35   R(14,15)                1.5509         estimate D2E/DX2                !
 ! R36   R(14,43)                1.09           estimate D2E/DX2                !
 ! R37   R(14,44)                1.09           estimate D2E/DX2                !
 ! R38   R(15,16)                1.5499         estimate D2E/DX2                !
 ! R39   R(15,45)                1.09           estimate D2E/DX2                !
 ! R40   R(15,46)                1.09           estimate D2E/DX2                !
 ! R41   R(16,17)                1.5491         estimate D2E/DX2                !
 ! R42   R(16,47)                1.09           estimate D2E/DX2                !
 ! R43   R(16,48)                1.0901         estimate D2E/DX2                !
 ! R44   R(17,18)                1.5492         estimate D2E/DX2                !
 ! R45   R(17,49)                1.09           estimate D2E/DX2                !
 ! R46   R(17,50)                1.0901         estimate D2E/DX2                !
 ! R47   R(18,19)                1.5508         estimate D2E/DX2                !
 ! R48   R(18,51)                1.0899         estimate D2E/DX2                !
 ! R49   R(18,52)                1.0901         estimate D2E/DX2                !
 ! R50   R(19,20)                1.5502         estimate D2E/DX2                !
 ! R51   R(19,53)                1.09           estimate D2E/DX2                !
 ! R52   R(19,54)                1.09           estimate D2E/DX2                !
 ! R53   R(20,21)                1.5445         estimate D2E/DX2                !
 ! R54   R(20,55)                1.09           estimate D2E/DX2                !
 ! R55   R(20,56)                1.09           estimate D2E/DX2                !
 ! R56   R(21,57)                1.0901         estimate D2E/DX2                !
 ! R57   R(21,58)                1.09           estimate D2E/DX2                !
 ! R58   R(21,59)                1.0899         estimate D2E/DX2                !
 ! A1    A(1,2,3)              118.7788         estimate D2E/DX2                !
 ! A2    A(1,2,5)              120.4394         estimate D2E/DX2                !
 ! A3    A(3,2,5)              120.4307         estimate D2E/DX2                !
 ! A4    A(2,3,4)              124.0782         estimate D2E/DX2                !
 ! A5    A(3,4,22)             109.4696         estimate D2E/DX2                !
 ! A6    A(3,4,23)             109.4693         estimate D2E/DX2                !
 ! A7    A(3,4,24)             109.4662         estimate D2E/DX2                !
 ! A8    A(22,4,23)            109.4738         estimate D2E/DX2                !
 ! A9    A(22,4,24)            109.4761         estimate D2E/DX2                !
 ! A10   A(23,4,24)            109.4724         estimate D2E/DX2                !
 ! A11   A(2,5,6)              111.0245         estimate D2E/DX2                !
 ! A12   A(2,5,25)             105.5282         estimate D2E/DX2                !
 ! A13   A(2,5,26)             105.5318         estimate D2E/DX2                !
 ! A14   A(6,5,25)             107.3376         estimate D2E/DX2                !
 ! A15   A(6,5,26)             107.3439         estimate D2E/DX2                !
 ! A16   A(25,5,26)            120.0059         estimate D2E/DX2                !
 ! A17   A(5,6,7)              112.87           estimate D2E/DX2                !
 ! A18   A(5,6,27)             106.0725         estimate D2E/DX2                !
 ! A19   A(5,6,28)             106.0781         estimate D2E/DX2                !
 ! A20   A(7,6,27)             106.0211         estimate D2E/DX2                !
 ! A21   A(7,6,28)             106.0214         estimate D2E/DX2                !
 ! A22   A(27,6,28)            119.9987         estimate D2E/DX2                !
 ! A23   A(6,7,8)              112.7859         estimate D2E/DX2                !
 ! A24   A(6,7,29)             106.0147         estimate D2E/DX2                !
 ! A25   A(6,7,30)             106.0151         estimate D2E/DX2                !
 ! A26   A(8,7,29)             106.1198         estimate D2E/DX2                !
 ! A27   A(8,7,30)             106.1202         estimate D2E/DX2                !
 ! A28   A(29,7,30)            119.9947         estimate D2E/DX2                !
 ! A29   A(7,8,9)              112.0527         estimate D2E/DX2                !
 ! A30   A(7,8,31)             106.2457         estimate D2E/DX2                !
 ! A31   A(7,8,32)             106.2481         estimate D2E/DX2                !
 ! A32   A(9,8,31)             106.2007         estimate D2E/DX2                !
 ! A33   A(9,8,32)             106.2043         estimate D2E/DX2                !
 ! A34   A(31,8,32)            120.0001         estimate D2E/DX2                !
 ! A35   A(8,9,10)             113.1748         estimate D2E/DX2                !
 ! A36   A(8,9,33)             105.9861         estimate D2E/DX2                !
 ! A37   A(8,9,34)             105.9909         estimate D2E/DX2                !
 ! A38   A(10,9,33)            105.9757         estimate D2E/DX2                !
 ! A39   A(10,9,34)            105.9764         estimate D2E/DX2                !
 ! A40   A(33,9,34)            119.9981         estimate D2E/DX2                !
 ! A41   A(9,10,11)            112.67           estimate D2E/DX2                !
 ! A42   A(9,10,35)            106.0822         estimate D2E/DX2                !
 ! A43   A(9,10,36)            106.085          estimate D2E/DX2                !
 ! A44   A(11,10,35)           106.0966         estimate D2E/DX2                !
 ! A45   A(11,10,36)           106.0979         estimate D2E/DX2                !
 ! A46   A(35,10,36)           120.0032         estimate D2E/DX2                !
 ! A47   A(10,11,12)           112.3281         estimate D2E/DX2                !
 ! A48   A(10,11,37)           106.1752         estimate D2E/DX2                !
 ! A49   A(10,11,38)           106.1769         estimate D2E/DX2                !
 ! A50   A(12,11,37)           106.1575         estimate D2E/DX2                !
 ! A51   A(12,11,38)           106.1549         estimate D2E/DX2                !
 ! A52   A(37,11,38)           119.9965         estimate D2E/DX2                !
 ! A53   A(11,12,13)           112.6851         estimate D2E/DX2                !
 ! A54   A(11,12,39)           106.0874         estimate D2E/DX2                !
 ! A55   A(11,12,40)           106.0891         estimate D2E/DX2                !
 ! A56   A(13,12,39)           106.0814         estimate D2E/DX2                !
 ! A57   A(13,12,40)           106.091          estimate D2E/DX2                !
 ! A58   A(39,12,40)           120.0031         estimate D2E/DX2                !
 ! A59   A(12,13,14)           112.3099         estimate D2E/DX2                !
 ! A60   A(12,13,41)           106.1511         estimate D2E/DX2                !
 ! A61   A(12,13,42)           106.1579         estimate D2E/DX2                !
 ! A62   A(14,13,41)           106.181          estimate D2E/DX2                !
 ! A63   A(14,13,42)           106.1862         estimate D2E/DX2                !
 ! A64   A(41,13,42)           120.0005         estimate D2E/DX2                !
 ! A65   A(13,14,15)           112.46           estimate D2E/DX2                !
 ! A66   A(13,14,43)           106.159          estimate D2E/DX2                !
 ! A67   A(13,14,44)           106.1643         estimate D2E/DX2                !
 ! A68   A(15,14,43)           106.1109         estimate D2E/DX2                !
 ! A69   A(15,14,44)           106.1139         estimate D2E/DX2                !
 ! A70   A(43,14,44)           119.9988         estimate D2E/DX2                !
 ! A71   A(14,15,16)           112.3384         estimate D2E/DX2                !
 ! A72   A(14,15,45)           106.17           estimate D2E/DX2                !
 ! A73   A(14,15,46)           106.176          estimate D2E/DX2                !
 ! A74   A(16,15,45)           106.1572         estimate D2E/DX2                !
 ! A75   A(16,15,46)           106.1574         estimate D2E/DX2                !
 ! A76   A(45,15,46)           119.9914         estimate D2E/DX2                !
 ! A77   A(15,16,17)           111.8609         estimate D2E/DX2                !
 ! A78   A(15,16,47)           106.2778         estimate D2E/DX2                !
 ! A79   A(15,16,48)           106.2764         estimate D2E/DX2                !
 ! A80   A(17,16,47)           106.2579         estimate D2E/DX2                !
 ! A81   A(17,16,48)           106.2539         estimate D2E/DX2                !
 ! A82   A(47,16,48)           119.9986         estimate D2E/DX2                !
 ! A83   A(16,17,18)           112.2462         estimate D2E/DX2                !
 ! A84   A(16,17,49)           106.1816         estimate D2E/DX2                !
 ! A85   A(16,17,50)           106.182          estimate D2E/DX2                !
 ! A86   A(18,17,49)           106.1852         estimate D2E/DX2                !
 ! A87   A(18,17,50)           106.1849         estimate D2E/DX2                !
 ! A88   A(49,17,50)           119.9981         estimate D2E/DX2                !
 ! A89   A(17,18,19)           112.1022         estimate D2E/DX2                !
 ! A90   A(17,18,51)           106.2001         estimate D2E/DX2                !
 ! A91   A(17,18,52)           106.1915         estimate D2E/DX2                !
 ! A92   A(19,18,51)           106.2345         estimate D2E/DX2                !
 ! A93   A(19,18,52)           106.2313         estimate D2E/DX2                !
 ! A94   A(51,18,52)           119.9987         estimate D2E/DX2                !
 ! A95   A(18,19,20)           112.4292         estimate D2E/DX2                !
 ! A96   A(18,19,53)           106.1524         estimate D2E/DX2                !
 ! A97   A(18,19,54)           106.1523         estimate D2E/DX2                !
 ! A98   A(20,19,53)           106.1374         estimate D2E/DX2                !
 ! A99   A(20,19,54)           106.1316         estimate D2E/DX2                !
 ! A100  A(53,19,54)           119.9998         estimate D2E/DX2                !
 ! A101  A(19,20,21)           112.4961         estimate D2E/DX2                !
 ! A102  A(19,20,55)           106.1962         estimate D2E/DX2                !
 ! A103  A(19,20,56)           106.1935         estimate D2E/DX2                !
 ! A104  A(21,20,55)           106.0657         estimate D2E/DX2                !
 ! A105  A(21,20,56)           106.0603         estimate D2E/DX2                !
 ! A106  A(55,20,56)           119.9997         estimate D2E/DX2                !
 ! A107  A(20,21,57)           109.4678         estimate D2E/DX2                !
 ! A108  A(20,21,58)           109.469          estimate D2E/DX2                !
 ! A109  A(20,21,59)           109.4727         estimate D2E/DX2                !
 ! A110  A(57,21,58)           109.4678         estimate D2E/DX2                !
 ! A111  A(57,21,59)           109.475          estimate D2E/DX2                !
 ! A112  A(58,21,59)           109.475          estimate D2E/DX2                !
 ! D1    D(1,2,3,4)            101.836          estimate D2E/DX2                !
 ! D2    D(5,2,3,4)            -84.9371         estimate D2E/DX2                !
 ! D3    D(1,2,5,6)             78.6554         estimate D2E/DX2                !
 ! D4    D(1,2,5,25)          -165.359          estimate D2E/DX2                !
 ! D5    D(1,2,5,26)           -37.3396         estimate D2E/DX2                !
 ! D6    D(3,2,5,6)            -94.4585         estimate D2E/DX2                !
 ! D7    D(3,2,5,25)            21.5271         estimate D2E/DX2                !
 ! D8    D(3,2,5,26)           149.5465         estimate D2E/DX2                !
 ! D9    D(2,3,4,22)           -21.6472         estimate D2E/DX2                !
 ! D10   D(2,3,4,23)            98.3537         estimate D2E/DX2                !
 ! D11   D(2,3,4,24)          -141.6491         estimate D2E/DX2                !
 ! D12   D(2,5,6,7)            176.3968         estimate D2E/DX2                !
 ! D13   D(2,5,6,27)           -67.9293         estimate D2E/DX2                !
 ! D14   D(2,5,6,28)            60.7191         estimate D2E/DX2                !
 ! D15   D(25,5,6,7)            61.534          estimate D2E/DX2                !
 ! D16   D(25,5,6,27)          177.2079         estimate D2E/DX2                !
 ! D17   D(25,5,6,28)          -54.1437         estimate D2E/DX2                !
 ! D18   D(26,5,6,7)           -68.7325         estimate D2E/DX2                !
 ! D19   D(26,5,6,27)           46.9414         estimate D2E/DX2                !
 ! D20   D(26,5,6,28)          175.5898         estimate D2E/DX2                !
 ! D21   D(5,6,7,8)            179.8726         estimate D2E/DX2                !
 ! D22   D(5,6,7,29)           -64.4135         estimate D2E/DX2                !
 ! D23   D(5,6,7,30)            64.158          estimate D2E/DX2                !
 ! D24   D(27,6,7,8)            64.168          estimate D2E/DX2                !
 ! D25   D(27,6,7,29)          179.8819         estimate D2E/DX2                !
 ! D26   D(27,6,7,30)          -51.5467         estimate D2E/DX2                !
 ! D27   D(28,6,7,8)           -64.4158         estimate D2E/DX2                !
 ! D28   D(28,6,7,29)           51.2981         estimate D2E/DX2                !
 ! D29   D(28,6,7,30)          179.8696         estimate D2E/DX2                !
 ! D30   D(6,7,8,9)           -178.6845         estimate D2E/DX2                !
 ! D31   D(6,7,8,31)           -63.1161         estimate D2E/DX2                !
 ! D32   D(6,7,8,32)            65.7415         estimate D2E/DX2                !
 ! D33   D(29,7,8,9)            65.6646         estimate D2E/DX2                !
 ! D34   D(29,7,8,31)         -178.767          estimate D2E/DX2                !
 ! D35   D(29,7,8,32)          -49.9095         estimate D2E/DX2                !
 ! D36   D(30,7,8,9)           -63.0328         estimate D2E/DX2                !
 ! D37   D(30,7,8,31)           52.5356         estimate D2E/DX2                !
 ! D38   D(30,7,8,32)         -178.6068         estimate D2E/DX2                !
 ! D39   D(7,8,9,10)           178.9382         estimate D2E/DX2                !
 ! D40   D(7,8,9,33)           -65.3357         estimate D2E/DX2                !
 ! D41   D(7,8,9,34)            63.2084         estimate D2E/DX2                !
 ! D42   D(31,8,9,10)           63.3424         estimate D2E/DX2                !
 ! D43   D(31,8,9,33)          179.0686         estimate D2E/DX2                !
 ! D44   D(31,8,9,34)          -52.3874         estimate D2E/DX2                !
 ! D45   D(32,8,9,10)          -65.4611         estimate D2E/DX2                !
 ! D46   D(32,8,9,33)           50.265          estimate D2E/DX2                !
 ! D47   D(32,8,9,34)          178.8091         estimate D2E/DX2                !
 ! D48   D(8,9,10,11)         -179.4351         estimate D2E/DX2                !
 ! D49   D(8,9,10,35)          -63.7686         estimate D2E/DX2                !
 ! D50   D(8,9,10,36)           64.8952         estimate D2E/DX2                !
 ! D51   D(33,9,10,11)          64.8326         estimate D2E/DX2                !
 ! D52   D(33,9,10,35)        -179.5009         estimate D2E/DX2                !
 ! D53   D(33,9,10,36)         -50.8371         estimate D2E/DX2                !
 ! D54   D(34,9,10,11)         -63.6967         estimate D2E/DX2                !
 ! D55   D(34,9,10,35)          51.9698         estimate D2E/DX2                !
 ! D56   D(34,9,10,36)        -179.3664         estimate D2E/DX2                !
 ! D57   D(9,10,11,12)         179.8303         estimate D2E/DX2                !
 ! D58   D(9,10,11,37)         -64.5522         estimate D2E/DX2                !
 ! D59   D(9,10,11,38)          64.2149         estimate D2E/DX2                !
 ! D60   D(35,10,11,12)         64.1724         estimate D2E/DX2                !
 ! D61   D(35,10,11,37)        179.7899         estimate D2E/DX2                !
 ! D62   D(35,10,11,38)        -51.443          estimate D2E/DX2                !
 ! D63   D(36,10,11,12)        -64.5078         estimate D2E/DX2                !
 ! D64   D(36,10,11,37)         51.1097         estimate D2E/DX2                !
 ! D65   D(36,10,11,38)        179.8768         estimate D2E/DX2                !
 ! D66   D(10,11,12,13)       -179.9988         estimate D2E/DX2                !
 ! D67   D(10,11,12,39)        -64.3396         estimate D2E/DX2                !
 ! D68   D(10,11,12,40)         64.3295         estimate D2E/DX2                !
 ! D69   D(37,11,12,13)         64.373          estimate D2E/DX2                !
 ! D70   D(37,11,12,39)       -179.9678         estimate D2E/DX2                !
 ! D71   D(37,11,12,40)        -51.2986         estimate D2E/DX2                !
 ! D72   D(38,11,12,13)        -64.3701         estimate D2E/DX2                !
 ! D73   D(38,11,12,39)         51.2891         estimate D2E/DX2                !
 ! D74   D(38,11,12,40)        179.9583         estimate D2E/DX2                !
 ! D75   D(11,12,13,14)       -179.9543         estimate D2E/DX2                !
 ! D76   D(11,12,13,41)        -64.3323         estimate D2E/DX2                !
 ! D77   D(11,12,13,42)         64.4136         estimate D2E/DX2                !
 ! D78   D(39,12,13,14)         64.3831         estimate D2E/DX2                !
 ! D79   D(39,12,13,41)       -179.995          estimate D2E/DX2                !
 ! D80   D(39,12,13,42)        -51.2491         estimate D2E/DX2                !
 ! D81   D(40,12,13,14)        -64.2838         estimate D2E/DX2                !
 ! D82   D(40,12,13,41)         51.3382         estimate D2E/DX2                !
 ! D83   D(40,12,13,42)       -179.9159         estimate D2E/DX2                !
 ! D84   D(12,13,14,15)        179.9588         estimate D2E/DX2                !
 ! D85   D(12,13,14,43)        -64.4208         estimate D2E/DX2                !
 ! D86   D(12,13,14,44)         64.3317         estimate D2E/DX2                !
 ! D87   D(41,13,14,15)         64.355          estimate D2E/DX2                !
 ! D88   D(41,13,14,43)        179.9753         estimate D2E/DX2                !
 ! D89   D(41,13,14,44)        -51.2722         estimate D2E/DX2                !
 ! D90   D(42,13,14,15)        -64.4261         estimate D2E/DX2                !
 ! D91   D(42,13,14,43)         51.1942         estimate D2E/DX2                !
 ! D92   D(42,13,14,44)        179.9468         estimate D2E/DX2                !
 ! D93   D(13,14,15,16)       -179.9818         estimate D2E/DX2                !
 ! D94   D(13,14,15,45)        -64.3623         estimate D2E/DX2                !
 ! D95   D(13,14,15,46)         64.395          estimate D2E/DX2                !
 ! D96   D(43,14,15,16)         64.3689         estimate D2E/DX2                !
 ! D97   D(43,14,15,45)        179.9883         estimate D2E/DX2                !
 ! D98   D(43,14,15,46)        -51.2544         estimate D2E/DX2                !
 ! D99   D(44,14,15,16)        -64.3243         estimate D2E/DX2                !
 ! D100  D(44,14,15,45)         51.2952         estimate D2E/DX2                !
 ! D101  D(44,14,15,46)       -179.9475         estimate D2E/DX2                !
 ! D102  D(14,15,16,17)        179.9923         estimate D2E/DX2                !
 ! D103  D(14,15,16,47)        -64.4512         estimate D2E/DX2                !
 ! D104  D(14,15,16,48)         64.4413         estimate D2E/DX2                !
 ! D105  D(45,15,16,17)         64.3651         estimate D2E/DX2                !
 ! D106  D(45,15,16,47)        179.9217         estimate D2E/DX2                !
 ! D107  D(45,15,16,48)        -51.1858         estimate D2E/DX2                !
 ! D108  D(46,15,16,17)        -64.3732         estimate D2E/DX2                !
 ! D109  D(46,15,16,47)         51.1833         estimate D2E/DX2                !
 ! D110  D(46,15,16,48)       -179.9242         estimate D2E/DX2                !
 ! D111  D(15,16,17,18)        179.9988         estimate D2E/DX2                !
 ! D112  D(15,16,17,49)        -64.3891         estimate D2E/DX2                !
 ! D113  D(15,16,17,50)         64.3869         estimate D2E/DX2                !
 ! D114  D(47,16,17,18)         64.4301         estimate D2E/DX2                !
 ! D115  D(47,16,17,49)       -179.9578         estimate D2E/DX2                !
 ! D116  D(47,16,17,50)        -51.1817         estimate D2E/DX2                !
 ! D117  D(48,16,17,18)        -64.4364         estimate D2E/DX2                !
 ! D118  D(48,16,17,49)         51.1756         estimate D2E/DX2                !
 ! D119  D(48,16,17,50)        179.9517         estimate D2E/DX2                !
 ! D120  D(16,17,18,19)        179.9986         estimate D2E/DX2                !
 ! D121  D(16,17,18,51)        -64.3938         estimate D2E/DX2                !
 ! D122  D(16,17,18,52)         64.3999         estimate D2E/DX2                !
 ! D123  D(49,17,18,19)         64.3887         estimate D2E/DX2                !
 ! D124  D(49,17,18,51)        179.9963         estimate D2E/DX2                !
 ! D125  D(49,17,18,52)        -51.21           estimate D2E/DX2                !
 ! D126  D(50,17,18,19)        -64.3912         estimate D2E/DX2                !
 ! D127  D(50,17,18,51)         51.2163         estimate D2E/DX2                !
 ! D128  D(50,17,18,52)       -179.9899         estimate D2E/DX2                !
 ! D129  D(17,18,19,20)        179.9998         estimate D2E/DX2                !
 ! D130  D(17,18,19,53)        -64.3678         estimate D2E/DX2                !
 ! D131  D(17,18,19,54)         64.3746         estimate D2E/DX2                !
 ! D132  D(51,18,19,20)         64.4131         estimate D2E/DX2                !
 ! D133  D(51,18,19,53)       -179.9545         estimate D2E/DX2                !
 ! D134  D(51,18,19,54)        -51.2121         estimate D2E/DX2                !
 ! D135  D(52,18,19,20)        -64.4257         estimate D2E/DX2                !
 ! D136  D(52,18,19,53)         51.2067         estimate D2E/DX2                !
 ! D137  D(52,18,19,54)        179.9491         estimate D2E/DX2                !
 ! D138  D(18,19,20,21)       -180.0            estimate D2E/DX2                !
 ! D139  D(18,19,20,55)        -64.3928         estimate D2E/DX2                !
 ! D140  D(18,19,20,56)         64.4009         estimate D2E/DX2                !
 ! D141  D(53,19,20,21)         64.3586         estimate D2E/DX2                !
 ! D142  D(53,19,20,55)        179.9658         estimate D2E/DX2                !
 ! D143  D(53,19,20,56)        -51.2405         estimate D2E/DX2                !
 ! D144  D(54,19,20,21)        -64.3623         estimate D2E/DX2                !
 ! D145  D(54,19,20,55)         51.2449         estimate D2E/DX2                !
 ! D146  D(54,19,20,56)       -179.9614         estimate D2E/DX2                !
 ! D147  D(19,20,21,57)        107.2251         estimate D2E/DX2                !
 ! D148  D(19,20,21,58)       -132.7825         estimate D2E/DX2                !
 ! D149  D(19,20,21,59)        -12.7783         estimate D2E/DX2                !
 ! D150  D(55,20,21,57)         -8.4606         estimate D2E/DX2                !
 ! D151  D(55,20,21,58)        111.5318         estimate D2E/DX2                !
 ! D152  D(55,20,21,59)       -128.4641         estimate D2E/DX2                !
 ! D153  D(56,20,21,57)       -137.0956         estimate D2E/DX2                !
 ! D154  D(56,20,21,58)        -17.1032         estimate D2E/DX2                !
 ! D155  D(56,20,21,59)        102.901          estimate D2E/DX2                !
 --------------------------------------------------------------------------------
 Trust Radius=3.00D-01 FncErr=1.00D-07 GrdErr=1.00D-06 EigMax=2.50D+02 EigMin=1.00D-04
 Number of steps in this run=    335 maximum allowed number of steps=    354.
 GradGradGradGradGradGradGradGradGradGradGradGradGradGradGradGradGradGrad

 Leave Link  103 at Sun Oct 13 20:20:27 2019, MaxMem= 10737418240 cpu:               0.4 elap:               0.0
 (Enter /apps/cent7/gaussian/g16-A.03/g16-haswell/g16/l202.exe)
 Stoichiometry    C19H38O2
 Framework group  C1[X(C19H38O2)]
 Deg. of freedom   171
 Full point group                 C1      NOp   1
 Largest Abelian subgroup         C1      NOp   1
 Largest concise Abelian subgroup C1      NOp   1
                         Standard orientation:                         
 ---------------------------------------------------------------------
 Center     Atomic      Atomic             Coordinates (Angstroms)
 Number     Number       Type             X           Y           Z
 ---------------------------------------------------------------------
      1          8           0       -9.729069   -1.560536   -0.036981
      2          6           0       -9.332496   -0.372792   -0.027579
      3          8           0       -9.968233    0.535700   -0.814034
      4          6           0      -10.923351    1.480796   -0.332623
      5          6           0       -8.106972    0.000493    0.705024
      6          6           0       -6.837367   -0.378622   -0.103745
      7          6           0       -5.525863    0.074879    0.586378
      8          6           0       -4.256037   -0.308389   -0.223328
      9          6           0       -2.951884    0.124528    0.498503
     10          6           0       -1.665767   -0.269207   -0.275705
     11          6           0       -0.368525    0.156799    0.463163
     12          6           0        0.912270   -0.244342   -0.315594
     13          6           0        2.213906    0.177546    0.415634
     14          6           0        3.489748   -0.226936   -0.371488
     15          6           0        4.793152    0.194122    0.355997
     16          6           0        6.064779   -0.210538   -0.432260
     17          6           0        7.359574    0.215254    0.303819
     18          6           0        8.636576   -0.185072   -0.476607
     19          6           0        9.930656    0.242744    0.263142
     20          6           0       11.213464   -0.154274   -0.511404
     21          6           0       12.503284    0.271100    0.224012
     22          1           0      -11.338050    1.129160    0.612058
     23          1           0      -10.436218    2.443809   -0.179590
     24          1           0      -11.725075    1.591105   -1.062826
     25          1           0       -8.131631    1.087640    0.780176
     26          1           0       -8.110326   -0.608578    1.608910
     27          1           0       -6.806003   -1.467997   -0.123068
     28          1           0       -6.895491    0.181518   -1.036933
     29          1           0       -5.556346    1.164312    0.603725
     30          1           0       -5.469027   -0.483620    1.520731
     31          1           0       -4.235600   -1.397579   -0.260978
     32          1           0       -4.298006    0.268202   -1.147413
     33          1           0       -2.967806    1.214233    0.519246
     34          1           0       -2.924317   -0.437990    1.431801
     35          1           0       -1.652784   -1.358783   -0.305321
     36          1           0       -1.685801    0.301068   -1.204360
     37          1           0       -0.378331    1.246421    0.490156
     38          1           0       -0.348320   -0.411233    1.393327
     39          1           0        0.920629   -1.334018   -0.342404
     40          1           0        0.890601    0.323596   -1.245665
     41          1           0        2.206664    1.267143    0.443162
     42          1           0        2.237442   -0.390950    1.345275
     43          1           0        3.496868   -1.316581   -0.398415
     44          1           0        3.465358    0.341067   -1.301525
     45          1           0        4.787121    1.283767    0.383278
     46          1           0        4.819043   -0.374044    1.285828
     47          1           0        6.073513   -1.300120   -0.459518
     48          1           0        6.041540    0.357738   -1.362191
     49          1           0        7.349198    1.304849    0.331043
     50          1           0        7.381188   -0.352967    1.233805
     51          1           0        8.647229   -1.274590   -0.503918
     52          1           0        8.615163    0.383241   -1.406562
     53          1           0        9.918233    1.332338    0.290415
     54          1           0        9.950299   -0.325493    1.193059
     55          1           0       11.227167   -1.243825   -0.538713
     56          1           0       11.195193    0.414032   -1.441386
     57          1           0       12.990654   -0.609916    0.641800
     58          1           0       13.177685    0.760373   -0.478809
     59          1           0       12.251876    0.962830    1.027888
 ---------------------------------------------------------------------
 Rotational constants (GHZ):           2.4839437           0.0299721           0.0298998
 Leave Link  202 at Sun Oct 13 20:20:27 2019, MaxMem= 10737418240 cpu:               0.3 elap:               0.0
 (Enter /apps/cent7/gaussian/g16-A.03/g16-haswell/g16/l301.exe)
 Standard basis: 6-311++G(d,p) (5D, 7F)
 Ernie: Thresh=  0.10000D-02 Tol=  0.10000D-05 Strict=F.
 There are   749 symmetry adapted cartesian basis functions of A   symmetry.
 There are   728 symmetry adapted basis functions of A   symmetry.
   728 basis functions,  1098 primitive gaussians,   749 cartesian basis functions
    84 alpha electrons       84 beta electrons
       nuclear repulsion energy      1455.1176438237 Hartrees.
 IExCor= 4336 DFT=T Ex+Corr=M062X ExCW=0 ScaHFX=  0.540000
 ScaDFX=  1.000000  1.000000  1.000000  1.000000 ScalE2=  1.000000  1.000000
 IRadAn=      5 IRanWt=     -1 IRanGd=            0 ICorTp=0 IEmpDi=  4
 NAtoms=   59 NActive=   59 NUniq=   59 SFac= 1.00D+00 NAtFMM=   60 NAOKFM=F Big=F
 Integral buffers will be    131072 words long.
 Raffenetti 2 integral format.
 Two-electron integral symmetry is turned on.
 Leave Link  301 at Sun Oct 13 20:20:27 2019, MaxMem= 10737418240 cpu:               1.5 elap:               0.1
 (Enter /apps/cent7/gaussian/g16-A.03/g16-haswell/g16/l302.exe)
 NPDir=0 NMtPBC=     1 NCelOv=     1 NCel=       1 NClECP=     1 NCelD=      1
         NCelK=      1 NCelE2=     1 NClLst=     1 CellRange=     0.0.
 One-electron integrals computed using PRISM.
 One-electron integral symmetry used in STVInt
 NBasis=   728 RedAO= T EigKep=  1.36D-06  NBF=   728
 NBsUse=   727 1.00D-06 EigRej=  2.58D-07 NBFU=   727
 Precomputing XC quadrature grid using
 IXCGrd= 4 IRadAn=           5 IRanWt=          -1 IRanGd=           0 AccXCQ= 0.00D+00.
 Generated NRdTot=       0 NPtTot=           0 NUsed=           0 NTot=          32
 NSgBfM=   589   589   589   589   589 MxSgAt=    59 MxSgA2=    59.
 Leave Link  302 at Sun Oct 13 20:20:28 2019, MaxMem= 10737418240 cpu:              20.3 elap:               0.9
 (Enter /apps/cent7/gaussian/g16-A.03/g16-haswell/g16/l303.exe)
 DipDrv:  MaxL=1.
 Leave Link  303 at Sun Oct 13 20:20:28 2019, MaxMem= 10737418240 cpu:               3.1 elap:               0.2
 (Enter /apps/cent7/gaussian/g16-A.03/g16-haswell/g16/l401.exe)
 ExpMin= 3.60D-02 ExpMax= 8.59D+03 ExpMxC= 1.30D+03 IAcc=3 IRadAn=         5 AccDes= 0.00D+00
 Harris functional with IExCor= 1009 and IRadAn=       5 diagonalized for initial guess.
 HarFok:  IExCor= 1009 AccDes= 0.00D+00 IRadAn=         5 IDoV= 1 UseB2=F ITyADJ=14
 ICtDFT=  3500011 ScaDFX=  1.000000  1.000000  1.000000  1.000000
 FoFCou: FMM=F IPFlag=           0 FMFlag=      100000 FMFlg1=           0
         NFxFlg=           0 DoJE=T BraDBF=F KetDBF=T FulRan=T
         wScrn=  0.000000 ICntrl=       500 IOpCl=  0 I1Cent=   200000004 NGrid=           0
         NMat0=    1 NMatS0=      1 NMatT0=    0 NMatD0=    1 NMtDS0=    0 NMtDT0=    0
 Petite list used in FoFCou.
 Harris En= -896.922318570467    
 JPrj=0 DoOrth=F DoCkMO=F.
 Leave Link  401 at Sun Oct 13 20:20:30 2019, MaxMem= 10737418240 cpu:              46.5 elap:               2.0
 (Enter /apps/cent7/gaussian/g16-A.03/g16-haswell/g16/l502.exe)
 Integral symmetry usage will be decided dynamically.
 Closed shell SCF:
 Using DIIS extrapolation, IDIIS=  1040.
 NGot= 10737418240 LenX= 10736270723 LenY= 10735708973
 Requested convergence on RMS density matrix=1.00D-08 within 128 cycles.
 Requested convergence on MAX density matrix=1.00D-06.
 Requested convergence on             energy=1.00D-06.
 No special actions if energy rises.
 Fock matrices will be formed incrementally for  20 cycles.

 Cycle   1  Pass 1  IDiag  1:
 FoFJK:  IHMeth= 1 ICntrl=       0 DoSepK=F KAlg= 0 I1Cent=           0 FoldK=F
 IRaf= 630000000 NMat=       1 IRICut=       1 DoRegI=T DoRafI=F ISym2E= 0 IDoP0=0 IntGTp=1.
 FoFCou: FMM=F IPFlag=           0 FMFlag=      100000 FMFlg1=           0
         NFxFlg=           0 DoJE=F BraDBF=F KetDBF=F FulRan=T
         wScrn=  0.000000 ICntrl=         0 IOpCl=  0 I1Cent=           0 NGrid=           0
         NMat0=    1 NMatS0=      1 NMatT0=    0 NMatD0=    1 NMtDS0=    0 NMtDT0=    0
 Symmetry not used in FoFCou.
 E= -896.286779558214    
 DIIS: error= 4.80D-02 at cycle   1 NSaved=   1.
 NSaved= 1 IEnMin= 1 EnMin= -896.286779558214     IErMin= 1 ErrMin= 4.80D-02
 ErrMax= 4.80D-02  0.00D+00 EMaxC= 1.00D-01 BMatC= 9.06D-01 BMatP= 9.06D-01
 IDIUse=3 WtCom= 5.20D-01 WtEn= 4.80D-01
 Coeff-Com:  0.100D+01
 Coeff-En:   0.100D+01
 Coeff:      0.100D+01
 Gap=     0.321 Goal=   None    Shift=    0.000
 GapD=    0.321 DampG=1.000 DampE=0.500 DampFc=0.5000 IDamp=-1.
 Damping current iteration by 5.00D-01
 RMSDP=9.08D-03 MaxDP=9.24D-01              OVMax= 1.91D-01

 Cycle   2  Pass 1  IDiag  1:
 RMSU=  2.93D-03    CP:  7.92D-01
 E= -896.694148967644     Delta-E=       -0.407369409430 Rises=F Damp=T
 DIIS: error= 7.45D-03 at cycle   2 NSaved=   2.
 NSaved= 2 IEnMin= 2 EnMin= -896.694148967644     IErMin= 2 ErrMin= 7.45D-03
 ErrMax= 7.45D-03  0.00D+00 EMaxC= 1.00D-01 BMatC= 5.67D-02 BMatP= 9.06D-01
 IDIUse=3 WtCom= 9.25D-01 WtEn= 7.45D-02
 Coeff-Com: -0.764D-01 0.108D+01
 Coeff-En:   0.000D+00 0.100D+01
 Coeff:     -0.707D-01 0.107D+01
 Gap=     0.330 Goal=   None    Shift=    0.000
 RMSDP=4.10D-03 MaxDP=3.02D-01 DE=-4.07D-01 OVMax= 9.50D-02

 Cycle   3  Pass 1  IDiag  1:
 RMSU=  3.54D-03    CP:  7.96D-01  1.70D+00
 E= -897.071098639628     Delta-E=       -0.376949671983 Rises=F Damp=F
 DIIS: error= 1.42D-02 at cycle   3 NSaved=   3.
 NSaved= 3 IEnMin= 3 EnMin= -897.071098639628     IErMin= 2 ErrMin= 7.45D-03
 ErrMax= 1.42D-02  0.00D+00 EMaxC= 1.00D-01 BMatC= 3.51D-02 BMatP= 5.67D-02
 IDIUse=3 WtCom= 8.58D-01 WtEn= 1.42D-01
 Coeff-Com: -0.826D-01 0.492D+00 0.590D+00
 Coeff-En:   0.000D+00 0.000D+00 0.100D+01
 Coeff:     -0.709D-01 0.422D+00 0.649D+00
 Gap=     0.333 Goal=   None    Shift=    0.000
 RMSDP=8.34D-04 MaxDP=5.43D-02 DE=-3.77D-01 OVMax= 5.27D-02

 Cycle   4  Pass 1  IDiag  1:
 RMSU=  7.99D-04    CP:  8.00D-01  1.72D+00  9.36D-01
 E= -897.086361988378     Delta-E=       -0.015263348751 Rises=F Damp=F
 DIIS: error= 9.18D-03 at cycle   4 NSaved=   4.
 NSaved= 4 IEnMin= 4 EnMin= -897.086361988378     IErMin= 2 ErrMin= 7.45D-03
 ErrMax= 9.18D-03  0.00D+00 EMaxC= 1.00D-01 BMatC= 1.41D-02 BMatP= 3.51D-02
 IDIUse=3 WtCom= 9.08D-01 WtEn= 9.18D-02
 Coeff-Com: -0.255D-01 0.717D-01 0.404D+00 0.550D+00
 Coeff-En:   0.000D+00 0.000D+00 0.312D+00 0.688D+00
 Coeff:     -0.232D-01 0.651D-01 0.396D+00 0.562D+00
 Gap=     0.339 Goal=   None    Shift=    0.000
 RMSDP=3.75D-04 MaxDP=2.80D-02 DE=-1.53D-02 OVMax= 2.58D-02

 Cycle   5  Pass 1  IDiag  1:
 RMSU=  1.68D-04    CP:  8.04D-01  1.71D+00  9.63D-01  6.05D-01
 E= -897.096499281144     Delta-E=       -0.010137292766 Rises=F Damp=F
 DIIS: error= 5.14D-04 at cycle   5 NSaved=   5.
 NSaved= 5 IEnMin= 5 EnMin= -897.096499281144     IErMin= 5 ErrMin= 5.14D-04
 ErrMax= 5.14D-04  0.00D+00 EMaxC= 1.00D-01 BMatC= 1.34D-04 BMatP= 1.41D-02
 IDIUse=3 WtCom= 9.95D-01 WtEn= 5.14D-03
 Coeff-Com: -0.512D-02 0.101D-01 0.118D+00 0.203D+00 0.674D+00
 Coeff-En:   0.000D+00 0.000D+00 0.000D+00 0.000D+00 0.100D+01
 Coeff:     -0.509D-02 0.101D-01 0.117D+00 0.202D+00 0.676D+00
 Gap=     0.326 Goal=   None    Shift=    0.000
 RMSDP=9.72D-05 MaxDP=6.28D-03 DE=-1.01D-02 OVMax= 3.16D-03

 Cycle   6  Pass 1  IDiag  1:
 RMSU=  6.72D-05    CP:  8.06D-01  1.70D+00  9.66D-01  6.67D-01  9.14D-01
 E= -897.096597875455     Delta-E=       -0.000098594312 Rises=F Damp=F
 DIIS: error= 2.11D-04 at cycle   6 NSaved=   6.
 NSaved= 6 IEnMin= 6 EnMin= -897.096597875455     IErMin= 6 ErrMin= 2.11D-04
 ErrMax= 2.11D-04  0.00D+00 EMaxC= 1.00D-01 BMatC= 2.04D-05 BMatP= 1.34D-04
 IDIUse=3 WtCom= 9.98D-01 WtEn= 2.11D-03
 Coeff-Com:  0.848D-03-0.385D-02 0.558D-02 0.250D-01 0.315D+00 0.657D+00
 Coeff-En:   0.000D+00 0.000D+00 0.000D+00 0.000D+00 0.000D+00 0.100D+01
 Coeff:      0.846D-03-0.384D-02 0.557D-02 0.249D-01 0.315D+00 0.658D+00
 Gap=     0.326 Goal=   None    Shift=    0.000
 RMSDP=5.81D-05 MaxDP=5.97D-03 DE=-9.86D-05 OVMax= 7.56D-04

 Cycle   7  Pass 1  IDiag  1:
 RMSU=  2.21D-05    CP:  8.08D-01  1.70D+00  9.72D-01  6.63D-01  1.01D+00
                    CP:  8.84D-01
 E= -897.096613424624     Delta-E=       -0.000015549169 Rises=F Damp=F
 DIIS: error= 5.56D-05 at cycle   7 NSaved=   7.
 NSaved= 7 IEnMin= 7 EnMin= -897.096613424624     IErMin= 7 ErrMin= 5.56D-05
 ErrMax= 5.56D-05  0.00D+00 EMaxC= 1.00D-01 BMatC= 1.11D-06 BMatP= 2.04D-05
 IDIUse=1 WtCom= 1.00D+00 WtEn= 0.00D+00
 Coeff-Com:  0.855D-03-0.235D-02-0.842D-02-0.120D-01 0.455D-01 0.197D+00
 Coeff-Com:  0.779D+00
 Coeff:      0.855D-03-0.235D-02-0.842D-02-0.120D-01 0.455D-01 0.197D+00
 Coeff:      0.779D+00
 Gap=     0.326 Goal=   None    Shift=    0.000
 RMSDP=1.37D-05 MaxDP=1.36D-03 DE=-1.55D-05 OVMax= 3.55D-04

 Cycle   8  Pass 1  IDiag  1:
 RMSU=  8.43D-06    CP:  8.09D-01  1.70D+00  9.73D-01  6.69D-01  1.04D+00
                    CP:  9.52D-01  8.53D-01
 E= -897.096614440143     Delta-E=       -0.000001015519 Rises=F Damp=F
 DIIS: error= 2.36D-05 at cycle   8 NSaved=   8.
 NSaved= 8 IEnMin= 8 EnMin= -897.096614440143     IErMin= 8 ErrMin= 2.36D-05
 ErrMax= 2.36D-05  0.00D+00 EMaxC= 1.00D-01 BMatC= 1.83D-07 BMatP= 1.11D-06
 IDIUse=1 WtCom= 1.00D+00 WtEn= 0.00D+00
 Coeff-Com:  0.236D-03-0.481D-03-0.364D-02-0.864D-02-0.232D-01-0.161D-01
 Coeff-Com:  0.270D+00 0.782D+00
 Coeff:      0.236D-03-0.481D-03-0.364D-02-0.864D-02-0.232D-01-0.161D-01
 Coeff:      0.270D+00 0.782D+00
 Gap=     0.326 Goal=   None    Shift=    0.000
 RMSDP=4.16D-06 MaxDP=4.19D-04 DE=-1.02D-06 OVMax= 1.40D-04

 Cycle   9  Pass 1  IDiag  1:
 RMSU=  1.95D-06    CP:  8.09D-01  1.70D+00  9.73D-01  6.67D-01  1.04D+00
                    CP:  9.49D-01  8.93D-01  9.97D-01
 E= -897.096614638639     Delta-E=       -0.000000198496 Rises=F Damp=F
 DIIS: error= 6.56D-06 at cycle   9 NSaved=   9.
 NSaved= 9 IEnMin= 9 EnMin= -897.096614638639     IErMin= 9 ErrMin= 6.56D-06
 ErrMax= 6.56D-06  0.00D+00 EMaxC= 1.00D-01 BMatC= 1.09D-08 BMatP= 1.83D-07
 IDIUse=1 WtCom= 1.00D+00 WtEn= 0.00D+00
 Coeff-Com: -0.239D-04 0.860D-04 0.167D-03-0.778D-03-0.747D-02-0.175D-01
 Coeff-Com: -0.153D-01 0.151D+00 0.890D+00
 Coeff:     -0.239D-04 0.860D-04 0.167D-03-0.778D-03-0.747D-02-0.175D-01
 Coeff:     -0.153D-01 0.151D+00 0.890D+00
 Gap=     0.326 Goal=   None    Shift=    0.000
 RMSDP=1.12D-06 MaxDP=2.39D-04 DE=-1.98D-07 OVMax= 5.74D-05

 Cycle  10  Pass 1  IDiag  1:
 RMSU=  5.65D-07    CP:  8.09D-01  1.70D+00  9.73D-01  6.67D-01  1.04D+00
                    CP:  9.52D-01  8.85D-01  1.08D+00  1.15D+00
 E= -897.096614652805     Delta-E=       -0.000000014166 Rises=F Damp=F
 DIIS: error= 1.41D-06 at cycle  10 NSaved=  10.
 NSaved=10 IEnMin=10 EnMin= -897.096614652805     IErMin=10 ErrMin= 1.41D-06
 ErrMax= 1.41D-06  0.00D+00 EMaxC= 1.00D-01 BMatC= 1.82D-09 BMatP= 1.09D-08
 IDIUse=1 WtCom= 1.00D+00 WtEn= 0.00D+00
 Coeff-Com: -0.383D-04 0.910D-04 0.561D-03 0.792D-03 0.251D-03-0.391D-02
 Coeff-Com: -0.387D-01-0.441D-01 0.340D+00 0.745D+00
 Coeff:     -0.383D-04 0.910D-04 0.561D-03 0.792D-03 0.251D-03-0.391D-02
 Coeff:     -0.387D-01-0.441D-01 0.340D+00 0.745D+00
 Gap=     0.326 Goal=   None    Shift=    0.000
 RMSDP=3.83D-07 MaxDP=6.13D-05 DE=-1.42D-08 OVMax= 2.00D-05

 Cycle  11  Pass 1  IDiag  1:
 RMSU=  2.11D-07    CP:  8.09D-01  1.70D+00  9.73D-01  6.67D-01  1.04D+00
                    CP:  9.51D-01  8.82D-01  1.10D+00  1.24D+00  9.84D-01
 E= -897.096614655261     Delta-E=       -0.000000002456 Rises=F Damp=F
 DIIS: error= 4.15D-07 at cycle  11 NSaved=  11.
 NSaved=11 IEnMin=11 EnMin= -897.096614655261     IErMin=11 ErrMin= 4.15D-07
 ErrMax= 4.15D-07  0.00D+00 EMaxC= 1.00D-01 BMatC= 8.59D-11 BMatP= 1.82D-09
 IDIUse=1 WtCom= 1.00D+00 WtEn= 0.00D+00
 Coeff-Com: -0.205D-05 0.479D-05 0.695D-04 0.150D-03 0.564D-03 0.660D-03
 Coeff-Com: -0.384D-02-0.194D-01-0.265D-01 0.104D+00 0.944D+00
 Coeff:     -0.205D-05 0.479D-05 0.695D-04 0.150D-03 0.564D-03 0.660D-03
 Coeff:     -0.384D-02-0.194D-01-0.265D-01 0.104D+00 0.944D+00
 Gap=     0.326 Goal=   None    Shift=    0.000
 RMSDP=1.48D-07 MaxDP=1.78D-05 DE=-2.46D-09 OVMax= 1.02D-05

 Cycle  12  Pass 1  IDiag  1:
 RMSU=  6.89D-08    CP:  8.09D-01  1.70D+00  9.73D-01  6.67D-01  1.04D+00
                    CP:  9.51D-01  8.80D-01  1.10D+00  1.26D+00  1.05D+00
                    CP:  1.05D+00
 E= -897.096614655422     Delta-E=       -0.000000000161 Rises=F Damp=F
 DIIS: error= 1.38D-07 at cycle  12 NSaved=  12.
 NSaved=12 IEnMin=12 EnMin= -897.096614655422     IErMin=12 ErrMin= 1.38D-07
 ErrMax= 1.38D-07  0.00D+00 EMaxC= 1.00D-01 BMatC= 1.36D-11 BMatP= 8.59D-11
 IDIUse=1 WtCom= 1.00D+00 WtEn= 0.00D+00
 Coeff-Com:  0.260D-05-0.598D-05-0.206D-04-0.176D-04 0.158D-03 0.439D-03
 Coeff-Com:  0.187D-02-0.246D-02-0.359D-01-0.319D-01 0.291D+00 0.776D+00
 Coeff:      0.260D-05-0.598D-05-0.206D-04-0.176D-04 0.158D-03 0.439D-03
 Coeff:      0.187D-02-0.246D-02-0.359D-01-0.319D-01 0.291D+00 0.776D+00
 Gap=     0.326 Goal=   None    Shift=    0.000
 RMSDP=3.39D-08 MaxDP=2.41D-06 DE=-1.61D-10 OVMax= 3.92D-06

 Cycle  13  Pass 1  IDiag  1:
 RMSU=  2.44D-08    CP:  8.09D-01  1.70D+00  9.73D-01  6.67D-01  1.04D+00
                    CP:  9.51D-01  8.80D-01  1.10D+00  1.26D+00  1.06D+00
                    CP:  1.12D+00  9.84D-01
 E= -897.096614655461     Delta-E=       -0.000000000039 Rises=F Damp=F
 DIIS: error= 5.69D-08 at cycle  13 NSaved=  13.
 NSaved=13 IEnMin=13 EnMin= -897.096614655461     IErMin=13 ErrMin= 5.69D-08
 ErrMax= 5.69D-08  0.00D+00 EMaxC= 1.00D-01 BMatC= 2.34D-12 BMatP= 1.36D-11
 IDIUse=1 WtCom= 1.00D+00 WtEn= 0.00D+00
 Coeff-Com:  0.958D-06-0.231D-05-0.157D-04-0.280D-04-0.474D-04-0.309D-04
 Coeff-Com:  0.110D-02 0.277D-02-0.433D-02-0.288D-01-0.887D-01 0.215D+00
 Coeff-Com:  0.903D+00
 Coeff:      0.958D-06-0.231D-05-0.157D-04-0.280D-04-0.474D-04-0.309D-04
 Coeff:      0.110D-02 0.277D-02-0.433D-02-0.288D-01-0.887D-01 0.215D+00
 Coeff:      0.903D+00
 Gap=     0.326 Goal=   None    Shift=    0.000
 RMSDP=1.74D-08 MaxDP=1.09D-06 DE=-3.91D-11 OVMax= 2.54D-06

 Cycle  14  Pass 1  IDiag  1:
 RMSU=  1.12D-08    CP:  8.09D-01  1.70D+00  9.73D-01  6.67D-01  1.04D+00
                    CP:  9.51D-01  8.80D-01  1.10D+00  1.27D+00  1.06D+00
                    CP:  1.13D+00  1.09D+00  1.07D+00
 E= -897.096614655477     Delta-E=       -0.000000000016 Rises=F Damp=F
 DIIS: error= 2.51D-08 at cycle  14 NSaved=  14.
 NSaved=14 IEnMin=14 EnMin= -897.096614655477     IErMin=14 ErrMin= 2.51D-08
 ErrMax= 2.51D-08  0.00D+00 EMaxC= 1.00D-01 BMatC= 3.36D-13 BMatP= 2.34D-12
 IDIUse=1 WtCom= 1.00D+00 WtEn= 0.00D+00
 Coeff-Com: -0.406D-06 0.834D-06 0.864D-06-0.624D-07-0.339D-04-0.863D-04
 Coeff-Com: -0.163D-03 0.884D-03 0.639D-02 0.102D-02-0.676D-01-0.125D+00
 Coeff-Com:  0.108D+00 0.108D+01
 Coeff:     -0.406D-06 0.834D-06 0.864D-06-0.624D-07-0.339D-04-0.863D-04
 Coeff:     -0.163D-03 0.884D-03 0.639D-02 0.102D-02-0.676D-01-0.125D+00
 Coeff:      0.108D+00 0.108D+01
 Gap=     0.326 Goal=   None    Shift=    0.000
 RMSDP=8.35D-09 MaxDP=5.67D-07 DE=-1.59D-11 OVMax= 1.40D-06

 SCF Done:  E(RM062X) =  -897.096614655     A.U. after   14 cycles
            NFock= 14  Conv=0.83D-08     -V/T= 2.0046
 KE= 8.930109751540D+02 PE=-4.993475365099D+03 EE= 1.748250131465D+03
 Leave Link  502 at Sun Oct 13 20:23:00 2019, MaxMem= 10737418240 cpu:            3577.7 elap:             149.6
 (Enter /apps/cent7/gaussian/g16-A.03/g16-haswell/g16/l601.exe)
 Copying SCF densities to generalized density rwf, IOpCl= 0 IROHF=0.

 **********************************************************************

            Population analysis using the SCF density.

 **********************************************************************

 Orbital symmetries:
       Occupied  (A) (A) (A) (A) (A) (A) (A) (A) (A) (A) (A) (A)
                 (A) (A) (A) (A) (A) (A) (A) (A) (A) (A) (A) (A)
                 (A) (A) (A) (A) (A) (A) (A) (A) (A) (A) (A) (A)
                 (A) (A) (A) (A) (A) (A) (A) (A) (A) (A) (A) (A)
                 (A) (A) (A) (A) (A) (A) (A) (A) (A) (A) (A) (A)
                 (A) (A) (A) (A) (A) (A) (A) (A) (A) (A) (A) (A)
                 (A) (A) (A) (A) (A) (A) (A) (A) (A) (A) (A) (A)
       Virtual   (A) (A) (A) (A) (A) (A) (A) (A) (A) (A) (A) (A)
                 (A) (A) (A) (A) (A) (A) (A) (A) (A) (A) (A) (A)
                 (A) (A) (A) (A) (A) (A) (A) (A) (A) (A) (A) (A)
                 (A) (A) (A) (A) (A) (A) (A) (A) (A) (A) (A) (A)
                 (A) (A) (A) (A) (A) (A) (A) (A) (A) (A) (A) (A)
                 (A) (A) (A) (A) (A) (A) (A) (A) (A) (A) (A) (A)
                 (A) (A) (A) (A) (A) (A) (A) (A) (A) (A) (A) (A)
                 (A) (A) (A) (A) (A) (A) (A) (A) (A) (A) (A) (A)
                 (A) (A) (A) (A) (A) (A) (A) (A) (A) (A) (A) (A)
                 (A) (A) (A) (A) (A) (A) (A) (A) (A) (A) (A) (A)
                 (A) (A) (A) (A) (A) (A) (A) (A) (A) (A) (A) (A)
                 (A) (A) (A) (A) (A) (A) (A) (A) (A) (A) (A) (A)
                 (A) (A) (A) (A) (A) (A) (A) (A) (A) (A) (A) (A)
                 (A) (A) (A) (A) (A) (A) (A) (A) (A) (A) (A) (A)
                 (A) (A) (A) (A) (A) (A) (A) (A) (A) (A) (A) (A)
                 (A) (A) (A) (A) (A) (A) (A) (A) (A) (A) (A) (A)
                 (A) (A) (A) (A) (A) (A) (A) (A) (A) (A) (A) (A)
                 (A) (A) (A) (A) (A) (A) (A) (A) (A) (A) (A) (A)
                 (A) (A) (A) (A) (A) (A) (A) (A) (A) (A) (A) (A)
                 (A) (A) (A) (A) (A) (A) (A) (A) (A) (A) (A) (A)
                 (A) (A) (A) (A) (A) (A) (A) (A) (A) (A) (A) (A)
                 (A) (A) (A) (A) (A) (A) (A) (A) (A) (A) (A) (A)
                 (A) (A) (A) (A) (A) (A) (A) (A) (A) (A) (A) (A)
                 (A) (A) (A) (A) (A) (A) (A) (A) (A) (A) (A) (A)
                 (A) (A) (A) (A) (A) (A) (A) (A) (A) (A) (A) (A)
                 (A) (A) (A) (A) (A) (A) (A) (A) (A) (A) (A) (A)
                 (A) (A) (A) (A) (A) (A) (A) (A) (A) (A) (A) (A)
                 (A) (A) (A) (A) (A) (A) (A) (A) (A) (A) (A) (A)
                 (A) (A) (A) (A) (A) (A) (A) (A) (A) (A) (A) (A)
                 (A) (A) (A) (A) (A) (A) (A) (A) (A) (A) (A) (A)
                 (A) (A) (A) (A) (A) (A) (A) (A) (A) (A) (A) (A)
                 (A) (A) (A) (A) (A) (A) (A) (A) (A) (A) (A) (A)
                 (A) (A) (A) (A) (A) (A) (A) (A) (A) (A) (A) (A)
                 (A) (A) (A) (A) (A) (A) (A) (A) (A) (A) (A) (A)
                 (A) (A) (A) (A) (A) (A) (A) (A) (A) (A) (A) (A)
                 (A) (A) (A) (A) (A) (A) (A) (A) (A) (A) (A) (A)
                 (A) (A) (A) (A) (A) (A) (A) (A) (A) (A) (A) (A)
                 (A) (A) (A) (A) (A) (A) (A) (A) (A) (A) (A) (A)
                 (A) (A) (A) (A) (A) (A) (A) (A) (A) (A) (A) (A)
                 (A) (A) (A) (A) (A) (A) (A) (A) (A) (A) (A) (A)
                 (A) (A) (A) (A) (A) (A) (A) (A) (A) (A) (A) (A)
                 (A) (A) (A) (A) (A) (A) (A) (A) (A) (A) (A) (A)
                 (A) (A) (A) (A) (A) (A) (A) (A) (A) (A) (A) (A)
                 (A) (A) (A) (A) (A) (A) (A) (A) (A) (A) (A) (A)
                 (A) (A) (A) (A) (A) (A) (A) (A) (A) (A) (A) (A)
                 (A) (A) (A) (A) (A) (A) (A) (A) (A) (A) (A) (A)
                 (A) (A) (A) (A) (A) (A) (A) (A) (A) (A) (A) (A)
                 (A) (A) (A) (A) (A) (A) (A) (A) (A) (A) (A) (A)
                 (A) (A) (A) (A) (A) (A) (A) (A) (A) (A) (A) (A)
                 (A) (A) (A) (A) (A) (A) (A) (A) (A) (A) (A) (A)
                 (A) (A) (A) (A) (A) (A) (A) (A) (A) (A) (A) (A)
                 (A) (A) (A) (A) (A) (A) (A) (A) (A) (A) (A) (A)
                 (A) (A) (A) (A) (A) (A) (A) (A) (A) (A) (A) (A)
                 (A) (A) (A) (A) (A) (A) (A)
 The electronic state is 1-A.
 Alpha  occ. eigenvalues --  -19.65184 -19.61345 -10.67886 -10.60666 -10.55530
 Alpha  occ. eigenvalues --  -10.54850 -10.53932 -10.53501 -10.53216 -10.53019
 Alpha  occ. eigenvalues --  -10.52916 -10.52804 -10.52750 -10.52693 -10.52647
 Alpha  occ. eigenvalues --  -10.52631 -10.52616 -10.52594 -10.52583 -10.52541
 Alpha  occ. eigenvalues --  -10.51780  -1.21512  -1.12229  -0.92330  -0.91472
 Alpha  occ. eigenvalues --   -0.90567  -0.89219  -0.87518  -0.85461  -0.83396
 Alpha  occ. eigenvalues --   -0.82031  -0.79740  -0.76769  -0.73554  -0.70349
 Alpha  occ. eigenvalues --   -0.67484  -0.65555  -0.64990  -0.64595  -0.64474
 Alpha  occ. eigenvalues --   -0.63996  -0.63900  -0.59191  -0.58449  -0.57684
 Alpha  occ. eigenvalues --   -0.57220  -0.56619  -0.55937  -0.55496  -0.54107
 Alpha  occ. eigenvalues --   -0.52421  -0.50796  -0.50302  -0.49090  -0.48946
 Alpha  occ. eigenvalues --   -0.48459  -0.47645  -0.47100  -0.46516  -0.45993
 Alpha  occ. eigenvalues --   -0.44977  -0.44625  -0.43693  -0.43171  -0.42872
 Alpha  occ. eigenvalues --   -0.41799  -0.41447  -0.40929  -0.40314  -0.40281
 Alpha  occ. eigenvalues --   -0.39941  -0.39761  -0.39569  -0.39303  -0.38685
 Alpha  occ. eigenvalues --   -0.37897  -0.37070  -0.36685  -0.35955  -0.35846
 Alpha  occ. eigenvalues --   -0.35422  -0.35127  -0.34391  -0.33391
 Alpha virt. eigenvalues --   -0.00787  -0.00323   0.00025   0.00330   0.00490
 Alpha virt. eigenvalues --    0.00829   0.00932   0.01101   0.01473   0.01721
 Alpha virt. eigenvalues --    0.01930   0.02280   0.02632   0.02832   0.03013
 Alpha virt. eigenvalues --    0.03421   0.03612   0.03925   0.04076   0.04154
 Alpha virt. eigenvalues --    0.04854   0.04999   0.05124   0.05240   0.05475
 Alpha virt. eigenvalues --    0.05701   0.06237   0.06324   0.06538   0.06852
 Alpha virt. eigenvalues --    0.07094   0.07687   0.07886   0.08338   0.08499
 Alpha virt. eigenvalues --    0.08940   0.09321   0.09481   0.09584   0.09932
 Alpha virt. eigenvalues --    0.10260   0.10397   0.11032   0.11359   0.11479
 Alpha virt. eigenvalues --    0.11739   0.12225   0.12310   0.12585   0.12613
 Alpha virt. eigenvalues --    0.13036   0.13204   0.13378   0.13505   0.13693
 Alpha virt. eigenvalues --    0.14026   0.14103   0.14134   0.14318   0.14543
 Alpha virt. eigenvalues --    0.14562   0.14829   0.15000   0.15093   0.15270
 Alpha virt. eigenvalues --    0.15590   0.15655   0.15758   0.15894   0.16142
 Alpha virt. eigenvalues --    0.16169   0.16315   0.16454   0.16542   0.16850
 Alpha virt. eigenvalues --    0.17076   0.17319   0.17587   0.17750   0.17935
 Alpha virt. eigenvalues --    0.18147   0.18478   0.18652   0.18774   0.19168
 Alpha virt. eigenvalues --    0.19216   0.19451   0.19715   0.19930   0.20021
 Alpha virt. eigenvalues --    0.20400   0.20526   0.20906   0.21127   0.21385
 Alpha virt. eigenvalues --    0.21608   0.21714   0.21944   0.22228   0.22462
 Alpha virt. eigenvalues --    0.22572   0.22794   0.22926   0.23391   0.23797
 Alpha virt. eigenvalues --    0.24127   0.24540   0.24638   0.25021   0.25266
 Alpha virt. eigenvalues --    0.25365   0.25586   0.25987   0.26022   0.26156
 Alpha virt. eigenvalues --    0.26289   0.26560   0.26847   0.26889   0.27036
 Alpha virt. eigenvalues --    0.27231   0.27368   0.27546   0.27689   0.27987
 Alpha virt. eigenvalues --    0.28215   0.28329   0.28584   0.28831   0.28925
 Alpha virt. eigenvalues --    0.29456   0.29863   0.30121   0.30367   0.30721
 Alpha virt. eigenvalues --    0.31014   0.31116   0.31336   0.31536   0.31652
 Alpha virt. eigenvalues --    0.32027   0.32491   0.32905   0.33226   0.33454
 Alpha virt. eigenvalues --    0.33600   0.33780   0.34029   0.34188   0.34610
 Alpha virt. eigenvalues --    0.34686   0.35018   0.35165   0.35284   0.35326
 Alpha virt. eigenvalues --    0.35754   0.36230   0.36272   0.36564   0.36770
 Alpha virt. eigenvalues --    0.37383   0.37530   0.38663   0.39398   0.39496
 Alpha virt. eigenvalues --    0.40165   0.40661   0.41197   0.41935   0.42085
 Alpha virt. eigenvalues --    0.42191   0.42306   0.42979   0.44211   0.44500
 Alpha virt. eigenvalues --    0.45976   0.46791   0.47538   0.48555   0.48783
 Alpha virt. eigenvalues --    0.49509   0.49760   0.50284   0.50698   0.50833
 Alpha virt. eigenvalues --    0.51101   0.51774   0.52223   0.52652   0.53241
 Alpha virt. eigenvalues --    0.53617   0.53758   0.53945   0.54477   0.54928
 Alpha virt. eigenvalues --    0.55271   0.56828   0.57367   0.57753   0.58140
 Alpha virt. eigenvalues --    0.59311   0.59815   0.60581   0.61306   0.62140
 Alpha virt. eigenvalues --    0.62729   0.62805   0.63906   0.64750   0.65405
 Alpha virt. eigenvalues --    0.66051   0.66904   0.68164   0.68484   0.68791
 Alpha virt. eigenvalues --    0.69116   0.69830   0.69971   0.70124   0.70358
 Alpha virt. eigenvalues --    0.70450   0.70723   0.70775   0.71298   0.71521
 Alpha virt. eigenvalues --    0.72058   0.72417   0.72591   0.72876   0.73414
 Alpha virt. eigenvalues --    0.73698   0.73941   0.74213   0.74558   0.74924
 Alpha virt. eigenvalues --    0.75420   0.75592   0.75721   0.76012   0.76030
 Alpha virt. eigenvalues --    0.76611   0.76879   0.77405   0.77527   0.77669
 Alpha virt. eigenvalues --    0.77751   0.78096   0.78332   0.78637   0.78848
 Alpha virt. eigenvalues --    0.79076   0.79254   0.79960   0.80264   0.80633
 Alpha virt. eigenvalues --    0.80894   0.80983   0.81198   0.81444   0.81573
 Alpha virt. eigenvalues --    0.81773   0.82095   0.82406   0.82625   0.82785
 Alpha virt. eigenvalues --    0.82977   0.83097   0.84430   0.84636   0.85017
 Alpha virt. eigenvalues --    0.87050   0.88020   0.89400   0.90488   0.93209
 Alpha virt. eigenvalues --    0.94982   0.96385   0.97075   0.98543   0.99847
 Alpha virt. eigenvalues --    1.00275   1.03343   1.03677   1.04462   1.05160
 Alpha virt. eigenvalues --    1.05483   1.06222   1.06296   1.07064   1.07946
 Alpha virt. eigenvalues --    1.08865   1.09570   1.10320   1.10543   1.11050
 Alpha virt. eigenvalues --    1.11768   1.14612   1.17175   1.19525   1.19991
 Alpha virt. eigenvalues --    1.22670   1.23761   1.24354   1.28466   1.28767
 Alpha virt. eigenvalues --    1.29374   1.29852   1.30145   1.30907   1.31148
 Alpha virt. eigenvalues --    1.31332   1.32054   1.32307   1.32712   1.32893
 Alpha virt. eigenvalues --    1.33125   1.33438   1.33751   1.33926   1.34626
 Alpha virt. eigenvalues --    1.34748   1.35026   1.35879   1.36837   1.37436
 Alpha virt. eigenvalues --    1.38322   1.38620   1.40189   1.41376   1.42270
 Alpha virt. eigenvalues --    1.46686   1.47219   1.48343   1.50342   1.51757
 Alpha virt. eigenvalues --    1.52340   1.52626   1.53127   1.54336   1.54930
 Alpha virt. eigenvalues --    1.55802   1.57058   1.58198   1.58263   1.58559
 Alpha virt. eigenvalues --    1.58977   1.59228   1.60227   1.60704   1.60844
 Alpha virt. eigenvalues --    1.60896   1.61240   1.61828   1.61983   1.62111
 Alpha virt. eigenvalues --    1.62455   1.62706   1.62974   1.63451   1.63487
 Alpha virt. eigenvalues --    1.63963   1.64671   1.65488   1.65922   1.66548
 Alpha virt. eigenvalues --    1.67449   1.68061   1.69051   1.69648   1.69845
 Alpha virt. eigenvalues --    1.70275   1.70335   1.70660   1.70962   1.71010
 Alpha virt. eigenvalues --    1.71135   1.71989   1.72110   1.72205   1.72324
 Alpha virt. eigenvalues --    1.74184   1.74816   1.75704   1.76536   1.77884
 Alpha virt. eigenvalues --    1.79284   1.80098   1.80547   1.80855   1.81193
 Alpha virt. eigenvalues --    1.81710   1.82013   1.82479   1.83067   1.83376
 Alpha virt. eigenvalues --    1.83648   1.83873   1.84563   1.85291   1.85627
 Alpha virt. eigenvalues --    1.85787   1.86380   1.86461   1.87872   1.88191
 Alpha virt. eigenvalues --    1.88964   1.89351   1.89490   1.90553   1.90591
 Alpha virt. eigenvalues --    1.91754   1.92467   1.93418   1.94718   1.97107
 Alpha virt. eigenvalues --    1.97618   1.97988   1.99929   2.01546   2.02197
 Alpha virt. eigenvalues --    2.02822   2.03095   2.03423   2.06040   2.06207
 Alpha virt. eigenvalues --    2.07101   2.07137   2.07799   2.09841   2.11208
 Alpha virt. eigenvalues --    2.11777   2.12966   2.13962   2.14347   2.14688
 Alpha virt. eigenvalues --    2.16352   2.16694   2.17383   2.18616   2.20161
 Alpha virt. eigenvalues --    2.20500   2.21852   2.22070   2.22894   2.22961
 Alpha virt. eigenvalues --    2.23359   2.24504   2.25661   2.26050   2.26880
 Alpha virt. eigenvalues --    2.29028   2.29853   2.30694   2.31895   2.32653
 Alpha virt. eigenvalues --    2.34269   2.34918   2.37011   2.38349   2.39733
 Alpha virt. eigenvalues --    2.40470   2.41214   2.42977   2.43691   2.44054
 Alpha virt. eigenvalues --    2.44976   2.46218   2.46694   2.47292   2.47866
 Alpha virt. eigenvalues --    2.49039   2.50220   2.50535   2.51700   2.52363
 Alpha virt. eigenvalues --    2.52944   2.54060   2.55230   2.56077   2.56758
 Alpha virt. eigenvalues --    2.56807   2.57047   2.57840   2.58308   2.58781
 Alpha virt. eigenvalues --    2.59229   2.59643   2.60340   2.60398   2.60740
 Alpha virt. eigenvalues --    2.61254   2.61577   2.61867   2.62305   2.62633
 Alpha virt. eigenvalues --    2.62910   2.63712   2.64189   2.64354   2.65351
 Alpha virt. eigenvalues --    2.65644   2.66145   2.66510   2.66981   2.67219
 Alpha virt. eigenvalues --    2.67951   2.69149   2.69501   2.71156   2.71585
 Alpha virt. eigenvalues --    2.72787   2.73337   2.73731   2.73939   2.75180
 Alpha virt. eigenvalues --    2.75405   2.76677   2.77084   2.78965   2.79599
 Alpha virt. eigenvalues --    2.80081   2.81309   2.82754   2.83869   2.84582
 Alpha virt. eigenvalues --    2.85827   2.86901   2.88530   2.88971   2.90165
 Alpha virt. eigenvalues --    2.91062   2.92673   2.92772   2.93580   2.94340
 Alpha virt. eigenvalues --    2.94825   2.95979   2.96158   2.97205   2.97331
 Alpha virt. eigenvalues --    2.97837   2.98331   2.98413   2.99457   3.00352
 Alpha virt. eigenvalues --    3.01257   3.03024   3.03856   3.04208   3.04954
 Alpha virt. eigenvalues --    3.06420   3.06895   3.07015   3.07811   3.08240
 Alpha virt. eigenvalues --    3.08384   3.09138   3.11690   3.12335   3.12692
 Alpha virt. eigenvalues --    3.14958   3.16951   3.17402   3.18241   3.21305
 Alpha virt. eigenvalues --    3.26170   3.27836   3.30147   3.33841   3.38484
 Alpha virt. eigenvalues --    3.40123   3.42039   3.44407   3.45899   3.46638
 Alpha virt. eigenvalues --    3.60327   3.64431   3.71050   3.79539   3.83466
 Alpha virt. eigenvalues --    3.83925   3.84264   3.84370   3.84640   3.84970
 Alpha virt. eigenvalues --    3.85395   3.86262   3.88846   3.92408   3.96362
 Alpha virt. eigenvalues --    3.97108   3.98034   3.99135   4.00359   4.00794
 Alpha virt. eigenvalues --    4.00889   4.03168   4.04551   4.06184   4.08014
 Alpha virt. eigenvalues --    4.09533   4.10472   4.12490   4.13043   4.14546
 Alpha virt. eigenvalues --    4.15874   4.16729   4.20284   4.21821   4.25481
 Alpha virt. eigenvalues --    4.29362   4.34078   4.38512   4.42185   4.44765
 Alpha virt. eigenvalues --    4.45767   5.19853   5.22373   5.33123   5.40140
 Alpha virt. eigenvalues --    5.69426   5.97208  23.82973  23.95467  23.96069
 Alpha virt. eigenvalues --   23.96404  23.96628  23.96967  23.97494  23.97626
 Alpha virt. eigenvalues --   23.97889  23.98422  23.98771  23.99070  23.99496
 Alpha virt. eigenvalues --   23.99723  23.99922  24.00701  24.00822  24.01899
 Alpha virt. eigenvalues --   24.05911  50.00853  50.09045
          Condensed to atoms (all electrons):
 Mulliken charges:
               1
     1  O   -0.219457
     2  C   -0.353106
     3  O   -0.074076
     4  C   -0.342744
     5  C   -0.183990
     6  C   -0.189208
     7  C   -0.206470
     8  C   -0.225098
     9  C   -0.234171
    10  C   -0.268592
    11  C   -0.288175
    12  C   -0.274258
    13  C   -0.287002
    14  C   -0.275598
    15  C   -0.268868
    16  C   -0.244975
    17  C   -0.198687
    18  C   -0.277322
    19  C   -0.252051
    20  C   -0.237347
    21  C   -0.583848
    22  H    0.171807
    23  H    0.166516
    24  H    0.178949
    25  H    0.128646
    26  H    0.221898
    27  H    0.174899
    28  H    0.169246
    29  H    0.143635
    30  H    0.142450
    31  H    0.141694
    32  H    0.139687
    33  H    0.135041
    34  H    0.132737
    35  H    0.135563
    36  H    0.136291
    37  H    0.135005
    38  H    0.135589
    39  H    0.135052
    40  H    0.134247
    41  H    0.134614
    42  H    0.135275
    43  H    0.134826
    44  H    0.134460
    45  H    0.134305
    46  H    0.134564
    47  H    0.135625
    48  H    0.135420
    49  H    0.132097
    50  H    0.132245
    51  H    0.138286
    52  H    0.135444
    53  H    0.143446
    54  H    0.147700
    55  H    0.135543
    56  H    0.132186
    57  H    0.154853
    58  H    0.150811
    59  H    0.144393
 Sum of Mulliken charges =  -0.00000
[...]
 000004,0.00000003,-0.00000002,-0.00000007,0.00000002,0.00000002,-0.000
 00005,-0.00000003,-0.00000005,0.00000002,-0.00000011,0.00000012,-0.000
 00001,0.00000013,0.00000011,-0.00000006,0.,0.,-0.00000008,-0.00000004,
 -0.00000003,0.,-0.00000017,0.00000020,-0.00000002,0.00000020,0.0000002
 3,-0.00000010,0.00000004,-0.00000004,-0.00000008,-0.00000010,-0.000000
 08,0.,-0.00000026,0.00000029,0.,0.00000033,0.00000044,-0.00000017,0.00
 000019,-0.00000026,-0.00000021,-0.00000026,-0.00000010,-0.00000037,-0.
 00000042,0.00000041,0.00000025,0.00000073,0.00000090,-0.00000011,0.000
 00056,-0.00000106,-0.00000057,-0.00000028,-0.00000034,-0.00000158,-0.0
 0000073,0.00000120,0.00000107,0.00000052,0.00000340,0.00000442,0.00000
 403,-0.00000618,-0.00000249,-0.00000282,0.00000116,-0.00004879,0.00002
 104,0.00000572,0.00003252,0.00000282,0.00000938,-0.00006896,0.00016198
 ,-0.00016130,-0.00004416,0.00012600,-0.00001496,-0.00031339,0.00025480
 ,-0.00044800,0.00093313,0.00082495,-0.00046350,-0.00308205,-0.00342842
 ,0.00159867,0.08027393,-0.00000204,-0.00000126,-0.00000122,0.00000254,
 0.00000196,0.00000126,-0.00000102,-0.00000036,-0.00000061,0.00000088,0
 .00000011,0.00000021,-0.00000098,-0.00000057,0.00000045,0.00000016,0.0
 0000033,0.00000005,0.,-0.00000084,0.00000023,-0.00000031,0.00000101,0.
 00000055,-0.00000009,-0.00000168,0.00000015,-0.00000056,0.00000208,0.0
 0000120,0.00000018,-0.00000325,0.00000146,-0.00000185,0.00000415,0.000
 00090,-0.00000038,-0.00000702,0.00000061,-0.00000408,0.00000918,0.0000
 0206,0.,-0.00001544,0.00000438,0.00000484,0.00002000,0.00000734,-0.000
 03369,0.00001014,-0.00006429,-0.00010976,0.00008690,-0.00022002,0.0012
 1535,0.00051871,-0.00056957,0.00754163,-0.01395407,0.01855735,0.048259
 86,-0.12790234,0.11200570,0.00000001,0.00000003,-0.00000008,-0.0000002
 6,0.00000002,0.00000005,0.00000007,-0.00000005,0.,0.00000012,-0.000000
 04,0.,0.00000009,0.00000006,-0.00000006,0.00000003,-0.00000010,0.00000
 002,0.00000005,0.00000006,-0.00000012,0.00000007,-0.00000005,-0.000000
 03,-0.00000013,0.00000021,-0.00000017,-0.00000002,-0.00000025,-0.00000
 013,0.00000006,0.00000013,-0.00000020,0.00000010,-0.00000007,-0.000000
 08,-0.00000025,0.00000039,-0.00000030,-0.00000005,-0.00000046,-0.00000
 022,0.00000010,0.00000020,-0.00000036,0.00000017,-0.00000007,-0.000000
 12,-0.00000049,0.00000071,-0.00000050,-0.00000013,-0.00000090,-0.00000
 037,0.00000025,0.00000034,-0.00000073,0.00000032,-0.00000003,-0.000000
 25,-0.00000119,0.00000145,-0.00000097,-0.00000040,-0.00000203,-0.00000
 073,0.00000059,0.00000060,-0.00000178,0.00000062,0.00000016,-0.0000007
 0,-0.00000269,0.00000363,-0.00000164,-0.00000174,-0.00000692,-0.000001
 10,0.00000301,-0.00000096,-0.00000550,0.00000236,0.00000218,-0.0000010
 0,-0.00004302,0.00002006,0.00001043,0.00000106,-0.00006339,0.00000417,
 0.00014845,0.00012788,-0.00015798,-0.00011994,0.00001594,-0.00006682,-
 0.00067188,0.00059866,-0.00004060,0.00064072,0.00027204,-0.00042458,-0
 .00390182,-0.00244188,0.00075522,-0.04990073,0.13894621,0.00000059,-0.
 00000022,0.00000073,-0.00000038,0.00000046,-0.00000155,0.00000035,-0.0
 0000062,0.00000111,-0.00000048,0.00000020,-0.00000027,0.,0.00000006,0.
 ,0.,0.00000003,-0.00000020,-0.00000022,0.00000034,-0.00000025,0.000000
 22,-0.00000005,-0.00000016,-0.00000032,0.00000064,-0.00000040,0.000000
 34,-0.00000020,-0.00000068,-0.00000036,0.00000143,-0.00000010,0.000001
 24,-0.00000084,-0.00000077,-0.00000090,0.00000331,-0.00000129,0.000003
 44,-0.00000268,-0.00000243,-0.00000015,0.00001052,-0.00000709,0.000014
 86,-0.00001658,0.00000126,0.00003614,0.00003426,-0.00001565,0.00031665
 ,-0.00020708,0.00023784,-0.00084159,-0.00005933,0.00001371,-0.00225141
 ,0.00413582,-0.00619444,-0.06644722,0.11233707,-0.20469752,0.00000011,
 -0.00000008,0.00000002,0.00000010,0.00000012,-0.00000011,-0.00000014,0
 .,0.00000009,-0.00000005,0.00000006,-0.00000014,0.00000007,0.00000002,
 0.00000013,-0.00000008,0.00000004,-0.00000011,0.00000002,-0.00000014,0
 .00000028,-0.00000004,0.00000002,-0.00000019,0.00000026,-0.00000017,0.
 00000032,-0.00000011,0.00000003,-0.00000015,0.00000002,-0.00000028,0.0
 0000047,-0.00000006,0.00000002,-0.00000032,0.00000045,-0.00000029,0.00
 000055,-0.00000018,0.00000004,-0.00000024,0.,-0.00000050,0.00000076,-0
 .00000010,0.00000004,-0.00000054,0.00000087,-0.00000051,0.00000097,-0.
 00000040,0.00000006,-0.00000038,-0.00000016,-0.00000096,0.00000140,-0.
 00000014,0.00000012,-0.00000115,0.00000195,-0.00000100,0.00000192,-0.0
 0000077,0.00000010,-0.00000059,-0.00000077,-0.00000217,0.00000291,-0.0
 0000051,0.00000035,-0.00000247,0.00000488,-0.00000179,0.00000499,-0.00
 000282,0.00000049,-0.00000171,-0.00000482,-0.00000635,0.00000640,0.000
 00043,0.00000104,-0.00001099,0.00003874,-0.00000725,0.00001471,-0.0000
 3913,-0.00001189,-0.00001977,-0.00015234,-0.00015250,0.00009839,-0.000
 01482,0.00007049,-0.00009502,0.00080243,-0.00014636,0.00005838,0.00041
 359,-0.00011256,0.00067300,0.00137277,0.00092993,0.00113999,0.07214564
 ,-0.12537919,0.21960407,-0.00000648,-0.00000489,-0.00000089,0.00000897
 ,0.00000991,-0.00000307,-0.00000324,-0.00000334,0.00000408,0.00000196,
 0.00000004,-0.00000130,-0.00000437,-0.00000268,0.00000167,0.00000033,0
 .00000144,-0.00000033,-0.00000039,-0.00000345,0.00000018,-0.00000218,0
 .00000460,0.00000046,-0.00000061,-0.00000704,0.00000094,-0.00000434,0.
 00000976,0.00000075,-0.00000197,-0.00001517,0.00000149,-0.00000964,0.0
 0002185,0.00000368,-0.00000700,-0.00003764,0.00000357,-0.00003157,0.00
 005854,0.00000831,-0.00003228,-0.00012197,0.00001037,-0.00015058,0.000
 22612,0.00004787,-0.00021771,-0.00061020,0.00008952,-0.00078355,0.0013
 6405,0.00041524,-0.00186409,-0.00519815,0.00088298,-0.01764776,0.01139
 091,0.00494039,-0.24350777,0.10320304,0.06148256,0.00000028,0.00000023
 ,-0.00000029,-0.00000076,0.00000044,-0.00000020,-0.00000010,-0.0000004
 2,0.00000031,0.00000043,0.00000016,-0.00000008,0.00000061,0.00000010,-
 0.00000007,0.00000017,-0.00000005,0.,0.00000032,-0.00000025,0.00000024
 ,0.00000014,0.00000025,0.00000013,0.00000009,0.00000020,-0.00000016,0.
 00000002,-0.00000037,-0.00000049,0.00000035,-0.00000033,0.00000042,0.0
 0000025,0.00000039,0.00000014,0.00000013,0.00000043,-0.00000032,-0.000
 00004,-0.00000074,-0.00000089,0.00000057,-0.00000064,0.00000071,0.0000
 0044,0.00000082,0.00000033,0.00000017,0.00000086,-0.00000065,-0.000000
 16,-0.00000155,-0.00000175,0.00000108,-0.00000136,0.00000141,0.0000009
 9,0.00000181,0.00000096,0.00000032,0.00000185,-0.00000156,-0.00000045,
 -0.00000340,-0.00000421,0.00000242,-0.00000313,0.00000342,0.00000280,0
 .00000469,0.00000369,0.,0.00000472,-0.00000479,0.00000007,-0.00000792,
 -0.00001383,0.00000928,-0.00000592,0.00000946,0.00001922,0.00001287,0.
 00001815,0.00000680,0.00001412,-0.00002562,-0.00002506,-0.00003549,-0.
 00009063,-0.00000672,-0.00006482,0.00009095,0.00020909,0.00004564,0.00
 006890,0.00039633,-0.00013829,-0.00011016,0.00029550,0.00010067,-0.000
 68231,0.00081615,-0.00001930,0.00029288,-0.00856848,0.00399585,0.00270
 181,0.26461878,0.00000049,0.00000040,0.00000001,-0.00000084,-0.0000005
 2,0.00000035,0.00000047,0.00000017,-0.00000032,-0.00000026,0.,0.000000
 04,0.00000037,0.00000001,-0.00000008,-0.00000025,0.00000006,-0.0000001
 2,0.00000003,-0.00000031,-0.00000038,-0.00000019,0.00000047,0.00000032
 ,0.00000015,-0.00000102,0.00000032,-0.00000090,0.00000165,0.00000026,-
 0.00000043,-0.00000361,0.00000047,-0.00000341,0.00000538,0.00000093,-0
 .00000359,-0.00001280,0.00000134,-0.00001788,0.00002246,0.00000507,-0.
 00002602,-0.00006534,0.00001064,-0.00011718,0.00012858,0.00003569,-0.0
 0024966,-0.00045766,0.00009826,-0.00116811,0.00100985,0.00037447,-0.00
 231967,-0.00376237,0.00090651,-0.02152849,0.01218774,0.00668073,0.1043
 2093,-0.10142859,-0.03267556,-0.00000002,0.,0.00000004,0.00000008,-0.0
 0000003,0.,-0.00000001,0.00000003,-0.00000002,0.00000003,-0.00000002,0
 .00000003,-0.00000008,0.,0.,0.,0.,0.00000002,-0.00000003,0.00000004,0.
 ,0.,0.,0.00000006,-0.00000005,0.,-0.00000005,0.,0.00000001,0.,0.,0.,-0
 .00000002,0.,0.00000006,0.00000014,-0.00000010,0.00000004,-0.00000011,
 0.00000006,-0.00000003,-0.00000001,0.00000005,-0.00000002,-0.00000004,
 0.00000004,0.00000018,0.00000036,-0.00000018,0.00000017,-0.00000033,0.
 00000011,-0.00000012,-0.00000015,0.00000019,-0.00000010,0.00000003,0.0
 0000018,0.00000057,0.00000098,-0.00000043,0.00000052,-0.00000094,0.000
 00042,-0.00000015,-0.00000107,0.00000103,-0.00000008,0.00000055,0.0000
 0162,0.00000144,0.00000368,-0.00000085,0.00000119,-0.00000404,0.000000
 61,-0.00000097,-0.00000714,0.00000507,-0.00000040,0.00000509,0.0000171
 6,-0.00000007,0.00001751,0.00000405,-0.00000141,-0.00002454,0.00004439
 ,0.00003661,-0.00006994,0.00007389,0.00003650,0.00002650,-0.00002196,0
 .00001958,0.00031085,-0.00016964,-0.00001982,-0.00023301,0.00070090,0.
 00088628,-0.00051610,0.00087610,0.00088595,-0.00007388,0.01406158,-0.0
 0845440,-0.00592327,-0.11099131,0.10808844,0.00000178,0.00000140,-0.00
 000044,-0.00000261,-0.00000336,0.00000239,0.00000083,0.00000132,-0.000
 00247,-0.00000037,0.00000013,0.00000087,0.00000147,0.00000090,-0.00000
 065,0.00000018,-0.00000048,0.00000096,0.00000003,0.00000113,-0.0000003
 8,0.00000050,-0.00000153,-0.00000100,0.00000069,0.00000246,0.00000117,
 0.00000101,-0.00000333,-0.00000160,0.00000100,0.00000519,0.00000044,0.
 00000457,-0.00000736,0.00000242,0.00000253,0.00001300,-0.00000097,0.00
 001087,-0.00002032,-0.00000379,0.00000705,0.00004245,-0.00001757,0.000
 05908,-0.00007934,-0.00000182,0.00007733,0.00021830,-0.00004561,0.0005
 0136,-0.00046915,0.00045144,0.00078499,0.00186777,-0.00007307,0.006086
 94,-0.00426345,-0.00341616,0.06146049,-0.03230376,-0.06682400,-0.00000
 012,-0.00000012,0.00000008,0.00000019,-0.00000020,0.00000011,0.0000000
 9,0.00000019,-0.00000014,-0.00000018,-0.00000011,0.00000003,-0.0000002
 3,0.,0.00000002,-0.00000005,-0.00000003,-0.00000004,-0.00000016,0.0000
 0015,-0.00000013,-0.00000001,-0.00000018,-0.00000012,-0.00000011,0.,0.
 00000002,-0.00000006,-0.00000003,0.00000010,-0.00000015,0.00000022,-0.
 00000023,-0.00000005,-0.00000027,-0.00000016,-0.00000013,-0.00000001,0
 .00000004,-0.00000005,0.00000011,0.00000017,-0.00000022,0.00000035,-0.
 00000038,-0.00000009,-0.00000046,-0.00000028,-0.00000018,-0.00000012,0
 .00000013,-0.00000011,0.00000029,0.00000039,-0.00000036,0.00000067,-0.
 00000074,-0.00000029,-0.00000095,-0.00000045,-0.00000018,-0.00000031,0
 .00000048,-0.00000008,0.00000104,0.00000091,-0.00000099,0.00000111,-0.
 00000170,-0.00000019,-0.00000241,-0.00000133,-0.00000060,-0.00000081,0
 .00000220,-0.00000191,0.00000054,0.00000267,-0.00000316,0.00000397,-0.
 00000627,-0.00000630,-0.00000973,-0.00000282,-0.00000068,0.00000094,0.
 00001255,0.00006696,0.00006839,-0.00001226,-0.00007406,-0.00003861,-0.
 00002726,-0.00034611,0.00028527,0.00031130,0.00031146,-0.00023941,0.00
 017292,-0.00040872,0.00019988,0.00030177,-0.00002973,-0.00028831,-0.00
 020331,-0.02231499,0.01102866,0.00787187,-0.06858826,0.03463605,0.0680
 3222,0.00000137,0.00000122,0.00000028,-0.00000200,-0.00000219,0.000000
 55,0.00000068,0.00000086,-0.00000071,-0.00000041,-0.00000018,0.0000001
 6,0.00000095,0.00000049,-0.00000035,-0.00000013,-0.00000028,0.00000013
 ,0.00000012,0.00000047,-0.00000019,0.00000018,-0.00000083,-0.00000005,
 0.00000023,0.00000093,-0.00000031,0.00000032,-0.00000163,-0.00000028,0
 .00000044,0.00000173,-0.00000017,0.00000074,-0.00000284,-0.00000001,0.
 00000108,0.00000381,-0.00000101,0.00000119,-0.00000701,-0.00000149,0.0
 0000054,0.00000896,-0.00000440,0.00001651,-0.00001326,0.00000255,0.000
 01996,0.00007410,0.00005708,-0.00012270,-0.00002895,0.00022527,0.00134
 569,-0.00056956,-0.00163674,-0.00547866,-0.01407799,-0.01856494,-0.056
 34596,-0.02892217,-0.03831720,-0.00000010,0.,0.00000006,0.00000016,-0.
 00000013,0.00000003,0.00000004,0.00000008,-0.00000007,-0.00000009,-0.0
 0000002,0.00000009,-0.00000014,-0.00000004,-0.00000003,0.00000002,0.00
 000004,0.00000006,-0.00000009,0.00000004,-0.00000012,-0.00000004,0.,0.
 00000015,-0.00000008,-0.00000002,-0.00000006,0.00000012,0.00000016,0.0
 0000022,-0.00000008,0.00000009,-0.00000021,-0.00000010,0.00000003,0.00
 000028,-0.00000014,-0.00000004,-0.00000011,0.00000023,0.00000034,0.000
 00039,-0.00000014,0.00000014,-0.00000033,-0.00000018,0.00000011,0.0000
 0056,-0.00000018,-0.00000010,-0.00000020,0.00000059,0.00000076,0.00000
 079,-0.00000018,0.00000022,-0.00000064,-0.00000063,0.00000030,0.000001
 49,-0.00000047,-0.00000029,-0.00000041,0.00000183,0.00000185,0.0000016
 8,-0.00000016,0.00000049,-0.00000130,-0.00000204,0.00000062,0.00000406
 ,-0.00000093,-0.00000047,-0.00000084,0.00001025,0.00000741,0.00000258,
 -0.00000023,0.,-0.00000455,-0.00004660,0.00002220,0.00003917,-0.000006
 48,-0.00000325,-0.00000443,0.00013328,0.00022829,0.00011385,0.00002819
 ,0.00000855,-0.00004595,-0.00033787,0.00031352,0.00072141,-0.00005125,
 0.00005613,-0.00002444,-0.00285666,-0.00322069,0.00165589,0.00083363,0
 .00075624,0.00027716,-0.00300784,-0.00702003,-0.00809751,0.00648319,0.
 01651155,0.02240007,0.05938105,-0.00000085,-0.00000057,0.00000105,0.00
 000147,0.00000224,-0.00000305,-0.00000045,-0.00000091,0.00000286,0.,-0
 .00000038,-0.00000106,-0.00000104,-0.00000068,0.00000026,0.00000010,0.
 00000037,-0.00000016,-0.00000013,-0.00000088,-0.00000013,-0.00000064,0
 .00000101,-0.00000035,-0.00000013,-0.00000177,0.,-0.00000128,0.0000020
 6,-0.00000076,-0.00000066,-0.00000347,-0.00000107,-0.00000223,0.000004
 24,0.00000017,-0.00000057,-0.00000736,0.00000005,-0.00000504,0.0000095
 0,0.00000036,-0.00000273,-0.00001677,-0.00000292,-0.00000248,0.0000211
 1,-0.00000910,0.00000803,0.00000921,0.00006940,0.00003520,0.00012126,0
 .00025927,0.00132000,0.00055082,-0.00029501,-0.00474321,-0.01519893,-0
 .01841867,-0.02919503,-0.14423777,-0.12431792,0.00000005,0.00000017,-0
 .00000005,-0.00000009,0.00000013,-0.00000014,-0.00000009,-0.00000019,0
 .00000013,0.00000008,0.00000014,0.00000007,0.00000016,-0.00000004,-0.0
 0000003,0.00000013,0.00000009,0.00000010,0.00000008,-0.00000019,0.0000
 0009,-0.00000001,0.00000026,0.00000029,0.00000009,-0.00000006,-0.00000
 002,0.00000017,0.00000016,0.00000014,0.00000008,-0.00000026,0.00000015
 ,-0.00000004,0.00000044,0.00000044,0.00000013,-0.00000007,-0.00000002,
 0.00000031,0.00000025,0.00000025,0.00000012,-0.00000046,0.00000022,-0.
 00000013,0.00000080,0.00000076,0.00000021,-0.00000008,-0.00000004,0.00
 000067,0.00000044,0.00000047,0.00000018,-0.00000089,0.00000039,-0.0000
 0044,0.00000162,0.00000161,0.00000042,-0.00000004,-0.00000008,0.000001
 62,0.00000083,0.00000113,0.00000024,-0.00000200,0.00000087,-0.00000133
 ,0.00000396,0.00000319,0.00000093,0.00000014,-0.00000001,0.00000595,-0
 .00000035,0.00000271,-0.00000034,-0.00000688,0.00000215,-0.00004160,0.
 00002031,0.00001805,0.00000229,0.00000209,-0.00000131,0.00022097,0.000
 14000,0.00002437,0.00000107,-0.00006278,-0.00000256,-0.00056005,0.0006
 1506,0.00041792,-0.00005868,0.00001559,0.00011788,-0.00347520,-0.00237
 481,0.00197414,0.00074467,0.00027585,-0.00000688,0.00307535,0.01221292
 ,0.01450774,-0.00319656,-0.00910455,-0.01064772,0.03587024,0.15701010,
 -0.00000053,0.00000004,0.00000094,0.00000078,0.00000113,-0.00000228,-0
 .00000032,-0.00000031,0.00000217,0.00000006,-0.00000056,-0.00000090,-0
 .00000065,-0.00000049,0.00000018,-0.00000001,0.00000017,-0.00000018,-0
 .00000006,-0.00000076,-0.00000029,-0.00000045,0.00000061,0.00000007,-0
 .00000012,-0.00000139,-0.00000033,-0.00000102,0.00000128,-0.00000018,0
 .00000003,-0.00000284,-0.00000010,-0.00000220,0.00000283,0.00000020,-0
 .00000075,-0.00000655,-0.00000094,-0.00000587,0.00000779,0.00000108,-0
 .00000516,-0.00001920,-0.00000287,-0.00002699,0.00002966,0.00001025,-0
 .00006348,-0.00010022,-0.00003463,-0.00005832,0.00029921,0.00027101,-0
 .00026078,0.00044115,0.00063140,0.00218772,0.00599340,0.00775834,-0.03
 891295,-0.12489673,-0.20710106,-0.00000004,0.00000022,-0.00000005,-0.0
 0000007,0.00000003,-0.00000005,0.,-0.00000017,0.00000006,0.00000008,0.
 00000010,0.00000017,0.00000008,-0.00000007,-0.00000010,0.00000014,0.00
 000011,0.00000015,0.00000006,-0.00000009,-0.00000007,0.00000001,0.0000
 0024,0.00000042,-0.00000005,-0.00000003,-0.00000017,0.00000023,0.00000
 023,0.00000026,0.00000005,-0.00000009,-0.00000009,0.00000004,0.0000003
 6,0.00000064,-0.00000008,-0.00000002,-0.00000028,0.00000037,0.00000039
 ,0.00000039,0.00000009,-0.00000013,-0.00000015,0.,0.00000059,0.0000011
 2,-0.00000019,0.,-0.00000046,0.00000070,0.00000068,0.00000057,0.000000
 24,-0.00000019,-0.00000026,-0.00000002,0.00000109,0.00000209,-0.000000
 41,0.,-0.00000095,0.00000140,0.00000144,0.00000081,0.00000045,-0.00000
 038,-0.00000030,0.00000044,0.00000197,0.00000526,-0.00000073,-0.000000
 29,-0.00000222,0.00000132,0.00000278,0.00000012,0.00000185,-0.00000021
 ,-0.00000063,0.00001007,-0.00000699,0.00001257,-0.00000399,0.00000011,
 -0.00000728,0.00010578,0.00001256,-0.00011480,0.00000368,0.00001132,-0
 .00001597,-0.00046638,-0.00007527,0.00007260,-0.00001343,-0.00014063,-
 0.00009016,0.00190516,0.00155410,0.00084737,-0.00059218,-0.00038583,0.
 00076511,-0.00345052,-0.01544038,-0.01867957,-0.00155610,-0.00358618,-
 0.00652252,0.04120303,0.13630040,0.22219450\\0.00000336,-0.00000288,0.
 00000538,0.00000369,0.00001609,-0.00001868,-0.00001470,-0.00001353,0.0
 0000662,0.00000919,0.00001133,0.00001018,0.00000550,-0.00001026,-0.000
 00511,-0.00000167,0.00001472,0.00000147,0.00000422,-0.00001329,-0.0000
 0103,-0.00000265,0.00001137,-0.00000042,0.00000026,-0.00000963,0.00000
 022,-0.00000089,0.00001011,0.,0.00000095,-0.00001015,0.00000010,-0.000
 00145,0.00000989,-0.00000001,0.00000147,-0.00001017,-0.00000018,-0.000
 00147,0.00001003,-0.00000002,0.00000186,-0.00001012,-0.00000038,-0.000
 00101,0.00001010,0.00000024,0.00000177,-0.00000994,-0.00000057,-0.0000
 0144,0.00001070,-0.00000033,-0.00000019,-0.00001274,0.00000226,-0.0000
 0083,0.00000631,0.00000209,0.00000351,0.00000132,-0.00000218,-0.000000
 90,-0.00000092,-0.00000133,-0.00000171,0.00000008,-0.00000137,0.000001
 49,-0.00000421,-0.00000475,-0.00000282,0.00000163,0.00000229,-0.000001
 59,0.00000087,0.00000115,-0.00000185,-0.00000231,-0.00000017,-0.000000
 82,-0.00000378,0.00000007,0.00000028,0.00000273,0.00000132,-0.00000098
 ,0.00000375,-0.00000080,0.00000023,-0.00000200,-0.00000117,0.00000004,
 -0.00000275,0.00000061,-0.00000009,0.00000224,0.00000076,-0.00000050,0
 .00000246,-0.00000077,-0.00000018,-0.00000206,-0.00000108,0.00000041,-
 0.00000225,0.00000045,0.00000002,0.00000230,0.00000088,-0.00000044,0.0
 0000249,-0.00000059,-0.00000009,-0.00000214,-0.00000086,0.00000053,-0.
 00000225,0.00000057,0.00000008,0.00000212,0.00000105,-0.00000041,0.000
 00242,-0.00000045,0.00000001,-0.00000223,-0.00000078,0.00000057,-0.000
 00235,0.00000075,0.00000015,0.00000212,0.00000119,-0.00000033,0.000002
 20,-0.00000032,0.00000020,-0.00000261,-0.00000087,0.00000033,-0.000002
 32,0.00000081,0.00000037,0.00000241,0.00000132,-0.00000038,0.00000183,
 -0.00000014,0.00000026,-0.00000277,-0.00000082,0.00000050,-0.00000211,
 0.00000099,0.00000023,0.00000166,0.00000155,-0.00000030,0.00000250,-0.
 00000079,-0.00000180,-0.00000221,-0.00000018,-0.00000101,-0.00000456,-
 0.00000001,0.00000156,-0.00000050,0.00000092,-0.00000068,0.00000083,0.
 00000163,0.00000014,0.00000040,-0.00000070\\\@


 TRUTH, IN SCIENCE, CAN BE DEFINED AS THE WORKING HYPOTHESIS 
 BEST FITTED TO OPEN THE WAY TO THE NEXT BETTER ONE.

                              -- KONRAD LORENZ
 Job cpu time:       0 days 16 hours 44 minutes 50.7 seconds.
 Elapsed time:       0 days  0 hours 42 minutes  0.1 seconds.
 File lengths (MBytes):  RWF=   2480 Int=      0 D2E=      0 Chk=     47 Scr=      1
 Normal termination of Gaussian 16 at Sun Oct 13 21:52:43 2019.
real 5536.70
user 132114.21
sys 81.31
Machine:
brown-a157
brown-a157
brown-a157
brown-a157
brown-a157
brown-a157
brown-a157
brown-a157
brown-a157
brown-a157
brown-a157
brown-a157
brown-a157
brown-a157
brown-a157
brown-a157
brown-a157
brown-a157
brown-a157
brown-a157
brown-a157
brown-a157
brown-a157
brown-a157
