 Entering Gaussian System, Link 0=/apps/cent7/gaussian/g16-A.03/g16-haswell/g16/g16
 Initial command:
 /apps/cent7/gaussian/g16-A.03/g16-haswell/g16/l1.exe "/scratch/brown/finej/gaussian/Gau-127135.inp" -scrdir="/scratch/brown/finej/gaussian/"
 Entering Link 1 = /apps/cent7/gaussian/g16-A.03/g16-haswell/g16/l1.exe PID=    127136.
  
 Copyright (c) 1988,1990,1992,1993,1995,1998,2003,2009,2016,
            Gaussian, Inc.  All Rights Reserved.
  
 This is part of the Gaussian(R) 16 program.  It is based on
 the Gaussian(R) 09 system (copyright 2009, Gaussian, Inc.),
 the Gaussian(R) 03 system (copyright 2003, Gaussian, Inc.),
 the Gaussian(R) 98 system (copyright 1998, Gaussian, Inc.),
 the Gaussian(R) 94 system (copyright 1995, Gaussian, Inc.),
 the Gaussian 92(TM) system (copyright 1992, Gaussian, Inc.),
 the Gaussian 90(TM) system (copyright 1990, Gaussian, Inc.),
 the Gaussian 88(TM) system (copyright 1988, Gaussian, Inc.),
 the Gaussian 86(TM) system (copyright 1986, Carnegie Mellon
 University), and the Gaussian 82(TM) system (copyright 1983,
 Carnegie Mellon University). Gaussian is a federally registered
 trademark of Gaussian, Inc.
  
 This software contains proprietary and confidential information,
 including trade secrets, belonging to Gaussian, Inc.
  
 This software is provided under written license and may be
 used, copied, transmitted, or stored only in accord with that
 written license.
  
 The following legend is applicable only to US Government
 contracts under FAR:
  
                    RESTRICTED RIGHTS LEGEND
  
 Use, reproduction and disclosure by the US Government is
 subject to restrictions as set forth in subparagraphs (a)
 and (c) of the Commercial Computer Software - Restricted
 Rights clause in FAR 52.227-19.
  
 Gaussian, Inc.
 340 Quinnipiac St., Bldg. 40, Wallingford CT 06492
  
  
 ---------------------------------------------------------------
 Warning -- This program may not be used in any manner that
 competes with the business of Gaussian, Inc. or will provide
 assistance to any competitor of Gaussian, Inc.  The licensee
 of this program is prohibited from giving any competitor of
 Gaussian, Inc. access to this program.  By using this program,
 the user acknowledges that Gaussian, Inc. is engaged in the
 business of creating and licensing software in the field of
 computational chemistry and represents and warrants to the
 licensee that it is not a competitor of Gaussian, Inc. and that
 it will not use this program in any manner prohibited above.
 ---------------------------------------------------------------
  

 Cite this work as:
 Gaussian 16, Revision A.03,
 M. J. Frisch, G. W. Trucks, H. B. Schlegel, G. E. Scuseria, 
 M. A. Robb, J. R. Cheeseman, G. Scalmani, V. Barone, 
 G. A. Petersson, H. Nakatsuji, X. Li, M. Caricato, A. V. Marenich, 
 J. Bloino, B. G. Janesko, R. Gomperts, B. Mennucci, H. P. Hratchian, 
 J. V. Ortiz, A. F. Izmaylov, J. L. Sonnenberg, D. Williams-Young, 
 F. Ding, F. Lipparini, F. Egidi, J. Goings, B. Peng, A. Petrone, 
 T. Henderson, D. Ranasinghe, V. G. Zakrzewski, J. Gao, N. Rega, 
 G. Zheng, W. Liang, M. Hada, M. Ehara, K. Toyota, R. Fukuda, 
 J. Hasegawa, M. Ishida, T. Nakajima, Y. Honda, O. Kitao, H. Nakai, 
 T. Vreven, K. Throssell, J. A. Montgomery, Jr., J. E. Peralta, 
 F. Ogliaro, M. J. Bearpark, J. J. Heyd, E. N. Brothers, K. N. Kudin, 
 V. N. Staroverov, T. A. Keith, R. Kobayashi, J. Normand, 
 K. Raghavachari, A. P. Rendell, J. C. Burant, S. S. Iyengar, 
 J. Tomasi, M. Cossi, J. M. Millam, M. Klene, C. Adamo, R. Cammi, 
 J. W. Ochterski, R. L. Martin, K. Morokuma, O. Farkas, 
 J. B. Foresman, and D. J. Fox, Gaussian, Inc., Wallingford CT, 2016.
 
 ******************************************
 Gaussian 16:  ES64L-G16RevA.03 25-Dec-2016
                13-Oct-2019 
 ******************************************
 %chk=17_p.chk
 %nprocshared=24
 Will use up to   24 processors via shared memory.
 %mem=80GB
 -------------------------------------------------------------------
 #P opt freq m062x/6-311++g(d,p) geom=connectivity temperature=0.001
 -------------------------------------------------------------------
 1/18=20,19=15,26=3,38=1,57=2,112=-1000/1,3;
 2/9=110,12=2,17=6,18=5,40=1/2;
 3/5=4,6=6,7=1111,11=2,25=1,30=1,71=1,74=-55/1,2,3;
 4//1;
 5/5=2,38=5/2;
 6/7=2,8=2,9=2,10=2,28=1/1;
 7//1,2,3,16;
 1/18=20,19=15,26=3/3(2);
 2/9=110/2;
 99//99;
 2/9=110/2;
 3/5=4,6=6,7=1111,11=2,25=1,30=1,71=1,74=-55/1,2,3;
 4/5=5,16=3,69=1/1;
 5/5=2,38=5/2;
 7//1,2,3,16;
 1/18=20,19=15,26=3/3(-5);
 2/9=110/2;
 6/7=2,8=2,9=2,10=2,19=2,28=1/1;
 99/9=1/99;
 Leave Link    1 at Sun Oct 13 20:24:01 2019, MaxMem= 10737418240 cpu:               0.9 elap:               0.0
 (Enter /apps/cent7/gaussian/g16-A.03/g16-haswell/g16/l101.exe)
 -------------------
 Title Card Required
 -------------------
 Symbolic Z-matrix:
 Charge =  1 Multiplicity = 1
 O                     2.4576    0.2295   -0.0454 
 C                     1.7876   -0.3309   -0.9427 
 O                     1.91      0.11     -2.2228 
 C                     2.6851   -0.5479   -3.2246 
 C                     0.7745   -1.3463   -0.5955 
 C                    -0.5318   -0.6788   -0.0878 
 C                    -1.6572   -1.7033    0.2052 
 C                    -2.9629   -1.0333    0.7163 
 C                    -4.067    -2.0766    1.0353 
 C                    -5.3747   -1.4369    1.5731 
 C                    -6.4657   -2.4915    1.9014 
 C                    -7.7679   -1.8438    2.4423 
 C                    -8.8641   -2.8906    2.7732 
 C                    -10.1633  -2.2332    3.3125 
 C                    -11.262   -3.2766    3.6435 
 C                    -12.5576  -2.6174    4.1811 
 C                    -13.6471  -3.669     4.5078 
 C                    -14.9465  -3.0195    5.0461 
 C                    -16.0348  -4.0751    5.372 
 C                    -17.3387  -3.4332    5.9114 
 C                    -18.4237  -4.4832    6.2365 
 H                     3.4323   -1.1821   -2.7476 
 H                     2.0315   -1.1605   -3.8456 
 H                     3.1833    0.1966   -3.8456 
 H                     0.5377   -1.8539   -1.5306 
 H                     1.1975   -1.9077    0.2375 
 H                    -0.2844   -0.2215    0.8702 
 H                    -0.894    -0.0608   -0.9093 
 H                    -1.906    -2.159    -0.7532 
 H                    -1.2939   -2.3228    1.0252 
 H                    -2.7108   -0.5578    1.6642 
 H                    -3.3416   -0.4329   -0.1109 
 H                    -4.3283   -2.5379    0.0829 
 H                    -3.676    -2.6886    1.8482 
 H                    -5.1133   -0.9672    2.5214 
 H                    -5.7733   -0.8335    0.7576 
 H                    -6.7308   -2.9594    0.9533 
 H                    -6.0674   -3.0972    2.7155 
 H                    -7.5014   -1.3758    3.39 
 H                    -8.1648   -1.2379    1.6278 
 H                    -9.1314   -3.3594    1.8262 
 H                    -8.4689   -3.4962    3.5887 
 H                    -9.8957   -1.7649    4.2597 
 H                    -10.5577  -1.6269    2.497 
 H                    -11.5305  -3.7454    2.6968 
 H                    -10.869   -3.8829    4.4596 
 H                    -12.2916  -2.1491    5.1287 
 H                    -12.9531  -2.0115    3.3658 
 H                    -13.9116  -4.137     3.5596 
 H                    -13.2501  -4.2747    5.3225 
 H                    -14.6823  -2.5515    5.9943 
 H                    -15.3437  -2.4139    4.2314 
 H                    -16.2974  -4.5428    4.4231 
 H                    -15.636   -4.6804    6.186 
 H                    -17.0773  -2.9657    6.8607 
 H                    -17.7388  -2.8281    5.0978 
 H                    -18.5235  -4.5797    7.3177 
 H                    -19.3756  -4.1658    5.8107 
 H                    -18.1378  -5.4449    5.8107 
 H                     3.41679   0.20868  -0.07874 
 
 ITRead=  0  0  0  0  0  0  0  0  0  0  0  0  0  0  0  0  0  0  0  0
 ITRead=  0  0  0  0  0  0  0  0  0  0  0  0  0  0  0  0  0  0  0  0
 ITRead=  0  0  0  0  0  0  0  0  0  0  0  0  0  0  0  0  0  0  0  0
 MicOpt= -1 -1 -1 -1 -1 -1 -1 -1 -1 -1 -1 -1 -1 -1 -1 -1 -1 -1 -1 -1
 MicOpt= -1 -1 -1 -1 -1 -1 -1 -1 -1 -1 -1 -1 -1 -1 -1 -1 -1 -1 -1 -1
 MicOpt= -1 -1 -1 -1 -1 -1 -1 -1 -1 -1 -1 -1 -1 -1 -1 -1 -1 -1 -1 -1
 NAtoms=     60 NQM=       60 NQMF=       0 NMMI=      0 NMMIF=      0
                NMic=       0 NMicF=      0.
                    Isotopes and Nuclear Properties:
 (Nuclear quadrupole moments (NQMom) in fm**2, nuclear magnetic moments (NMagM)
  in nuclear magnetons)

  Atom         1           2           3           4           5           6           7           8           9          10
 IAtWgt=          16          12          16          12          12          12          12          12          12          12
 AtmWgt=  15.9949146  12.0000000  15.9949146  12.0000000  12.0000000  12.0000000  12.0000000  12.0000000  12.0000000  12.0000000
 NucSpn=           0           0           0           0           0           0           0           0           0           0
 AtZEff=  -0.0000000  -0.0000000  -0.0000000  -0.0000000  -0.0000000  -0.0000000  -0.0000000  -0.0000000  -0.0000000  -0.0000000
 NQMom=    0.0000000   0.0000000   0.0000000   0.0000000   0.0000000   0.0000000   0.0000000   0.0000000   0.0000000   0.0000000
 NMagM=    0.0000000   0.0000000   0.0000000   0.0000000   0.0000000   0.0000000   0.0000000   0.0000000   0.0000000   0.0000000
 AtZNuc=   8.0000000   6.0000000   8.0000000   6.0000000   6.0000000   6.0000000   6.0000000   6.0000000   6.0000000   6.0000000

  Atom        11          12          13          14          15          16          17          18          19          20
 IAtWgt=          12          12          12          12          12          12          12          12          12          12
 AtmWgt=  12.0000000  12.0000000  12.0000000  12.0000000  12.0000000  12.0000000  12.0000000  12.0000000  12.0000000  12.0000000
 NucSpn=           0           0           0           0           0           0           0           0           0           0
 AtZEff=  -0.0000000  -0.0000000  -0.0000000  -0.0000000  -0.0000000  -0.0000000  -0.0000000  -0.0000000  -0.0000000  -0.0000000
 NQMom=    0.0000000   0.0000000   0.0000000   0.0000000   0.0000000   0.0000000   0.0000000   0.0000000   0.0000000   0.0000000
 NMagM=    0.0000000   0.0000000   0.0000000   0.0000000   0.0000000   0.0000000   0.0000000   0.0000000   0.0000000   0.0000000
 AtZNuc=   6.0000000   6.0000000   6.0000000   6.0000000   6.0000000   6.0000000   6.0000000   6.0000000   6.0000000   6.0000000

  Atom        21          22          23          24          25          26          27          28          29          30
 IAtWgt=          12           1           1           1           1           1           1           1           1           1
 AtmWgt=  12.0000000   1.0078250   1.0078250   1.0078250   1.0078250   1.0078250   1.0078250   1.0078250   1.0078250   1.0078250
 NucSpn=           0           1           1           1           1           1           1           1           1           1
 AtZEff=  -0.0000000  -0.0000000  -0.0000000  -0.0000000  -0.0000000  -0.0000000  -0.0000000  -0.0000000  -0.0000000  -0.0000000
 NQMom=    0.0000000   0.0000000   0.0000000   0.0000000   0.0000000   0.0000000   0.0000000   0.0000000   0.0000000   0.0000000
 NMagM=    0.0000000   2.7928460   2.7928460   2.7928460   2.7928460   2.7928460   2.7928460   2.7928460   2.7928460   2.7928460
 AtZNuc=   6.0000000   1.0000000   1.0000000   1.0000000   1.0000000   1.0000000   1.0000000   1.0000000   1.0000000   1.0000000

  Atom        31          32          33          34          35          36          37          38          39          40
 IAtWgt=           1           1           1           1           1           1           1           1           1           1
 AtmWgt=   1.0078250   1.0078250   1.0078250   1.0078250   1.0078250   1.0078250   1.0078250   1.0078250   1.0078250   1.0078250
 NucSpn=           1           1           1           1           1           1           1           1           1           1
 AtZEff=  -0.0000000  -0.0000000  -0.0000000  -0.0000000  -0.0000000  -0.0000000  -0.0000000  -0.0000000  -0.0000000  -0.0000000
 NQMom=    0.0000000   0.0000000   0.0000000   0.0000000   0.0000000   0.0000000   0.0000000   0.0000000   0.0000000   0.0000000
 NMagM=    2.7928460   2.7928460   2.7928460   2.7928460   2.7928460   2.7928460   2.7928460   2.7928460   2.7928460   2.7928460
 AtZNuc=   1.0000000   1.0000000   1.0000000   1.0000000   1.0000000   1.0000000   1.0000000   1.0000000   1.0000000   1.0000000

  Atom        41          42          43          44          45          46          47          48          49          50
 IAtWgt=           1           1           1           1           1           1           1           1           1           1
 AtmWgt=   1.0078250   1.0078250   1.0078250   1.0078250   1.0078250   1.0078250   1.0078250   1.0078250   1.0078250   1.0078250
 NucSpn=           1           1           1           1           1           1           1           1           1           1
 AtZEff=  -0.0000000  -0.0000000  -0.0000000  -0.0000000  -0.0000000  -0.0000000  -0.0000000  -0.0000000  -0.0000000  -0.0000000
 NQMom=    0.0000000   0.0000000   0.0000000   0.0000000   0.0000000   0.0000000   0.0000000   0.0000000   0.0000000   0.0000000
 NMagM=    2.7928460   2.7928460   2.7928460   2.7928460   2.7928460   2.7928460   2.7928460   2.7928460   2.7928460   2.7928460
 AtZNuc=   1.0000000   1.0000000   1.0000000   1.0000000   1.0000000   1.0000000   1.0000000   1.0000000   1.0000000   1.0000000

  Atom        51          52          53          54          55          56          57          58          59          60
 IAtWgt=           1           1           1           1           1           1           1           1           1           1
 AtmWgt=   1.0078250   1.0078250   1.0078250   1.0078250   1.0078250   1.0078250   1.0078250   1.0078250   1.0078250   1.0078250
 NucSpn=           1           1           1           1           1           1           1           1           1           1
 AtZEff=  -0.0000000  -0.0000000  -0.0000000  -0.0000000  -0.0000000  -0.0000000  -0.0000000  -0.0000000  -0.0000000  -0.0000000
 NQMom=    0.0000000   0.0000000   0.0000000   0.0000000   0.0000000   0.0000000   0.0000000   0.0000000   0.0000000   0.0000000
 NMagM=    2.7928460   2.7928460   2.7928460   2.7928460   2.7928460   2.7928460   2.7928460   2.7928460   2.7928460   2.7928460
 AtZNuc=   1.0000000   1.0000000   1.0000000   1.0000000   1.0000000   1.0000000   1.0000000   1.0000000   1.0000000   1.0000000
 Leave Link  101 at Sun Oct 13 20:24:02 2019, MaxMem= 10737418240 cpu:               9.8 elap:               0.4
 (Enter /apps/cent7/gaussian/g16-A.03/g16-haswell/g16/l103.exe)

 GradGradGradGradGradGradGradGradGradGradGradGradGradGradGradGradGradGrad
 Berny optimization.
 Initialization pass.
                           ----------------------------
                           !    Initial Parameters    !
                           ! (Angstroms and Degrees)  !
 --------------------------                            --------------------------
 ! Name  Definition              Value          Derivative Info.                !
 --------------------------------------------------------------------------------
 ! R1    R(1,2)                  1.2522         estimate D2E/DX2                !
 ! R2    R(1,60)                 0.96           estimate D2E/DX2                !
 ! R3    R(2,3)                  1.3594         estimate D2E/DX2                !
 ! R4    R(2,5)                  1.4758         estimate D2E/DX2                !
 ! R5    R(3,4)                  1.4273         estimate D2E/DX2                !
 ! R6    R(4,22)                 1.09           estimate D2E/DX2                !
 ! R7    R(4,23)                 1.09           estimate D2E/DX2                !
 ! R8    R(4,24)                 1.09           estimate D2E/DX2                !
 ! R9    R(5,6)                  1.5523         estimate D2E/DX2                !
 ! R10   R(5,25)                 1.09           estimate D2E/DX2                !
 ! R11   R(5,26)                 1.0899         estimate D2E/DX2                !
 ! R12   R(6,7)                  1.5498         estimate D2E/DX2                !
 ! R13   R(6,27)                 1.09           estimate D2E/DX2                !
 ! R14   R(6,28)                 1.0899         estimate D2E/DX2                !
 ! R15   R(7,8)                  1.554          estimate D2E/DX2                !
 ! R16   R(7,29)                 1.09           estimate D2E/DX2                !
 ! R17   R(7,30)                 1.09           estimate D2E/DX2                !
 ! R18   R(8,9)                  1.5522         estimate D2E/DX2                !
 ! R19   R(8,31)                 1.09           estimate D2E/DX2                !
 ! R20   R(8,32)                 1.09           estimate D2E/DX2                !
 ! R21   R(9,10)                 1.5519         estimate D2E/DX2                !
 ! R22   R(9,33)                 1.09           estimate D2E/DX2                !
 ! R23   R(9,34)                 1.0901         estimate D2E/DX2                !
 ! R24   R(10,11)                1.5525         estimate D2E/DX2                !
 ! R25   R(10,35)                1.0901         estimate D2E/DX2                !
 ! R26   R(10,36)                1.09           estimate D2E/DX2                !
 ! R27   R(11,12)                1.5517         estimate D2E/DX2                !
 ! R28   R(11,37)                1.09           estimate D2E/DX2                !
 ! R29   R(11,38)                1.0901         estimate D2E/DX2                !
 ! R30   R(12,13)                1.5514         estimate D2E/DX2                !
 ! R31   R(12,39)                1.09           estimate D2E/DX2                !
 ! R32   R(12,40)                1.09           estimate D2E/DX2                !
 ! R33   R(13,14)                1.5527         estimate D2E/DX2                !
 ! R34   R(13,41)                1.09           estimate D2E/DX2                !
 ! R35   R(13,42)                1.0899         estimate D2E/DX2                !
 ! R36   R(14,15)                1.5509         estimate D2E/DX2                !
 ! R37   R(14,43)                1.09           estimate D2E/DX2                !
 ! R38   R(14,44)                1.09           estimate D2E/DX2                !
 ! R39   R(15,16)                1.5499         estimate D2E/DX2                !
 ! R40   R(15,45)                1.09           estimate D2E/DX2                !
 ! R41   R(15,46)                1.09           estimate D2E/DX2                !
 ! R42   R(16,17)                1.5491         estimate D2E/DX2                !
 ! R43   R(16,47)                1.09           estimate D2E/DX2                !
 ! R44   R(16,48)                1.0901         estimate D2E/DX2                !
 ! R45   R(17,18)                1.5492         estimate D2E/DX2                !
 ! R46   R(17,49)                1.09           estimate D2E/DX2                !
 ! R47   R(17,50)                1.0901         estimate D2E/DX2                !
 ! R48   R(18,19)                1.5508         estimate D2E/DX2                !
 ! R49   R(18,51)                1.0899         estimate D2E/DX2                !
 ! R50   R(18,52)                1.0901         estimate D2E/DX2                !
 ! R51   R(19,20)                1.5502         estimate D2E/DX2                !
 ! R52   R(19,53)                1.09           estimate D2E/DX2                !
 ! R53   R(19,54)                1.09           estimate D2E/DX2                !
 ! R54   R(20,21)                1.5445         estimate D2E/DX2                !
 ! R55   R(20,55)                1.09           estimate D2E/DX2                !
 ! R56   R(20,56)                1.09           estimate D2E/DX2                !
 ! R57   R(21,57)                1.0901         estimate D2E/DX2                !
 ! R58   R(21,58)                1.09           estimate D2E/DX2                !
 ! R59   R(21,59)                1.0899         estimate D2E/DX2                !
 ! A1    A(2,1,60)             120.0            estimate D2E/DX2                !
 ! A2    A(1,2,3)              118.7788         estimate D2E/DX2                !
 ! A3    A(1,2,5)              120.4394         estimate D2E/DX2                !
 ! A4    A(3,2,5)              120.4307         estimate D2E/DX2                !
 ! A5    A(2,3,4)              124.0782         estimate D2E/DX2                !
 ! A6    A(3,4,22)             109.4696         estimate D2E/DX2                !
 ! A7    A(3,4,23)             109.4693         estimate D2E/DX2                !
 ! A8    A(3,4,24)             109.4662         estimate D2E/DX2                !
 ! A9    A(22,4,23)            109.4738         estimate D2E/DX2                !
 ! A10   A(22,4,24)            109.4761         estimate D2E/DX2                !
 ! A11   A(23,4,24)            109.4724         estimate D2E/DX2                !
 ! A12   A(2,5,6)              111.0245         estimate D2E/DX2                !
 ! A13   A(2,5,25)             105.5282         estimate D2E/DX2                !
 ! A14   A(2,5,26)             105.5318         estimate D2E/DX2                !
 ! A15   A(6,5,25)             107.3376         estimate D2E/DX2                !
 ! A16   A(6,5,26)             107.3439         estimate D2E/DX2                !
 ! A17   A(25,5,26)            120.0059         estimate D2E/DX2                !
 ! A18   A(5,6,7)              112.87           estimate D2E/DX2                !
 ! A19   A(5,6,27)             106.0725         estimate D2E/DX2                !
 ! A20   A(5,6,28)             106.0781         estimate D2E/DX2                !
 ! A21   A(7,6,27)             106.0211         estimate D2E/DX2                !
 ! A22   A(7,6,28)             106.0214         estimate D2E/DX2                !
 ! A23   A(27,6,28)            119.9987         estimate D2E/DX2                !
 ! A24   A(6,7,8)              112.7859         estimate D2E/DX2                !
 ! A25   A(6,7,29)             106.0147         estimate D2E/DX2                !
 ! A26   A(6,7,30)             106.0151         estimate D2E/DX2                !
 ! A27   A(8,7,29)             106.1198         estimate D2E/DX2                !
 ! A28   A(8,7,30)             106.1202         estimate D2E/DX2                !
 ! A29   A(29,7,30)            119.9947         estimate D2E/DX2                !
 ! A30   A(7,8,9)              112.0527         estimate D2E/DX2                !
 ! A31   A(7,8,31)             106.2457         estimate D2E/DX2                !
 ! A32   A(7,8,32)             106.2481         estimate D2E/DX2                !
 ! A33   A(9,8,31)             106.2007         estimate D2E/DX2                !
 ! A34   A(9,8,32)             106.2043         estimate D2E/DX2                !
 ! A35   A(31,8,32)            120.0001         estimate D2E/DX2                !
 ! A36   A(8,9,10)             113.1748         estimate D2E/DX2                !
 ! A37   A(8,9,33)             105.9861         estimate D2E/DX2                !
 ! A38   A(8,9,34)             105.9909         estimate D2E/DX2                !
 ! A39   A(10,9,33)            105.9757         estimate D2E/DX2                !
 ! A40   A(10,9,34)            105.9764         estimate D2E/DX2                !
 ! A41   A(33,9,34)            119.9981         estimate D2E/DX2                !
 ! A42   A(9,10,11)            112.67           estimate D2E/DX2                !
 ! A43   A(9,10,35)            106.0822         estimate D2E/DX2                !
 ! A44   A(9,10,36)            106.085          estimate D2E/DX2                !
 ! A45   A(11,10,35)           106.0966         estimate D2E/DX2                !
 ! A46   A(11,10,36)           106.0979         estimate D2E/DX2                !
 ! A47   A(35,10,36)           120.0032         estimate D2E/DX2                !
 ! A48   A(10,11,12)           112.3281         estimate D2E/DX2                !
 ! A49   A(10,11,37)           106.1752         estimate D2E/DX2                !
 ! A50   A(10,11,38)           106.1769         estimate D2E/DX2                !
 ! A51   A(12,11,37)           106.1575         estimate D2E/DX2                !
 ! A52   A(12,11,38)           106.1549         estimate D2E/DX2                !
 ! A53   A(37,11,38)           119.9965         estimate D2E/DX2                !
 ! A54   A(11,12,13)           112.6851         estimate D2E/DX2                !
 ! A55   A(11,12,39)           106.0874         estimate D2E/DX2                !
 ! A56   A(11,12,40)           106.0891         estimate D2E/DX2                !
 ! A57   A(13,12,39)           106.0814         estimate D2E/DX2                !
 ! A58   A(13,12,40)           106.091          estimate D2E/DX2                !
 ! A59   A(39,12,40)           120.0031         estimate D2E/DX2                !
 ! A60   A(12,13,14)           112.3099         estimate D2E/DX2                !
 ! A61   A(12,13,41)           106.1511         estimate D2E/DX2                !
 ! A62   A(12,13,42)           106.1579         estimate D2E/DX2                !
 ! A63   A(14,13,41)           106.181          estimate D2E/DX2                !
 ! A64   A(14,13,42)           106.1862         estimate D2E/DX2                !
 ! A65   A(41,13,42)           120.0005         estimate D2E/DX2                !
 ! A66   A(13,14,15)           112.46           estimate D2E/DX2                !
 ! A67   A(13,14,43)           106.159          estimate D2E/DX2                !
 ! A68   A(13,14,44)           106.1643         estimate D2E/DX2                !
 ! A69   A(15,14,43)           106.1109         estimate D2E/DX2                !
 ! A70   A(15,14,44)           106.1139         estimate D2E/DX2                !
 ! A71   A(43,14,44)           119.9988         estimate D2E/DX2                !
 ! A72   A(14,15,16)           112.3384         estimate D2E/DX2                !
 ! A73   A(14,15,45)           106.17           estimate D2E/DX2                !
 ! A74   A(14,15,46)           106.176          estimate D2E/DX2                !
 ! A75   A(16,15,45)           106.1572         estimate D2E/DX2                !
 ! A76   A(16,15,46)           106.1574         estimate D2E/DX2                !
 ! A77   A(45,15,46)           119.9914         estimate D2E/DX2                !
 ! A78   A(15,16,17)           111.8609         estimate D2E/DX2                !
 ! A79   A(15,16,47)           106.2778         estimate D2E/DX2                !
 ! A80   A(15,16,48)           106.2764         estimate D2E/DX2                !
 ! A81   A(17,16,47)           106.2579         estimate D2E/DX2                !
 ! A82   A(17,16,48)           106.2539         estimate D2E/DX2                !
 ! A83   A(47,16,48)           119.9986         estimate D2E/DX2                !
 ! A84   A(16,17,18)           112.2462         estimate D2E/DX2                !
 ! A85   A(16,17,49)           106.1816         estimate D2E/DX2                !
 ! A86   A(16,17,50)           106.182          estimate D2E/DX2                !
 ! A87   A(18,17,49)           106.1852         estimate D2E/DX2                !
 ! A88   A(18,17,50)           106.1849         estimate D2E/DX2                !
 ! A89   A(49,17,50)           119.9981         estimate D2E/DX2                !
 ! A90   A(17,18,19)           112.1022         estimate D2E/DX2                !
 ! A91   A(17,18,51)           106.2001         estimate D2E/DX2                !
 ! A92   A(17,18,52)           106.1915         estimate D2E/DX2                !
 ! A93   A(19,18,51)           106.2345         estimate D2E/DX2                !
 ! A94   A(19,18,52)           106.2313         estimate D2E/DX2                !
 ! A95   A(51,18,52)           119.9987         estimate D2E/DX2                !
 ! A96   A(18,19,20)           112.4292         estimate D2E/DX2                !
 ! A97   A(18,19,53)           106.1524         estimate D2E/DX2                !
 ! A98   A(18,19,54)           106.1523         estimate D2E/DX2                !
 ! A99   A(20,19,53)           106.1374         estimate D2E/DX2                !
 ! A100  A(20,19,54)           106.1316         estimate D2E/DX2                !
 ! A101  A(53,19,54)           119.9998         estimate D2E/DX2                !
 ! A102  A(19,20,21)           112.4961         estimate D2E/DX2                !
 ! A103  A(19,20,55)           106.1962         estimate D2E/DX2                !
 ! A104  A(19,20,56)           106.1935         estimate D2E/DX2                !
 ! A105  A(21,20,55)           106.0657         estimate D2E/DX2                !
 ! A106  A(21,20,56)           106.0603         estimate D2E/DX2                !
 ! A107  A(55,20,56)           119.9997         estimate D2E/DX2                !
 ! A108  A(20,21,57)           109.4678         estimate D2E/DX2                !
 ! A109  A(20,21,58)           109.469          estimate D2E/DX2                !
 ! A110  A(20,21,59)           109.4727         estimate D2E/DX2                !
 ! A111  A(57,21,58)           109.4678         estimate D2E/DX2                !
 ! A112  A(57,21,59)           109.475          estimate D2E/DX2                !
 ! A113  A(58,21,59)           109.475          estimate D2E/DX2                !
 ! D1    D(60,1,2,3)           -62.0008         estimate D2E/DX2                !
 ! D2    D(60,1,2,5)           124.7729         estimate D2E/DX2                !
 ! D3    D(1,2,3,4)            101.836          estimate D2E/DX2                !
 ! D4    D(5,2,3,4)            -84.9371         estimate D2E/DX2                !
 ! D5    D(1,2,5,6)             78.6554         estimate D2E/DX2                !
 ! D6    D(1,2,5,25)          -165.359          estimate D2E/DX2                !
 ! D7    D(1,2,5,26)           -37.3396         estimate D2E/DX2                !
 ! D8    D(3,2,5,6)            -94.4585         estimate D2E/DX2                !
 ! D9    D(3,2,5,25)            21.5271         estimate D2E/DX2                !
 ! D10   D(3,2,5,26)           149.5465         estimate D2E/DX2                !
 ! D11   D(2,3,4,22)           -21.6472         estimate D2E/DX2                !
 ! D12   D(2,3,4,23)            98.3537         estimate D2E/DX2                !
 ! D13   D(2,3,4,24)          -141.6491         estimate D2E/DX2                !
 ! D14   D(2,5,6,7)            176.3968         estimate D2E/DX2                !
 ! D15   D(2,5,6,27)           -67.9293         estimate D2E/DX2                !
 ! D16   D(2,5,6,28)            60.7191         estimate D2E/DX2                !
 ! D17   D(25,5,6,7)            61.534          estimate D2E/DX2                !
 ! D18   D(25,5,6,27)          177.2079         estimate D2E/DX2                !
 ! D19   D(25,5,6,28)          -54.1437         estimate D2E/DX2                !
 ! D20   D(26,5,6,7)           -68.7325         estimate D2E/DX2                !
 ! D21   D(26,5,6,27)           46.9414         estimate D2E/DX2                !
 ! D22   D(26,5,6,28)          175.5898         estimate D2E/DX2                !
 ! D23   D(5,6,7,8)            179.8726         estimate D2E/DX2                !
 ! D24   D(5,6,7,29)           -64.4135         estimate D2E/DX2                !
 ! D25   D(5,6,7,30)            64.158          estimate D2E/DX2                !
 ! D26   D(27,6,7,8)            64.168          estimate D2E/DX2                !
 ! D27   D(27,6,7,29)          179.8819         estimate D2E/DX2                !
 ! D28   D(27,6,7,30)          -51.5467         estimate D2E/DX2                !
 ! D29   D(28,6,7,8)           -64.4158         estimate D2E/DX2                !
 ! D30   D(28,6,7,29)           51.2981         estimate D2E/DX2                !
 ! D31   D(28,6,7,30)          179.8696         estimate D2E/DX2                !
 ! D32   D(6,7,8,9)           -178.6845         estimate D2E/DX2                !
 ! D33   D(6,7,8,31)           -63.1161         estimate D2E/DX2                !
 ! D34   D(6,7,8,32)            65.7415         estimate D2E/DX2                !
 ! D35   D(29,7,8,9)            65.6646         estimate D2E/DX2                !
 ! D36   D(29,7,8,31)         -178.767          estimate D2E/DX2                !
 ! D37   D(29,7,8,32)          -49.9095         estimate D2E/DX2                !
 ! D38   D(30,7,8,9)           -63.0328         estimate D2E/DX2                !
 ! D39   D(30,7,8,31)           52.5356         estimate D2E/DX2                !
 ! D40   D(30,7,8,32)         -178.6068         estimate D2E/DX2                !
 ! D41   D(7,8,9,10)           178.9382         estimate D2E/DX2                !
 ! D42   D(7,8,9,33)           -65.3357         estimate D2E/DX2                !
 ! D43   D(7,8,9,34)            63.2084         estimate D2E/DX2                !
 ! D44   D(31,8,9,10)           63.3424         estimate D2E/DX2                !
 ! D45   D(31,8,9,33)          179.0686         estimate D2E/DX2                !
 ! D46   D(31,8,9,34)          -52.3874         estimate D2E/DX2                !
 ! D47   D(32,8,9,10)          -65.4611         estimate D2E/DX2                !
 ! D48   D(32,8,9,33)           50.265          estimate D2E/DX2                !
 ! D49   D(32,8,9,34)          178.8091         estimate D2E/DX2                !
 ! D50   D(8,9,10,11)         -179.4351         estimate D2E/DX2                !
 ! D51   D(8,9,10,35)          -63.7686         estimate D2E/DX2                !
 ! D52   D(8,9,10,36)           64.8952         estimate D2E/DX2                !
 ! D53   D(33,9,10,11)          64.8326         estimate D2E/DX2                !
 ! D54   D(33,9,10,35)        -179.5009         estimate D2E/DX2                !
 ! D55   D(33,9,10,36)         -50.8371         estimate D2E/DX2                !
 ! D56   D(34,9,10,11)         -63.6967         estimate D2E/DX2                !
 ! D57   D(34,9,10,35)          51.9698         estimate D2E/DX2                !
 ! D58   D(34,9,10,36)        -179.3664         estimate D2E/DX2                !
 ! D59   D(9,10,11,12)         179.8303         estimate D2E/DX2                !
 ! D60   D(9,10,11,37)         -64.5522         estimate D2E/DX2                !
 ! D61   D(9,10,11,38)          64.2149         estimate D2E/DX2                !
 ! D62   D(35,10,11,12)         64.1724         estimate D2E/DX2                !
 ! D63   D(35,10,11,37)        179.7899         estimate D2E/DX2                !
 ! D64   D(35,10,11,38)        -51.443          estimate D2E/DX2                !
 ! D65   D(36,10,11,12)        -64.5078         estimate D2E/DX2                !
 ! D66   D(36,10,11,37)         51.1097         estimate D2E/DX2                !
 ! D67   D(36,10,11,38)        179.8768         estimate D2E/DX2                !
 ! D68   D(10,11,12,13)       -179.9988         estimate D2E/DX2                !
 ! D69   D(10,11,12,39)        -64.3396         estimate D2E/DX2                !
 ! D70   D(10,11,12,40)         64.3295         estimate D2E/DX2                !
 ! D71   D(37,11,12,13)         64.373          estimate D2E/DX2                !
 ! D72   D(37,11,12,39)       -179.9678         estimate D2E/DX2                !
 ! D73   D(37,11,12,40)        -51.2986         estimate D2E/DX2                !
 ! D74   D(38,11,12,13)        -64.3701         estimate D2E/DX2                !
 ! D75   D(38,11,12,39)         51.2891         estimate D2E/DX2                !
 ! D76   D(38,11,12,40)        179.9583         estimate D2E/DX2                !
 ! D77   D(11,12,13,14)       -179.9543         estimate D2E/DX2                !
 ! D78   D(11,12,13,41)        -64.3323         estimate D2E/DX2                !
 ! D79   D(11,12,13,42)         64.4136         estimate D2E/DX2                !
 ! D80   D(39,12,13,14)         64.3831         estimate D2E/DX2                !
 ! D81   D(39,12,13,41)       -179.995          estimate D2E/DX2                !
 ! D82   D(39,12,13,42)        -51.2491         estimate D2E/DX2                !
 ! D83   D(40,12,13,14)        -64.2838         estimate D2E/DX2                !
 ! D84   D(40,12,13,41)         51.3382         estimate D2E/DX2                !
 ! D85   D(40,12,13,42)       -179.9159         estimate D2E/DX2                !
 ! D86   D(12,13,14,15)        179.9588         estimate D2E/DX2                !
 ! D87   D(12,13,14,43)        -64.4208         estimate D2E/DX2                !
 ! D88   D(12,13,14,44)         64.3317         estimate D2E/DX2                !
 ! D89   D(41,13,14,15)         64.355          estimate D2E/DX2                !
 ! D90   D(41,13,14,43)        179.9753         estimate D2E/DX2                !
 ! D91   D(41,13,14,44)        -51.2722         estimate D2E/DX2                !
 ! D92   D(42,13,14,15)        -64.4261         estimate D2E/DX2                !
 ! D93   D(42,13,14,43)         51.1942         estimate D2E/DX2                !
 ! D94   D(42,13,14,44)        179.9468         estimate D2E/DX2                !
 ! D95   D(13,14,15,16)       -179.9818         estimate D2E/DX2                !
 ! D96   D(13,14,15,45)        -64.3623         estimate D2E/DX2                !
 ! D97   D(13,14,15,46)         64.395          estimate D2E/DX2                !
 ! D98   D(43,14,15,16)         64.3689         estimate D2E/DX2                !
 ! D99   D(43,14,15,45)        179.9883         estimate D2E/DX2                !
 ! D100  D(43,14,15,46)        -51.2544         estimate D2E/DX2                !
 ! D101  D(44,14,15,16)        -64.3243         estimate D2E/DX2                !
 ! D102  D(44,14,15,45)         51.2952         estimate D2E/DX2                !
 ! D103  D(44,14,15,46)       -179.9475         estimate D2E/DX2                !
 ! D104  D(14,15,16,17)        179.9923         estimate D2E/DX2                !
 ! D105  D(14,15,16,47)        -64.4512         estimate D2E/DX2                !
 ! D106  D(14,15,16,48)         64.4413         estimate D2E/DX2                !
 ! D107  D(45,15,16,17)         64.3651         estimate D2E/DX2                !
 ! D108  D(45,15,16,47)        179.9217         estimate D2E/DX2                !
 ! D109  D(45,15,16,48)        -51.1858         estimate D2E/DX2                !
 ! D110  D(46,15,16,17)        -64.3732         estimate D2E/DX2                !
 ! D111  D(46,15,16,47)         51.1833         estimate D2E/DX2                !
 ! D112  D(46,15,16,48)       -179.9242         estimate D2E/DX2                !
 ! D113  D(15,16,17,18)        179.9988         estimate D2E/DX2                !
 ! D114  D(15,16,17,49)        -64.3891         estimate D2E/DX2                !
 ! D115  D(15,16,17,50)         64.3869         estimate D2E/DX2                !
 ! D116  D(47,16,17,18)         64.4301         estimate D2E/DX2                !
 ! D117  D(47,16,17,49)       -179.9578         estimate D2E/DX2                !
 ! D118  D(47,16,17,50)        -51.1817         estimate D2E/DX2                !
 ! D119  D(48,16,17,18)        -64.4364         estimate D2E/DX2                !
 ! D120  D(48,16,17,49)         51.1756         estimate D2E/DX2                !
 ! D121  D(48,16,17,50)        179.9517         estimate D2E/DX2                !
 ! D122  D(16,17,18,19)        179.9986         estimate D2E/DX2                !
 ! D123  D(16,17,18,51)        -64.3938         estimate D2E/DX2                !
 ! D124  D(16,17,18,52)         64.3999         estimate D2E/DX2                !
 ! D125  D(49,17,18,19)         64.3887         estimate D2E/DX2                !
 ! D126  D(49,17,18,51)        179.9963         estimate D2E/DX2                !
 ! D127  D(49,17,18,52)        -51.21           estimate D2E/DX2                !
 ! D128  D(50,17,18,19)        -64.3912         estimate D2E/DX2                !
 ! D129  D(50,17,18,51)         51.2163         estimate D2E/DX2                !
 ! D130  D(50,17,18,52)       -179.9899         estimate D2E/DX2                !
 ! D131  D(17,18,19,20)        179.9998         estimate D2E/DX2                !
 ! D132  D(17,18,19,53)        -64.3678         estimate D2E/DX2                !
 ! D133  D(17,18,19,54)         64.3746         estimate D2E/DX2                !
 ! D134  D(51,18,19,20)         64.4131         estimate D2E/DX2                !
 ! D135  D(51,18,19,53)       -179.9545         estimate D2E/DX2                !
 ! D136  D(51,18,19,54)        -51.2121         estimate D2E/DX2                !
 ! D137  D(52,18,19,20)        -64.4257         estimate D2E/DX2                !
 ! D138  D(52,18,19,53)         51.2067         estimate D2E/DX2                !
 ! D139  D(52,18,19,54)        179.9491         estimate D2E/DX2                !
 ! D140  D(18,19,20,21)       -180.0            estimate D2E/DX2                !
 ! D141  D(18,19,20,55)        -64.3928         estimate D2E/DX2                !
 ! D142  D(18,19,20,56)         64.4009         estimate D2E/DX2                !
 ! D143  D(53,19,20,21)         64.3586         estimate D2E/DX2                !
 ! D144  D(53,19,20,55)        179.9658         estimate D2E/DX2                !
 ! D145  D(53,19,20,56)        -51.2405         estimate D2E/DX2                !
 ! D146  D(54,19,20,21)        -64.3623         estimate D2E/DX2                !
 ! D147  D(54,19,20,55)         51.2449         estimate D2E/DX2                !
 ! D148  D(54,19,20,56)       -179.9614         estimate D2E/DX2                !
 ! D149  D(19,20,21,57)        107.2251         estimate D2E/DX2                !
 ! D150  D(19,20,21,58)       -132.7825         estimate D2E/DX2                !
 ! D151  D(19,20,21,59)        -12.7783         estimate D2E/DX2                !
 ! D152  D(55,20,21,57)         -8.4606         estimate D2E/DX2                !
 ! D153  D(55,20,21,58)        111.5318         estimate D2E/DX2                !
 ! D154  D(55,20,21,59)       -128.4641         estimate D2E/DX2                !
 ! D155  D(56,20,21,57)       -137.0956         estimate D2E/DX2                !
 ! D156  D(56,20,21,58)        -17.1032         estimate D2E/DX2                !
 ! D157  D(56,20,21,59)        102.901          estimate D2E/DX2                !
 --------------------------------------------------------------------------------
 Trust Radius=3.00D-01 FncErr=1.00D-07 GrdErr=1.00D-06 EigMax=2.50D+02 EigMin=1.00D-04
 Number of steps in this run=    339 maximum allowed number of steps=    360.
 GradGradGradGradGradGradGradGradGradGradGradGradGradGradGradGradGradGrad

 Leave Link  103 at Sun Oct 13 20:24:02 2019, MaxMem= 10737418240 cpu:               0.4 elap:               0.0
 (Enter /apps/cent7/gaussian/g16-A.03/g16-haswell/g16/l202.exe)
 Stoichiometry    C19H39O2(1+)
 Framework group  C1[X(C19H39O2)]
 Deg. of freedom   174
 Full point group                 C1      NOp   1
 Largest Abelian subgroup         C1      NOp   1
 Largest concise Abelian subgroup C1      NOp   1
                         Standard orientation:                         
 ---------------------------------------------------------------------
 Center     Atomic      Atomic             Coordinates (Angstroms)
 Number     Number       Type             X           Y           Z
 ---------------------------------------------------------------------
      1          8           0       -9.669259   -1.530052   -0.066235
      2          6           0       -9.270340   -0.343410   -0.037259
      3          8           0       -9.904060    0.579115   -0.808867
      4          6           0      -10.857441    1.518082   -0.312256
      5          6           0       -8.044283    0.015381    0.701667
      6          6           0       -6.775206   -0.352937   -0.112900
      7          6           0       -5.462999    0.086586    0.584888
      8          6           0       -4.193710   -0.285870   -0.230683
      9          6           0       -2.888903    0.132566    0.498470
     10          6           0       -1.603352   -0.250969   -0.281777
     11          6           0       -0.305476    0.160291    0.464296
     12          6           0        0.974739   -0.230565   -0.320621
     13          6           0        2.277004    0.176695    0.417746
     14          6           0        3.552262   -0.217353   -0.375590
     15          6           0        4.856295    0.189134    0.359021
     16          6           0        6.127338   -0.205067   -0.435455
     17          6           0        7.422768    0.206030    0.307824
     18          6           0        8.699192   -0.183975   -0.478748
     19          6           0        9.993910    0.229087    0.268234
     20          6           0       11.276146   -0.157719   -0.512405
     21          6           0       12.566600    0.252981    0.230204
     22          1           0      -11.273097    1.151824    0.626431
     23          1           0      -10.368446    2.477488   -0.143331
     24          1           0      -11.658742    1.641939   -1.040748
     25          1           0       -8.066812    1.101196    0.794631
     26          1           0       -8.049093   -0.608422    1.595442
     27          1           0       -6.745992   -1.441908   -0.150077
     28          1           0       -6.831963    0.222545   -1.036791
     29          1           0       -5.491332    1.175646    0.620091
     30          1           0       -5.407527   -0.487272    1.509971
     31          1           0       -4.175416   -1.374334   -0.286185
     32          1           0       -4.234282    0.305880   -1.145199
     33          1           0       -2.902675    1.221814    0.537076
     34          1           0       -2.862707   -0.445235    1.422424
     35          1           0       -1.592517   -1.339936   -0.329253
     36          1           0       -1.622001    0.334496   -1.200959
     37          1           0       -0.313133    1.249341    0.509152
     38          1           0       -0.286652   -0.422957    1.385025
     39          1           0        0.980950   -1.319668   -0.365295
     40          1           0        0.954452    0.352591   -1.241258
     41          1           0        2.271910    1.265706    0.463137
     42          1           0        2.299158   -0.407015    1.337945
     43          1           0        3.557234   -1.306423   -0.420381
     44          1           0        3.529254    0.365872   -1.296194
     45          1           0        4.852412    1.278195    0.404166
     46          1           0        4.880803   -0.394254    1.279416
     47          1           0        6.133924   -1.294070   -0.480575
     48          1           0        6.105480    0.378427   -1.355948
     49          1           0        7.414540    1.295051    0.352910
     50          1           0        7.443000   -0.377407    1.228373
     51          1           0        8.707697   -1.272918   -0.523920
     52          1           0        8.679161    0.399553   -1.399264
     53          1           0        9.983635    1.318110    0.313369
     54          1           0       10.012171   -0.354361    1.188712
     55          1           0       11.287700   -1.246701   -0.557574
     56          1           0       11.259257    0.425796   -1.432946
     57          1           0       13.052110   -0.635733    0.633608
     58          1           0       13.242163    0.752375   -0.464333
     59          1           0       12.316338    0.931931    1.045254
     60          1           0      -10.561677   -1.743467    0.215977
 ---------------------------------------------------------------------
 Rotational constants (GHZ):           2.4471687           0.0297785           0.0297020
 Leave Link  202 at Sun Oct 13 20:24:02 2019, MaxMem= 10737418240 cpu:               1.3 elap:               0.1
 (Enter /apps/cent7/gaussian/g16-A.03/g16-haswell/g16/l301.exe)
 Standard basis: 6-311++G(d,p) (5D, 7F)
 Ernie: Thresh=  0.10000D-02 Tol=  0.10000D-05 Strict=F.
 There are   756 symmetry adapted cartesian basis functions of A   symmetry.
 There are   735 symmetry adapted basis functions of A   symmetry.
   735 basis functions,  1107 primitive gaussians,   756 cartesian basis functions
    84 alpha electrons       84 beta electrons
       nuclear repulsion energy      1471.9513711239 Hartrees.
 IExCor= 4336 DFT=T Ex+Corr=M062X ExCW=0 ScaHFX=  0.540000
 ScaDFX=  1.000000  1.000000  1.000000  1.000000 ScalE2=  1.000000  1.000000
 IRadAn=      5 IRanWt=     -1 IRanGd=            0 ICorTp=0 IEmpDi=  4
 NAtoms=   60 NActive=   60 NUniq=   60 SFac= 1.00D+00 NAtFMM=   60 NAOKFM=T Big=T
 Integral buffers will be    131072 words long.
 Raffenetti 2 integral format.
 Two-electron integral symmetry is turned on.
 Leave Link  301 at Sun Oct 13 20:24:02 2019, MaxMem= 10737418240 cpu:               1.5 elap:               0.1
 (Enter /apps/cent7/gaussian/g16-A.03/g16-haswell/g16/l302.exe)
 NPDir=0 NMtPBC=     1 NCelOv=     1 NCel=       1 NClECP=     1 NCelD=      1
         NCelK=      1 NCelE2=     1 NClLst=     1 CellRange=     0.0.
 One-electron integrals computed using PRISM.
 One-electron integral symmetry used in STVInt
 NBasis=   735 RedAO= T EigKep=  1.33D-06  NBF=   735
 NBsUse=   734 1.00D-06 EigRej=  2.53D-07 NBFU=   734
 Precomputing XC quadrature grid using
 IXCGrd= 4 IRadAn=           5 IRanWt=          -1 IRanGd=           0 AccXCQ= 0.00D+00.
 Generated NRdTot=       0 NPtTot=           0 NUsed=           0 NTot=          32
 NSgBfM=   595   595   595   595   595 MxSgAt=    60 MxSgA2=    60.
 Leave Link  302 at Sun Oct 13 20:24:03 2019, MaxMem= 10737418240 cpu:              20.7 elap:               0.9
 (Enter /apps/cent7/gaussian/g16-A.03/g16-haswell/g16/l303.exe)
 DipDrv:  MaxL=1.
 Leave Link  303 at Sun Oct 13 20:24:03 2019, MaxMem= 10737418240 cpu:               3.2 elap:               0.2
 (Enter /apps/cent7/gaussian/g16-A.03/g16-haswell/g16/l401.exe)
 ExpMin= 3.60D-02 ExpMax= 8.59D+03 ExpMxC= 1.30D+03 IAcc=3 IRadAn=         5 AccDes= 0.00D+00
 Harris functional with IExCor= 1009 and IRadAn=       5 diagonalized for initial guess.
 HarFok:  IExCor= 1009 AccDes= 0.00D+00 IRadAn=         5 IDoV= 1 UseB2=F ITyADJ=14
 ICtDFT=  3500011 ScaDFX=  1.000000  1.000000  1.000000  1.000000
 FoFCou: FMM=F IPFlag=           0 FMFlag=      100000 FMFlg1=        2001
         NFxFlg=           0 DoJE=T BraDBF=F KetDBF=T FulRan=T
         wScrn=  0.000000 ICntrl=       500 IOpCl=  0 I1Cent=   200000004 NGrid=           0
         NMat0=    1 NMatS0=      1 NMatT0=    0 NMatD0=    1 NMtDS0=    0 NMtDT0=    0
 Petite list used in FoFCou.
 Harris En= -897.268288323444    
 JPrj=0 DoOrth=F DoCkMO=F.
 Leave Link  401 at Sun Oct 13 20:24:05 2019, MaxMem= 10737418240 cpu:              48.6 elap:               2.1
 (Enter /apps/cent7/gaussian/g16-A.03/g16-haswell/g16/l502.exe)
 Integral symmetry usage will be decided dynamically.
 Closed shell SCF:
 Using DIIS extrapolation, IDIIS=  1040.
 NGot= 10737418240 LenX= 10736249400 LenY= 10735677108
 Requested convergence on RMS density matrix=1.00D-08 within 128 cycles.
 Requested convergence on MAX density matrix=1.00D-06.
 Requested convergence on             energy=1.00D-06.
 No special actions if energy rises.
 Fock matrices will be formed incrementally for  20 cycles.

 Cycle   1  Pass 1  IDiag  1:
 FoFJK:  IHMeth= 1 ICntrl=       0 DoSepK=F KAlg= 0 I1Cent=           0 FoldK=F
 IRaf= 710000000 NMat=       1 IRICut=       1 DoRegI=T DoRafI=F ISym2E= 0 IDoP0=0 IntGTp=1.
 FoFCou: FMM=T IPFlag=           0 FMFlag=      100000 FMFlg1=        2001
         NFxFlg=           0 DoJE=F BraDBF=F KetDBF=F FulRan=T
         wScrn=  0.000000 ICntrl=         0 IOpCl=  0 I1Cent=           0 NGrid=           0
         NMat0=    1 NMatS0=      1 NMatT0=    0 NMatD0=    1 NMtDS0=    0 NMtDT0=    0
 Symmetry not used in FoFCou.
 FMM levels:  10  Number of levels for PrismC:   9
 E= -896.609275939288    
 DIIS: error= 4.83D-02 at cycle   1 NSaved=   1.
 NSaved= 1 IEnMin= 1 EnMin= -896.609275939288     IErMin= 1 ErrMin= 4.83D-02
 ErrMax= 4.83D-02  0.00D+00 EMaxC= 1.00D-01 BMatC= 8.81D-01 BMatP= 8.81D-01
 IDIUse=3 WtCom= 5.17D-01 WtEn= 4.83D-01
 Coeff-Com:  0.100D+01
 Coeff-En:   0.100D+01
 Coeff:      0.100D+01
 Gap=     0.259 Goal=   None    Shift=    0.000
 GapD=    0.259 DampG=1.000 DampE=0.500 DampFc=0.5000 IDamp=-1.
 Damping current iteration by 5.00D-01
 RMSDP=1.27D-02 MaxDP=1.56D+00              OVMax= 7.94D-01

 Cycle   2  Pass 1  IDiag  1:
 RMSU=  5.88D-03    CP:  8.66D-01
 E= -896.704569869163     Delta-E=       -0.095293929875 Rises=F Damp=T
 DIIS: error= 9.83D-03 at cycle   2 NSaved=   2.
 NSaved= 2 IEnMin= 2 EnMin= -896.704569869163     IErMin= 2 ErrMin= 9.83D-03
 ErrMax= 9.83D-03  0.00D+00 EMaxC= 1.00D-01 BMatC= 1.25D-01 BMatP= 8.81D-01
 IDIUse=3 WtCom= 9.02D-01 WtEn= 9.83D-02
 Coeff-Com:  0.906D-01 0.909D+00
 Coeff-En:   0.434D+00 0.566D+00
 Coeff:      0.124D+00 0.876D+00
 Gap=     0.010 Goal=   None    Shift=    0.000
 RMSDP=9.39D-03 MaxDP=1.24D+00 DE=-9.53D-02 OVMax= 5.31D-01

 Cycle   3  Pass 1  IDiag  1:
 RMSU=  8.79D-03    CP:  1.05D+00  1.09D+00
 E= -897.199974196071     Delta-E=       -0.495404326908 Rises=F Damp=F
 DIIS: error= 1.48D-02 at cycle   3 NSaved=   3.
 NSaved= 3 IEnMin= 3 EnMin= -897.199974196071     IErMin= 2 ErrMin= 9.83D-03
 ErrMax= 1.48D-02  0.00D+00 EMaxC= 1.00D-01 BMatC= 1.80D-01 BMatP= 1.25D-01
 IDIUse=2 WtCom= 0.00D+00 WtEn= 1.00D+00
 Coeff-En:   0.000D+00 0.517D-01 0.948D+00
 Coeff:      0.000D+00 0.517D-01 0.948D+00
 Gap=     0.671 Goal=   None    Shift=    0.000
 RMSDP=9.96D-03 MaxDP=1.33D+00 DE=-4.95D-01 OVMax= 8.20D-01

 Cycle   4  Pass 1  IDiag  1:
 RMSU=  4.89D-03    CP:  8.43D-01  1.02D+00  1.08D-01
 E= -895.708916485824     Delta-E=        1.491057710248 Rises=F Damp=F
 DIIS: error= 3.15D-02 at cycle   4 NSaved=   4.
 NSaved= 4 IEnMin= 3 EnMin= -897.199974196071     IErMin= 2 ErrMin= 9.83D-03
 ErrMax= 3.15D-02  0.00D+00 EMaxC= 1.00D-01 BMatC= 9.24D-01 BMatP= 1.25D-01
 IDIUse=2 WtCom= 0.00D+00 WtEn= 1.00D+00
 Coeff-En:   0.000D+00 0.000D+00 0.844D+00 0.156D+00
 Coeff:      0.000D+00 0.000D+00 0.844D+00 0.156D+00
 Gap=     0.035 Goal=   None    Shift=    0.000
 RMSDP=3.59D-03 MaxDP=5.56D-01 DE= 1.49D+00 OVMax= 9.82D-01

 Cycle   5  Pass 1  IDiag  1:
 RMSU=  2.17D-03    CP:  8.63D-01  7.36D-01  3.36D-01  7.83D-01
 E= -897.389869594855     Delta-E=       -1.680953109031 Rises=F Damp=F
 DIIS: error= 4.59D-03 at cycle   5 NSaved=   5.
 NSaved= 5 IEnMin= 5 EnMin= -897.389869594855     IErMin= 5 ErrMin= 4.59D-03
 ErrMax= 4.59D-03  0.00D+00 EMaxC= 1.00D-01 BMatC= 1.58D-02 BMatP= 1.25D-01
 IDIUse=3 WtCom= 9.54D-01 WtEn= 4.59D-02
 Coeff-Com: -0.212D-01 0.995D-01 0.259D+00 0.107D-01 0.652D+00
 Coeff-En:   0.000D+00 0.000D+00 0.000D+00 0.000D+00 0.100D+01
 Coeff:     -0.202D-01 0.950D-01 0.247D+00 0.102D-01 0.668D+00
 Gap=     0.137 Goal=   None    Shift=    0.000
 RMSDP=1.11D-03 MaxDP=1.24D-01 DE=-1.68D+00 OVMax= 1.96D-02

 Cycle   6  Pass 1  IDiag  1:
 RMSU=  6.96D-04    CP:  8.77D-01  7.76D-01  4.00D-01  6.78D-01  8.85D-01
 E= -897.401601596633     Delta-E=       -0.011732001778 Rises=F Damp=F
 DIIS: error= 1.71D-03 at cycle   6 NSaved=   6.
 NSaved= 6 IEnMin= 6 EnMin= -897.401601596633     IErMin= 6 ErrMin= 1.71D-03
 ErrMax= 1.71D-03  0.00D+00 EMaxC= 1.00D-01 BMatC= 1.82D-03 BMatP= 1.58D-02
 IDIUse=3 WtCom= 9.83D-01 WtEn= 1.71D-02
 Coeff-Com: -0.210D-01 0.556D-01 0.569D-02-0.126D-01 0.190D+00 0.782D+00
 Coeff-En:   0.000D+00 0.000D+00 0.000D+00 0.000D+00 0.000D+00 0.100D+01
 Coeff:     -0.206D-01 0.546D-01 0.559D-02-0.124D-01 0.187D+00 0.786D+00
 Gap=     0.125 Goal=   None    Shift=    0.000
 RMSDP=3.75D-04 MaxDP=2.75D-02 DE=-1.17D-02 OVMax= 8.63D-03

 Cycle   7  Pass 1  IDiag  1:
 RMSU=  2.07D-04    CP:  8.76D-01  7.86D-01  3.72D-01  7.12D-01  9.24D-01
                    CP:  1.02D+00
 E= -897.403580210026     Delta-E=       -0.001978613393 Rises=F Damp=F
 DIIS: error= 4.49D-04 at cycle   7 NSaved=   7.
 NSaved= 7 IEnMin= 7 EnMin= -897.403580210026     IErMin= 7 ErrMin= 4.49D-04
 ErrMax= 4.49D-04  0.00D+00 EMaxC= 1.00D-01 BMatC= 2.10D-04 BMatP= 1.82D-03
 IDIUse=3 WtCom= 9.96D-01 WtEn= 4.49D-03
 Coeff-Com: -0.630D-02 0.121D-01-0.345D-01-0.248D-02-0.277D-01 0.326D+00
 Coeff-Com:  0.733D+00
 Coeff-En:   0.000D+00 0.000D+00 0.000D+00 0.000D+00 0.000D+00 0.000D+00
 Coeff-En:   0.100D+01
 Coeff:     -0.628D-02 0.120D-01-0.343D-01-0.247D-02-0.276D-01 0.324D+00
 Coeff:      0.734D+00
 Gap=     0.126 Goal=   None    Shift=    0.000
 RMSDP=1.25D-04 MaxDP=1.25D-02 DE=-1.98D-03 OVMax= 2.30D-03

 Cycle   8  Pass 1  IDiag  1:
 RMSU=  7.41D-05    CP:  8.75D-01  7.79D-01  3.66D-01  7.14D-01  9.26D-01
                    CP:  1.11D+00  1.09D+00
 E= -897.403805134133     Delta-E=       -0.000224924107 Rises=F Damp=F
 DIIS: error= 1.34D-04 at cycle   8 NSaved=   8.
 NSaved= 8 IEnMin= 8 EnMin= -897.403805134133     IErMin= 8 ErrMin= 1.34D-04
 ErrMax= 1.34D-04  0.00D+00 EMaxC= 1.00D-01 BMatC= 1.76D-05 BMatP= 2.10D-04
 IDIUse=3 WtCom= 9.99D-01 WtEn= 1.34D-03
 Coeff-Com: -0.112D-02 0.163D-02-0.143D-01 0.215D-03-0.245D-01 0.590D-01
 Coeff-Com:  0.251D+00 0.728D+00
 Coeff-En:   0.000D+00 0.000D+00 0.000D+00 0.000D+00 0.000D+00 0.000D+00
 Coeff-En:   0.000D+00 0.100D+01
 Coeff:     -0.112D-02 0.162D-02-0.143D-01 0.214D-03-0.244D-01 0.589D-01
 Coeff:      0.251D+00 0.728D+00
 Gap=     0.126 Goal=   None    Shift=    0.000
 RMSDP=5.52D-05 MaxDP=6.09D-03 DE=-2.25D-04 OVMax= 1.08D-03

 Cycle   9  Pass 1  IDiag  1:
 RMSU=  2.61D-05    CP:  8.77D-01  7.82D-01  3.68D-01  7.15D-01  9.25D-01
                    CP:  1.13D+00  1.16D+00  9.77D-01
 E= -897.403822729110     Delta-E=       -0.000017594977 Rises=F Damp=F
 DIIS: error= 4.70D-05 at cycle   9 NSaved=   9.
 NSaved= 9 IEnMin= 9 EnMin= -897.403822729110     IErMin= 9 ErrMin= 4.70D-05
 ErrMax= 4.70D-05  0.00D+00 EMaxC= 1.00D-01 BMatC= 3.40D-06 BMatP= 1.76D-05
 IDIUse=1 WtCom= 1.00D+00 WtEn= 0.00D+00
 Coeff-Com:  0.572D-03-0.921D-03-0.309D-03 0.242D-03-0.315D-02-0.347D-01
 Coeff-Com: -0.384D-01 0.314D+00 0.763D+00
 Coeff:      0.572D-03-0.921D-03-0.309D-03 0.242D-03-0.315D-02-0.347D-01
 Coeff:     -0.384D-01 0.314D+00 0.763D+00
 Gap=     0.125 Goal=   None    Shift=    0.000
 RMSDP=2.37D-05 MaxDP=3.27D-03 DE=-1.76D-05 OVMax= 4.31D-04

 Cycle  10  Pass 1  IDiag  1:
 RMSU=  9.21D-06    CP:  8.77D-01  7.81D-01  3.66D-01  7.15D-01  9.26D-01
                    CP:  1.13D+00  1.18D+00  1.17D+00  9.87D-01
 E= -897.403826082710     Delta-E=       -0.000003353599 Rises=F Damp=F
 DIIS: error= 1.51D-05 at cycle  10 NSaved=  10.
 NSaved=10 IEnMin=10 EnMin= -897.403826082710     IErMin=10 ErrMin= 1.51D-05
 ErrMax= 1.51D-05  0.00D+00 EMaxC= 1.00D-01 BMatC= 2.78D-07 BMatP= 3.40D-06
 IDIUse=1 WtCom= 1.00D+00 WtEn= 0.00D+00
 Coeff-Com:  0.317D-03-0.501D-03 0.962D-03 0.554D-04 0.645D-03-0.165D-01
 Coeff-Com: -0.323D-01 0.789D-01 0.313D+00 0.655D+00
 Coeff:      0.317D-03-0.501D-03 0.962D-03 0.554D-04 0.645D-03-0.165D-01
 Coeff:     -0.323D-01 0.789D-01 0.313D+00 0.655D+00
 Gap=     0.125 Goal=   None    Shift=    0.000
 RMSDP=3.81D-06 MaxDP=3.70D-04 DE=-3.35D-06 OVMax= 1.12D-04

 Cycle  11  Pass 1  IDiag  1:
 RMSU=  2.91D-06    CP:  8.77D-01  7.81D-01  3.66D-01  7.15D-01  9.26D-01
                    CP:  1.13D+00  1.18D+00  1.16D+00  1.02D+00  8.71D-01
 E= -897.403826302965     Delta-E=       -0.000000220255 Rises=F Damp=F
 DIIS: error= 6.61D-06 at cycle  11 NSaved=  11.
 NSaved=11 IEnMin=11 EnMin= -897.403826302965     IErMin=11 ErrMin= 6.61D-06
 ErrMax= 6.61D-06  0.00D+00 EMaxC= 1.00D-01 BMatC= 5.24D-08 BMatP= 2.78D-07
 IDIUse=1 WtCom= 1.00D+00 WtEn= 0.00D+00
 Coeff-Com:  0.494D-04-0.955D-04 0.543D-03-0.107D-04 0.662D-03-0.182D-04
 Coeff-Com: -0.590D-02-0.178D-01 0.719D-03 0.270D+00 0.752D+00
 Coeff:      0.494D-04-0.955D-04 0.543D-03-0.107D-04 0.662D-03-0.182D-04
 Coeff:     -0.590D-02-0.178D-01 0.719D-03 0.270D+00 0.752D+00
 Gap=     0.125 Goal=   None    Shift=    0.000
 RMSDP=2.00D-06 MaxDP=1.86D-04 DE=-2.20D-07 OVMax= 5.70D-05

 Cycle  12  Pass 1  IDiag  1:
 RMSU=  1.07D-06    CP:  8.77D-01  7.81D-01  3.66D-01  7.15D-01  9.26D-01
                    CP:  1.13D+00  1.18D+00  1.17D+00  1.03D+00  9.41D-01
                    CP:  1.02D+00
 E= -897.403826359509     Delta-E=       -0.000000056544 Rises=F Damp=F
 DIIS: error= 2.22D-06 at cycle  12 NSaved=  12.
 NSaved=12 IEnMin=12 EnMin= -897.403826359509     IErMin=12 ErrMin= 2.22D-06
 ErrMax= 2.22D-06  0.00D+00 EMaxC= 1.00D-01 BMatC= 3.76D-09 BMatP= 5.24D-08
 IDIUse=1 WtCom= 1.00D+00 WtEn= 0.00D+00
 Coeff-Com:  0.749D-05-0.284D-04 0.138D-03-0.225D-05 0.140D-03 0.102D-02
 Coeff-Com:  0.252D-03-0.828D-02-0.201D-01 0.204D-01 0.172D+00 0.834D+00
 Coeff:      0.749D-05-0.284D-04 0.138D-03-0.225D-05 0.140D-03 0.102D-02
 Coeff:      0.252D-03-0.828D-02-0.201D-01 0.204D-01 0.172D+00 0.834D+00
 Gap=     0.125 Goal=   None    Shift=    0.000
 RMSDP=6.07D-07 MaxDP=8.42D-05 DE=-5.65D-08 OVMax= 2.56D-05

 Cycle  13  Pass 1  IDiag  1:
 RMSU=  2.45D-07    CP:  8.77D-01  7.81D-01  3.66D-01  7.15D-01  9.26D-01
                    CP:  1.13D+00  1.18D+00  1.17D+00  1.03D+00  9.63D-01
                    CP:  1.07D+00  1.14D+00
 E= -897.403826365142     Delta-E=       -0.000000005633 Rises=F Damp=F
 DIIS: error= 8.16D-07 at cycle  13 NSaved=  13.
 NSaved=13 IEnMin=13 EnMin= -897.403826365142     IErMin=13 ErrMin= 8.16D-07
 ErrMax= 8.16D-07  0.00D+00 EMaxC= 1.00D-01 BMatC= 6.92D-10 BMatP= 3.76D-09
 IDIUse=1 WtCom= 1.00D+00 WtEn= 0.00D+00
 Coeff-Com: -0.156D-05-0.101D-06-0.218D-04-0.173D-05-0.535D-04 0.362D-03
 Coeff-Com:  0.917D-03 0.913D-04-0.809D-02-0.393D-01-0.685D-01 0.336D+00
 Coeff-Com:  0.779D+00
 Coeff:     -0.156D-05-0.101D-06-0.218D-04-0.173D-05-0.535D-04 0.362D-03
 Coeff:      0.917D-03 0.913D-04-0.809D-02-0.393D-01-0.685D-01 0.336D+00
 Coeff:      0.779D+00
 Gap=     0.125 Goal=   None    Shift=    0.000
 RMSDP=2.82D-07 MaxDP=3.36D-05 DE=-5.63D-09 OVMax= 1.47D-05

 Cycle  14  Pass 1  IDiag  1:
 RMSU=  1.22D-07    CP:  8.77D-01  7.81D-01  3.66D-01  7.15D-01  9.26D-01
                    CP:  1.13D+00  1.18D+00  1.17D+00  1.03D+00  9.69D-01
                    CP:  1.10D+00  1.26D+00  1.06D+00
 E= -897.403826366354     Delta-E=       -0.000000001212 Rises=F Damp=F
 DIIS: error= 1.71D-07 at cycle  14 NSaved=  14.
 NSaved=14 IEnMin=14 EnMin= -897.403826366354     IErMin=14 ErrMin= 1.71D-07
 ErrMax= 1.71D-07  0.00D+00 EMaxC= 1.00D-01 BMatC= 4.06D-11 BMatP= 6.92D-10
 IDIUse=1 WtCom= 1.00D+00 WtEn= 0.00D+00
 Coeff-Com: -0.607D-06 0.196D-05-0.199D-04-0.206D-06-0.209D-04-0.650D-04
 Coeff-Com:  0.853D-04 0.126D-02 0.122D-02-0.107D-01-0.380D-01-0.415D-01
 Coeff-Com:  0.172D+00 0.916D+00
 Coeff:     -0.607D-06 0.196D-05-0.199D-04-0.206D-06-0.209D-04-0.650D-04
 Coeff:      0.853D-04 0.126D-02 0.122D-02-0.107D-01-0.380D-01-0.415D-01
 Coeff:      0.172D+00 0.916D+00
 Gap=     0.125 Goal=   None    Shift=    0.000
 RMSDP=1.02D-07 MaxDP=1.24D-05 DE=-1.21D-09 OVMax= 7.46D-06

 Cycle  15  Pass 1  IDiag  1:
 RMSU=  4.70D-08    CP:  8.77D-01  7.81D-01  3.66D-01  7.15D-01  9.26D-01
                    CP:  1.13D+00  1.18D+00  1.17D+00  1.03D+00  9.71D-01
                    CP:  1.10D+00  1.30D+00  1.20D+00  1.08D+00
 E= -897.403826366497     Delta-E=       -0.000000000143 Rises=F Damp=F
 DIIS: error= 7.04D-08 at cycle  15 NSaved=  15.
 NSaved=15 IEnMin=15 EnMin= -897.403826366497     IErMin=15 ErrMin= 7.04D-08
 ErrMax= 7.04D-08  0.00D+00 EMaxC= 1.00D-01 BMatC= 6.02D-12 BMatP= 4.06D-11
 IDIUse=1 WtCom= 1.00D+00 WtEn= 0.00D+00
 Coeff-Com: -0.233D-06 0.733D-06-0.423D-05 0.352D-06 0.357D-07-0.622D-04
 Coeff-Com: -0.776D-04 0.352D-03 0.130D-02 0.180D-02-0.256D-02-0.539D-01
 Coeff-Com: -0.521D-01 0.232D+00 0.873D+00
 Coeff:     -0.233D-06 0.733D-06-0.423D-05 0.352D-06 0.357D-07-0.622D-04
 Coeff:     -0.776D-04 0.352D-03 0.130D-02 0.180D-02-0.256D-02-0.539D-01
 Coeff:     -0.521D-01 0.232D+00 0.873D+00
 Gap=     0.125 Goal=   None    Shift=    0.000
 RMSDP=2.57D-08 MaxDP=1.69D-06 DE=-1.43D-10 OVMax= 3.05D-06

 Cycle  16  Pass 1  IDiag  1:
 RMSU=  1.25D-08    CP:  8.77D-01  7.81D-01  3.66D-01  7.15D-01  9.26D-01
                    CP:  1.13D+00  1.18D+00  1.17D+00  1.03D+00  9.71D-01
                    CP:  1.10D+00  1.31D+00  1.23D+00  1.17D+00  1.13D+00
 E= -897.403826366500     Delta-E=       -0.000000000003 Rises=F Damp=F
 DIIS: error= 2.96D-08 at cycle  16 NSaved=  16.
 NSaved=16 IEnMin=16 EnMin= -897.403826366500     IErMin=16 ErrMin= 2.96D-08
 ErrMax= 2.96D-08  0.00D+00 EMaxC= 1.00D-01 BMatC= 1.24D-12 BMatP= 6.02D-12
 IDIUse=1 WtCom= 1.00D+00 WtEn= 0.00D+00
 Coeff-Com: -0.136D-06 0.219D-06 0.106D-05 0.103D-06 0.277D-05-0.925D-05
 Coeff-Com: -0.301D-04-0.780D-04 0.160D-03 0.226D-02 0.499D-02-0.816D-02
 Coeff-Com: -0.391D-01-0.768D-01 0.263D+00 0.854D+00
 Coeff:     -0.136D-06 0.219D-06 0.106D-05 0.103D-06 0.277D-05-0.925D-05
 Coeff:     -0.301D-04-0.780D-04 0.160D-03 0.226D-02 0.499D-02-0.816D-02
 Coeff:     -0.391D-01-0.768D-01 0.263D+00 0.854D+00
 Gap=     0.125 Goal=   None    Shift=    0.000
 RMSDP=1.57D-08 MaxDP=2.06D-06 DE=-2.73D-12 OVMax= 1.17D-06

 Cycle  17  Pass 1  IDiag  1:
 RMSU=  7.46D-09    CP:  8.77D-01  7.81D-01  3.66D-01  7.15D-01  9.26D-01
                    CP:  1.13D+00  1.18D+00  1.17D+00  1.03D+00  9.71D-01
                    CP:  1.09D+00  1.31D+00  1.24D+00  1.20D+00  1.19D+00
                    CP:  1.18D+00
 E= -897.403826366508     Delta-E=       -0.000000000008 Rises=F Damp=F
 DIIS: error= 9.44D-09 at cycle  17 NSaved=  17.
 NSaved=17 IEnMin=17 EnMin= -897.403826366508     IErMin=17 ErrMin= 9.44D-09
 ErrMax= 9.44D-09  0.00D+00 EMaxC= 1.00D-01 BMatC= 1.13D-13 BMatP= 1.24D-12
 IDIUse=1 WtCom= 1.00D+00 WtEn= 0.00D+00
 Coeff-Com: -0.507D-07 0.722D-07 0.500D-06 0.183D-07 0.238D-06 0.558D-05
 Coeff-Com:  0.462D-05-0.639D-04-0.154D-03 0.271D-03 0.140D-02 0.482D-02
 Coeff-Com: -0.161D-02-0.510D-01-0.434D-01 0.196D+00 0.894D+00
 Coeff:     -0.507D-07 0.722D-07 0.500D-06 0.183D-07 0.238D-06 0.558D-05
 Coeff:      0.462D-05-0.639D-04-0.154D-03 0.271D-03 0.140D-02 0.482D-02
 Coeff:     -0.161D-02-0.510D-01-0.434D-01 0.196D+00 0.894D+00
 Gap=     0.125 Goal=   None    Shift=    0.000
 RMSDP=4.94D-09 MaxDP=2.89D-07 DE=-8.19D-12 OVMax= 3.75D-07

 SCF Done:  E(RM062X) =  -897.403826367     A.U. after   17 cycles
            NFock= 17  Conv=0.49D-08     -V/T= 2.0044
 KE= 8.934863912812D+02 PE=-5.011193998479D+03 EE= 1.748352409707D+03
 Leave Link  502 at Sun Oct 13 20:26:37 2019, MaxMem= 10737418240 cpu:            3627.0 elap:             152.2
 (Enter /apps/cent7/gaussian/g16-A.03/g16-haswell/g16/l601.exe)
 Copying SCF densities to generalized density rwf, IOpCl= 0 IROHF=0.

 **********************************************************************

            Population analysis using the SCF density.

 **********************************************************************

 Orbital symmetries:
       Occupied  (A) (A) (A) (A) (A) (A) (A) (A) (A) (A) (A) (A)
                 (A) (A) (A) (A) (A) (A) (A) (A) (A) (A) (A) (A)
                 (A) (A) (A) (A) (A) (A) (A) (A) (A) (A) (A) (A)
                 (A) (A) (A) (A) (A) (A) (A) (A) (A) (A) (A) (A)
                 (A) (A) (A) (A) (A) (A) (A) (A) (A) (A) (A) (A)
                 (A) (A) (A) (A) (A) (A) (A) (A) (A) (A) (A) (A)
                 (A) (A) (A) (A) (A) (A) (A) (A) (A) (A) (A) (A)
       Virtual   (A) (A) (A) (A) (A) (A) (A) (A) (A) (A) (A) (A)
                 (A) (A) (A) (A) (A) (A) (A) (A) (A) (A) (A) (A)
                 (A) (A) (A) (A) (A) (A) (A) (A) (A) (A) (A) (A)
                 (A) (A) (A) (A) (A) (A) (A) (A) (A) (A) (A) (A)
                 (A) (A) (A) (A) (A) (A) (A) (A) (A) (A) (A) (A)
                 (A) (A) (A) (A) (A) (A) (A) (A) (A) (A) (A) (A)
                 (A) (A) (A) (A) (A) (A) (A) (A) (A) (A) (A) (A)
                 (A) (A) (A) (A) (A) (A) (A) (A) (A) (A) (A) (A)
                 (A) (A) (A) (A) (A) (A) (A) (A) (A) (A) (A) (A)
                 (A) (A) (A) (A) (A) (A) (A) (A) (A) (A) (A) (A)
                 (A) (A) (A) (A) (A) (A) (A) (A) (A) (A) (A) (A)
                 (A) (A) (A) (A) (A) (A) (A) (A) (A) (A) (A) (A)
                 (A) (A) (A) (A) (A) (A) (A) (A) (A) (A) (A) (A)
                 (A) (A) (A) (A) (A) (A) (A) (A) (A) (A) (A) (A)
                 (A) (A) (A) (A) (A) (A) (A) (A) (A) (A) (A) (A)
                 (A) (A) (A) (A) (A) (A) (A) (A) (A) (A) (A) (A)
                 (A) (A) (A) (A) (A) (A) (A) (A) (A) (A) (A) (A)
                 (A) (A) (A) (A) (A) (A) (A) (A) (A) (A) (A) (A)
                 (A) (A) (A) (A) (A) (A) (A) (A) (A) (A) (A) (A)
                 (A) (A) (A) (A) (A) (A) (A) (A) (A) (A) (A) (A)
                 (A) (A) (A) (A) (A) (A) (A) (A) (A) (A) (A) (A)
                 (A) (A) (A) (A) (A) (A) (A) (A) (A) (A) (A) (A)
                 (A) (A) (A) (A) (A) (A) (A) (A) (A) (A) (A) (A)
                 (A) (A) (A) (A) (A) (A) (A) (A) (A) (A) (A) (A)
                 (A) (A) (A) (A) (A) (A) (A) (A) (A) (A) (A) (A)
                 (A) (A) (A) (A) (A) (A) (A) (A) (A) (A) (A) (A)
                 (A) (A) (A) (A) (A) (A) (A) (A) (A) (A) (A) (A)
                 (A) (A) (A) (A) (A) (A) (A) (A) (A) (A) (A) (A)
                 (A) (A) (A) (A) (A) (A) (A) (A) (A) (A) (A) (A)
                 (A) (A) (A) (A) (A) (A) (A) (A) (A) (A) (A) (A)
                 (A) (A) (A) (A) (A) (A) (A) (A) (A) (A) (A) (A)
                 (A) (A) (A) (A) (A) (A) (A) (A) (A) (A) (A) (A)
                 (A) (A) (A) (A) (A) (A) (A) (A) (A) (A) (A) (A)
                 (A) (A) (A) (A) (A) (A) (A) (A) (A) (A) (A) (A)
                 (A) (A) (A) (A) (A) (A) (A) (A) (A) (A) (A) (A)
                 (A) (A) (A) (A) (A) (A) (A) (A) (A) (A) (A) (A)
                 (A) (A) (A) (A) (A) (A) (A) (A) (A) (A) (A) (A)
                 (A) (A) (A) (A) (A) (A) (A) (A) (A) (A) (A) (A)
                 (A) (A) (A) (A) (A) (A) (A) (A) (A) (A) (A) (A)
                 (A) (A) (A) (A) (A) (A) (A) (A) (A) (A) (A) (A)
                 (A) (A) (A) (A) (A) (A) (A) (A) (A) (A) (A) (A)
                 (A) (A) (A) (A) (A) (A) (A) (A) (A) (A) (A) (A)
                 (A) (A) (A) (A) (A) (A) (A) (A) (A) (A) (A) (A)
                 (A) (A) (A) (A) (A) (A) (A) (A) (A) (A) (A) (A)
                 (A) (A) (A) (A) (A) (A) (A) (A) (A) (A) (A) (A)
                 (A) (A) (A) (A) (A) (A) (A) (A) (A) (A) (A) (A)
                 (A) (A) (A) (A) (A) (A) (A) (A) (A) (A) (A) (A)
                 (A) (A) (A) (A) (A) (A) (A) (A) (A) (A) (A) (A)
                 (A) (A) (A) (A) (A) (A) (A) (A) (A) (A) (A) (A)
                 (A) (A) (A) (A) (A) (A) (A) (A) (A) (A) (A) (A)
                 (A) (A) (A) (A) (A) (A) (A) (A) (A) (A) (A) (A)
                 (A) (A) (A) (A) (A) (A) (A) (A) (A) (A) (A) (A)
                 (A) (A) (A) (A) (A) (A) (A) (A) (A) (A) (A) (A)
                 (A) (A) (A) (A) (A) (A) (A) (A) (A) (A) (A) (A)
                 (A) (A)
 The electronic state is 1-A.
 Alpha  occ. eigenvalues --  -19.91250 -19.87127 -10.94810 -10.77559 -10.74188
 Alpha  occ. eigenvalues --  -10.70419 -10.66212 -10.63708 -10.61804 -10.60362
 Alpha  occ. eigenvalues --  -10.59286 -10.58409 -10.57736 -10.57178 -10.56711
 Alpha  occ. eigenvalues --  -10.56335 -10.56020 -10.55736 -10.55567 -10.55417
 Alpha  occ. eigenvalues --  -10.54426  -1.49797  -1.39132  -1.10518  -1.03240
 Alpha  occ. eigenvalues --   -1.00073  -0.97467  -0.95994  -0.94759  -0.93403
 Alpha  occ. eigenvalues --   -0.91637  -0.89422  -0.86847  -0.84466  -0.83424
 Alpha  occ. eigenvalues --   -0.80893  -0.79405  -0.77557  -0.76800  -0.74880
 Alpha  occ. eigenvalues --   -0.73188  -0.72585  -0.71478  -0.70601  -0.70365
 Alpha  occ. eigenvalues --   -0.69014  -0.67846  -0.67249  -0.67228  -0.65680
 Alpha  occ. eigenvalues --   -0.63947  -0.62590  -0.62123  -0.60932  -0.60510
 Alpha  occ. eigenvalues --   -0.59387  -0.57734  -0.57472  -0.56152  -0.55811
 Alpha  occ. eigenvalues --   -0.54166  -0.53944  -0.52355  -0.52078  -0.52016
 Alpha  occ. eigenvalues --   -0.50431  -0.50237  -0.49681  -0.48509  -0.48399
 Alpha  occ. eigenvalues --   -0.46958  -0.46323  -0.45901  -0.45575  -0.44387
 Alpha  occ. eigenvalues --   -0.44345  -0.43415  -0.42563  -0.42156  -0.41683
 Alpha  occ. eigenvalues --   -0.40974  -0.39671  -0.38582  -0.37575
 Alpha virt. eigenvalues --   -0.25032  -0.15671  -0.11276  -0.10388  -0.10336
 Alpha virt. eigenvalues --   -0.08852  -0.08240  -0.07389  -0.06971  -0.06405
 Alpha virt. eigenvalues --   -0.05943  -0.05273  -0.04948  -0.04599  -0.04103
 Alpha virt. eigenvalues --   -0.03841  -0.03437  -0.02896  -0.02847  -0.02601
 Alpha virt. eigenvalues --   -0.02474  -0.02170  -0.01825  -0.01665  -0.01485
 Alpha virt. eigenvalues --   -0.01064  -0.00677  -0.00493  -0.00104   0.00017
 Alpha virt. eigenvalues --    0.00303   0.00423   0.00902   0.01057   0.01321
 Alpha virt. eigenvalues --    0.01495   0.01708   0.02134   0.02370   0.02435
 Alpha virt. eigenvalues --    0.02724   0.02931   0.03086   0.03379   0.03525
 Alpha virt. eigenvalues --    0.03778   0.04221   0.04382   0.04640   0.04962
 Alpha virt. eigenvalues --    0.05132   0.05208   0.05608   0.05737   0.05913
 Alpha virt. eigenvalues --    0.06238   0.06525   0.06571   0.06941   0.07113
 Alpha virt. eigenvalues --    0.07173   0.07209   0.07412   0.08004   0.08175
 Alpha virt. eigenvalues --    0.08374   0.08616   0.08865   0.08954   0.09186
 Alpha virt. eigenvalues --    0.09369   0.09538   0.09872   0.09933   0.10180
 Alpha virt. eigenvalues --    0.10339   0.10629   0.10755   0.10894   0.11190
 Alpha virt. eigenvalues --    0.11265   0.11532   0.11641   0.11715   0.11924
 Alpha virt. eigenvalues --    0.12314   0.12456   0.12543   0.12726   0.12971
 Alpha virt. eigenvalues --    0.13146   0.13426   0.13523   0.13949   0.13999
 Alpha virt. eigenvalues --    0.14023   0.14237   0.14313   0.14767   0.14789
 Alpha virt. eigenvalues --    0.15088   0.15138   0.15311   0.15697   0.16278
 Alpha virt. eigenvalues --    0.16366   0.16478   0.16669   0.16928   0.17018
 Alpha virt. eigenvalues --    0.17163   0.17387   0.17594   0.17942   0.18106
 Alpha virt. eigenvalues --    0.18313   0.18479   0.18750   0.19071   0.19317
 Alpha virt. eigenvalues --    0.19607   0.19999   0.20037   0.20222   0.20618
 Alpha virt. eigenvalues --    0.20993   0.21311   0.21421   0.21540   0.21760
 Alpha virt. eigenvalues --    0.21912   0.22079   0.22304   0.22446   0.22760
 Alpha virt. eigenvalues --    0.23010   0.23265   0.23432   0.23546   0.23842
 Alpha virt. eigenvalues --    0.23990   0.24206   0.24555   0.25027   0.25177
 Alpha virt. eigenvalues --    0.25500   0.25833   0.25988   0.26184   0.26536
 Alpha virt. eigenvalues --    0.26706   0.26918   0.27090   0.27504   0.27731
 Alpha virt. eigenvalues --    0.27809   0.28247   0.28851   0.29014   0.29462
 Alpha virt. eigenvalues --    0.29668   0.30088   0.30586   0.30885   0.31121
 Alpha virt. eigenvalues --    0.31322   0.31717   0.31823   0.32309   0.32689
 Alpha virt. eigenvalues --    0.32940   0.33541   0.34477   0.34858   0.35953
 Alpha virt. eigenvalues --    0.36272   0.37216   0.37469   0.37686   0.37807
 Alpha virt. eigenvalues --    0.38415   0.39557   0.40132   0.40664   0.41156
 Alpha virt. eigenvalues --    0.41899   0.42445   0.43628   0.44059   0.44191
 Alpha virt. eigenvalues --    0.45463   0.45668   0.46854   0.47022   0.47109
 Alpha virt. eigenvalues --    0.47372   0.47822   0.48727   0.49134   0.49504
 Alpha virt. eigenvalues --    0.49802   0.50028   0.50216   0.50570   0.52040
 Alpha virt. eigenvalues --    0.52247   0.52963   0.53364   0.53866   0.54105
 Alpha virt. eigenvalues --    0.54985   0.55302   0.55614   0.56548   0.56851
 Alpha virt. eigenvalues --    0.57508   0.58382   0.58503   0.59156   0.59303
 Alpha virt. eigenvalues --    0.59615   0.60361   0.60984   0.61275   0.62168
 Alpha virt. eigenvalues --    0.63381   0.63792   0.64218   0.64634   0.65031
 Alpha virt. eigenvalues --    0.65208   0.65673   0.65810   0.65894   0.66487
 Alpha virt. eigenvalues --    0.67043   0.67148   0.67440   0.67858   0.68261
 Alpha virt. eigenvalues --    0.68482   0.69056   0.69406   0.69512   0.69750
 Alpha virt. eigenvalues --    0.70405   0.70836   0.71111   0.71352   0.71428
 Alpha virt. eigenvalues --    0.72050   0.72291   0.72711   0.72931   0.73178
 Alpha virt. eigenvalues --    0.73387   0.73555   0.73614   0.74012   0.74618
 Alpha virt. eigenvalues --    0.74980   0.75207   0.75779   0.76269   0.76606
 Alpha virt. eigenvalues --    0.76751   0.77173   0.77361   0.77906   0.78160
 Alpha virt. eigenvalues --    0.78604   0.79213   0.79243   0.79422   0.79614
 Alpha virt. eigenvalues --    0.82394   0.83305   0.83640   0.84588   0.84928
 Alpha virt. eigenvalues --    0.88819   0.90231   0.90669   0.91985   0.92603
 Alpha virt. eigenvalues --    0.93433   0.93885   0.94862   0.95653   0.96032
 Alpha virt. eigenvalues --    0.97139   0.98086   0.99191   0.99563   0.99816
 Alpha virt. eigenvalues --    1.00476   1.01332   1.02109   1.03171   1.03945
 Alpha virt. eigenvalues --    1.05771   1.06676   1.06891   1.07649   1.08901
 Alpha virt. eigenvalues --    1.12322   1.14611   1.15861   1.16929   1.18284
 Alpha virt. eigenvalues --    1.20576   1.21125   1.21926   1.22543   1.22947
 Alpha virt. eigenvalues --    1.23882   1.24489   1.25412   1.25730   1.26256
 Alpha virt. eigenvalues --    1.26903   1.27120   1.27883   1.28476   1.29114
 Alpha virt. eigenvalues --    1.29772   1.30098   1.30774   1.31236   1.31543
 Alpha virt. eigenvalues --    1.32421   1.32693   1.32913   1.33546   1.34635
 Alpha virt. eigenvalues --    1.35413   1.38146   1.39563   1.39587   1.40827
 Alpha virt. eigenvalues --    1.42134   1.43328   1.44615   1.45066   1.45404
 Alpha virt. eigenvalues --    1.46076   1.46933   1.48086   1.48379   1.48995
 Alpha virt. eigenvalues --    1.49738   1.50002   1.51056   1.51308   1.51649
 Alpha virt. eigenvalues --    1.52769   1.53170   1.53512   1.54285   1.55148
 Alpha virt. eigenvalues --    1.55350   1.56095   1.56225   1.56664   1.57475
 Alpha virt. eigenvalues --    1.57699   1.58229   1.58395   1.58485   1.59160
 Alpha virt. eigenvalues --    1.59304   1.59766   1.59900   1.60247   1.61242
 Alpha virt. eigenvalues --    1.61940   1.62106   1.63076   1.63766   1.63936
 Alpha virt. eigenvalues --    1.64436   1.65184   1.65758   1.66104   1.66424
 Alpha virt. eigenvalues --    1.67038   1.67202   1.68125   1.68196   1.68579
 Alpha virt. eigenvalues --    1.69035   1.70054   1.70736   1.71476   1.72280
 Alpha virt. eigenvalues --    1.73222   1.74078   1.74536   1.75837   1.75969
 Alpha virt. eigenvalues --    1.76797   1.77045   1.77685   1.78473   1.78878
 Alpha virt. eigenvalues --    1.78945   1.80351   1.80851   1.81048   1.81300
 Alpha virt. eigenvalues --    1.81362   1.82565   1.83129   1.83704   1.84314
 Alpha virt. eigenvalues --    1.84965   1.85474   1.86121   1.87352   1.87634
 Alpha virt. eigenvalues --    1.89670   1.90414   1.90745   1.91902   1.92943
 Alpha virt. eigenvalues --    1.93225   1.94578   1.95563   1.96496   1.97551
 Alpha virt. eigenvalues --    1.99456   2.00082   2.00706   2.00960   2.02447
 Alpha virt. eigenvalues --    2.02939   2.03539   2.04641   2.04750   2.05270
 Alpha virt. eigenvalues --    2.06489   2.08145   2.08785   2.10014   2.10677
 Alpha virt. eigenvalues --    2.11068   2.13159   2.13508   2.14697   2.15200
 Alpha virt. eigenvalues --    2.16111   2.17727   2.18772   2.19013   2.19307
 Alpha virt. eigenvalues --    2.20464   2.21784   2.22955   2.23766   2.24817
 Alpha virt. eigenvalues --    2.25743   2.26881   2.27595   2.30015   2.30423
 Alpha virt. eigenvalues --    2.31135   2.32232   2.33537   2.34312   2.35049
 Alpha virt. eigenvalues --    2.35449   2.36702   2.37363   2.38098   2.39341
 Alpha virt. eigenvalues --    2.39524   2.40118   2.41078   2.42219   2.42610
[...]
 89,-0.00000021,-0.00000144,-0.00000210,0.00000100,-0.00000129,0.000001
 84,0.00000126,0.00000165,0.00000148,-0.00000008,0.00000155,-0.00000199
 ,-0.00000031,-0.00000289,-0.00000442,0.00000238,-0.00000286,0.00000372
 ,0.00000327,0.00000422,0.00000394,-0.00000040,0.00000430,-0.00000496,0
 .00000025,-0.00000705,-0.00001416,0.00000845,-0.00000538,0.00000980,0.
 00002022,0.00001150,0.00001820,0.00000546,0.00001382,-0.00002529,-0.00
 002329,-0.00003069,-0.00009031,-0.00000885,-0.00006313,0.00008939,0.00
 020630,0.00004199,0.00007059,0.00038159,-0.00014143,-0.00010910,0.0003
 0114,0.00012814,-0.00067899,0.00080360,-0.00001832,0.00028009,-0.00855
 139,0.00404359,0.00278758,0.26228449,0.00000044,0.00000047,0.00000025,
 -0.00000107,-0.00000058,0.00000018,0.00000037,0.00000024,-0.00000008,-
 0.00000021,0.00000004,-0.00000006,0.00000065,-0.00000025,-0.00000014,-
 0.00000049,0.00000012,-0.00000072,0.00000019,0.00000003,-0.00000003,-0
 .00000030,0.00000001,0.00000041,0.00000009,-0.00000123,0.00000050,-0.0
 0000049,0.00000153,0.00000034,-0.00000084,-0.00000318,0.00000025,-0.00
 000364,0.00000567,0.00000110,-0.00000383,-0.00001287,0.00000136,-0.000
 01791,0.00002170,0.00000544,-0.00002754,-0.00006508,0.00001062,-0.0001
 1810,0.00012751,0.00003799,-0.00025607,-0.00045372,0.00009807,-0.00116
 115,0.00100768,0.00038591,-0.00238208,-0.00374212,0.00091475,-0.021368
 32,0.01221816,0.00693752,0.10474072,-0.10247443,-0.03432757,-0.0000000
 5,-0.00000004,0.00000008,0.,0.00000003,-0.00000004,0.,-0.00000003,0.00
 000010,-0.00000012,0.,0.00000002,-0.00000008,-0.00000001,0.00000015,-0
 .00000003,0.00000001,0.00000004,-0.00000004,0.00000002,-0.00000002,-0.
 00000012,0.00000005,0.,-0.00000003,-0.00000006,-0.00000003,0.00000002,
 0.00000004,0.,0.00000006,0.00000005,0.,0.00000002,0.00000004,0.0000001
 3,-0.00000005,0.00000002,-0.00000015,0.00000005,0.00000001,-0.00000002
 ,0.00000006,-0.00000004,-0.00000006,0.00000003,0.00000018,0.00000041,-
 0.00000021,0.00000018,-0.00000034,0.00000012,-0.00000009,-0.00000019,0
 .00000021,-0.00000008,0.00000004,0.00000022,0.00000050,0.00000094,-0.0
 0000038,0.00000052,-0.00000091,0.00000037,-0.00000014,-0.00000122,0.00
 000097,-0.00000009,0.00000066,0.00000174,0.00000127,0.00000372,-0.0000
 0096,0.00000112,-0.00000404,0.00000066,-0.00000064,-0.00000733,0.00000
 490,-0.00000033,0.00000524,0.00001759,-0.00000090,0.00001733,0.0000032
 1,-0.00000177,-0.00002414,0.00004352,0.00003739,-0.00006969,0.00007253
 ,0.00003702,0.00002681,-0.00001281,0.00001008,0.00030525,-0.00017807,-
 0.00001718,-0.00022844,0.00070295,0.00089140,-0.00051480,0.00086123,0.
 00088520,-0.00006790,0.01414087,-0.00858788,-0.00613672,-0.11129603,0.
 10918441,0.00000190,0.00000165,0.00000025,-0.00000396,-0.00000457,0.00
 000251,0.00000079,0.00000194,-0.00000290,-0.00000001,0.00000019,0.0000
 0116,0.00000316,0.00000025,-0.00000092,-0.00000078,0.00000064,0.000000
 15,0.00000029,0.00000069,-0.00000004,0.00000061,-0.00000121,-0.0000006
 9,0.00000067,0.00000151,0.00000106,0.00000149,-0.00000281,-0.00000163,
 0.00000095,0.00000510,0.00000037,0.00000430,-0.00000636,0.00000237,0.0
 0000301,0.00001198,-0.00000080,0.00001090,-0.00001988,-0.00000388,0.00
 000724,0.00004073,-0.00001774,0.00005855,-0.00007689,-0.00000231,0.000
 07809,0.00021443,-0.00004319,0.00050037,-0.00046492,0.00044032,0.00078
 736,0.00185226,-0.00006442,0.00601374,-0.00424721,-0.00350663,0.063525
 21,-0.03391547,-0.06819333,-0.00000026,-0.00000008,0.00000020,-0.00000
 004,-0.00000016,0.00000007,0.00000005,0.00000001,0.00000022,-0.0000005
 2,0.00000006,0.00000008,-0.00000042,0.00000009,0.00000027,-0.00000009,
 -0.00000003,0.00000010,-0.00000012,0.00000006,-0.00000021,-0.00000016,
 -0.00000006,-0.00000024,-0.00000009,-0.00000003,0.00000015,-0.00000006
 ,-0.00000005,0.00000020,-0.00000010,0.00000024,-0.00000025,-0.00000005
 ,-0.00000021,-0.00000023,-0.00000008,0.00000005,0.00000009,-0.00000006
 ,0.00000010,0.00000029,-0.00000020,0.00000030,-0.00000051,-0.00000018,
 -0.00000040,-0.00000031,-0.00000018,-0.00000004,0.00000021,-0.00000011
 ,0.00000027,0.00000053,-0.00000031,0.00000067,-0.00000088,-0.00000038,
 -0.00000091,-0.00000062,-0.00000007,-0.00000023,0.00000064,-0.00000015
 ,0.00000087,0.00000100,-0.00000095,0.00000106,-0.00000182,-0.00000036,
 -0.00000231,-0.00000143,-0.00000050,-0.00000065,0.00000224,-0.00000195
 ,0.00000028,0.00000286,-0.00000288,0.00000387,-0.00000640,-0.00000681,
 -0.00000950,-0.00000285,-0.00000018,0.00000114,0.00001226,0.00006620,0
 .00006719,-0.00001172,-0.00007218,-0.00003841,-0.00002723,-0.00034301,
 0.00028534,0.00031470,0.00030550,-0.00024011,0.00016393,-0.00040970,0.
 00019848,0.00030919,-0.00002502,-0.00028239,-0.00020571,-0.02203005,0.
 01104459,0.00803364,-0.07079093,0.03636258,0.06959600,0.00000157,0.000
 00140,0.00000066,-0.00000280,-0.00000306,0.00000060,0.00000066,0.00000
 119,-0.00000111,-0.00000017,-0.00000010,0.00000036,0.00000183,0.000000
 23,-0.00000053,-0.00000054,0.00000042,0.00000011,0.00000013,0.00000004
 ,-0.00000008,0.00000030,-0.00000040,-0.00000006,0.00000019,0.00000056,
 -0.00000038,0.00000043,-0.00000136,-0.00000035,0.00000042,0.00000161,-
 0.00000019,0.00000079,-0.00000262,-0.00000002,0.00000121,0.00000360,-0
 .00000087,0.00000134,-0.00000699,-0.00000156,0.00000066,0.00000893,-0.
 00000452,0.00001727,-0.00001307,0.00000199,0.00001788,0.00007455,0.000
 05969,-0.00010836,-0.00002618,0.00022629,0.00134255,-0.00055271,-0.001
 64949,-0.00575934,-0.01395254,-0.01863801,-0.05737471,-0.03041498,-0.0
 4075604,-0.00000017,-0.00000004,0.00000009,-0.00000004,-0.00000018,0.0
 0000001,0.,-0.00000002,0.00000009,-0.00000025,-0.00000003,0.00000005,-
 0.00000025,-0.00000001,0.00000006,0.00000004,0.,0.00000010,-0.00000009
 ,-0.00000001,-0.00000017,-0.00000010,-0.00000002,0.00000007,-0.0000000
 6,-0.00000003,0.00000001,0.00000012,0.00000012,0.00000026,-0.00000009,
 0.00000006,-0.00000024,-0.00000014,0.00000002,0.00000022,-0.00000012,-
 0.00000004,-0.00000006,0.00000024,0.00000030,0.00000044,-0.00000015,0.
 00000011,-0.00000039,-0.00000024,0.00000010,0.00000051,-0.00000016,-0.
 00000010,-0.00000015,0.00000060,0.00000073,0.00000085,-0.00000019,0.00
 000020,-0.00000071,-0.00000071,0.00000026,0.00000141,-0.00000043,-0.00
 000029,-0.00000035,0.00000186,0.00000178,0.00000174,-0.00000018,0.0000
 0047,-0.00000136,-0.00000217,0.00000051,0.00000398,-0.00000087,-0.0000
 0048,-0.00000078,0.00001034,0.00000714,0.00000260,-0.00000023,-0.00000
 006,-0.00000467,-0.00004678,0.00002166,0.00003932,-0.00000646,-0.00000
 336,-0.00000443,0.00013762,0.00022648,0.00011286,0.00002807,0.00000763
 ,-0.00004627,-0.00034675,0.00031312,0.00072518,-0.00004917,0.00005335,
 -0.00002691,-0.00286507,-0.00320928,0.00166894,0.00083768,0.00075256,0
 .00027481,-0.00312807,-0.00698326,-0.00815533,0.00676161,0.01623749,0.
 02232355,0.06053010,-0.00000086,-0.00000054,0.00000054,0.00000236,0.00
 000297,-0.00000329,-0.00000045,-0.00000143,0.00000341,-0.00000034,-0.0
 0000031,-0.00000150,-0.00000210,-0.00000026,0.00000070,0.00000061,-0.0
 0000061,-0.00000057,-0.00000011,-0.00000004,0.00000002,-0.00000062,0.0
 0000022,-0.00000022,-0.00000020,-0.00000129,0.00000004,-0.00000108,0.0
 0000166,-0.00000069,-0.00000087,-0.00000296,-0.00000113,-0.00000222,0.
 00000394,0.00000022,-0.00000067,-0.00000696,0.00000010,-0.00000485,0.0
 0000882,0.00000052,-0.00000301,-0.00001614,-0.00000291,-0.00000225,0.0
 0002050,-0.00000893,0.00000630,0.00001072,0.00007044,0.00004511,0.0001
 1946,0.00025388,0.00129705,0.00054434,-0.00029673,-0.00494099,-0.01497
 113,-0.01837035,-0.03065947,-0.14226093,-0.12354253,0.00000017,0.00000
 004,-0.00000010,0.,0.00000014,-0.00000016,0.,-0.00000007,-0.00000014,0
 .00000018,0.,0.00000002,0.00000029,-0.00000004,-0.00000021,0.00000008,
 0.00000008,-0.00000004,0.00000004,-0.00000012,0.00000015,-0.00000005,0
 .00000016,0.00000027,0.00000007,-0.00000011,-0.00000011,0.00000019,0.0
 0000017,0.,0.00000009,-0.00000021,0.00000022,-0.00000002,0.00000038,0.
 00000046,0.00000013,-0.00000009,-0.00000012,0.00000030,0.00000025,0.00
 000013,0.00000009,-0.00000045,0.00000027,-0.00000011,0.00000074,0.0000
 0079,0.00000019,-0.00000009,-0.00000012,0.00000068,0.00000043,0.000000
 34,0.00000015,-0.00000086,0.00000044,-0.00000039,0.00000154,0.00000159
 ,0.00000042,-0.00000004,-0.00000015,0.00000163,0.00000079,0.00000092,0
 .00000017,-0.00000198,0.00000096,-0.00000125,0.00000382,0.00000316,0.0
 0000091,0.00000011,-0.00000014,0.00000604,-0.00000049,0.00000229,-0.00
 000051,-0.00000682,0.00000228,-0.00004118,0.00002000,0.00001807,0.0000
 0216,0.00000195,-0.00000134,0.00022089,0.00013626,0.00002261,0.0000005
 3,-0.00006288,-0.00000244,-0.00055156,0.00061250,0.00041980,-0.0000578
 1,0.00001442,0.00011935,-0.00346595,-0.00235302,0.00195858,0.00073846,
 0.00026968,-0.00002588,0.00333550,0.01226027,0.01472087,-0.00337763,-0
 .00906987,-0.01078322,0.03745509,0.15472334,-0.00000054,0.00000007,0.0
 0000067,0.00000144,0.00000148,-0.00000267,-0.00000032,-0.00000072,0.00
 000275,-0.00000027,-0.00000040,-0.00000130,-0.00000134,-0.00000017,0.0
 0000067,0.00000023,-0.00000066,-0.00000112,0.,0.00000008,0.00000012,-0
 .00000032,-0.00000024,0.00000045,-0.00000034,-0.00000112,-0.00000049,-
 0.00000049,0.00000098,-0.00000002,-0.00000030,-0.00000218,-0.00000015,
 -0.00000232,0.00000285,0.00000012,-0.00000084,-0.00000647,-0.00000102,
 -0.00000559,0.00000703,0.00000116,-0.00000577,-0.00001888,-0.00000259,
 -0.00002693,0.00002930,0.00001076,-0.00006558,-0.00009904,-0.00003419,
 -0.00005416,0.00029811,0.00027362,-0.00026727,0.00044077,0.00065087,0.
 00233308,0.00598774,0.00783753,-0.04133502,-0.12415095,-0.20845349,0.0
 0000008,-0.00000003,-0.00000009,0.00000003,0.00000005,-0.00000007,0.00
 000008,-0.00000011,-0.00000008,0.00000008,-0.00000008,0.00000007,0.000
 00019,-0.00000015,-0.00000014,0.00000004,0.00000009,0.00000003,0.00000
 010,-0.00000008,-0.00000002,-0.00000007,0.00000017,0.00000036,-0.00000
 006,-0.00000012,-0.00000022,0.00000025,0.00000024,0.00000013,0.0000001
 3,-0.00000005,-0.00000001,0.00000007,0.00000029,0.00000064,-0.00000006
 ,-0.00000005,-0.00000035,0.00000037,0.00000038,0.00000029,0.00000010,-
 0.00000015,-0.00000010,-0.00000001,0.00000054,0.00000116,-0.00000021,-
 0.00000002,-0.00000051,0.00000072,0.00000068,0.00000048,0.00000025,-0.
 00000018,-0.00000022,0.,0.00000100,0.00000204,-0.00000038,-0.00000001,
 -0.00000096,0.00000139,0.00000139,0.00000064,0.00000042,-0.00000039,-0
 .00000020,0.00000052,0.00000184,0.00000526,-0.00000076,-0.00000030,-0.
 00000229,0.00000129,0.00000276,-0.00000006,0.00000184,-0.00000027,-0.0
 0000044,0.00001043,-0.00000754,0.00001215,-0.00000393,0.00000011,-0.00
 000734,0.00010537,0.00001197,-0.00011624,0.00000334,0.00001135,-0.0000
 1506,-0.00047066,-0.00007670,0.00007579,-0.00001295,-0.00013913,-0.000
 09012,0.00193265,0.00156325,0.00083671,-0.00059770,-0.00039826,0.00076
 941,-0.00364798,-0.01516625,-0.01855747,-0.00174104,-0.00373351,-0.006
 78841,0.04384816,0.13543991,0.22359392,-0.17937323,-0.19403986,0.07439
 479,-0.02039118,-0.02491501,-0.00102386,-0.00060013,0.00325585,0.00850
 521,-0.00122736,0.00001986,-0.00159226,0.00504493,-0.00394051,-0.00542
 578,0.00060653,0.00196940,-0.00001556,0.00008713,-0.00081177,0.0000145
 5,0.00006957,0.00048659,-0.00004076,0.00006637,-0.00024322,-0.00001930
 ,0.00001293,0.00014192,0.00001262,0.00002874,-0.00008367,-0.00000216,0
 .00000287,0.00005301,-0.00000419,0.00000863,-0.00003543,-0.00000877,0.
 00000241,0.00002390,0.00000101,0.00000631,-0.00001516,0.00000053,0.000
 00030,0.00001267,-0.00000131,0.00000328,-0.00000935,0.00000129,0.00000
 046,0.00000726,-0.00000012,0.00000175,-0.00000580,-0.00000055,-0.00000
 064,0.00000393,0.00000083,0.00000164,-0.00000220,-0.00000045,0.0003244
 3,0.00013047,0.00048438,0.00004471,0.00002609,0.00014809,0.00016897,0.
 00009138,0.00012749,-0.00072466,-0.00058756,0.00089801,0.00008344,0.00
 001271,0.00062546,-0.00016971,0.00003250,0.00021371,-0.00014916,-0.000
 02682,-0.00004112,0.00005131,0.00007612,0.00004443,0.00003616,0.000053
 28,-0.00004071,-0.00002212,-0.00001280,0.00001516,-0.00002589,-0.00000
 537,-0.00000366,0.00000238,0.00001049,0.00000604,-0.00000301,0.0000136
 2,-0.00000949,-0.00000250,-0.00000734,0.00000060,-0.00000276,-0.000004
 51,-0.00000066,0.00000010,0.00000389,0.00000258,-0.00000249,0.00000560
 ,-0.00000380,-0.00000128,-0.00000333,-0.00000017,-0.00000170,-0.000001
 87,-0.00000016,-0.00000036,0.00000155,0.00000130,-0.00000140,0.0000027
 7,-0.00000204,-0.00000068,-0.00000177,-0.00000035,-0.00000083,-0.00000
 071,0.00000002,-0.00000037,0.00000062,0.00000080,-0.00000090,0.0000015
 2,-0.00000109,-0.00000032,-0.00000107,-0.00000027,-0.00000054,-0.00000
 038,0.,-0.00000025,0.00000035,0.00000039,-0.00000055,0.00000100,-0.000
 00072,-0.00000031,-0.00000077,-0.00000016,-0.00000033,-0.00000028,0.00
 000002,-0.00000016,0.00000026,0.00000030,-0.00000050,0.00000066,-0.000
 00051,-0.00000014,-0.00000047,-0.00000016,-0.00000010,-0.00000006,-0.0
 0000013,-0.00000096,0.00000097,-0.00000032,0.00000315,-0.00000024,-0.0
 0000100,-0.00000067,0.00000067,0.00000058,0.19604868,-0.20162662,-0.26
 803876,0.10161016,-0.01937674,-0.01717087,-0.00449085,0.00476495,-0.00
 213014,0.00837285,-0.00045875,-0.00080593,-0.00151599,-0.00044702,0.00
 396643,-0.00120340,-0.00153109,-0.00006993,0.00031676,-0.00012157,-0.0
 0009958,0.00015407,0.00002258,0.00015254,0.00003620,0.00001918,-0.0001
 0841,0.00000033,-0.00000898,0.00007291,-0.00000914,0.00001766,-0.00003
 857,-0.00000559,-0.00000028,0.00003086,0.00000285,0.00000990,-0.000015
 79,0.00000386,-0.00000001,0.00001375,0.00000022,0.00000350,-0.00000721
 ,-0.00000214,0.00000026,0.00000692,0.00000154,0.00000116,-0.00000414,-
 0.00000171,-0.00000005,0.00000397,0.00000033,0.00000128,-0.00000179,0.
 00000051,-0.00000031,0.00000202,0.00000026,0.00000090,-0.00000063,-0.0
 0000013,0.00009640,-0.00001460,0.00009845,0.00019473,0.00015447,0.0004
 2424,0.00019734,0.00020870,0.00024087,-0.00045312,0.00047916,-0.000244
 23,0.00032467,0.00039628,-0.00025039,-0.00010411,0.00010462,-0.0000149
 4,0.00013356,0.00000329,0.00005954,0.00004523,0.00002366,-0.00004941,-
 0.00001542,-0.00001214,0.00002866,-0.00000385,-0.00000564,-0.00001863,
 0.00001059,-0.00000549,0.00000947,-0.00000812,-0.00000511,-0.00000547,
 -0.00000195,0.00000234,0.00000702,0.00000173,-0.00000595,-0.00001168,0
 .00000382,-0.00000251,0.00000638,-0.00000447,-0.00000215,-0.00000268,-
 0.00000140,0.00000106,0.00000299,-0.00000013,-0.00000317,-0.00000543,0
 .00000192,-0.00000151,0.00000321,-0.00000218,-0.00000115,-0.00000178,-
 0.00000064,0.00000037,0.00000169,-0.00000026,-0.00000164,-0.00000310,0
 .00000098,-0.00000069,0.00000190,-0.00000117,-0.00000073,-0.00000104,-
 0.00000032,0.00000018,0.00000099,-0.00000017,-0.00000108,-0.00000179,0
 .00000055,-0.00000048,0.00000115,-0.00000074,-0.00000046,-0.00000077,-
 0.00000009,0.00000014,0.00000060,-0.00000017,-0.00000072,-0.00000125,0
 .00000041,-0.00000029,0.00000082,-0.00000043,-0.00000027,-0.00000052,-
 0.00000014,0.00000008,0.00000041,-0.00000022,-0.00000048,-0.00000078,0
 .00000021,-0.00000018,0.00000053,-0.00000034,0.00000037,0.00000029,0.0
 0000146,-0.00000011,-0.00000049,-0.00000052,0.00000008,-0.00000021,0.2
 1831644,0.28293411,0.10401269,0.13466207,-0.10259978,-0.02608890,-0.03
 215197,0.01806037,0.00230709,0.00212159,-0.00201194,-0.00016402,-0.000
 39757,-0.00150180,-0.00221953,-0.00009557,-0.00273142,-0.00019711,-0.0
 0054818,0.00002256,-0.00013491,0.00018846,-0.00002160,-0.00000470,-0.0
 0006052,0.00007249,-0.00000655,0.00002429,0.00001363,-0.00000267,-0.00
 000768,0.00000551,-0.00000029,0.00000235,0.00000173,0.00000059,0.00000
 007,0.00000315,0.00000049,0.00000151,0.00000128,-0.00000037,0.00000058
 ,0.00000080,0.00000100,0.00000004,0.00000263,0.00000073,-0.00000033,0.
 00000234,-0.00000004,0.00000037,-0.00000056,0.00000026,0.,0.00000128,0
 .00000032,0.00000015,0.00000061,-0.00000002,0.00000010,0.00000030,0.00
 000014,-0.00000002,0.00000026,0.00007331,0.00009577,0.00011335,0.00016
 342,0.00018542,0.00030861,-0.00000854,0.00006765,-0.00002456,-0.000503
 43,-0.00057668,0.00030293,0.00012286,-0.00011452,-0.00003871,-0.000051
 19,0.00008262,-0.00002630,-0.00005658,0.00006088,-0.00001594,0.0000137
 6,-0.00000125,-0.00001163,0.00000965,0.00001180,0.00000201,0.00000197,
 -0.00000420,-0.00001077,-0.00000258,0.00000573,-0.00000868,-0.00000338
 ,-0.00000860,-0.00000442,0.00000069,0.00000514,-0.00000040,0.00000220,
 -0.00000367,-0.00000593,-0.00000234,0.00000273,-0.00000219,-0.00000192
 ,-0.00000344,-0.00000257,0.00000018,0.00000281,-0.00000110,0.00000057,
 -0.00000202,-0.00000281,-0.00000102,0.00000147,-0.00000091,-0.00000092
 ,-0.00000182,-0.00000142,0.00000002,0.00000135,-0.00000064,0.00000025,
 -0.00000124,-0.00000160,-0.00000059,0.00000078,-0.00000057,-0.00000054
 ,-0.00000105,-0.00000101,-0.00000007,0.00000081,-0.00000038,0.00000005
 ,-0.00000073,-0.00000098,-0.00000036,0.00000060,-0.00000033,-0.0000003
 2,-0.00000067,-0.00000059,-0.00000006,0.00000049,-0.00000030,0.0000000
 6,-0.00000047,-0.00000062,-0.00000023,0.00000041,-0.00000024,-0.000000
 18,-0.00000045,-0.00000041,-0.00000002,0.00000038,-0.00000021,-0.00000
 001,-0.00000033,-0.00000037,-0.00000011,0.00000029,-0.00000017,-0.0000
 0009,0.00000021,-0.00000010,-0.00000013,0.,0.00000025,0.,-0.00000031,-
 0.00000031,-0.07725858,-0.10354561,0.09011817\\0.00000344,0.00000157,0
 .00000315,0.,-0.00000093,-0.00000743,-0.00000750,-0.00000371,0.0000032
 9,0.00000557,0.00000293,0.00000068,0.00000128,-0.00000023,0.00000197,-
 0.00000118,-0.00000044,-0.00000094,0.00000046,0.00000075,0.,-0.0000001
 9,-0.00000012,0.00000026,-0.00000013,-0.00000016,-0.00000024,0.0000000
 7,0.00000015,0.00000005,-0.00000016,-0.00000030,-0.00000024,0.00000004
 ,0.00000023,0.00000002,-0.00000010,-0.00000034,-0.00000025,-0.00000003
 ,0.00000028,0.00000003,-0.00000014,-0.00000036,-0.00000030,-0.00000006
 ,0.00000033,0.00000011,-0.00000010,-0.00000041,-0.00000031,-0.00000021
 ,0.00000032,0.00000016,0.00000021,-0.00000047,-0.00000051,-0.00000054,
 0.00000026,0.00000048,0.00000031,0.00000043,-0.00000061,-0.00000167,0.
 00000208,-0.00000086,0.00000008,0.00000035,-0.00000015,0.,0.00000099,0
 .00000056,-0.00000034,-0.00000055,0.00000048,-0.00000028,0.00000027,-0
 .00000104,0.00000025,-0.00000053,0.00000024,-0.00000015,0.00000005,0.0
 0000052,0.00000010,0.00000033,-0.00000061,-0.00000044,-0.00000033,-0.0
 0000039,0.00000032,-0.00000069,0.00000037,0.00000013,0.00000002,0.0000
 0044,-0.00000018,0.00000047,-0.00000037,-0.00000013,-0.00000021,-0.000
 00038,0.00000022,-0.00000066,0.00000040,0.00000012,-0.00000001,0.00000
 045,-0.00000020,0.00000045,-0.00000038,-0.00000009,-0.00000009,-0.0000
 0041,0.00000022,-0.00000059,0.00000043,0.00000012,-0.00000005,0.000000
 47,-0.00000019,0.00000046,-0.00000036,-0.00000009,-0.00000003,-0.00000
 041,0.00000024,-0.00000058,0.00000044,0.00000011,-0.00000004,0.0000005
 0,-0.00000018,0.00000050,-0.00000032,-0.00000009,-0.00000002,-0.000000
 39,0.00000027,-0.00000060,0.00000043,0.00000008,0.,0.00000051,-0.00000
 021,0.00000057,-0.00000028,-0.00000006,-0.00000003,-0.00000039,0.00000
 032,-0.00000057,0.00000045,0.00000007,0.,0.00000054,-0.00000038,0.0000
 0061,-0.00000027,-0.00000001,0.00000007,-0.00000041,0.00000056,-0.0000
 0069,0.00000027,0.,0.00000026,0.00000048,-0.00000001,-0.00000040,-0.00
 000033,-0.00000004,-0.00000008,0.00000003,-0.00000027,0.00000034,-0.00
 000017,0.00000074,-0.00000086,0.00000053\\\@


 A DANDELION FROM A LOVER MEANS MORE THAN AN ORCHID FROM A FRIEND.
 Job cpu time:       0 days 19 hours 47 minutes 34.8 seconds.
 Elapsed time:       0 days  0 hours 49 minutes 42.6 seconds.
 File lengths (MBytes):  RWF=   4461 Int=      0 D2E=      0 Chk=     48 Scr=      1
 Normal termination of Gaussian 16 at Sun Oct 13 21:54:12 2019.
real 5411.21
user 128769.50
sys 134.04
Machine:
brown-a116
brown-a116
brown-a116
brown-a116
brown-a116
brown-a116
brown-a116
brown-a116
brown-a116
brown-a116
brown-a116
brown-a116
brown-a116
brown-a116
brown-a116
brown-a116
brown-a116
brown-a116
brown-a116
brown-a116
brown-a116
brown-a116
brown-a116
brown-a116
