Title Card Required                                                     
Freq      RM062X                                                      6-311++G(d,p)       
Number of atoms                            I               16
Info1-9                                    I   N=           9
          42          42        1002           0           0         100
           6          18        -502
Full Title                                 C   N=           2
Title Card Required     
Route                                      C   N=           6
#P opt freq m062x/6-311++g(d,p) geom=connectivity temperatur
e=0.001     
Charge                                     I                0
Multiplicity                               I                1
Number of electrons                        I               42
Number of alpha electrons                  I               21
Number of beta electrons                   I               21
Number of basis functions                  I              187
Number of independent functions            I              187
Number of point charges in /Mol/           I                0
Number of translation vectors              I                0
Atomic numbers                             I   N=          16
           6           6           6           6           7           1
           1           1           1           1           1           1
           1           1           1           1
Nuclear charges                            R   N=          16
  6.00000000E+00  6.00000000E+00  6.00000000E+00  6.00000000E+00  7.00000000E+00
  1.00000000E+00  1.00000000E+00  1.00000000E+00  1.00000000E+00  1.00000000E+00
  1.00000000E+00  1.00000000E+00  1.00000000E+00  1.00000000E+00  1.00000000E+00
  1.00000000E+00
Current cartesian coordinates              R   N=          48
 -4.76439883E+00 -5.84793041E-01 -2.71105422E-02 -2.35397987E+00  9.97621805E-01
  7.37577936E-02  3.09597084E-02 -6.18851140E-01 -7.13320915E-02  2.44779405E+00
  9.39337468E-01  3.06987116E-02  4.66282832E+00 -7.03871818E-01 -1.75291879E-01
 -4.83079354E+00 -1.92202935E+00  1.54589699E+00 -6.45292677E+00  5.96119973E-01
  7.32546390E-02 -4.85387930E+00 -1.67427502E+00 -1.77940369E+00 -2.34939161E+00
  2.35719213E+00 -1.48709182E+00 -2.32590181E+00  2.11132212E+00  1.81832776E+00
  3.27818494E-02 -1.97834523E+00  1.49522454E+00  3.58451769E-02 -1.72990868E+00
 -1.81611839E+00  2.47798532E+00  2.24625628E+00 -1.57133405E+00  2.43463602E+00
  2.09747161E+00  1.75790033E+00  4.74777089E+00 -1.89579533E+00  1.32422205E+00
  6.28182524E+00  3.19203671E-01 -1.69918420E-01
Number of symbols in /Mol/                 I                0
Force Field                                I                0
Atom Types                                 C   N=          16
                                                            
                                                            
                                                            
            
Int Atom Types                             I   N=          16
           0           0           0           0           0           0
           0           0           0           0           0           0
           0           0           0           0
MM charges                                 R   N=          16
  0.00000000E+00  0.00000000E+00  0.00000000E+00  0.00000000E+00  0.00000000E+00
  0.00000000E+00  0.00000000E+00  0.00000000E+00  0.00000000E+00  0.00000000E+00
  0.00000000E+00  0.00000000E+00  0.00000000E+00  0.00000000E+00  0.00000000E+00
  0.00000000E+00
Integer atomic weights                     I   N=          16
          12          12          12          12          14           1
           1           1           1           1           1           1
           1           1           1           1
Real atomic weights                        R   N=          16
  1.20000000E+01  1.20000000E+01  1.20000000E+01  1.20000000E+01  1.40030740E+01
  1.00782504E+00  1.00782504E+00  1.00782504E+00  1.00782504E+00  1.00782504E+00
  1.00782504E+00  1.00782504E+00  1.00782504E+00  1.00782504E+00  1.00782504E+00
  1.00782504E+00
Atom fragment info                         I   N=          16
           0           0           0           0           0           0
           0           0           0           0           0           0
           0           0           0           0
Atom residue num                           I   N=          16
           0           0           0           0           0           0
           0           0           0           0           0           0
           0           0           0           0
Nuclear spins                              I   N=          16
           0           0           0           0           2           1
           1           1           1           1           1           1
           1           1           1           1
Nuclear ZEff                               R   N=          16
 -3.60000000E+00 -3.60000000E+00 -3.60000000E+00 -3.60000000E+00 -4.55000000E+00
 -1.00000000E+00 -1.00000000E+00 -1.00000000E+00 -1.00000000E+00 -1.00000000E+00
 -1.00000000E+00 -1.00000000E+00 -1.00000000E+00 -1.00000000E+00 -1.00000000E+00
 -1.00000000E+00
Nuclear ZNuc                               R   N=          16
  6.00000000E+00  6.00000000E+00  6.00000000E+00  6.00000000E+00  7.00000000E+00
  1.00000000E+00  1.00000000E+00  1.00000000E+00  1.00000000E+00  1.00000000E+00
  1.00000000E+00  1.00000000E+00  1.00000000E+00  1.00000000E+00  1.00000000E+00
  1.00000000E+00
Nuclear QMom                               R   N=          16
  0.00000000E+00  0.00000000E+00  0.00000000E+00  0.00000000E+00  2.04400000E+00
  0.00000000E+00  0.00000000E+00  0.00000000E+00  0.00000000E+00  0.00000000E+00
  0.00000000E+00  0.00000000E+00  0.00000000E+00  0.00000000E+00  0.00000000E+00
  0.00000000E+00
Nuclear GFac                               R   N=          16
  0.00000000E+00  0.00000000E+00  0.00000000E+00  0.00000000E+00  4.03761000E-01
  2.79284600E+00  2.79284600E+00  2.79284600E+00  2.79284600E+00  2.79284600E+00
  2.79284600E+00  2.79284600E+00  2.79284600E+00  2.79284600E+00  2.79284600E+00
  2.79284600E+00
MicOpt                                     I   N=          16
          -1          -1          -1          -1          -1          -1
          -1          -1          -1          -1          -1          -1
          -1          -1          -1          -1
Number of residues                         I                0
Number of secondary structures             I                0
Redundant internal dimensions              I   N=           4
          75          15          27          33
Redundant internal coordinate indices      I   N=         300
           1           2           0           0           1           6
           0           0           1           7           0           0
           1           8           0           0           2           3
           0           0           2           9           0           0
           2          10           0           0           3           4
           0           0           3          11           0           0
           3          12           0           0           4           5
           0           0           4          13           0           0
           4          14           0           0           5          15
           0           0           5          16           0           0
           2           1           6           0           2           1
           7           0           2           1           8           0
           6           1           7           0           6           1
           8           0           7           1           8           0
           1           2           3           0           1           2
           9           0           1           2          10           0
           3           2           9           0           3           2
          10           0           9           2          10           0
           2           3           4           0           2           3
          11           0           2           3          12           0
           4           3          11           0           4           3
          12           0          11           3          12           0
           3           4           5           0           3           4
          13           0           3           4          14           0
           5           4          13           0           5           4
          14           0          13           4          14           0
           4           5          15           0           4           5
          16           0          15           5          16           0
           6           1           2           3           6           1
           2           9           6           1           2          10
           7           1           2           3           7           1
           2           9           7           1           2          10
           8           1           2           3           8           1
           2           9           8           1           2          10
           1           2           3           4           1           2
           3          11           1           2           3          12
           9           2           3           4           9           2
           3          11           9           2           3          12
          10           2           3           4          10           2
           3          11          10           2           3          12
           2           3           4           5           2           3
           4          13           2           3           4          14
          11           3           4           5          11           3
           4          13          11           3           4          14
          12           3           4           5          12           3
           4          13          12           3           4          14
           3           4           5          15           3           4
           5          16          13           4           5          15
          13           4           5          16          14           4
           5          15          14           4           5          16
Redundant internal coordinates             R   N=          75
  2.88519163E+00  2.06566258E+00  2.06294821E+00  2.06531087E+00  2.88478295E+00
  2.06995267E+00  2.06993747E+00  2.87740339E+00  2.07420519E+00  2.06851443E+00
  2.76567273E+00  2.06771789E+00  2.07958487E+00  1.91740422E+00  1.91516666E+00
  1.93401454E+00  1.94781710E+00  1.93390221E+00  1.88306714E+00  1.87884818E+00
  1.88366160E+00  1.96232601E+00  1.91317172E+00  1.91334572E+00  1.90528249E+00
  1.90991950E+00  1.85678411E+00  1.97053368E+00  1.90710718E+00  1.92341144E+00
  1.90436072E+00  1.89525416E+00  1.85980818E+00  1.92657570E+00  1.90399447E+00
  1.90256481E+00  1.88192487E+00  1.97992583E+00  1.86668694E+00  1.92471121E+00
  1.93847316E+00  1.86756382E+00  1.04527036E+00 -3.11535929E+00 -1.08332186E+00
 -3.13890864E+00 -1.01635299E+00  1.01568444E+00 -1.03922510E+00  1.08333056E+00
  3.11536798E+00 -3.14043316E+00 -1.01783244E+00  1.02013369E+00  1.01570785E+00
  3.13830856E+00 -1.10691061E+00 -1.00989733E+00  1.11270338E+00 -3.13251579E+00
 -3.11844803E+00 -1.05359491E+00  9.79037347E-01  1.04058642E+00  3.10543955E+00
 -1.14511351E+00 -9.80006540E-01  1.08484659E+00  3.11747884E+00 -1.10818771E+00
  3.10764790E+00  3.09668473E+00  1.02933504E+00  1.03287351E+00 -1.03447618E+00
ZRed-IntVec                                I   N=          75
           0           0           0           0           0           0
           0           0           0           0           0           0
           0           0           0           0           0           0
           0           0           0           0           0           0
           0           0           0           0           0           0
           0           0           0           0           0           0
           0           0           0           0           0           0
           0           0           0           0           0           0
           0           0           0           0           0           0
           0           0           0           0           0           0
           0           0           0           0           0           0
           0           0           0           0           0           0
           0           0           0
ZRed-FPVec                                 R   N=          75
  0.00000000E+00  0.00000000E+00  0.00000000E+00  0.00000000E+00  0.00000000E+00
  0.00000000E+00  0.00000000E+00  0.00000000E+00  0.00000000E+00  0.00000000E+00
  0.00000000E+00  0.00000000E+00  0.00000000E+00  0.00000000E+00  0.00000000E+00
  0.00000000E+00  0.00000000E+00  0.00000000E+00  0.00000000E+00  0.00000000E+00
  0.00000000E+00  0.00000000E+00  0.00000000E+00  0.00000000E+00  0.00000000E+00
  0.00000000E+00  0.00000000E+00  0.00000000E+00  0.00000000E+00  0.00000000E+00
  0.00000000E+00  0.00000000E+00  0.00000000E+00  0.00000000E+00  0.00000000E+00
  0.00000000E+00  0.00000000E+00  0.00000000E+00  0.00000000E+00  0.00000000E+00
  0.00000000E+00  0.00000000E+00  0.00000000E+00  0.00000000E+00  0.00000000E+00
  0.00000000E+00  0.00000000E+00  0.00000000E+00  0.00000000E+00  0.00000000E+00
  0.00000000E+00  0.00000000E+00  0.00000000E+00  0.00000000E+00  0.00000000E+00
  0.00000000E+00  0.00000000E+00  0.00000000E+00  0.00000000E+00  0.00000000E+00
  0.00000000E+00  0.00000000E+00  0.00000000E+00  0.00000000E+00  0.00000000E+00
  0.00000000E+00  0.00000000E+00  0.00000000E+00  0.00000000E+00  0.00000000E+00
  0.00000000E+00  0.00000000E+00  0.00000000E+00  0.00000000E+00  0.00000000E+00
ZRed-Constraint1                           R   N=          75
  2.88519163E+00  2.06566258E+00  2.06294821E+00  2.06531087E+00  2.88478295E+00
  2.06995267E+00  2.06993747E+00  2.87740339E+00  2.07420519E+00  2.06851443E+00
  2.76567273E+00  2.06771789E+00  2.07958487E+00  1.91740422E+00  1.91516666E+00
  1.93401454E+00  1.94781710E+00  1.93390221E+00  1.88306714E+00  1.87884818E+00
  1.88366160E+00  1.96232601E+00  1.91317172E+00  1.91334572E+00  1.90528249E+00
  1.90991950E+00  1.85678411E+00  1.97053368E+00  1.90710718E+00  1.92341144E+00
  1.90436072E+00  1.89525416E+00  1.85980818E+00  1.92657570E+00  1.90399447E+00
  1.90256481E+00  1.88192487E+00  1.97992583E+00  1.86668694E+00  1.92471121E+00
  1.93847316E+00  1.86756382E+00  1.04527036E+00 -3.11535929E+00 -1.08332186E+00
 -3.13890864E+00 -1.01635299E+00  1.01568444E+00 -1.03922510E+00  1.08333056E+00
  3.11536798E+00 -3.14043316E+00 -1.01783244E+00  1.02013369E+00  1.01570785E+00
  3.13830856E+00 -1.10691061E+00 -1.00989733E+00  1.11270338E+00 -3.13251579E+00
 -3.11844803E+00 -1.05359491E+00  9.79037347E-01  1.04058642E+00  3.10543955E+00
 -1.14511351E+00 -9.80006540E-01  1.08484659E+00  3.11747884E+00 -1.10818771E+00
  3.10764790E+00  3.09668473E+00  1.02933504E+00  1.03287351E+00 -1.03447618E+00
ZRed-Constraint2                           R   N=          75
  2.92213097E+00  2.05968141E+00  2.05986214E+00  2.05987701E+00  2.93229792E+00
  2.05977500E+00  2.05977543E+00  2.92509460E+00  2.05987783E+00  2.05979041E+00
  2.76869007E+00  2.05974358E+00  2.05984182E+00  1.90873999E+00  1.90848949E+00
  1.91069876E+00  1.91063951E+00  1.91060390E+00  1.91068510E+00  1.91061793E+00
  1.91055420E+00  1.96381362E+00  1.85116252E+00  1.85112131E+00  1.85326984E+00
  1.85331771E+00  2.09438156E+00  1.97138410E+00  1.85140126E+00  1.85139481E+00
  1.84976838E+00  1.84977775E+00  2.09435199E+00  1.92752997E+00  1.87678148E+00
  1.87668443E+00  1.84291814E+00  1.84290205E+00  2.09446126E+00  2.09439543E+00
  2.09440102E+00  2.09438886E+00  1.51473133E+00 -2.74942005E+00 -5.04335389E-01
 -2.67395137E+00 -6.54917449E-01  1.59016721E+00 -5.79667190E-01  1.43936674E+00
 -2.59873391E+00  3.13960403E+00 -1.12467034E+00  1.12068571E+00  1.12183902E+00
  3.14074996E+00 -8.97079298E-01 -1.12583711E+00  8.93073833E-01  3.13842988E+00
 -3.13086620E+00 -1.12823510E+00  1.14976106E+00  1.13243343E+00  3.13506453E+00
 -8.70124614E-01 -1.11098259E+00  8.91648504E-01 -3.11354064E+00 -6.12509921E-01
  2.52910838E+00 -2.63639702E+00  5.05221281E-01  1.41125429E+00 -1.73031271E+00
SymInf integers                            I   N=          26
           1           1           1           1           1           0
           0           0           0           0           0           0
           0           0           0           0           0           0
           0           0           0           0           0           0
           0           0
RotTr to input orientation                 R   N=          12
  6.61596343E-02  8.55896052E-01  5.12898480E-01 -9.73581269E-01 -5.72126186E-02
  2.21057070E-01  2.18546138E-01 -5.13973409E-01  8.29499199E-01  3.18098051E+00
  2.80964138E+00 -1.11616634E-01
Number of contracted shells                I               85
Number of primitive shells                 I              142
Pure/Cartesian d shells                    I                0
Pure/Cartesian f shells                    I                0
Highest angular momentum                   I                2
Largest degree of contraction              I                6
Shell types                                I   N=          85
           0          -1          -1          -1          -1          -2
           0          -1          -1          -1          -1          -2
           0          -1          -1          -1          -1          -2
           0          -1          -1          -1          -1          -2
           0          -1          -1          -1          -1          -2
           0           0           0           0           1           0
           0           0           0           1           0           0
           0           0           1           0           0           0
           0           1           0           0           0           0
           1           0           0           0           0           1
           0           0           0           0           1           0
           0           0           0           1           0           0
           0           0           1           0           0           0
           0           1           0           0           0           0
           1
Number of primitives per shell             I   N=          85
           6           3           1           1           1           1
           6           3           1           1           1           1
           6           3           1           1           1           1
           6           3           1           1           1           1
           6           3           1           1           1           1
           3           1           1           1           1           3
           1           1           1           1           3           1
           1           1           1           3           1           1
           1           1           3           1           1           1
           1           3           1           1           1           1
           3           1           1           1           1           3
           1           1           1           1           3           1
           1           1           1           3           1           1
           1           1           3           1           1           1
           1
Shell to atom map                          I   N=          85
           1           1           1           1           1           1
           2           2           2           2           2           2
           3           3           3           3           3           3
           4           4           4           4           4           4
           5           5           5           5           5           5
           6           6           6           6           6           7
           7           7           7           7           8           8
           8           8           8           9           9           9
           9           9          10          10          10          10
          10          11          11          11          11          11
          12          12          12          12          12          13
          13          13          13          13          14          14
          14          14          14          15          15          15
          15          15          16          16          16          16
          16
Primitive exponents                        R   N=         142
  4.56324000E+03  6.82024000E+02  1.54973000E+02  4.44553000E+01  1.30290000E+01
  1.82773000E+00  2.09642000E+01  4.80331000E+00  1.45933000E+00  4.83456000E-01
  1.45585000E-01  4.38000000E-02  6.26000000E-01  4.56324000E+03  6.82024000E+02
  1.54973000E+02  4.44553000E+01  1.30290000E+01  1.82773000E+00  2.09642000E+01
  4.80331000E+00  1.45933000E+00  4.83456000E-01  1.45585000E-01  4.38000000E-02
  6.26000000E-01  4.56324000E+03  6.82024000E+02  1.54973000E+02  4.44553000E+01
  1.30290000E+01  1.82773000E+00  2.09642000E+01  4.80331000E+00  1.45933000E+00
  4.83456000E-01  1.45585000E-01  4.38000000E-02  6.26000000E-01  4.56324000E+03
  6.82024000E+02  1.54973000E+02  4.44553000E+01  1.30290000E+01  1.82773000E+00
  2.09642000E+01  4.80331000E+00  1.45933000E+00  4.83456000E-01  1.45585000E-01
  4.38000000E-02  6.26000000E-01  6.29348000E+03  9.49044000E+02  2.18776000E+02
  6.36916000E+01  1.88282000E+01  2.72023000E+00  3.06331000E+01  7.02614000E+00
  2.11205000E+00  6.84009000E-01  2.00878000E-01  6.39000000E-02  9.13000000E-01
  3.38650000E+01  5.09479000E+00  1.15879000E+00  3.25840000E-01  1.02741000E-01
  3.60000000E-02  7.50000000E-01  3.38650000E+01  5.09479000E+00  1.15879000E+00
  3.25840000E-01  1.02741000E-01  3.60000000E-02  7.50000000E-01  3.38650000E+01
  5.09479000E+00  1.15879000E+00  3.25840000E-01  1.02741000E-01  3.60000000E-02
  7.50000000E-01  3.38650000E+01  5.09479000E+00  1.15879000E+00  3.25840000E-01
  1.02741000E-01  3.60000000E-02  7.50000000E-01  3.38650000E+01  5.09479000E+00
  1.15879000E+00  3.25840000E-01  1.02741000E-01  3.60000000E-02  7.50000000E-01
  3.38650000E+01  5.09479000E+00  1.15879000E+00  3.25840000E-01  1.02741000E-01
  3.60000000E-02  7.50000000E-01  3.38650000E+01  5.09479000E+00  1.15879000E+00
  3.25840000E-01  1.02741000E-01  3.60000000E-02  7.50000000E-01  3.38650000E+01
  5.09479000E+00  1.15879000E+00  3.25840000E-01  1.02741000E-01  3.60000000E-02
  7.50000000E-01  3.38650000E+01  5.09479000E+00  1.15879000E+00  3.25840000E-01
  1.02741000E-01  3.60000000E-02  7.50000000E-01  3.38650000E+01  5.09479000E+00
  1.15879000E+00  3.25840000E-01  1.02741000E-01  3.60000000E-02  7.50000000E-01
  3.38650000E+01  5.09479000E+00  1.15879000E+00  3.25840000E-01  1.02741000E-01
  3.60000000E-02  7.50000000E-01
Contraction coefficients                   R   N=         142
  1.96665025E-03  1.52306019E-02  7.61269097E-02  2.60801033E-01  6.16462078E-01
  2.21006028E-01  1.14660081E-01  9.19999648E-01 -3.03068213E-03  1.00000000E+00
  1.00000000E+00  1.00000000E+00  1.00000000E+00  1.96665025E-03  1.52306019E-02
  7.61269097E-02  2.60801033E-01  6.16462078E-01  2.21006028E-01  1.14660081E-01
  9.19999648E-01 -3.03068213E-03  1.00000000E+00  1.00000000E+00  1.00000000E+00
  1.00000000E+00  1.96665025E-03  1.52306019E-02  7.61269097E-02  2.60801033E-01
  6.16462078E-01  2.21006028E-01  1.14660081E-01  9.19999648E-01 -3.03068213E-03
  1.00000000E+00  1.00000000E+00  1.00000000E+00  1.00000000E+00  1.96665025E-03
  1.52306019E-02  7.61269097E-02  2.60801033E-01  6.16462078E-01  2.21006028E-01
  1.14660081E-01  9.19999648E-01 -3.03068213E-03  1.00000000E+00  1.00000000E+00
  1.00000000E+00  1.00000000E+00  1.96978815E-03  1.49612859E-02  7.35005308E-02
  2.48936766E-01  6.02459433E-01  2.56201759E-01  1.11906080E-01  9.21666655E-01
 -2.56919183E-03  1.00000000E+00  1.00000000E+00  1.00000000E+00  1.00000000E+00
  2.54938145E-02  1.90373109E-01  8.52161486E-01  1.00000000E+00  1.00000000E+00
  1.00000000E+00  1.00000000E+00  2.54938145E-02  1.90373109E-01  8.52161486E-01
  1.00000000E+00  1.00000000E+00  1.00000000E+00  1.00000000E+00  2.54938145E-02
  1.90373109E-01  8.52161486E-01  1.00000000E+00  1.00000000E+00  1.00000000E+00
  1.00000000E+00  2.54938145E-02  1.90373109E-01  8.52161486E-01  1.00000000E+00
  1.00000000E+00  1.00000000E+00  1.00000000E+00  2.54938145E-02  1.90373109E-01
  8.52161486E-01  1.00000000E+00  1.00000000E+00  1.00000000E+00  1.00000000E+00
  2.54938145E-02  1.90373109E-01  8.52161486E-01  1.00000000E+00  1.00000000E+00
  1.00000000E+00  1.00000000E+00  2.54938145E-02  1.90373109E-01  8.52161486E-01
  1.00000000E+00  1.00000000E+00  1.00000000E+00  1.00000000E+00  2.54938145E-02
  1.90373109E-01  8.52161486E-01  1.00000000E+00  1.00000000E+00  1.00000000E+00
  1.00000000E+00  2.54938145E-02  1.90373109E-01  8.52161486E-01  1.00000000E+00
  1.00000000E+00  1.00000000E+00  1.00000000E+00  2.54938145E-02  1.90373109E-01
  8.52161486E-01  1.00000000E+00  1.00000000E+00  1.00000000E+00  1.00000000E+00
  2.54938145E-02  1.90373109E-01  8.52161486E-01  1.00000000E+00  1.00000000E+00
  1.00000000E+00  1.00000000E+00
P(S=P) Contraction coefficients            R   N=         142
  0.00000000E+00  0.00000000E+00  0.00000000E+00  0.00000000E+00  0.00000000E+00
  0.00000000E+00  4.02486927E-02  2.37593957E-01  8.15853851E-01  1.00000000E+00
  1.00000000E+00  1.00000000E+00  0.00000000E+00  0.00000000E+00  0.00000000E+00
  0.00000000E+00  0.00000000E+00  0.00000000E+00  0.00000000E+00  4.02486927E-02
  2.37593957E-01  8.15853851E-01  1.00000000E+00  1.00000000E+00  1.00000000E+00
  0.00000000E+00  0.00000000E+00  0.00000000E+00  0.00000000E+00  0.00000000E+00
  0.00000000E+00  0.00000000E+00  4.02486927E-02  2.37593957E-01  8.15853851E-01
  1.00000000E+00  1.00000000E+00  1.00000000E+00  0.00000000E+00  0.00000000E+00
  0.00000000E+00  0.00000000E+00  0.00000000E+00  0.00000000E+00  0.00000000E+00
  4.02486927E-02  2.37593957E-01  8.15853851E-01  1.00000000E+00  1.00000000E+00
  1.00000000E+00  0.00000000E+00  0.00000000E+00  0.00000000E+00  0.00000000E+00
  0.00000000E+00  0.00000000E+00  0.00000000E+00  3.83119186E-02  2.37403116E-01
  8.17592398E-01  1.00000000E+00  1.00000000E+00  1.00000000E+00  0.00000000E+00
  0.00000000E+00  0.00000000E+00  0.00000000E+00  0.00000000E+00  0.00000000E+00
  0.00000000E+00  0.00000000E+00  0.00000000E+00  0.00000000E+00  0.00000000E+00
  0.00000000E+00  0.00000000E+00  0.00000000E+00  0.00000000E+00  0.00000000E+00
  0.00000000E+00  0.00000000E+00  0.00000000E+00  0.00000000E+00  0.00000000E+00
  0.00000000E+00  0.00000000E+00  0.00000000E+00  0.00000000E+00  0.00000000E+00
  0.00000000E+00  0.00000000E+00  0.00000000E+00  0.00000000E+00  0.00000000E+00
  0.00000000E+00  0.00000000E+00  0.00000000E+00  0.00000000E+00  0.00000000E+00
  0.00000000E+00  0.00000000E+00  0.00000000E+00  0.00000000E+00  0.00000000E+00
  0.00000000E+00  0.00000000E+00  0.00000000E+00  0.00000000E+00  0.00000000E+00
  0.00000000E+00  0.00000000E+00  0.00000000E+00  0.00000000E+00  0.00000000E+00
  0.00000000E+00  0.00000000E+00  0.00000000E+00  0.00000000E+00  0.00000000E+00
  0.00000000E+00  0.00000000E+00  0.00000000E+00  0.00000000E+00  0.00000000E+00
  0.00000000E+00  0.00000000E+00  0.00000000E+00  0.00000000E+00  0.00000000E+00
  0.00000000E+00  0.00000000E+00  0.00000000E+00  0.00000000E+00  0.00000000E+00
  0.00000000E+00  0.00000000E+00  0.00000000E+00  0.00000000E+00  0.00000000E+00
  0.00000000E+00  0.00000000E+00
Coordinates of each shell                  R   N=         255
 -4.76439883E+00 -5.84793041E-01 -2.71105422E-02 -4.76439883E+00 -5.84793041E-01
 -2.71105422E-02 -4.76439883E+00 -5.84793041E-01 -2.71105422E-02 -4.76439883E+00
 -5.84793041E-01 -2.71105422E-02 -4.76439883E+00 -5.84793041E-01 -2.71105422E-02
 -4.76439883E+00 -5.84793041E-01 -2.71105422E-02 -2.35397987E+00  9.97621805E-01
  7.37577936E-02 -2.35397987E+00  9.97621805E-01  7.37577936E-02 -2.35397987E+00
  9.97621805E-01  7.37577936E-02 -2.35397987E+00  9.97621805E-01  7.37577936E-02
 -2.35397987E+00  9.97621805E-01  7.37577936E-02 -2.35397987E+00  9.97621805E-01
  7.37577936E-02  3.09597084E-02 -6.18851140E-01 -7.13320915E-02  3.09597084E-02
 -6.18851140E-01 -7.13320915E-02  3.09597084E-02 -6.18851140E-01 -7.13320915E-02
  3.09597084E-02 -6.18851140E-01 -7.13320915E-02  3.09597084E-02 -6.18851140E-01
 -7.13320915E-02  3.09597084E-02 -6.18851140E-01 -7.13320915E-02  2.44779405E+00
  9.39337468E-01  3.06987116E-02  2.44779405E+00  9.39337468E-01  3.06987116E-02
  2.44779405E+00  9.39337468E-01  3.06987116E-02  2.44779405E+00  9.39337468E-01
  3.06987116E-02  2.44779405E+00  9.39337468E-01  3.06987116E-02  2.44779405E+00
  9.39337468E-01  3.06987116E-02  4.66282832E+00 -7.03871818E-01 -1.75291879E-01
  4.66282832E+00 -7.03871818E-01 -1.75291879E-01  4.66282832E+00 -7.03871818E-01
 -1.75291879E-01  4.66282832E+00 -7.03871818E-01 -1.75291879E-01  4.66282832E+00
 -7.03871818E-01 -1.75291879E-01  4.66282832E+00 -7.03871818E-01 -1.75291879E-01
 -4.83079354E+00 -1.92202935E+00  1.54589699E+00 -4.83079354E+00 -1.92202935E+00
  1.54589699E+00 -4.83079354E+00 -1.92202935E+00  1.54589699E+00 -4.83079354E+00
 -1.92202935E+00  1.54589699E+00 -4.83079354E+00 -1.92202935E+00  1.54589699E+00
 -6.45292677E+00  5.96119973E-01  7.32546390E-02 -6.45292677E+00  5.96119973E-01
  7.32546390E-02 -6.45292677E+00  5.96119973E-01  7.32546390E-02 -6.45292677E+00
  5.96119973E-01  7.32546390E-02 -6.45292677E+00  5.96119973E-01  7.32546390E-02
 -4.85387930E+00 -1.67427502E+00 -1.77940369E+00 -4.85387930E+00 -1.67427502E+00