 Entering Gaussian System, Link 0=/apps/cent7/gaussian/g16-A.03/g16-haswell/g16/g16
 Initial command:
 /apps/cent7/gaussian/g16-A.03/g16-haswell/g16/l1.exe "/scratch/brown/finej/gaussian/Gau-173421.inp" -scrdir="/scratch/brown/finej/gaussian/"
 Entering Link 1 = /apps/cent7/gaussian/g16-A.03/g16-haswell/g16/l1.exe PID=    173423.
  
 Copyright (c) 1988,1990,1992,1993,1995,1998,2003,2009,2016,
            Gaussian, Inc.  All Rights Reserved.
  
 This is part of the Gaussian(R) 16 program.  It is based on
 the Gaussian(R) 09 system (copyright 2009, Gaussian, Inc.),
 the Gaussian(R) 03 system (copyright 2003, Gaussian, Inc.),
 the Gaussian(R) 98 system (copyright 1998, Gaussian, Inc.),
 the Gaussian(R) 94 system (copyright 1995, Gaussian, Inc.),
 the Gaussian 92(TM) system (copyright 1992, Gaussian, Inc.),
 the Gaussian 90(TM) system (copyright 1990, Gaussian, Inc.),
 the Gaussian 88(TM) system (copyright 1988, Gaussian, Inc.),
 the Gaussian 86(TM) system (copyright 1986, Carnegie Mellon
 University), and the Gaussian 82(TM) system (copyright 1983,
 Carnegie Mellon University). Gaussian is a federally registered
 trademark of Gaussian, Inc.
  
 This software contains proprietary and confidential information,
 including trade secrets, belonging to Gaussian, Inc.
  
 This software is provided under written license and may be
 used, copied, transmitted, or stored only in accord with that
 written license.
  
 The following legend is applicable only to US Government
 contracts under FAR:
  
                    RESTRICTED RIGHTS LEGEND
  
 Use, reproduction and disclosure by the US Government is
 subject to restrictions as set forth in subparagraphs (a)
 and (c) of the Commercial Computer Software - Restricted
 Rights clause in FAR 52.227-19.
  
 Gaussian, Inc.
 340 Quinnipiac St., Bldg. 40, Wallingford CT 06492
  
  
 ---------------------------------------------------------------
 Warning -- This program may not be used in any manner that
 competes with the business of Gaussian, Inc. or will provide
 assistance to any competitor of Gaussian, Inc.  The licensee
 of this program is prohibited from giving any competitor of
 Gaussian, Inc. access to this program.  By using this program,
 the user acknowledges that Gaussian, Inc. is engaged in the
 business of creating and licensing software in the field of
 computational chemistry and represents and warrants to the
 licensee that it is not a competitor of Gaussian, Inc. and that
 it will not use this program in any manner prohibited above.
 ---------------------------------------------------------------
  

 Cite this work as:
 Gaussian 16, Revision A.03,
 M. J. Frisch, G. W. Trucks, H. B. Schlegel, G. E. Scuseria, 
 M. A. Robb, J. R. Cheeseman, G. Scalmani, V. Barone, 
 G. A. Petersson, H. Nakatsuji, X. Li, M. Caricato, A. V. Marenich, 
 J. Bloino, B. G. Janesko, R. Gomperts, B. Mennucci, H. P. Hratchian, 
 J. V. Ortiz, A. F. Izmaylov, J. L. Sonnenberg, D. Williams-Young, 
 F. Ding, F. Lipparini, F. Egidi, J. Goings, B. Peng, A. Petrone, 
 T. Henderson, D. Ranasinghe, V. G. Zakrzewski, J. Gao, N. Rega, 
 G. Zheng, W. Liang, M. Hada, M. Ehara, K. Toyota, R. Fukuda, 
 J. Hasegawa, M. Ishida, T. Nakajima, Y. Honda, O. Kitao, H. Nakai, 
 T. Vreven, K. Throssell, J. A. Montgomery, Jr., J. E. Peralta, 
 F. Ogliaro, M. J. Bearpark, J. J. Heyd, E. N. Brothers, K. N. Kudin, 
 V. N. Staroverov, T. A. Keith, R. Kobayashi, J. Normand, 
 K. Raghavachari, A. P. Rendell, J. C. Burant, S. S. Iyengar, 
 J. Tomasi, M. Cossi, J. M. Millam, M. Klene, C. Adamo, R. Cammi, 
 J. W. Ochterski, R. L. Martin, K. Morokuma, O. Farkas, 
 J. B. Foresman, and D. J. Fox, Gaussian, Inc., Wallingford CT, 2016.
 
 ******************************************
 Gaussian 16:  ES64L-G16RevA.03 25-Dec-2016
                13-Oct-2019 
 ******************************************
 %chk=18.chk
 %nprocshared=24
 Will use up to   24 processors via shared memory.
 %mem=80GB
 -------------------------------------------------------------------
 #P opt freq m062x/6-311++g(d,p) geom=connectivity temperature=0.001
 -------------------------------------------------------------------
 1/18=20,19=15,26=3,38=1,57=2,112=-1000/1,3;
 2/9=110,12=2,17=6,18=5,40=1/2;
 3/5=4,6=6,7=1111,11=2,25=1,30=1,71=1,74=-55/1,2,3;
 4//1;
 5/5=2,38=5/2;
 6/7=2,8=2,9=2,10=2,28=1/1;
 7//1,2,3,16;
 1/18=20,19=15,26=3/3(2);
 2/9=110/2;
 99//99;
 2/9=110/2;
 3/5=4,6=6,7=1111,11=2,25=1,30=1,71=1,74=-55/1,2,3;
 4/5=5,16=3,69=1/1;
 5/5=2,38=5/2;
 7//1,2,3,16;
 1/18=20,19=15,26=3/3(-5);
 2/9=110/2;
 6/7=2,8=2,9=2,10=2,19=2,28=1/1;
 99/9=1/99;
 Leave Link    1 at Sun Oct 13 20:26:28 2019, MaxMem= 10737418240 cpu:               0.8 elap:               0.0
 (Enter /apps/cent7/gaussian/g16-A.03/g16-haswell/g16/l101.exe)
 -------------------
 Title Card Required
 -------------------
 Symbolic Z-matrix:
 Charge =  0 Multiplicity = 1
 C                     1.829    -0.6552   -1.4686 
 C                     1.0852    0.321    -0.5279 
 C                     1.9673    1.5247   -0.1027 
 C                     1.2314    2.5101    0.8372 
 N                     2.1073    3.6298    1.1917 
 H                     2.3827   -1.3818   -0.8741 
 H                     1.1064   -1.1753   -2.0975 
 H                     2.5222   -0.0965   -2.0975 
 H                     0.2648    0.7371   -1.1126 
 H                     0.8757   -0.2391    0.3834 
 H                     2.7865    1.1068    0.4825 
 H                     2.1784    2.0816   -1.0156 
 H                     0.4084    2.9491    0.2733 
 H                     1.0331    1.9859    1.7721 
 H                     3.0982    3.4768    1.3139 
 H                     1.7203    4.5546    1.3139 
 
 ITRead=  0  0  0  0  0  0  0  0  0  0  0  0  0  0  0  0
 MicOpt= -1 -1 -1 -1 -1 -1 -1 -1 -1 -1 -1 -1 -1 -1 -1 -1
 NAtoms=     16 NQM=       16 NQMF=       0 NMMI=      0 NMMIF=      0
                NMic=       0 NMicF=      0.
                    Isotopes and Nuclear Properties:
 (Nuclear quadrupole moments (NQMom) in fm**2, nuclear magnetic moments (NMagM)
  in nuclear magnetons)

  Atom         1           2           3           4           5           6           7           8           9          10
 IAtWgt=          12          12          12          12          14           1           1           1           1           1
 AtmWgt=  12.0000000  12.0000000  12.0000000  12.0000000  14.0030740   1.0078250   1.0078250   1.0078250   1.0078250   1.0078250
 NucSpn=           0           0           0           0           2           1           1           1           1           1
 AtZEff=  -0.0000000  -0.0000000  -0.0000000  -0.0000000  -0.0000000  -0.0000000  -0.0000000  -0.0000000  -0.0000000  -0.0000000
 NQMom=    0.0000000   0.0000000   0.0000000   0.0000000   2.0440000   0.0000000   0.0000000   0.0000000   0.0000000   0.0000000
 NMagM=    0.0000000   0.0000000   0.0000000   0.0000000   0.4037610   2.7928460   2.7928460   2.7928460   2.7928460   2.7928460
 AtZNuc=   6.0000000   6.0000000   6.0000000   6.0000000   7.0000000   1.0000000   1.0000000   1.0000000   1.0000000   1.0000000

  Atom        11          12          13          14          15          16
 IAtWgt=           1           1           1           1           1           1
 AtmWgt=   1.0078250   1.0078250   1.0078250   1.0078250   1.0078250   1.0078250
 NucSpn=           1           1           1           1           1           1
 AtZEff=  -0.0000000  -0.0000000  -0.0000000  -0.0000000  -0.0000000  -0.0000000
 NQMom=    0.0000000   0.0000000   0.0000000   0.0000000   0.0000000   0.0000000
 NMagM=    2.7928460   2.7928460   2.7928460   2.7928460   2.7928460   2.7928460
 AtZNuc=   1.0000000   1.0000000   1.0000000   1.0000000   1.0000000   1.0000000
 Leave Link  101 at Sun Oct 13 20:26:29 2019, MaxMem= 10737418240 cpu:               8.5 elap:               0.4
 (Enter /apps/cent7/gaussian/g16-A.03/g16-haswell/g16/l103.exe)

 GradGradGradGradGradGradGradGradGradGradGradGradGradGradGradGradGradGrad
 Berny optimization.
 Initialization pass.
                           ----------------------------
                           !    Initial Parameters    !
                           ! (Angstroms and Degrees)  !
 --------------------------                            --------------------------
 ! Name  Definition              Value          Derivative Info.                !
 --------------------------------------------------------------------------------
 ! R1    R(1,2)                  1.5463         estimate D2E/DX2                !
 ! R2    R(1,6)                  1.0899         estimate D2E/DX2                !
 ! R3    R(1,7)                  1.09           estimate D2E/DX2                !
 ! R4    R(1,8)                  1.09           estimate D2E/DX2                !
 ! R5    R(2,3)                  1.5517         estimate D2E/DX2                !
 ! R6    R(2,9)                  1.09           estimate D2E/DX2                !
 ! R7    R(2,10)                 1.09           estimate D2E/DX2                !
 ! R8    R(3,4)                  1.5479         estimate D2E/DX2                !
 ! R9    R(3,11)                 1.09           estimate D2E/DX2                !
 ! R10   R(3,12)                 1.09           estimate D2E/DX2                !
 ! R11   R(4,5)                  1.4651         estimate D2E/DX2                !
 ! R12   R(4,13)                 1.09           estimate D2E/DX2                !
 ! R13   R(4,14)                 1.09           estimate D2E/DX2                !
 ! R14   R(5,15)                 1.0101         estimate D2E/DX2                !
 ! R15   R(5,16)                 1.0099         estimate D2E/DX2                !
 ! A1    A(2,1,6)              109.475          estimate D2E/DX2                !
 ! A2    A(2,1,7)              109.4716         estimate D2E/DX2                !
 ! A3    A(2,1,8)              109.4695         estimate D2E/DX2                !
 ! A4    A(6,1,7)              109.4742         estimate D2E/DX2                !
 ! A5    A(6,1,8)              109.4703         estimate D2E/DX2                !
 ! A6    A(7,1,8)              109.4667         estimate D2E/DX2                !
 ! A7    A(1,2,3)              112.5182         estimate D2E/DX2                !
 ! A8    A(1,2,9)              106.0638         estimate D2E/DX2                !
 ! A9    A(1,2,10)             106.0614         estimate D2E/DX2                !
 ! A10   A(3,2,9)              106.1845         estimate D2E/DX2                !
 ! A11   A(3,2,10)             106.1873         estimate D2E/DX2                !
 ! A12   A(9,2,10)             119.9992         estimate D2E/DX2                !
 ! A13   A(2,3,4)              112.952          estimate D2E/DX2                !
 ! A14   A(2,3,11)             106.0775         estimate D2E/DX2                !
 ! A15   A(2,3,12)             106.0771         estimate D2E/DX2                !
 ! A16   A(4,3,11)             105.9839         estimate D2E/DX2                !
 ! A17   A(4,3,12)             105.9845         estimate D2E/DX2                !
 ! A18   A(11,3,12)            119.9975         estimate D2E/DX2                !
 ! A19   A(3,4,5)              110.4393         estimate D2E/DX2                !
 ! A20   A(3,4,13)             107.5317         estimate D2E/DX2                !
 ! A21   A(3,4,14)             107.5261         estimate D2E/DX2                !
 ! A22   A(5,4,13)             105.5914         estimate D2E/DX2                !
 ! A23   A(5,4,14)             105.5905         estimate D2E/DX2                !
 ! A24   A(13,4,14)            120.0038         estimate D2E/DX2                !
 ! A25   A(4,5,15)             120.0            estimate D2E/DX2                !
 ! A26   A(4,5,16)             120.0003         estimate D2E/DX2                !
 ! A27   A(15,5,16)            119.9996         estimate D2E/DX2                !
 ! D1    D(6,1,2,3)             86.7877         estimate D2E/DX2                !
 ! D2    D(6,1,2,9)           -157.5302         estimate D2E/DX2                !
 ! D3    D(6,1,2,10)           -28.8963         estimate D2E/DX2                !
 ! D4    D(7,1,2,3)           -153.2061         estimate D2E/DX2                !
 ! D5    D(7,1,2,9)            -37.524          estimate D2E/DX2                !
 ! D6    D(7,1,2,10)            91.1099         estimate D2E/DX2                !
 ! D7    D(8,1,2,3)            -33.2125         estimate D2E/DX2                !
 ! D8    D(8,1,2,9)             82.4696         estimate D2E/DX2                !
 ! D9    D(8,1,2,10)          -148.8965         estimate D2E/DX2                !
 ! D10   D(1,2,3,4)            179.8861         estimate D2E/DX2                !
 ! D11   D(1,2,3,11)           -64.4389         estimate D2E/DX2                !
 ! D12   D(1,2,3,12)            64.2106         estimate D2E/DX2                !
 ! D13   D(9,2,3,4)             64.2766         estimate D2E/DX2                !
 ! D14   D(9,2,3,11)           179.9517         estimate D2E/DX2                !
 ! D15   D(9,2,3,12)           -51.3989         estimate D2E/DX2                !
 ! D16   D(10,2,3,4)           -64.5057         estimate D2E/DX2                !
 ! D17   D(10,2,3,11)           51.1694         estimate D2E/DX2                !
 ! D18   D(10,2,3,12)          179.8188         estimate D2E/DX2                !
 ! D19   D(2,3,4,5)           -179.3854         estimate D2E/DX2                !
 ! D20   D(2,3,4,13)           -64.6431         estimate D2E/DX2                !
 ! D21   D(2,3,4,14)            65.8765         estimate D2E/DX2                !
 ! D22   D(11,3,4,5)            64.8837         estimate D2E/DX2                !
 ! D23   D(11,3,4,13)          179.626          estimate D2E/DX2                !
 ! D24   D(11,3,4,14)          -49.8545         estimate D2E/DX2                !
 ! D25   D(12,3,4,5)           -63.6546         estimate D2E/DX2                !
 ! D26   D(12,3,4,13)           51.0877         estimate D2E/DX2                !
 ! D27   D(12,3,4,14)         -178.3927         estimate D2E/DX2                !
 ! D28   D(3,4,5,15)           -35.0942         estimate D2E/DX2                !
 ! D29   D(3,4,5,16)           144.9072         estimate D2E/DX2                !
 ! D30   D(13,4,5,15)         -151.0544         estimate D2E/DX2                !
 ! D31   D(13,4,5,16)           28.947          estimate D2E/DX2                !
 ! D32   D(14,4,5,15)           80.8589         estimate D2E/DX2                !
 ! D33   D(14,4,5,16)          -99.1396         estimate D2E/DX2                !
 --------------------------------------------------------------------------------
 Trust Radius=3.00D-01 FncErr=1.00D-07 GrdErr=1.00D-06 EigMax=2.50D+02 EigMin=1.00D-04
 Number of steps in this run=     85 maximum allowed number of steps=    100.
 GradGradGradGradGradGradGradGradGradGradGradGradGradGradGradGradGradGrad

 Leave Link  103 at Sun Oct 13 20:26:29 2019, MaxMem= 10737418240 cpu:               1.0 elap:               0.1
 (Enter /apps/cent7/gaussian/g16-A.03/g16-haswell/g16/l202.exe)
                          Input orientation:                          
 ---------------------------------------------------------------------
 Center     Atomic      Atomic             Coordinates (Angstroms)
 Number     Number       Type             X           Y           Z
 ---------------------------------------------------------------------
      1          6           0        1.829000   -0.655200   -1.468600
      2          6           0        1.085200    0.321000   -0.527900
      3          6           0        1.967300    1.524700   -0.102700
      4          6           0        1.231400    2.510100    0.837200
      5          7           0        2.107300    3.629800    1.191700
      6          1           0        2.382700   -1.381800   -0.874100
      7          1           0        1.106400   -1.175300   -2.097500
      8          1           0        2.522200   -0.096500   -2.097500
      9          1           0        0.264800    0.737100   -1.112600
     10          1           0        0.875700   -0.239100    0.383400
     11          1           0        2.786500    1.106800    0.482500
     12          1           0        2.178400    2.081600   -1.015600
     13          1           0        0.408400    2.949100    0.273300
     14          1           0        1.033100    1.985900    1.772100
     15          1           0        3.098200    3.476800    1.313900
     16          1           0        1.720300    4.554600    1.313900
 ---------------------------------------------------------------------
                    Distance matrix (angstroms):
                    1          2          3          4          5
     1  C    0.000000
     2  C    1.546325   0.000000
     3  C    2.576194   1.551705   0.000000
     4  C    3.961435   2.583995   1.547893   0.000000
     5  N    5.051324   3.866506   2.475180   1.465128   0.000000
     6  H    1.089936   2.168614   3.035681   4.404648   5.427662
     7  H    1.090032   2.168642   3.465599   4.712776   5.908437
     8  H    1.090040   2.168622   2.629721   4.131948   4.987614
     9  H    2.124137   1.089986   2.130427   2.807056   4.131866
    10  H    2.124105   1.089986   2.130463   2.809014   4.139876
    11  H    2.797899   2.129040   1.090040   2.124476   2.707361
    12  H    2.795955   2.129002   1.089994   2.124450   2.697064
    13  H    4.247740   2.829645   2.144868   1.089969   2.047699
    14  H    4.255702   2.839825   2.144833   1.090021   2.047725
    15  H    5.140681   4.171747   2.663904   2.155619   1.010062
    16  H    5.907295   4.660359   3.353813   2.155515   1.009929
                    6          7          8          9         10
     6  H    0.000000
     7  H    1.779970   0.000000
     8  H    1.779934   1.779972   0.000000
     9  H    3.005349   2.309890   2.600148   0.000000
    10  H    2.271149   2.661683   2.980967   1.887904   0.000000
    11  H    2.862961   3.832377   2.859053   3.006658   2.339321
    12  H    3.472305   3.595426   2.456181   2.340717   3.006639
    13  H    4.896027   4.808178   4.400514   2.614246   3.224145
    14  H    4.490568   4.997235   4.639786   3.235936   2.627525
    15  H    5.376363   6.103028   4.973721   4.628392   4.428685
    16  H    6.361365   6.696736   5.823523   4.751809   4.955677
                   11         12         13         14         15
    11  H    0.000000
    12  H    1.887942   0.000000
    13  H    3.015492   2.355147   0.000000
    14  H    2.347402   3.015318   1.887963   0.000000
    15  H    2.530866   2.866912   2.931952   2.587927   0.000000
    16  H    3.703422   3.428142   2.319819   2.698224   1.749360
                   16
    16  H    0.000000
 Stoichiometry    C4H11N
 Framework group  C1[X(C4H11N)]
 Deg. of freedom    42
 Full point group                 C1      NOp   1
 Largest Abelian subgroup         C1      NOp   1
 Largest concise Abelian subgroup C1      NOp   1
                         Standard orientation:                         
 ---------------------------------------------------------------------
 Center     Atomic      Atomic             Coordinates (Angstroms)
 Number     Number       Type             X           Y           Z
 ---------------------------------------------------------------------
      1          6           0       -2.553621   -0.323038   -0.033589
      2          6           0       -1.270188    0.536787    0.034400
      3          6           0        0.022524   -0.319915   -0.018010
      4          6           0        1.313773    0.531248    0.046577
      5          7           0        2.497684   -0.329179   -0.021379
      6          1           0       -2.829208   -0.644600    0.970707
      7          1           0       -3.364093    0.267102   -0.461421
      8          1           0       -2.372254   -1.197763   -0.658209
      9          1           0       -1.267422    1.146517   -0.869088
     10          1           0       -1.278707    1.014369    1.014152
     11          1           0        0.018428   -0.928200    0.886512
     12          1           0        0.027570   -0.799142   -0.996991
     13          1           0        1.346772    1.146509   -0.852533
     14          1           0        1.348735    1.000544    1.029778
     15          1           0        2.484689   -1.241279    0.412359
     16          1           0        3.326773   -0.010296   -0.501881
 ---------------------------------------------------------------------
 Rotational constants (GHZ):          18.0373575           1.9250978           1.8337450
 Leave Link  202 at Sun Oct 13 20:26:29 2019, MaxMem= 10737418240 cpu:               0.5 elap:               0.0
 (Enter /apps/cent7/gaussian/g16-A.03/g16-haswell/g16/l301.exe)
 Standard basis: 6-311++G(d,p) (5D, 7F)
 Ernie: Thresh=  0.10000D-02 Tol=  0.10000D-05 Strict=F.
 There are   192 symmetry adapted cartesian basis functions of A   symmetry.
 There are   187 symmetry adapted basis functions of A   symmetry.
   187 basis functions,   279 primitive gaussians,   192 cartesian basis functions
    21 alpha electrons       21 beta electrons
       nuclear repulsion energy       184.8923847751 Hartrees.
 IExCor= 4336 DFT=T Ex+Corr=M062X ExCW=0 ScaHFX=  0.540000
 ScaDFX=  1.000000  1.000000  1.000000  1.000000 ScalE2=  1.000000  1.000000
 IRadAn=      5 IRanWt=     -1 IRanGd=            0 ICorTp=0 IEmpDi=  4
 NAtoms=   16 NActive=   16 NUniq=   16 SFac= 1.00D+00 NAtFMM=   60 NAOKFM=F Big=F
 Integral buffers will be    131072 words long.
 Raffenetti 2 integral format.
 Two-electron integral symmetry is turned on.
 Leave Link  301 at Sun Oct 13 20:26:29 2019, MaxMem= 10737418240 cpu:               1.3 elap:               0.1
 (Enter /apps/cent7/gaussian/g16-A.03/g16-haswell/g16/l302.exe)
 NPDir=0 NMtPBC=     1 NCelOv=     1 NCel=       1 NClECP=     1 NCelD=      1
         NCelK=      1 NCelE2=     1 NClLst=     1 CellRange=     0.0.
 One-electron integrals computed using PRISM.
 One-electron integral symmetry used in STVInt
 NBasis=   187 RedAO= T EigKep=  1.84D-05  NBF=   187
 NBsUse=   187 1.00D-06 EigRej= -1.00D+00 NBFU=   187
 Precomputing XC quadrature grid using
 IXCGrd= 4 IRadAn=           5 IRanWt=          -1 IRanGd=           0 AccXCQ= 0.00D+00.
 Generated NRdTot=       0 NPtTot=           0 NUsed=           0 NTot=          32
 NSgBfM=   192   192   192   192   192 MxSgAt=    16 MxSgA2=    16.
 Leave Link  302 at Sun Oct 13 20:26:29 2019, MaxMem= 10737418240 cpu:               3.7 elap:               0.2
 (Enter /apps/cent7/gaussian/g16-A.03/g16-haswell/g16/l303.exe)
 DipDrv:  MaxL=1.
 Leave Link  303 at Sun Oct 13 20:26:29 2019, MaxMem= 10737418240 cpu:               1.4 elap:               0.1
 (Enter /apps/cent7/gaussian/g16-A.03/g16-haswell/g16/l401.exe)
 ExpMin= 3.60D-02 ExpMax= 6.29D+03 ExpMxC= 9.49D+02 IAcc=3 IRadAn=         5 AccDes= 0.00D+00
 Harris functional with IExCor= 1009 and IRadAn=       5 diagonalized for initial guess.
 HarFok:  IExCor= 1009 AccDes= 0.00D+00 IRadAn=         5 IDoV= 1 UseB2=F ITyADJ=14
 ICtDFT=  3500011 ScaDFX=  1.000000  1.000000  1.000000  1.000000
 FoFCou: FMM=F IPFlag=           0 FMFlag=      100000 FMFlg1=           0
         NFxFlg=           0 DoJE=T BraDBF=F KetDBF=T FulRan=T
         wScrn=  0.000000 ICntrl=       500 IOpCl=  0 I1Cent=   200000004 NGrid=           0
         NMat0=    1 NMatS0=      1 NMatT0=    0 NMatD0=    1 NMtDS0=    0 NMtDT0=    0
 Petite list used in FoFCou.
 Harris En= -213.704192266903    
 JPrj=0 DoOrth=F DoCkMO=F.
 Leave Link  401 at Sun Oct 13 20:26:30 2019, MaxMem= 10737418240 cpu:               7.4 elap:               0.4
 (Enter /apps/cent7/gaussian/g16-A.03/g16-haswell/g16/l502.exe)
 Integral symmetry usage will be decided dynamically.
 Closed shell SCF:
 Using DIIS extrapolation, IDIIS=  1040.
 NGot= 10737418240 LenX= 10737337812 LenY= 10737300507
 Requested convergence on RMS density matrix=1.00D-08 within 128 cycles.
 Requested convergence on MAX density matrix=1.00D-06.
 Requested convergence on             energy=1.00D-06.
 No special actions if energy rises.
 Fock matrices will be formed incrementally for  20 cycles.

 Cycle   1  Pass 1  IDiag  1:
 FoFJK:  IHMeth= 1 ICntrl=       0 DoSepK=F KAlg= 0 I1Cent=           0 FoldK=F
 IRaf= 970000000 NMat=       1 IRICut=       1 DoRegI=T DoRafI=F ISym2E= 0 IDoP0=0 IntGTp=1.
 FoFCou: FMM=F IPFlag=           0 FMFlag=      100000 FMFlg1=           0
         NFxFlg=           0 DoJE=F BraDBF=F KetDBF=F FulRan=T
         wScrn=  0.000000 ICntrl=         0 IOpCl=  0 I1Cent=           0 NGrid=           0
         NMat0=    1 NMatS0=      1 NMatT0=    0 NMatD0=    1 NMtDS0=    0 NMtDT0=    0
 Symmetry not used in FoFCou.
 E= -213.489312416827    
 DIIS: error= 4.00D-02 at cycle   1 NSaved=   1.
 NSaved= 1 IEnMin= 1 EnMin= -213.489312416827     IErMin= 1 ErrMin= 4.00D-02
 ErrMax= 4.00D-02  0.00D+00 EMaxC= 1.00D-01 BMatC= 2.64D-01 BMatP= 2.64D-01
 IDIUse=3 WtCom= 6.00D-01 WtEn= 4.00D-01
 Coeff-Com:  0.100D+01
 Coeff-En:   0.100D+01
 Coeff:      0.100D+01
 Gap=     0.200 Goal=   None    Shift=    0.000
 GapD=    0.200 DampG=1.000 DampE=0.500 DampFc=0.5000 IDamp=-1.
 Damping current iteration by 5.00D-01
 RMSDP=7.87D-03 MaxDP=2.11D-01              OVMax= 1.92D-01

 Cycle   2  Pass 1  IDiag  1:
 RMSU=  3.69D-03    CP:  9.10D-01
 E= -213.605990246003     Delta-E=       -0.116677829176 Rises=F Damp=T
 DIIS: error= 6.56D-03 at cycle   2 NSaved=   2.
 NSaved= 2 IEnMin= 2 EnMin= -213.605990246003     IErMin= 2 ErrMin= 6.56D-03
 ErrMax= 6.56D-03  0.00D+00 EMaxC= 1.00D-01 BMatC= 1.26D-02 BMatP= 2.64D-01
 IDIUse=3 WtCom= 9.34D-01 WtEn= 6.56D-02
 Coeff-Com: -0.660D-01 0.107D+01
 Coeff-En:   0.000D+00 0.100D+01
 Coeff:     -0.616D-01 0.106D+01
 Gap=     0.284 Goal=   None    Shift=    0.000
 RMSDP=4.05D-03 MaxDP=2.25D-01 DE=-1.17D-01 OVMax= 1.14D-01

 Cycle   3  Pass 1  IDiag  1:
 RMSU=  3.37D-03    CP:  8.29D-01  4.94D-01
 E= -213.721500838098     Delta-E=       -0.115510592096 Rises=F Damp=F
 DIIS: error= 4.30D-03 at cycle   3 NSaved=   3.
 NSaved= 3 IEnMin= 3 EnMin= -213.721500838098     IErMin= 3 ErrMin= 4.30D-03
 ErrMax= 4.30D-03  0.00D+00 EMaxC= 1.00D-01 BMatC= 2.05D-03 BMatP= 1.26D-02
 IDIUse=3 WtCom= 9.57D-01 WtEn= 4.30D-02
 Coeff-Com: -0.588D-01 0.252D+00 0.807D+00
 Coeff-En:   0.000D+00 0.000D+00 0.100D+01
 Coeff:     -0.563D-01 0.241D+00 0.815D+00
 Gap=     0.268 Goal=   None    Shift=    0.000
 RMSDP=4.23D-04 MaxDP=1.69D-02 DE=-1.16D-01 OVMax= 1.61D-02

 Cycle   4  Pass 1  IDiag  1:
 RMSU=  3.56D-04    CP:  8.21D-01  5.42D-01  9.75D-01
 E= -213.722773638442     Delta-E=       -0.001272800344 Rises=F Damp=F
 DIIS: error= 1.53D-03 at cycle   4 NSaved=   4.
 NSaved= 4 IEnMin= 4 EnMin= -213.722773638442     IErMin= 4 ErrMin= 1.53D-03
 ErrMax= 1.53D-03  0.00D+00 EMaxC= 1.00D-01 BMatC= 4.95D-04 BMatP= 2.05D-03
 IDIUse=3 WtCom= 9.85D-01 WtEn= 1.53D-02
 Coeff-Com: -0.229D-01 0.614D-01 0.386D+00 0.575D+00
 Coeff-En:   0.000D+00 0.000D+00 0.113D+00 0.887D+00
 Coeff:     -0.225D-01 0.605D-01 0.382D+00 0.580D+00
 Gap=     0.274 Goal=   None    Shift=    0.000
 RMSDP=1.86D-04 MaxDP=5.46D-03 DE=-1.27D-03 OVMax= 5.54D-03

 Cycle   5  Pass 1  IDiag  1:
 RMSU=  1.20D-04    CP:  8.18D-01  5.21D-01  9.98D-01  8.11D-01
 E= -213.723182606933     Delta-E=       -0.000408968491 Rises=F Damp=F
 DIIS: error= 1.88D-04 at cycle   5 NSaved=   5.
 NSaved= 5 IEnMin= 5 EnMin= -213.723182606933     IErMin= 5 ErrMin= 1.88D-04
 ErrMax= 1.88D-04  0.00D+00 EMaxC= 1.00D-01 BMatC= 8.13D-06 BMatP= 4.95D-04
 IDIUse=3 WtCom= 9.98D-01 WtEn= 1.88D-03
 Coeff-Com: -0.254D-02 0.404D-02 0.551D-01 0.157D+00 0.787D+00
 Coeff-En:   0.000D+00 0.000D+00 0.000D+00 0.000D+00 0.100D+01
 Coeff:     -0.253D-02 0.403D-02 0.550D-01 0.157D+00 0.787D+00
 Gap=     0.274 Goal=   None    Shift=    0.000
 RMSDP=5.58D-05 MaxDP=3.18D-03 DE=-4.09D-04 OVMax= 6.97D-04

 Cycle   6  Pass 1  IDiag  1:
 RMSU=  3.66D-05    CP:  8.20D-01  5.12D-01  9.97D-01  8.06D-01  8.95D-01
 E= -213.723190059184     Delta-E=       -0.000007452251 Rises=F Damp=F
 DIIS: error= 5.78D-05 at cycle   6 NSaved=   6.
 NSaved= 6 IEnMin= 6 EnMin= -213.723190059184     IErMin= 6 ErrMin= 5.78D-05
 ErrMax= 5.78D-05  0.00D+00 EMaxC= 1.00D-01 BMatC= 5.25D-07 BMatP= 8.13D-06
 IDIUse=1 WtCom= 1.00D+00 WtEn= 0.00D+00
 Coeff-Com:  0.437D-03-0.174D-02-0.167D-02 0.217D-01 0.245D+00 0.736D+00
 Coeff:      0.437D-03-0.174D-02-0.167D-02 0.217D-01 0.245D+00 0.736D+00
 Gap=     0.274 Goal=   None    Shift=    0.000
 RMSDP=9.01D-06 MaxDP=2.64D-04 DE=-7.45D-06 OVMax= 2.08D-04

 Cycle   7  Pass 1  IDiag  1:
 RMSU=  5.55D-06    CP:  8.20D-01  5.11D-01  9.97D-01  8.11D-01  9.21D-01
                    CP:  1.07D+00
 E= -213.723190557389     Delta-E=       -0.000000498206 Rises=F Damp=F
 DIIS: error= 1.48D-05 at cycle   7 NSaved=   7.
 NSaved= 7 IEnMin= 7 EnMin= -213.723190557389     IErMin= 7 ErrMin= 1.48D-05
 ErrMax= 1.48D-05  0.00D+00 EMaxC= 1.00D-01 BMatC= 6.24D-08 BMatP= 5.25D-07
 IDIUse=1 WtCom= 1.00D+00 WtEn= 0.00D+00
 Coeff-Com:  0.548D-03-0.128D-02-0.861D-02-0.128D-01-0.100D-01 0.262D+00
 Coeff-Com:  0.770D+00
 Coeff:      0.548D-03-0.128D-02-0.861D-02-0.128D-01-0.100D-01 0.262D+00
 Coeff:      0.770D+00
 Gap=     0.274 Goal=   None    Shift=    0.000
 RMSDP=5.47D-06 MaxDP=2.51D-04 DE=-4.98D-07 OVMax= 7.13D-05

 Cycle   8  Pass 1  IDiag  1:
 RMSU=  1.89D-06    CP:  8.20D-01  5.10D-01  9.97D-01  8.11D-01  9.22D-01
                    CP:  1.14D+00  1.17D+00
 E= -213.723190622400     Delta-E=       -0.000000065011 Rises=F Damp=F
 DIIS: error= 2.44D-06 at cycle   8 NSaved=   8.
 NSaved= 8 IEnMin= 8 EnMin= -213.723190622400     IErMin= 8 ErrMin= 2.44D-06
 ErrMax= 2.44D-06  0.00D+00 EMaxC= 1.00D-01 BMatC= 1.15D-09 BMatP= 6.24D-08
 IDIUse=1 WtCom= 1.00D+00 WtEn= 0.00D+00
 Coeff-Com:  0.705D-04-0.162D-03-0.155D-02-0.303D-02-0.117D-01 0.194D-01
 Coeff-Com:  0.140D+00 0.857D+00
 Coeff:      0.705D-04-0.162D-03-0.155D-02-0.303D-02-0.117D-01 0.194D-01
 Coeff:      0.140D+00 0.857D+00
 Gap=     0.274 Goal=   None    Shift=    0.000
 RMSDP=1.11D-06 MaxDP=5.22D-05 DE=-6.50D-08 OVMax= 1.17D-05

 Cycle   9  Pass 1  IDiag  1:
 RMSU=  4.71D-07    CP:  8.20D-01  5.10D-01  9.97D-01  8.10D-01  9.21D-01
                    CP:  1.16D+00  1.20D+00  1.01D+00
 E= -213.723190623774     Delta-E=       -0.000000001374 Rises=F Damp=F
 DIIS: error= 4.75D-07 at cycle   9 NSaved=   9.
 NSaved= 9 IEnMin= 9 EnMin= -213.723190623774     IErMin= 9 ErrMin= 4.75D-07
 ErrMax= 4.75D-07  0.00D+00 EMaxC= 1.00D-01 BMatC= 5.40D-11 BMatP= 1.15D-09
 IDIUse=1 WtCom= 1.00D+00 WtEn= 0.00D+00
 Coeff-Com: -0.228D-04 0.479D-04 0.215D-03 0.338D-03-0.800D-03-0.877D-02
 Coeff-Com: -0.204D-01 0.112D+00 0.918D+00
 Coeff:     -0.228D-04 0.479D-04 0.215D-03 0.338D-03-0.800D-03-0.877D-02
 Coeff:     -0.204D-01 0.112D+00 0.918D+00
 Gap=     0.274 Goal=   None    Shift=    0.000
 RMSDP=2.02D-07 MaxDP=9.23D-06 DE=-1.37D-09 OVMax= 3.53D-06

 Cycle  10  Pass 1  IDiag  1:
 RMSU=  7.59D-08    CP:  8.20D-01  5.10D-01  9.97D-01  8.10D-01  9.20D-01
                    CP:  1.16D+00  1.21D+00  1.05D+00  1.07D+00
 E= -213.723190623845     Delta-E=       -0.000000000072 Rises=F Damp=F
 DIIS: error= 1.30D-07 at cycle  10 NSaved=  10.
 NSaved=10 IEnMin=10 EnMin= -213.723190623845     IErMin=10 ErrMin= 1.30D-07
 ErrMax= 1.30D-07  0.00D+00 EMaxC= 1.00D-01 BMatC= 3.13D-12 BMatP= 5.40D-11
 IDIUse=1 WtCom= 1.00D+00 WtEn= 0.00D+00
 Coeff-Com: -0.652D-05 0.147D-04 0.773D-04 0.138D-03 0.299D-04-0.230D-02
 Coeff-Com: -0.768D-02 0.419D-02 0.215D+00 0.791D+00
 Coeff:     -0.652D-05 0.147D-04 0.773D-04 0.138D-03 0.299D-04-0.230D-02
 Coeff:     -0.768D-02 0.419D-02 0.215D+00 0.791D+00
 Gap=     0.274 Goal=   None    Shift=    0.000
 RMSDP=2.37D-08 MaxDP=6.94D-07 DE=-7.18D-11 OVMax= 9.85D-07

 Cycle  11  Pass 1  IDiag  1:
 RMSU=  1.88D-08    CP:  8.20D-01  5.10D-01  9.97D-01  8.10D-01  9.20D-01
                    CP:  1.16D+00  1.21D+00  1.05D+00  1.08D+00  1.07D+00
 E= -213.723190623850     Delta-E=       -0.000000000004 Rises=F Damp=F
 DIIS: error= 5.57D-08 at cycle  11 NSaved=  11.
 NSaved=11 IEnMin=11 EnMin= -213.723190623850     IErMin=11 ErrMin= 5.57D-08
 ErrMax= 5.57D-08  0.00D+00 EMaxC= 1.00D-01 BMatC= 7.88D-13 BMatP= 3.13D-12
 IDIUse=1 WtCom= 1.00D+00 WtEn= 0.00D+00
 Coeff-Com:  0.119D-05-0.181D-05-0.516D-05-0.143D-05 0.115D-03 0.486D-03
 Coeff-Com:  0.204D-03-0.168D-01-0.659D-01 0.318D+00 0.764D+00
 Coeff:      0.119D-05-0.181D-05-0.516D-05-0.143D-05 0.115D-03 0.486D-03
 Coeff:      0.204D-03-0.168D-01-0.659D-01 0.318D+00 0.764D+00
 Gap=     0.274 Goal=   None    Shift=    0.000
 RMSDP=1.28D-08 MaxDP=4.16D-07 DE=-4.15D-12 OVMax= 5.14D-07

 Cycle  12  Pass 1  IDiag  1:
 RMSU=  7.23D-09    CP:  8.20D-01  5.10D-01  9.97D-01  8.10D-01  9.20D-01
                    CP:  1.16D+00  1.21D+00  1.05D+00  1.09D+00  1.13D+00
                    CP:  9.62D-01
 E= -213.723190623850     Delta-E=       -0.000000000000 Rises=F Damp=F
 DIIS: error= 5.63D-09 at cycle  12 NSaved=  12.
 NSaved=12 IEnMin=12 EnMin= -213.723190623850     IErMin=12 ErrMin= 5.63D-09
 ErrMax= 5.63D-09  0.00D+00 EMaxC= 1.00D-01 BMatC= 1.20D-14 BMatP= 7.88D-13
 IDIUse=1 WtCom= 1.00D+00 WtEn= 0.00D+00
 Coeff-Com:  0.449D-06-0.913D-06-0.389D-05-0.470D-05 0.128D-04 0.162D-03
 Coeff-Com:  0.333D-03-0.205D-02-0.162D-01-0.512D-02 0.671D-01 0.956D+00
 Coeff:      0.449D-06-0.913D-06-0.389D-05-0.470D-05 0.128D-04 0.162D-03
 Coeff:      0.333D-03-0.205D-02-0.162D-01-0.512D-02 0.671D-01 0.956D+00
 Gap=     0.274 Goal=   None    Shift=    0.000
 RMSDP=2.32D-09 MaxDP=8.88D-08 DE=-1.14D-13 OVMax= 1.45D-07

 SCF Done:  E(RM062X) =  -213.723190624     A.U. after   12 cycles
            NFock= 12  Conv=0.23D-08     -V/T= 2.0047
 KE= 2.127199646657D+02 PE=-8.655211209317D+02 EE= 2.541855808670D+02
 Leave Link  502 at Sun Oct 13 20:26:36 2019, MaxMem= 10737418240 cpu:             146.3 elap:               6.2
 (Enter /apps/cent7/gaussian/g16-A.03/g16-haswell/g16/l601.exe)
 Copying SCF densities to generalized density rwf, IOpCl= 0 IROHF=0.

 **********************************************************************

            Population analysis using the SCF density.

 **********************************************************************

 Orbital symmetries:
       Occupied  (A) (A) (A) (A) (A) (A) (A) (A) (A) (A) (A) (A)
                 (A) (A) (A) (A) (A) (A) (A) (A) (A)
       Virtual   (A) (A) (A) (A) (A) (A) (A) (A) (A) (A) (A) (A)
                 (A) (A) (A) (A) (A) (A) (A) (A) (A) (A) (A) (A)
                 (A) (A) (A) (A) (A) (A) (A) (A) (A) (A) (A) (A)
                 (A) (A) (A) (A) (A) (A) (A) (A) (A) (A) (A) (A)
                 (A) (A) (A) (A) (A) (A) (A) (A) (A) (A) (A) (A)
                 (A) (A) (A) (A) (A) (A) (A) (A) (A) (A) (A) (A)
                 (A) (A) (A) (A) (A) (A) (A) (A) (A) (A) (A) (A)
                 (A) (A) (A) (A) (A) (A) (A) (A) (A) (A) (A) (A)
                 (A) (A) (A) (A) (A) (A) (A) (A) (A) (A) (A) (A)
                 (A) (A) (A) (A) (A) (A) (A) (A) (A) (A) (A) (A)
                 (A) (A) (A) (A) (A) (A) (A) (A) (A) (A) (A) (A)
                 (A) (A) (A) (A) (A) (A) (A) (A) (A) (A) (A) (A)
                 (A) (A) (A) (A) (A) (A) (A) (A) (A) (A) (A) (A)
                 (A) (A) (A) (A) (A) (A) (A) (A) (A) (A)
 The electronic state is 1-A.
 Alpha  occ. eigenvalues --  -14.70886 -10.55625 -10.52948 -10.52683 -10.52049
 Alpha  occ. eigenvalues --   -0.97031  -0.88139  -0.79636  -0.70234  -0.65169
 Alpha  occ. eigenvalues --   -0.57802  -0.54991  -0.50224  -0.49619  -0.48000
 Alpha  occ. eigenvalues --   -0.43568  -0.42242  -0.39872  -0.38616  -0.36878
 Alpha  occ. eigenvalues --   -0.27372
 Alpha virt. eigenvalues --    0.00029   0.01015   0.01440   0.01852   0.03256
 Alpha virt. eigenvalues --    0.03801   0.04458   0.04977   0.06100   0.06758
 Alpha virt. eigenvalues --    0.07172   0.08284   0.09905   0.10713   0.12256
 Alpha virt. eigenvalues --    0.13604   0.13994   0.14135   0.14476   0.14665
 Alpha virt. eigenvalues --    0.15523   0.16364   0.17283   0.17601   0.18738
 Alpha virt. eigenvalues --    0.19092   0.19490   0.19810   0.21429   0.21973
 Alpha virt. eigenvalues --    0.23195   0.23749   0.24206   0.24820   0.25314
 Alpha virt. eigenvalues --    0.26557   0.27860   0.28889   0.29648   0.30626
 Alpha virt. eigenvalues --    0.31966   0.33405   0.34180   0.36150   0.37924
 Alpha virt. eigenvalues --    0.39021   0.47325   0.49194   0.50587   0.51821
 Alpha virt. eigenvalues --    0.52712   0.54295   0.58665   0.60199   0.63169
 Alpha virt. eigenvalues --    0.66182   0.67815   0.68433   0.70297   0.71697
 Alpha virt. eigenvalues --    0.71884   0.72934   0.73565   0.75057   0.75538
 Alpha virt. eigenvalues --    0.77478   0.78749   0.80069   0.81578   0.87523
 Alpha virt. eigenvalues --    0.89076   0.91431   0.92619   0.96695   1.00677
 Alpha virt. eigenvalues --    1.01905   1.11961   1.14483   1.24581   1.31616
 Alpha virt. eigenvalues --    1.32084   1.33489   1.34237   1.35235   1.44483
 Alpha virt. eigenvalues --    1.48182   1.51138   1.54263   1.57190   1.59542
 Alpha virt. eigenvalues --    1.60397   1.62112   1.62791   1.65386   1.65673
 Alpha virt. eigenvalues --    1.67512   1.71167   1.71920   1.73488   1.76932
 Alpha virt. eigenvalues --    1.79960   1.81462   1.82705   1.83803   1.86613
 Alpha virt. eigenvalues --    1.89813   1.93659   1.98126   2.04059   2.06293
 Alpha virt. eigenvalues --    2.08353   2.10571   2.13932   2.15169   2.19676
 Alpha virt. eigenvalues --    2.23335   2.26752   2.31126   2.37133   2.42817
 Alpha virt. eigenvalues --    2.44104   2.48440   2.50469   2.52112   2.53004
 Alpha virt. eigenvalues --    2.55864   2.58899   2.60504   2.61747   2.64184
 Alpha virt. eigenvalues --    2.65127   2.66012   2.69006   2.70903   2.72096
 Alpha virt. eigenvalues --    2.76432   2.79195   2.83209   2.85851   2.86587
 Alpha virt. eigenvalues --    2.87894   2.93755   2.96261   3.00225   3.03250
 Alpha virt. eigenvalues --    3.11516   3.16638   3.22172   3.38409   3.61499
 Alpha virt. eigenvalues --    3.76337   3.82117   3.85853   3.94989   4.03601
 Alpha virt. eigenvalues --    4.07112   4.12255   4.17256   4.38380   4.88221
 Alpha virt. eigenvalues --    4.94751  23.94380  23.96496  23.98502  24.05542
 Alpha virt. eigenvalues --   35.72722
          Condensed to atoms (all electrons):
               1          2          3          4          5          6
     1  C    5.422960  -0.029102   0.117859  -0.048438  -0.007982   0.394097
     2  C   -0.029102   5.607949  -0.228706   0.179314   0.062542   0.011265
     3  C    0.117859  -0.228706   5.745167  -0.081880  -0.171861  -0.030587
     4  C   -0.048438   0.179314  -0.081880   5.688238   0.208822   0.002575
     5  N   -0.007982   0.062542  -0.171861   0.208822   6.768067   0.000156
     6  H    0.394097   0.011265  -0.030587   0.002575   0.000156   0.556350
     7  H    0.405872  -0.061541   0.025605  -0.002921   0.000560  -0.025716
     8  H    0.386324  -0.016400  -0.030712  -0.003588   0.000511  -0.045972
     9  H   -0.053932   0.433620  -0.052866   0.017616  -0.007059   0.007896
    10  H   -0.062238   0.431331  -0.043687  -0.012439  -0.001146  -0.023919
    11  H    0.011487  -0.058035   0.418633  -0.032808  -0.010069   0.002598
    12  H   -0.009890  -0.061061   0.490055  -0.119732   0.026660  -0.001626
    13  H   -0.001180  -0.038490   0.011204   0.406306  -0.075676   0.001150
    14  H   -0.004967  -0.012796   0.005401   0.303518  -0.083250   0.000234
    15  H   -0.000224  -0.008771   0.013851  -0.048074   0.382190  -0.000006
    16  H    0.000522  -0.004336   0.016915  -0.034806   0.376572  -0.000003
               7          8          9         10         11         12
     1  C    0.405872   0.386324  -0.053932  -0.062238   0.011487  -0.009890
     2  C   -0.061541  -0.016400   0.433620   0.431331  -0.058035  -0.061061
     3  C    0.025605  -0.030712  -0.052866  -0.043687   0.418633   0.490055
     4  C   -0.002921  -0.003588   0.017616  -0.012439  -0.032808  -0.119732
     5  N    0.000560   0.000511  -0.007059  -0.001146  -0.010069   0.026660
     6  H   -0.025716  -0.045972   0.007896  -0.023919   0.002598  -0.001626
     7  H    0.554402  -0.039350  -0.010290   0.000325  -0.001628   0.001003
     8  H   -0.039350   0.592720  -0.005890   0.015297  -0.000464   0.009251
     9  H   -0.010290  -0.005890   0.595458  -0.039810   0.018923  -0.032022
    10  H    0.000325   0.015297  -0.039810   0.595957  -0.022408   0.015475
    11  H   -0.001628  -0.000464   0.018923  -0.022408   0.611369  -0.052567
    12  H    0.001003   0.009251  -0.032022   0.015475  -0.052567   0.568311
    13  H   -0.000549   0.000165   0.010129   0.000112   0.013963  -0.013470
    14  H    0.000722   0.001486  -0.012189   0.008467  -0.042783   0.023269
    15  H    0.000042   0.000178  -0.000108   0.001109   0.002797   0.002603
    16  H   -0.000021   0.000022   0.001001  -0.000267   0.001843  -0.002905
              13         14         15         16
     1  C   -0.001180  -0.004967  -0.000224   0.000522
     2  C   -0.038490  -0.012796  -0.008771  -0.004336
     3  C    0.011204   0.005401   0.013851   0.016915
     4  C    0.406306   0.303518  -0.048074  -0.034806
     5  N   -0.075676  -0.083250   0.382190   0.376572
     6  H    0.001150   0.000234  -0.000006  -0.000003
     7  H   -0.000549   0.000722   0.000042  -0.000021
     8  H    0.000165   0.001486   0.000178   0.000022
     9  H    0.010129  -0.012189  -0.000108   0.001001
    10  H    0.000112   0.008467   0.001109  -0.000267
    11  H    0.013963  -0.042783   0.002797   0.001843
    12  H   -0.013470   0.023269   0.002603  -0.002905
    13  H    0.573322  -0.040554   0.004300   0.004643
    14  H   -0.040554   0.687886   0.005123  -0.005741
    15  H    0.004300   0.005123   0.420246  -0.021604
    16  H    0.004643  -0.005741  -0.021604   0.406806
 Mulliken charges:
               1
     1  C   -0.521167
     2  C   -0.206785
     3  C   -0.204390
     4  C   -0.421701
     5  N   -0.469037
     6  H    0.151508
     7  H    0.153486
     8  H    0.136423
     9  H    0.129522
    10  H    0.137840
    11  H    0.139148
    12  H    0.156649
    13  H    0.144624
    14  H    0.166174
    15  H    0.246349
    16  H    0.261359
 Sum of Mulliken charges =  -0.00000
 Mulliken charges with hydrogens summed into heavy atoms:
               1
     1  C   -0.079750
     2  C    0.060577
     3  C    0.091406
     4  C   -0.110904
     5  N    0.038671
 Electronic spatial extent (au):  <R**2>=            699.3328
 Charge=              0.0000 electrons
 Dipole moment (field-independent basis, Debye):
    X=             -0.0692    Y=              0.0258    Z=             -0.0792  Tot=              0.1083
 Quadrupole moment (field-independent basis, Debye-Ang):
   XX=            -34.3876   YY=            -35.0035   ZZ=            -33.8659
   XY=             -0.4608   XZ=             -1.0826   YZ=             -1.7347
 Traceless Quadrupole moment (field-independent basis, Debye-Ang):
   XX=              0.0314   YY=             -0.5845   ZZ=              0.5531
   XY=             -0.4608   XZ=             -1.0826   YZ=             -1.7347
 Octapole moment (field-independent basis, Debye-Ang**2):
  XXX=             15.8747  YYY=             -3.4300  ZZZ=              0.6581  XYY=              4.9238
  XXY=              0.7140  XXZ=             -6.2882  XZZ=             -0.6286  YZZ=              0.8526
  YYZ=              0.7069  XYZ=             -3.1467
 Hexadecapole moment (field-independent basis, Debye-Ang**3):
 XXXX=           -744.4567 YYYY=           -115.6375 ZZZZ=            -70.5440 XXXY=            -12.0283
 XXXZ=            -26.1148 YYYX=             -7.0699 YYYZ=             -3.8016 ZZZX=             -2.5773
 ZZZY=             -2.0487 XXYY=           -144.3728 XXZZ=           -143.6691 YYZZ=            -28.8206
 XXYZ=            -10.8082 YYXZ=              4.1117 ZZXY=              1.3799
 N-N= 1.848923847751D+02 E-N=-8.655211211634D+02  KE= 2.127199646657D+02
 No NMR shielding tensors so no spin-rotation constants.
 Leave Link  601 at Sun Oct 13 20:26:36 2019, MaxMem= 10737418240 cpu:               2.4 elap:               0.1
 (Enter /apps/cent7/gaussian/g16-A.03/g16-haswell/g16/l701.exe)
 ... and contract with generalized density number  0.
 Compute integral first derivatives.
 Leave Link  701 at Sun Oct 13 20:26:36 2019, MaxMem= 10737418240 cpu:               4.3 elap:               0.2
 (Enter /apps/cent7/gaussian/g16-A.03/g16-haswell/g16/l702.exe)
 L702 exits ... SP integral derivatives will be done elsewhere.
 Leave Link  702 at Sun Oct 13 20:26:36 2019, MaxMem= 10737418240 cpu:               0.4 elap:               0.0
 (Enter /apps/cent7/gaussian/g16-A.03/g16-haswell/g16/l703.exe)
 Integral derivatives from FoFJK, PRISM(SPDF).
 Compute integral first derivatives, UseDBF=F ICtDFT=           0.
 Calling FoFJK, ICntrl=      2127 FMM=F ISym2X=0 I1Cent= 0 IOpClX= 0 NMat=1 NMatS=1 NMatT=0.
 FoFJK:  IHMeth= 1 ICntrl=    2127 DoSepK=F KAlg= 0 I1Cent=           0 FoldK=F
 IRaf=         0 NMat=       1 IRICut=       1 DoRegI=T DoRafI=F ISym2E= 0 IDoP0=0 IntGTp=1.
 FoFCou: FMM=F IPFlag=           0 FMFlag=      100000 FMFlg1=         800
         NFxFlg=           0 DoJE=F BraDBF=F KetDBF=F FulRan=T
         wScrn=  0.000000 ICntrl=      2127 IOpCl=  0 I1Cent=           0 NGrid=           0
         NMat0=    1 NMatS0=      1 NMatT0=    0 NMatD0=    1 NMtDS0=    0 NMtDT0=    0
 Symmetry not used in FoFCou.
 Leave Link  703 at Sun Oct 13 20:26:37 2019, MaxMem= 10737418240 cpu:              23.6 elap:               1.0
 (Enter /apps/cent7/gaussian/g16-A.03/g16-haswell/g16/l716.exe)
 Dipole        =-2.72317239D-02 1.01680786D-02-3.11748715D-02
 ***** Axes restored to original set *****
 -------------------------------------------------------------------
 Center     Atomic                   Forces (Hartrees/Bohr)
 Number     Number              X              Y              Z
 -------------------------------------------------------------------
      1        6          -0.002774280    0.008784960    0.008058385
      2        6           0.024496350    0.007169090   -0.004845572
      3        6          -0.027623236   -0.005033522    0.005638176
      4        6           0.032818040    0.006354013   -0.003173769
      5        7          -0.000725209    0.000996156   -0.008112320
      6        1           0.003005806   -0.001549174   -0.003429601
      7        1           0.002627756   -0.003037711   -0.000774887
      8        1           0.001409700   -0.002567281   -0.003503623
      9        1          -0.012234031   -0.004868509    0.012024292
     10        1          -0.019996424    0.002837735   -0.001970651
     11        1           0.013729747    0.006131491   -0.010083046
     12        1           0.017712858   -0.000831633    0.002267450
     13        1          -0.010910109   -0.007069441    0.010319336
     14        1          -0.021355434   -0.004386254   -0.003162035
     15        1          -0.006880500    0.003935171    0.000547967
     16        1           0.006698967   -0.006865090    0.000199898
 -------------------------------------------------------------------
 Cartesian Forces:  Max     0.032818040 RMS     0.010401888
 Leave Link  716 at Sun Oct 13 20:26:37 2019, MaxMem= 10737418240 cpu:               0.6 elap:               0.0
 (Enter /apps/cent7/gaussian/g16-A.03/g16-haswell/g16/l103.exe)

 GradGradGradGradGradGradGradGradGradGradGradGradGradGradGradGradGradGrad
 Berny optimization.
 FormGI is forming the generalized inverse of G from B-inverse, IUseBI=4.
 Internal  Forces:  Max     0.012905894 RMS     0.005442180
 Search for a local minimum.
 Step number   1 out of a maximum of   85
 All quantities printed in internal units (Hartrees-Bohrs-Radians)
 RMS Force = .54422D-02 SwitMx=.10000D-02 MixMth= 1
 Mixed Optimization -- RFO/linear search
 Second derivative matrix not updated -- first step.
 ITU=  0
     Eigenvalues ---    0.00230   0.00230   0.00230   0.00830   0.00830
     Eigenvalues ---    0.03907   0.03951   0.04856   0.05128   0.05142
     Eigenvalues ---    0.05637   0.05715   0.05715   0.07784   0.07852
     Eigenvalues ---    0.08884   0.11804   0.11857   0.12336   0.16000
     Eigenvalues ---    0.16000   0.16000   0.16000   0.16000   0.22496
     Eigenvalues ---    0.22510   0.22520   0.27507   0.27831   0.27966
     Eigenvalues ---    0.34808   0.34808   0.34809   0.34810   0.34813
     Eigenvalues ---    0.34814   0.34814   0.34816   0.34820   0.36330
     Eigenvalues ---    0.45962   0.45984
 RFO step:  Lambda=-1.91590296D-02 EMin= 2.30000000D-03
 Linear search not attempted -- first point.
 Iteration  1 RMS(Cart)=  0.05151299 RMS(Int)=  0.00176245
 Iteration  2 RMS(Cart)=  0.00173857 RMS(Int)=  0.00027021
 Iteration  3 RMS(Cart)=  0.00000116 RMS(Int)=  0.00027021
 Iteration  4 RMS(Cart)=  0.00000000 RMS(Int)=  0.00027021
 ITry= 1 IFail=0 DXMaxC= 1.71D-01 DCOld= 1.00D+10 DXMaxT= 3.00D-01 DXLimC= 3.00D+00 Rises=F
 Variable       Old X    -DE/DX   Delta X   Delta X   Delta X     New X
                                 (Linear)    (Quad)   (Total)
    R1        2.92213   0.00081   0.00000   0.00271   0.00271   2.92484
    R2        2.05968   0.00069   0.00000   0.00188   0.00188   2.06156
    R3        2.05986   0.00015   0.00000   0.00042   0.00042   2.06028
    R4        2.05988   0.00160   0.00000   0.00436   0.00436   2.06424
    R5        2.93230  -0.00480   0.00000  -0.01633  -0.01633   2.91597
    R6        2.05978   0.00090   0.00000   0.00245   0.00245   2.06223
    R7        2.05978   0.00074   0.00000   0.00201   0.00201   2.06178
    R8        2.92509  -0.00636   0.00000  -0.02139  -0.02139   2.90370
    R9        2.05988   0.00255   0.00000   0.00696   0.00696   2.06683
   R10        2.05979   0.00111   0.00000   0.00301   0.00301   2.06280
   R11        2.76869  -0.00380   0.00000  -0.00994  -0.00994   2.75875
   R12        2.05974   0.00005   0.00000   0.00014   0.00014   2.05989
   R13        2.05984   0.00328   0.00000   0.00894   0.00894   2.06878
   R14        1.90874  -0.00728   0.00000  -0.01520  -0.01520   1.89354
   R15        1.90849  -0.00883   0.00000  -0.01843  -0.01843   1.89006
    A1        1.91070   0.00491   0.00000   0.02745   0.02713   1.93782
    A2        1.91064   0.00372   0.00000   0.02077   0.02049   1.93113
    A3        1.91060   0.00423   0.00000   0.02360   0.02330   1.93391
    A4        1.91069  -0.00431   0.00000  -0.02398  -0.02426   1.88642
    A5        1.91062  -0.00457   0.00000  -0.02550  -0.02583   1.88479
    A6        1.91055  -0.00399   0.00000  -0.02233  -0.02257   1.88798
    A7        1.96381  -0.01253   0.00000  -0.02650  -0.02654   1.93727
    A8        1.85116   0.00649   0.00000   0.04779   0.04785   1.89901
    A9        1.85112   0.00620   0.00000   0.04507   0.04515   1.89627
   A10        1.85327   0.00515   0.00000   0.03464   0.03469   1.88796
   A11        1.85332   0.00530   0.00000   0.03505   0.03512   1.88843
   A12        2.09438  -0.01228   0.00000  -0.13938  -0.13898   1.95540
   A13        1.97138  -0.01291   0.00000  -0.02992  -0.02980   1.94158
   A14        1.85140   0.00583   0.00000   0.04036   0.04054   1.89194
   A15        1.85139   0.00676   0.00000   0.04982   0.04994   1.90134
   A16        1.84977   0.00530   0.00000   0.03303   0.03323   1.88300
   A17        1.84978   0.00490   0.00000   0.03276   0.03289   1.88267
   A18        2.09435  -0.01166   0.00000  -0.13066  -0.13037   1.96398
   A19        1.92753  -0.00887   0.00000  -0.01100  -0.01154   1.91599
   A20        1.87678   0.00430   0.00000   0.01190   0.01160   1.88838
   A21        1.87668   0.00186   0.00000   0.01146   0.00997   1.88666
   A22        1.84292   0.00390   0.00000   0.03168   0.03181   1.87473
   A23        1.84290   0.01040   0.00000   0.09825   0.09777   1.94067
   A24        2.09446  -0.01229   0.00000  -0.13710  -0.13773   1.95674
   A25        2.09440   0.00155   0.00000   0.00866   0.00856   2.10295
   A26        2.09440   0.00277   0.00000   0.01549   0.01539   2.10979
   A27        2.09439  -0.00433   0.00000  -0.02414  -0.02424   2.07015
    D1        1.51473  -0.00087   0.00000  -0.04068  -0.04068   1.47405
    D2       -2.74942   0.00270   0.00000   0.01576   0.01583  -2.73359
    D3       -0.50434  -0.00444   0.00000  -0.09598  -0.09603  -0.60037
    D4       -2.67395  -0.00085   0.00000  -0.04052  -0.04051  -2.71447
    D5       -0.65492   0.00271   0.00000   0.01592   0.01600  -0.63892
    D6        1.59017  -0.00443   0.00000  -0.09582  -0.09587   1.49430
    D7       -0.57967  -0.00087   0.00000  -0.04071  -0.04074  -0.62040
    D8        1.43937   0.00270   0.00000   0.01573   0.01578   1.45514
    D9       -2.59873  -0.00444   0.00000  -0.09601  -0.09609  -2.69482
   D10        3.13960   0.00027   0.00000   0.01025   0.01026  -3.13332
   D11       -1.12467   0.00346   0.00000   0.05896   0.05897  -1.06570
   D12        1.12069  -0.00300   0.00000  -0.04390  -0.04393   1.07676
   D13        1.12184  -0.00408   0.00000  -0.05411  -0.05416   1.06768
   D14        3.14075  -0.00090   0.00000  -0.00540  -0.00545   3.13530
   D15       -0.89708  -0.00735   0.00000  -0.10826  -0.10835  -1.00543
   D16       -1.12584   0.00437   0.00000   0.07158   0.07165  -1.05419
   D17        0.89307   0.00756   0.00000   0.12029   0.12036   1.01343
   D18        3.13843   0.00110   0.00000   0.01743   0.01746  -3.12730
   D19       -3.13087   0.00172   0.00000   0.01779   0.01778  -3.11308
   D20       -1.12824   0.00413   0.00000   0.05629   0.05606  -1.07218
   D21        1.14976  -0.00704   0.00000  -0.09947  -0.09926   1.05050
   D22        1.13243  -0.00179   0.00000  -0.03530  -0.03532   1.09711
   D23        3.13506   0.00062   0.00000   0.00320   0.00295   3.13802
   D24       -0.87012  -0.01055   0.00000  -0.15256  -0.15237  -1.02249
   D25       -1.11098   0.00612   0.00000   0.08213   0.08217  -1.02882
   D26        0.89165   0.00852   0.00000   0.12063   0.12044   1.01209
   D27       -3.11354  -0.00265   0.00000  -0.03513  -0.03488   3.13477
   D28       -0.61251  -0.00068   0.00000  -0.02827  -0.02875  -0.64126
   D29        2.52911   0.00004   0.00000  -0.00193  -0.00241   2.52670
   D30       -2.63640  -0.00352   0.00000  -0.05427  -0.05430  -2.69070
   D31        0.50522  -0.00279   0.00000  -0.02794  -0.02797   0.47725
   D32        1.41125   0.00286   0.00000   0.03385   0.03436   1.44562
   D33       -1.73031   0.00358   0.00000   0.06019   0.06070  -1.66962
         Item               Value     Threshold  Converged?
 Maximum Force            0.012906     0.000450     NO 
 RMS     Force            0.005442     0.000300     NO 
 Maximum Displacement     0.170823     0.001800     NO 
 RMS     Displacement     0.051549     0.001200     NO 
 Predicted change in Energy=-1.178742D-02
 Lowest energy point so far.  Saving SCF results.
 GradGradGradGradGradGradGradGradGradGradGradGradGradGradGradGradGradGrad

 Leave Link  103 at Sun Oct 13 20:26:38 2019, MaxMem= 10737418240 cpu:               1.0 elap:               0.1
 (Enter /apps/cent7/gaussian/g16-A.03/g16-haswell/g16/l202.exe)
                          Input orientation:                          
 ---------------------------------------------------------------------
 Center     Atomic      Atomic             Coordinates (Angstroms)
 Number     Number       Type             X           Y           Z
 ---------------------------------------------------------------------
      1          6           0        1.830790   -0.630604   -1.452257
      2          6           0        1.077813    0.345436   -0.516342
      3          6           0        1.982540    1.525858   -0.105100
      4          6           0        1.244183    2.492491    0.833786
      5          7           0        2.114568    3.614914    1.171144
      6          1           0        2.421100   -1.346325   -0.878319
      7          1           0        1.127923   -1.189947   -2.070132
      8          1           0        2.509183   -0.087701   -2.114271
      9          1           0        0.214416    0.747797   -1.048834
     10          1           0        0.787240   -0.192185    0.387493
     11          1           0        2.846164    1.127169    0.434740
     12          1           0        2.268796    2.081380   -1.000096
     13          1           0        0.384087    2.895822    0.299225
     14          1           0        0.949101    1.937235    1.729942
     15          1           0        3.097432    3.473632    1.305508
     16          1           0        1.741565    4.534629    1.295013
 ---------------------------------------------------------------------
                    Distance matrix (angstroms):
                    1          2          3          4          5
     1  C    0.000000
     2  C    1.547761   0.000000
     3  C    2.547192   1.543064   0.000000
     4  C    3.914566   2.541726   1.536574   0.000000
     5  N    4.998719   3.822559   2.451609   1.459867   0.000000
     6  H    1.090929   2.190320   3.006599   4.364969   5.376630
     7  H    1.090255   2.184988   3.459381   4.691120   5.879288
     8  H    1.092348   2.188563   2.630151   4.116875   4.965786
     9  H    2.162268   1.091283   2.149948   2.765618   4.093805
    10  H    2.160066   1.091048   2.150131   2.759613   4.107300
    11  H    2.771554   2.154699   1.093722   2.142355   2.695626
    12  H    2.784090   2.160084   1.091588   2.140553   2.662667
    13  H    4.194796   2.766021   2.143672   1.090045   2.066858
    14  H    4.183009   2.756117   2.145835   1.094750   2.117823
    15  H    5.104351   4.145311   2.650778   2.149346   1.002016
    16  H    5.851075   4.612040   3.327324   2.151847   1.000175
                    6          7          8          9         10
     6  H    0.000000
     7  H    1.765553   0.000000
     8  H    1.766202   1.767703   0.000000
     9  H    3.046946   2.373267   2.664426   0.000000
    10  H    2.367239   2.674231   3.038886   1.809622   0.000000
    11  H    2.832486   3.820440   2.843752   3.044834   2.445832
    12  H    3.433248   3.626037   2.450324   2.449754   3.047870
    13  H    4.850963   4.781281   4.386616   2.541665   3.115463
    14  H    4.444274   4.924612   4.616514   3.110647   2.522458
    15  H    5.334652   6.084642   4.972325   4.613555   4.429216
    16  H    6.306406   6.668697   5.794686   4.708068   4.906842
                   11         12         13         14         15
    11  H    0.000000
    12  H    1.817314   0.000000
    13  H    3.034521   2.429748   0.000000
    14  H    2.435693   3.035701   1.812479   0.000000
    15  H    2.515405   2.817945   2.951052   2.675068   0.000000
    16  H    3.683882   3.400577   2.349474   2.750203   1.721685
                   16
    16  H    0.000000
 Stoichiometry    C4H11N
 Framework group  C1[X(C4H11N)]
 Deg. of freedom    42
 Full point group                 C1      NOp   1
 RotChk:  IX=0 Diff= 2.48D-02
 Largest Abelian subgroup         C1      NOp   1
 Largest concise Abelian subgroup C1      NOp   1
                         Standard orientation:                         
 ---------------------------------------------------------------------
 Center     Atomic      Atomic             Coordinates (Angstroms)
 Number     Number       Type             X           Y           Z
 ---------------------------------------------------------------------
      1          6           0       -2.524778   -0.325872   -0.027784
      2          6           0       -1.246628    0.545716    0.019455
      3          6           0        0.022350   -0.331685   -0.010685
      4          6           0        1.294875    0.527567    0.047834
      5          7           0        2.473935   -0.330462   -0.021568
      6          1           0       -2.799490   -0.672245    0.969555
      7          1           0       -3.362988    0.242572   -0.431429
      8          1           0       -2.372621   -1.203732   -0.659793
      9          1           0       -1.231682    1.195979   -0.856806
     10          1           0       -1.246027    1.113874    0.950896
     11          1           0        0.014389   -0.980607    0.869692
     12          1           0        0.041356   -0.895149   -0.945410
     13          1           0        1.309744    1.174025   -0.829702
     14          1           0        1.276213    1.099784    0.980946
     15          1           0        2.478872   -1.225192    0.429508
     16          1           0        3.299772   -0.030434   -0.499403
 ---------------------------------------------------------------------
 Rotational constants (GHZ):          17.6476587           1.9701533           1.8642117
 Leave Link  202 at Sun Oct 13 20:26:38 2019, MaxMem= 10737418240 cpu:               0.2 elap:               0.0
 (Enter /apps/cent7/gaussian/g16-A.03/g16-haswell/g16/l301.exe)
 Standard basis: 6-311++G(d,p) (5D, 7F)
 Ernie: Thresh=  0.10000D-02 Tol=  0.10000D-05 Strict=F.
 There are   192 symmetry adapted cartesian basis functions of A   symmetry.
 There are   187 symmetry adapted basis functions of A   symmetry.
   187 basis functions,   279 primitive gaussians,   192 cartesian basis functions
    21 alpha electrons       21 beta electrons
       nuclear repulsion energy       185.5876376655 Hartrees.
 IExCor= 4336 DFT=T Ex+Corr=M062X ExCW=0 ScaHFX=  0.540000
 ScaDFX=  1.000000  1.000000  1.000000  1.000000 ScalE2=  1.000000  1.000000
 IRadAn=      5 IRanWt=     -1 IRanGd=            0 ICorTp=0 IEmpDi=  4
 NAtoms=   16 NActive=   16 NUniq=   16 SFac= 1.00D+00 NAtFMM=   60 NAOKFM=F Big=F
 Integral buffers will be    131072 words long.
 Raffenetti 2 integral format.
 Two-electron integral symmetry is turned on.
 Leave Link  301 at Sun Oct 13 20:26:38 2019, MaxMem= 10737418240 cpu:               1.9 elap:               0.1
 (Enter /apps/cent7/gaussian/g16-A.03/g16-haswell/g16/l302.exe)
 NPDir=0 NMtPBC=     1 NCelOv=     1 NCel=       1 NClECP=     1 NCelD=      1
         NCelK=      1 NCelE2=     1 NClLst=     1 CellRange=     0.0.
 One-electron integrals computed using PRISM.
 One-electron integral symmetry used in STVInt
 NBasis=   187 RedAO= T EigKep=  1.83D-05  NBF=   187
 NBsUse=   187 1.00D-06 EigRej= -1.00D+00 NBFU=   187
 Precomputing XC quadrature grid using
 IXCGrd= 4 IRadAn=           5 IRanWt=          -1 IRanGd=           0 AccXCQ= 0.00D+00.
 Generated NRdTot=       0 NPtTot=           0 NUsed=           0 NTot=          32
 NSgBfM=   192   192   192   192   192 MxSgAt=    16 MxSgA2=    16.
 Leave Link  302 at Sun Oct 13 20:26:38 2019, MaxMem= 10737418240 cpu:               3.9 elap:               0.2
 (Enter /apps/cent7/gaussian/g16-A.03/g16-haswell/g16/l303.exe)
 DipDrv:  MaxL=1.
 Leave Link  303 at Sun Oct 13 20:26:38 2019, MaxMem= 10737418240 cpu:               0.6 elap:               0.0
 (Enter /apps/cent7/gaussian/g16-A.03/g16-haswell/g16/l401.exe)
 Initial guess from the checkpoint file:  "18.chk"
 B after Tr=     0.000000    0.000000   -0.000000
         Rot=    0.999966    0.008202    0.000134   -0.000277 Ang=   0.94 deg.
 Guess basis will be translated and rotated to current coordinates.
 JPrj=2 DoOrth=T DoCkMO=T.
 Generating alternative initial guess.
 ExpMin= 3.60D-02 ExpMax= 6.29D+03 ExpMxC= 9.49D+02 IAcc=3 IRadAn=         5 AccDes= 0.00D+00
 Harris functional with IExCor= 1009 and IRadAn=       5 diagonalized for initial guess.
 HarFok:  IExCor= 1009 AccDes= 0.00D+00 IRadAn=         5 IDoV= 1 UseB2=F ITyADJ=14
 ICtDFT=  3500011 ScaDFX=  1.000000  1.000000  1.000000  1.000000
 FoFCou: FMM=F IPFlag=           0 FMFlag=      100000 FMFlg1=           0
         NFxFlg=           0 DoJE=T BraDBF=F KetDBF=T FulRan=T
         wScrn=  0.000000 ICntrl=       500 IOpCl=  0 I1Cent=   200000004 NGrid=           0
         NMat0=    1 NMatS0=      1 NMatT0=    0 NMatD0=    1 NMtDS0=    0 NMtDT0=    0
 Petite list used in FoFCou.
 Harris En= -213.717031765688    
 Leave Link  401 at Sun Oct 13 20:26:38 2019, MaxMem= 10737418240 cpu:               8.9 elap:               0.4
 (Enter /apps/cent7/gaussian/g16-A.03/g16-haswell/g16/l502.exe)
 Integral symmetry usage will be decided dynamically.
 Closed shell SCF:
 Using DIIS extrapolation, IDIIS=  1040.
 NGot= 10737418240 LenX= 10737337812 LenY= 10737300507
 Requested convergence on RMS density matrix=1.00D-08 within 128 cycles.
 Requested convergence on MAX density matrix=1.00D-06.
 Requested convergence on             energy=1.00D-06.
 No special actions if energy rises.
 Fock matrices will be formed incrementally for  20 cycles.

 Cycle   1  Pass 1  IDiag  1:
 FoFJK:  IHMeth= 1 ICntrl=       0 DoSepK=F KAlg= 0 I1Cent=           0 FoldK=F
 IRaf= 970000000 NMat=       1 IRICut=       1 DoRegI=T DoRafI=F ISym2E= 0 IDoP0=0 IntGTp=1.
 FoFCou: FMM=F IPFlag=           0 FMFlag=      100000 FMFlg1=           0
         NFxFlg=           0 DoJE=F BraDBF=F KetDBF=F FulRan=T
         wScrn=  0.000000 ICntrl=         0 IOpCl=  0 I1Cent=           0 NGrid=           0
         NMat0=    1 NMatS0=      1 NMatT0=    0 NMatD0=    1 NMtDS0=    0 NMtDT0=    0
 Symmetry not used in FoFCou.
 E= -213.734179401616    
 DIIS: error= 2.35D-03 at cycle   1 NSaved=   1.
 NSaved= 1 IEnMin= 1 EnMin= -213.734179401616     IErMin= 1 ErrMin= 2.35D-03
 ErrMax= 2.35D-03  0.00D+00 EMaxC= 1.00D-01 BMatC= 1.45D-03 BMatP= 1.45D-03
 IDIUse=3 WtCom= 9.77D-01 WtEn= 2.35D-02
 Coeff-Com:  0.100D+01
 Coeff-En:   0.100D+01
 Coeff:      0.100D+01
 Gap=     0.429 Goal=   None    Shift=    0.000
 GapD=    0.429 DampG=2.000 DampE=1.000 DampFc=2.0000 IDamp=-1.
 RMSDP=7.63D-04 MaxDP=2.10D-02              OVMax= 1.22D-02

 Cycle   2  Pass 1  IDiag  1:
 RMSU=  7.62D-04    CP:  1.00D+00
 E= -213.735960133017     Delta-E=       -0.001780731401 Rises=F Damp=F
 DIIS: error= 5.11D-04 at cycle   2 NSaved=   2.
 NSaved= 2 IEnMin= 2 EnMin= -213.735960133017     IErMin= 2 ErrMin= 5.11D-04
 ErrMax= 5.11D-04  0.00D+00 EMaxC= 1.00D-01 BMatC= 7.63D-05 BMatP= 1.45D-03
 IDIUse=3 WtCom= 9.95D-01 WtEn= 5.11D-03
 Coeff-Com: -0.424D-02 0.100D+01
 Coeff-En:   0.000D+00 0.100D+01
 Coeff:     -0.422D-02 0.100D+01
 Gap=     0.274 Goal=   None    Shift=    0.000
 RMSDP=1.49D-04 MaxDP=6.65D-03 DE=-1.78D-03 OVMax= 4.18D-03

 Cycle   3  Pass 1  IDiag  1:
 RMSU=  1.25D-04    CP:  1.00D+00  1.10D+00
 E= -213.736012609499     Delta-E=       -0.000052476482 Rises=F Damp=F
 DIIS: error= 5.81D-04 at cycle   3 NSaved=   3.
 NSaved= 3 IEnMin= 3 EnMin= -213.736012609499     IErMin= 2 ErrMin= 5.11D-04
 ErrMax= 5.81D-04  0.00D+00 EMaxC= 1.00D-01 BMatC= 5.49D-05 BMatP= 7.63D-05
 IDIUse=3 WtCom= 9.94D-01 WtEn= 5.81D-03
 Coeff-Com: -0.501D-01 0.478D+00 0.572D+00
 Coeff-En:   0.000D+00 0.129D+00 0.871D+00
 Coeff:     -0.498D-01 0.476D+00 0.574D+00
 Gap=     0.277 Goal=   None    Shift=    0.000
 RMSDP=5.58D-05 MaxDP=1.47D-03 DE=-5.25D-05 OVMax= 2.34D-03

 Cycle   4  Pass 1  IDiag  1:
 RMSU=  3.88D-05    CP:  1.01D+00  1.14D+00  7.81D-01
 E= -213.736056549252     Delta-E=       -0.000043939753 Rises=F Damp=F
 DIIS: error= 1.05D-04 at cycle   4 NSaved=   4.
 NSaved= 4 IEnMin= 4 EnMin= -213.736056549252     IErMin= 4 ErrMin= 1.05D-04
 ErrMax= 1.05D-04  0.00D+00 EMaxC= 1.00D-01 BMatC= 1.35D-06 BMatP= 5.49D-05
 IDIUse=3 WtCom= 9.99D-01 WtEn= 1.05D-03
 Coeff-Com: -0.108D-01 0.334D-01 0.145D+00 0.833D+00
 Coeff-En:   0.000D+00 0.000D+00 0.000D+00 0.100D+01
 Coeff:     -0.108D-01 0.334D-01 0.144D+00 0.833D+00
 Gap=     0.276 Goal=   None    Shift=    0.000
 RMSDP=1.37D-05 MaxDP=3.22D-04 DE=-4.39D-05 OVMax= 4.54D-04

 Cycle   5  Pass 1  IDiag  1:
 RMSU=  9.48D-06    CP:  1.01D+00  1.15D+00  8.50D-01  1.03D+00
 E= -213.736057944986     Delta-E=       -0.000001395734 Rises=F Damp=F
 DIIS: error= 2.80D-05 at cycle   5 NSaved=   5.
 NSaved= 5 IEnMin= 5 EnMin= -213.736057944986     IErMin= 5 ErrMin= 2.80D-05
 ErrMax= 2.80D-05  0.00D+00 EMaxC= 1.00D-01 BMatC= 9.38D-08 BMatP= 1.35D-06
 IDIUse=1 WtCom= 1.00D+00 WtEn= 0.00D+00
 Coeff-Com:  0.624D-03-0.256D-01-0.242D-02 0.217D+00 0.811D+00
 Coeff:      0.624D-03-0.256D-01-0.242D-02 0.217D+00 0.811D+00
 Gap=     0.276 Goal=   None    Shift=    0.000
 RMSDP=3.92D-06 MaxDP=9.03D-05 DE=-1.40D-06 OVMax= 1.47D-04

 Cycle   6  Pass 1  IDiag  1:
 RMSU=  3.18D-06    CP:  1.01D+00  1.15D+00  8.59D-01  1.07D+00  1.06D+00
 E= -213.736058049248     Delta-E=       -0.000000104261 Rises=F Damp=F
 DIIS: error= 1.06D-05 at cycle   6 NSaved=   6.
 NSaved= 6 IEnMin= 6 EnMin= -213.736058049248     IErMin= 6 ErrMin= 1.06D-05
 ErrMax= 1.06D-05  0.00D+00 EMaxC= 1.00D-01 BMatC= 1.56D-08 BMatP= 9.38D-08
 IDIUse=1 WtCom= 1.00D+00 WtEn= 0.00D+00
 Coeff-Com:  0.123D-02-0.142D-01-0.140D-01 0.167D-01 0.337D+00 0.674D+00
 Coeff:      0.123D-02-0.142D-01-0.140D-01 0.167D-01 0.337D+00 0.674D+00
 Gap=     0.276 Goal=   None    Shift=    0.000
 RMSDP=1.43D-06 MaxDP=5.77D-05 DE=-1.04D-07 OVMax= 4.24D-05

 Cycle   7  Pass 1  IDiag  1:
 RMSU=  9.02D-07    CP:  1.01D+00  1.15D+00  8.63D-01  1.09D+00  1.12D+00
                    CP:  9.63D-01
 E= -213.736058065940     Delta-E=       -0.000000016693 Rises=F Damp=F
 DIIS: error= 1.03D-06 at cycle   7 NSaved=   7.
 NSaved= 7 IEnMin= 7 EnMin= -213.736058065940     IErMin= 7 ErrMin= 1.03D-06
 ErrMax= 1.03D-06  0.00D+00 EMaxC= 1.00D-01 BMatC= 2.96D-10 BMatP= 1.56D-08
 IDIUse=1 WtCom= 1.00D+00 WtEn= 0.00D+00
 Coeff-Com:  0.141D-03-0.631D-03-0.172D-02-0.945D-02 0.173D-03 0.956D-01
 Coeff-Com:  0.916D+00
 Coeff:      0.141D-03-0.631D-03-0.172D-02-0.945D-02 0.173D-03 0.956D-01
 Coeff:      0.916D+00
 Gap=     0.276 Goal=   None    Shift=    0.000
 RMSDP=4.57D-07 MaxDP=1.98D-05 DE=-1.67D-08 OVMax= 1.78D-05

 Cycle   8  Pass 1  IDiag  1:
 RMSU=  2.19D-07    CP:  1.01D+00  1.15D+00  8.64D-01  1.09D+00  1.15D+00
                    CP:  1.03D+00  1.01D+00
 E= -213.736058066492     Delta-E=       -0.000000000552 Rises=F Damp=F
 DIIS: error= 3.18D-07 at cycle   8 NSaved=   8.
 NSaved= 8 IEnMin= 8 EnMin= -213.736058066492     IErMin= 8 ErrMin= 3.18D-07
 ErrMax= 3.18D-07  0.00D+00 EMaxC= 1.00D-01 BMatC= 2.21D-11 BMatP= 2.96D-10
 IDIUse=1 WtCom= 1.00D+00 WtEn= 0.00D+00
 Coeff-Com: -0.738D-04 0.974D-03 0.884D-03-0.209D-02-0.260D-01-0.408D-01
 Coeff-Com:  0.129D+00 0.938D+00
 Coeff:     -0.738D-04 0.974D-03 0.884D-03-0.209D-02-0.260D-01-0.408D-01
 Coeff:      0.129D+00 0.938D+00
 Gap=     0.276 Goal=   None    Shift=    0.000
 RMSDP=1.67D-07 MaxDP=5.49D-06 DE=-5.52D-10 OVMax= 6.11D-06

 Cycle   9  Pass 1  IDiag  1:
 RMSU=  8.02D-08    CP:  1.01D+00  1.15D+00  8.63D-01  1.09D+00  1.16D+00
                    CP:  1.06D+00  1.11D+00  1.07D+00
 E= -213.736058066540     Delta-E=       -0.000000000048 Rises=F Damp=F
 DIIS: error= 9.49D-08 at cycle   9 NSaved=   9.
 NSaved= 9 IEnMin= 9 EnMin= -213.736058066540     IErMin= 9 ErrMin= 9.49D-08
 ErrMax= 9.49D-08  0.00D+00 EMaxC= 1.00D-01 BMatC= 2.33D-12 BMatP= 2.21D-11
 IDIUse=1 WtCom= 1.00D+00 WtEn= 0.00D+00
 Coeff-Com: -0.306D-04 0.346D-03 0.370D-03-0.211D-03-0.840D-02-0.179D-01
 Coeff-Com: -0.511D-02 0.274D+00 0.757D+00
 Coeff:     -0.306D-04 0.346D-03 0.370D-03-0.211D-03-0.840D-02-0.179D-01
 Coeff:     -0.511D-02 0.274D+00 0.757D+00
 Gap=     0.276 Goal=   None    Shift=    0.000
 RMSDP=2.55D-08 MaxDP=1.11D-06 DE=-4.77D-11 OVMax= 1.25D-06

 Cycle  10  Pass 1  IDiag  1:
 RMSU=  1.08D-08    CP:  1.01D+00  1.15D+00  8.63D-01  1.09D+00  1.16D+00
                    CP:  1.07D+00  1.11D+00  1.13D+00  1.11D+00
 E= -213.736058066544     Delta-E=       -0.000000000004 Rises=F Damp=F
 DIIS: error= 3.15D-08 at cycle  10 NSaved=  10.
 NSaved=10 IEnMin=10 EnMin= -213.736058066544     IErMin=10 ErrMin= 3.15D-08
 ErrMax= 3.15D-08  0.00D+00 EMaxC= 1.00D-01 BMatC= 2.64D-13 BMatP= 2.33D-12
 IDIUse=1 WtCom= 1.00D+00 WtEn= 0.00D+00
 Coeff-Com:  0.335D-06-0.248D-04-0.554D-05 0.218D-03 0.871D-03-0.112D-04
 Coeff-Com: -0.179D-01-0.452D-01 0.216D+00 0.846D+00
 Coeff:      0.335D-06-0.248D-04-0.554D-05 0.218D-03 0.871D-03-0.112D-04
 Coeff:     -0.179D-01-0.452D-01 0.216D+00 0.846D+00
 Gap=     0.276 Goal=   None    Shift=    0.000
 RMSDP=1.00D-08 MaxDP=2.03D-07 DE=-3.52D-12 OVMax= 5.22D-07

 Cycle  11  Pass 1  IDiag  1:
 RMSU=  4.81D-09    CP:  1.01D+00  1.15D+00  8.63D-01  1.09D+00  1.16D+00
                    CP:  1.07D+00  1.12D+00  1.14D+00  1.18D+00  1.01D+00
 E= -213.736058066544     Delta-E=       -0.000000000000 Rises=F Damp=F
 DIIS: error= 6.35D-09 at cycle  11 NSaved=  11.
 NSaved=11 IEnMin=11 EnMin= -213.736058066544     IErMin=11 ErrMin= 6.35D-09
 ErrMax= 6.35D-09  0.00D+00 EMaxC= 1.00D-01 BMatC= 1.02D-14 BMatP= 2.64D-13
 IDIUse=1 WtCom= 1.00D+00 WtEn= 0.00D+00
 Coeff-Com:  0.181D-05-0.243D-04-0.229D-04 0.529D-04 0.634D-03 0.110D-02
 Coeff-Com: -0.236D-02-0.243D-01-0.948D-02 0.150D+00 0.884D+00
 Coeff:      0.181D-05-0.243D-04-0.229D-04 0.529D-04 0.634D-03 0.110D-02
 Coeff:     -0.236D-02-0.243D-01-0.948D-02 0.150D+00 0.884D+00
 Gap=     0.276 Goal=   None    Shift=    0.000
 RMSDP=2.74D-09 MaxDP=6.30D-08 DE=-5.68D-14 OVMax= 1.14D-07

 SCF Done:  E(RM062X) =  -213.736058067     A.U. after   11 cycles
            NFock= 11  Conv=0.27D-08     -V/T= 2.0047
 KE= 2.127425120932D+02 PE=-8.669376448990D+02 EE= 2.548714370737D+02
 Leave Link  502 at Sun Oct 13 20:26:44 2019, MaxMem= 10737418240 cpu:             129.5 elap:               5.4
 (Enter /apps/cent7/gaussian/g16-A.03/g16-haswell/g16/l701.exe)
 ... and contract with generalized density number  0.
 Compute integral first derivatives.
 Leave Link  701 at Sun Oct 13 20:26:44 2019, MaxMem= 10737418240 cpu:               3.0 elap:               0.1
 (Enter /apps/cent7/gaussian/g16-A.03/g16-haswell/g16/l702.exe)
 L702 exits ... SP integral derivatives will be done elsewhere.
 Leave Link  702 at Sun Oct 13 20:26:44 2019, MaxMem= 10737418240 cpu:               0.5 elap:               0.0
 (Enter /apps/cent7/gaussian/g16-A.03/g16-haswell/g16/l703.exe)
 Integral derivatives from FoFJK, PRISM(SPDF).
 Compute integral first derivatives, UseDBF=F ICtDFT=           0.
 Calling FoFJK, ICntrl=      2127 FMM=F ISym2X=0 I1Cent= 0 IOpClX= 0 NMat=1 NMatS=1 NMatT=0.
 FoFJK:  IHMeth= 1 ICntrl=    2127 DoSepK=F KAlg= 0 I1Cent=           0 FoldK=F
 IRaf=         0 NMat=       1 IRICut=       1 DoRegI=T DoRafI=F ISym2E= 0 IDoP0=0 IntGTp=1.
 FoFCou: FMM=F IPFlag=           0 FMFlag=      100000 FMFlg1=         800
         NFxFlg=           0 DoJE=F BraDBF=F KetDBF=F FulRan=T
         wScrn=  0.000000 ICntrl=      2127 IOpCl=  0 I1Cent=           0 NGrid=           0
         NMat0=    1 NMatS0=      1 NMatT0=    0 NMatD0=    1 NMtDS0=    0 NMtDT0=    0
 Symmetry not used in FoFCou.
 Leave Link  703 at Sun Oct 13 20:26:45 2019, MaxMem= 10737418240 cpu:              23.2 elap:               1.0
 (Enter /apps/cent7/gaussian/g16-A.03/g16-haswell/g16/l716.exe)
 Dipole        =-6.50610939D-03 6.55146028D-03-2.57231647D-02
 ***** Axes restored to original set *****
 -------------------------------------------------------------------
 Center     Atomic                   Forces (Hartrees/Bohr)
 Number     Number              X              Y              Z
 -------------------------------------------------------------------
      1        6          -0.005449949    0.003826693    0.004469011
      2        6           0.020793990    0.001500109   -0.006787328
      3        6          -0.019885453   -0.004437217    0.005509542
      4        6           0.023094352    0.007121186   -0.003336745
      5        7          -0.007452516   -0.005648236   -0.005047543
      6        1           0.001362124    0.000219987   -0.000093687
      7        1           0.000683997   -0.002054993   -0.000370999
      8        1          -0.000751526   -0.000069555   -0.000905382
      9        1          -0.004359451   -0.001707765    0.004279364
     10        1          -0.008274276    0.000762043   -0.001209472
     11        1           0.005346545    0.002322129   -0.004825694
     12        1           0.006807821   -0.000945298    0.001058888
     13        1          -0.005273920   -0.002160640    0.004052169
     14        1          -0.007515685    0.000238657   -0.000275734
     15        1          -0.000130082    0.000334817    0.001582519
     16        1           0.001004030    0.000698083    0.001901090
 -------------------------------------------------------------------
 Cartesian Forces:  Max     0.023094352 RMS     0.006513412
 Leave Link  716 at Sun Oct 13 20:26:45 2019, MaxMem= 10737418240 cpu:               0.4 elap:               0.0
 (Enter /apps/cent7/gaussian/g16-A.03/g16-haswell/g16/l103.exe)

 GradGradGradGradGradGradGradGradGradGradGradGradGradGradGradGradGradGrad
 Berny optimization.
 Using GEDIIS/GDIIS optimizer.
 FormGI is forming the generalized inverse of G from B-inverse, IUseBI=4.
 Internal  Forces:  Max     0.007831378 RMS     0.002125183
 Search for a local minimum.
 Step number   2 out of a maximum of   85
 All quantities printed in internal units (Hartrees-Bohrs-Radians)
 RMS Force = .21252D-02 SwitMx=.10000D-02 MixMth= 1
 Mixed Optimization -- RFO/linear search
 Update second derivatives using D2CorX and points    1    2
 DE= -1.29D-02 DEPred=-1.18D-02 R= 1.09D+00
 TightC=F SS=  1.41D+00  RLast= 4.80D-01 DXNew= 5.0454D-01 1.4388D+00
 Trust test= 1.09D+00 RLast= 4.80D-01 DXMaxT set to 5.05D-01
 ITU=  1  0
 Use linear search instead of GDIIS.
     Eigenvalues ---    0.00230   0.00230   0.00231   0.00823   0.00830
     Eigenvalues ---    0.03783   0.03794   0.03947   0.04686   0.04944
     Eigenvalues ---    0.05430   0.05472   0.05482   0.07805   0.07834
     Eigenvalues ---    0.08855   0.11817   0.11831   0.12470   0.15802
     Eigenvalues ---    0.16000   0.16000   0.16000   0.16136   0.21998
     Eigenvalues ---    0.22113   0.23534   0.27432   0.27756   0.28595
     Eigenvalues ---    0.34722   0.34808   0.34809   0.34811   0.34813
     Eigenvalues ---    0.34814   0.34814   0.34820   0.34853   0.36625
     Eigenvalues ---    0.45968   0.46383
 RFO step:  Lambda=-3.91729134D-03 EMin= 2.29611576D-03
 Quartic linear search produced a step of  0.50666.
 Iteration  1 RMS(Cart)=  0.07182705 RMS(Int)=  0.00425771
 Iteration  2 RMS(Cart)=  0.00463588 RMS(Int)=  0.00107051
 Iteration  3 RMS(Cart)=  0.00001507 RMS(Int)=  0.00107044
 Iteration  4 RMS(Cart)=  0.00000000 RMS(Int)=  0.00107044
 ITry= 1 IFail=0 DXMaxC= 2.27D-01 DCOld= 1.00D+10 DXMaxT= 5.05D-01 DXLimC= 3.00D+00 Rises=F
 Variable       Old X    -DE/DX   Delta X   Delta X   Delta X     New X
                                 (Linear)    (Quad)   (Total)
    R1        2.92484  -0.00511   0.00138  -0.02772  -0.02634   2.89850
    R2        2.06156   0.00054   0.00095   0.00153   0.00248   2.06404
    R3        2.06028   0.00082   0.00021   0.00329   0.00350   2.06378
    R4        2.06424   0.00005   0.00221  -0.00156   0.00065   2.06489
    R5        2.91597  -0.00408  -0.00827  -0.01490  -0.02318   2.89279
    R6        2.06223   0.00073   0.00124   0.00208   0.00332   2.06555
    R7        2.06178   0.00083   0.00102   0.00266   0.00367   2.06546
    R8        2.90370  -0.00211  -0.01084  -0.00231  -0.01315   2.89056
    R9        2.06683   0.00099   0.00352   0.00137   0.00489   2.07173
   R10        2.06280   0.00044   0.00153   0.00061   0.00214   2.06494
   R11        2.75875  -0.00783  -0.00504  -0.02750  -0.03254   2.72621
   R12        2.05989   0.00138   0.00007   0.00571   0.00579   2.06567
   R13        2.06878   0.00168   0.00453   0.00344   0.00797   2.07675
   R14        1.89354   0.00004  -0.00770   0.00616  -0.00154   1.89199
   R15        1.89006   0.00050  -0.00934   0.00893  -0.00041   1.88964
    A1        1.93782   0.00012   0.01374  -0.01133   0.00221   1.94003
    A2        1.93113   0.00235   0.01038   0.01475   0.02493   1.95606
    A3        1.93391  -0.00021   0.01181  -0.01314  -0.00150   1.93241
    A4        1.88642  -0.00109  -0.01229   0.00331  -0.00922   1.87720
    A5        1.88479  -0.00029  -0.01309   0.00425  -0.00899   1.87579
[...]
     6          2.36562109          4.75212565         -1.73951093
     7          3.99506821          6.76194666         -2.71647933
     1          4.28089363         -2.95326252         -2.38743650
     1          1.13014556         -4.05145570         -2.29897152
     1          2.28606024         -2.50353097         -5.02142985
     1         -0.45104018          0.40443455         -2.44021890
     1          1.53162780         -0.04202660          0.17827353
     1          5.14256082          1.83167457         -2.23907416
     1          3.15919141          2.30535563         -4.85987444
     1          0.43141191          5.15168588         -2.35159241
     1          2.33515344          4.64792441          0.33723823
     1          5.79922019          6.50308346         -2.12111021
     1          3.43384018          8.47659577         -2.07393368

 Electric dipole moment (dipole orientation):
 (Debye = 10**-18 statcoulomb cm , SI units = C m)
                  (au)            (Debye)         (10**-30 SI)
   Tot        0.528230D+00      0.134263D+01      0.447852D+01
   x          0.000000D+00      0.000000D+00      0.000000D+00
   y          0.000000D+00      0.000000D+00      0.000000D+00
   z          0.528230D+00      0.134263D+01      0.447852D+01

 Dipole polarizability, Alpha (dipole orientation).
 (esu units = cm**3 , SI units = C**2 m**2 J**-1)
 Alpha(0;0):
               (au)            (10**-24 esu)      (10**-40 SI)
   iso        0.588011D+02      0.871342D+01      0.969499D+01
   aniso      0.145907D+02      0.216213D+01      0.240569D+01
   xx         0.549159D+02      0.813769D+01      0.905440D+01
   yx         0.250339D+01      0.370964D+00      0.412753D+00
   yy         0.677888D+02      0.100453D+02      0.111769D+02
   zx        -0.172552D+01     -0.255696D+00     -0.284500D+00
   zy         0.874624D+00      0.129606D+00      0.144206D+00
   zz         0.536987D+02      0.795732D+01      0.885372D+01

 ----------------------------------------------------------------------
 1\1\GINC-BROWN-A467\Freq\RM062X\6-311++G(d,p)\C4H11N1\FINEJ\13-Oct-201
 9\0\\#P Geom=AllCheck Guess=TCheck SCRF=Check GenChk RM062X/6-311++G(d
 ,p) Freq\\Title Card Required\\0,1\C,1.8146482832,-0.6460180209,-1.432
 4987785\C,1.0954474346,0.3703675321,-0.5488922109\C,1.99496703,1.53895
 76981,-0.1543656378\C,1.2886065098,2.5586662042,0.7286584779\N,2.18890
 90292,3.6676761535,1.0472102726\H,2.6831817056,-1.0634352359,-0.916472
 0451\H,1.1587369622,-1.4738377418,-1.7085924398\H,2.1701613608,-0.1769
 668671,-2.3534035716\H,0.2146497981,0.7558084118,-1.0737447522\H,0.724
 4142507,-0.12512669,0.3547900181\H,2.876609832,1.1548657071,0.37474080
 15\H,2.365767705,2.049360615,-1.0488869074\H,0.4310683249,2.968498384,
 0.1865184372\H,0.8912288246,2.0478739315,1.6187225663\H,2.9793765668,3
 .3343922986,1.5890503764\H,1.7191263824,4.3685176198,1.6086653933\\Ver
 sion=ES64L-G16RevA.03\State=1-A\HF=-213.7478552\RMSD=8.401e-10\RMSF=2.
 440e-06\ZeroPoint=0.1508119\Thermal=0.1508119\Dipole=-0.1859138,-0.222
 1923,0.4416945\DipoleDeriv=0.0628468,-0.0113382,0.002328,0.011625,0.01
 63185,-0.0504784,0.0174286,-0.0407525,0.0563923,0.0936166,0.0123308,0.
 0198197,-0.0089294,0.0912335,-0.0259959,0.0057363,-0.0321426,0.1173023
 ,0.0702415,0.0172826,0.0455367,-0.0349242,0.0085907,-0.0751514,0.04126
 ,-0.0752274,0.0630655,0.2886639,0.163522,0.0212999,0.1759745,0.4631619
 ,0.0259762,0.0741677,0.1036353,0.3197538,-0.4069555,-0.2183747,0.02869
 26,-0.2013847,-0.6632323,-0.038959,0.031457,-0.0171129,-0.4736266,-0.0
 73606,0.0935938,-0.0465161,0.0520417,0.0299839,0.0043941,-0.0945849,0.
 038921,-0.0032249,-0.0114205,-0.1040277,-0.0316545,-0.0701395,-0.09711
 13,-0.083053,-0.0112359,-0.070624,0.0381707,0.0372151,0.0048813,0.0671
 229,-0.0315081,0.0067456,0.0984424,0.0660131,0.036123,-0.0836799,-0.10
 41223,0.0457726,-0.0653701,0.0860194,-0.0148947,0.0161602,-0.079107,0.
 0098548,0.0043534,0.0135537,-0.0335403,0.0510898,-0.0344831,-0.0123448
 ,0.0393486,0.0894292,0.060335,-0.1152096,-0.1066964,0.0437318,-0.07054
 66,0.0644998,-0.0008734,0.0173922,-0.1004679,0.0123344,-0.0140302,0.01
 80283,-0.0231392,0.0450254,-0.0365418,0.0044124,0.0538119,0.0673968,0.
 0488264,-0.0800392,-0.0969639,0.0328365,-0.0625571,0.0477289,-0.008075
 ,0.002755,-0.0950696,0.0273183,-0.0019829,-0.0426472,-0.0827578,0.0557
 772,-0.1122479,-0.114904,0.071579,0.094752,0.0688707,-0.1146773,0.1433
 676,0.0203227,-0.092341,0.0819976,0.1221324,0.040631,-0.1252532,0.0075
 68,0.1577227,0.1148782,0.0389039,0.0322931,0.0102718,0.1688566,-0.0968
 529,0.0180778,-0.1779274,0.1297099\Polar=55.6546348,1.3871186,64.06535
 2,-0.4876342,6.9103264,56.6833165\Quadrupole=-0.0216922,-1.7054409,1.7
 271331,-1.430302,0.9421506,1.9849031\PG=C01 [X(C4H11N1)]\NImag=0\\0.55
 392544,0.03462698,0.53862714,0.02727176,-0.03295744,0.54226655,-0.1097
 5475,0.03911163,0.03513287,0.54560249,0.04201543,-0.13210231,-0.047791
 14,-0.01621076,0.50048887,0.03691518,-0.04686147,-0.12109635,0.0078948
 3,-0.05339461,0.56010752,0.01204214,0.01268265,0.00323998,-0.12714403,
 -0.05678106,-0.01737072,0.54780302,-0.01349078,-0.02285367,-0.00882647
 ,-0.05574117,-0.14573556,-0.02091626,-0.00876019,0.51233585,-0.0129777
 0,-0.01847391,-0.00722482,-0.01619699,-0.02012326,-0.08709924,0.004471
 27,-0.05159492,0.56383026,-0.00419960,-0.00364988,-0.00094406,0.012559
 51,-0.01309100,-0.01328654,-0.11528162,0.03818727,0.03684138,0.5681402
 1,-0.00234997,-0.00223860,-0.00012079,0.00931615,-0.02020636,-0.014971
 94,0.04794767,-0.12472119,-0.04420383,-0.02417571,0.51372953,-0.000118
 38,0.00057237,-0.00055586,0.00067653,-0.00667021,-0.00603502,0.0417066
 6,-0.04283812,-0.12165083,0.02116966,-0.04725118,0.55493547,0.00095083
 ,0.00084271,0.00040991,-0.00207254,0.00183253,0.00189487,0.01102504,0.
 01195567,0.00182115,-0.15427990,-0.06248623,-0.00800229,0.58364260,-0.
 00183206,-0.00079795,-0.00027492,0.00451154,-0.00283095,-0.00248390,-0
 .02147360,-0.02934587,-0.01118143,-0.05870827,-0.17208420,-0.00869795,
 -0.14476139,0.53024824,-0.00092634,-0.00090847,0.00029641,0.00255771,-
 0.00207196,-0.00181800,-0.01540855,-0.01932982,-0.00489434,-0.03528993
 ,-0.04405183,-0.07179946,0.11377235,0.15479104,0.36679176,-0.21339422,
 0.07833766,-0.10209357,-0.01364285,0.00621790,-0.00756532,0.00058277,-
 0.00102122,-0.00029709,0.00024961,-0.00021799,0.00012894,0.00006996,0.
 00010350,0.00009553,0.23139216,0.07794207,-0.08462300,0.04880219,0.017
 57792,-0.00950233,0.01095081,0.00102571,0.00098259,0.00147300,-0.00007
 392,0.00001173,-0.00022954,-0.00014911,0.00000780,-0.00004830,-0.08888
 086,0.09029615,-0.10273376,0.04938272,-0.10999533,0.01692138,-0.008640
 69,0.01011488,0.00073369,0.00071030,0.00096829,0.00029595,-0.00002260,
 0.00004403,-0.00009639,0.00012788,-0.00000726,0.11057442,-0.05095858,0
 .11720564,-0.14843452,-0.12518952,-0.04107483,0.01156820,0.01436182,0.
 00420605,-0.00176628,0.00176402,0.00184040,0.00089945,0.00053697,0.000
 23177,-0.00016246,0.00029934,0.00018029,-0.01516242,-0.01954537,-0.004
 76312,0.15823833,-0.12410462,-0.20013632,-0.04970494,-0.01377880,-0.01
 531790,-0.00357677,0.00413095,-0.00198520,-0.00289410,-0.00144054,-0.0
 0018758,0.00006857,0.00025882,-0.00062816,-0.00035022,0.00790187,0.010
 64003,0.00294144,0.13484082,0.21678385,-0.04039400,-0.04933214,-0.0636
 5621,-0.01318985,-0.01362266,-0.00522291,0.00327835,-0.00199463,-0.002
 19071,-0.00100755,-0.00069455,0.00059540,0.00023166,-0.00048750,-0.000
 29833,-0.00910373,-0.01253554,-0.00459721,0.04315064,0.05685691,0.0661
 5448,-0.07439692,-0.03776480,0.07027165,-0.00614632,-0.00734236,0.0145
 9570,0.00024747,-0.00055573,-0.00087984,-0.00004637,-0.00006606,-0.000
 13370,0.00002780,0.00012737,-0.00002801,0.00954513,0.01172446,-0.02226
 527,-0.00664256,-0.00801703,0.01730293,0.07780893,-0.03818095,-0.09916
 592,0.09994896,0.00711544,0.00988289,-0.02071423,0.00058232,0.00191889
 ,-0.00042607,0.00027952,0.00005067,-0.00024721,-0.00011829,0.00001449,
 0.00016151,-0.00434658,-0.00610671,0.00883843,-0.00609693,-0.01063363,
 0.02078204,0.03942367,0.10618913,0.07045204,0.09901630,-0.23506223,0.0
 0603846,0.00806559,-0.01668483,0.00008616,0.00147729,0.00040600,-0.000
 04088,-0.00021729,0.00024837,-0.00009507,-0.00018744,0.00005312,0.0052
 4255,0.00637741,-0.01285914,-0.00280063,-0.00383029,0.00822888,-0.0802
 0824,-0.10646470,0.25539946,-0.01231496,0.00601658,-0.00697067,-0.2110
 0155,0.07253252,-0.09957414,-0.01755446,0.00628459,-0.01100092,0.00001
 345,0.00099072,0.00034602,0.00052410,-0.00031523,0.00031184,-0.0003850
 8,0.00190286,0.00218242,0.00069267,0.00003866,0.00013175,-0.00000225,-
 0.00053290,-0.00006535,0.23130396,0.01839008,-0.00944234,0.01080994,0.
 07284406,-0.08007905,0.04676691,-0.02157124,0.00825885,-0.01434430,-0.
 00111424,0.00142936,-0.00005557,0.00006506,0.00001815,0.00009789,0.001
 96615,-0.00235408,-0.00347928,-0.00046888,0.00012241,0.00055112,-0.000
 60080,0.00099638,-0.00014258,-0.07948986,0.08991612,0.01754930,-0.0083
 9080,0.00991183,-0.10076639,0.04699388,-0.11138400,-0.00659245,0.00238
 173,-0.00501914,-0.00078306,0.00083998,0.00005666,0.00041052,-0.000312
 88,0.00001577,0.00263160,-0.00320510,-0.00166073,-0.00065479,0.0006884
 9,0.00068101,-0.00026180,0.00075689,0.00088751,0.11005094,-0.04628035,
 0.11861790,-0.00565902,-0.00674048,0.01375168,-0.07637227,-0.03729491,
 0.06773913,-0.00769979,-0.01083497,0.01743561,0.00012975,0.00074148,0.
 00063321,0.00012943,0.00021026,-0.00030627,0.00005572,-0.00069264,-0.0
 0023024,0.00057565,0.00004183,-0.00055802,-0.00086670,0.00221116,0.001
 91587,0.00923662,0.01183014,-0.02177147,0.08152140,0.00827824,0.010297
 21,-0.02114490,-0.03807993,-0.10073769,0.09911679,-0.00834051,-0.01381
 074,0.02145815,-0.00075613,0.00035574,0.00208737,0.00047694,0.00019210
 ,-0.00073553,-0.00045525,0.00085475,0.00081937,-0.00070681,0.00088755,
 0.00052296,0.00270515,-0.00272724,-0.00325312,-0.00377973,-0.00596044,
 0.00931202,0.04304163,0.11284233,0.00607258,0.00786219,-0.01647670,0.0
 6850068,0.09875988,-0.22478270,-0.00274858,-0.00442465,0.00764662,-0.0
 0026721,-0.00020954,0.00055461,-0.00019310,-0.00017121,0.00011585,0.00
 009133,-0.00002465,0.00098480,-0.00054971,-0.00006348,0.00007039,0.001
 83896,-0.00334066,-0.00079996,0.00484368,0.00704547,-0.01347381,-0.077
 19634,-0.10422034,0.24480838,0.00073231,0.00090041,0.00071165,-0.01762
 612,0.00633363,-0.01077638,-0.20608104,0.07158560,-0.09783403,-0.01479
 181,0.00644763,-0.00851912,0.00145917,-0.00110754,0.00017789,0.0006637
 1,-0.00059016,-0.00035380,0.00021734,-0.00012079,0.00033458,0.00000617
 ,-0.00012007,0.00001598,-0.00160096,-0.00334577,-0.00055104,0.00029405
 ,0.00029737,0.00047791,0.22790090,-0.00082947,0.00171094,0.00023170,-0
 .02166022,0.00783272,-0.01435717,0.07192409,-0.07925926,0.04589524,0.0
 1885052,-0.01022745,0.01129458,-0.00004240,0.00159803,0.00089359,0.000
 52236,-0.00027862,0.00024832,0.00006309,0.00016709,0.00029309,0.000124
 44,-0.00005351,-0.00002542,-0.00343661,-0.00369370,-0.00184809,0.00069
 573,0.00109688,0.00048901,-0.07869904,0.08878140,-0.00042071,0.0007858
 3,0.00010737,-0.00682540,0.00288159,-0.00509059,-0.09868992,0.04560610
 ,-0.11109168,0.01703917,-0.00908358,0.00933387,0.00073840,0.00148321,0
 .00105963,0.00025166,-0.00065838,-0.00003304,0.00034569,-0.00008985,0.
 00013289,-0.00007025,0.00007624,-0.00007824,-0.00073277,-0.00191578,0.
 00074565,0.00041919,-0.00042658,0.00062960,0.10851742,-0.04564515,0.11
 760944,0.00043242,0.00105187,0.00023726,-0.00742711,-0.01020864,0.0165
 1097,-0.07562368,-0.03804393,0.06809859,-0.00702601,-0.00757908,0.0155
 5510,0.00084953,-0.00042048,-0.00157611,0.00000155,-0.00002340,-0.0001
 7675,-0.00010729,0.00025080,-0.00011725,0.00049703,-0.00014164,-0.0004
 0994,0.00029735,0.00064654,0.00046546,-0.00184498,-0.00302299,-0.00091
 160,0.00866516,0.01215534,-0.02175145,0.08229453,-0.00005600,0.0010141
 1,0.00147981,-0.00809032,-0.01344651,0.02050061,-0.03935105,-0.1038731
 0,0.10303917,0.00795337,0.00918489,-0.02084818,0.00021772,0.00146613,0
 .00102664,0.00003000,-0.00006375,0.00000868,0.00014049,0.00040168,-0.0
 0030364,0.00028300,-0.00026265,-0.00096535,0.00032265,0.00105273,-0.00
 037413,-0.00313154,-0.00308843,-0.00203162,-0.00361313,-0.00567555,0.0
 0899808,0.04385190,0.11488226,-0.00042631,0.00007032,0.00110266,-0.003
 06300,-0.00540826,0.00795322,0.06861860,0.10128773,-0.22480201,0.00755
 876,0.00902170,-0.01817258,-0.00120842,0.00078078,0.00168983,0.0001039
 0,0.00002703,-0.00006284,-0.00009205,0.00009407,0.00022575,-0.00004900
 ,0.00043958,0.00005163,0.00052408,0.00052848,0.00056540,-0.00121074,-0
 .00239422,0.00055012,0.00484127,0.00691808,-0.01321102,-0.07755948,-0.
 10807610,0.24393553,0.00028939,-0.00012088,0.00030232,0.00033525,-0.00
 082411,-0.00040273,-0.01332002,0.00761832,-0.00735924,-0.20052587,0.07
 516867,-0.09823662,-0.02104712,0.00432430,-0.01110931,0.00007050,-0.00
 022125,-0.00010914,0.00003513,0.00003455,0.00005320,-0.00006084,0.0000
 1312,0.00001138,0.00071766,0.00042291,0.00021107,0.00001706,0.00003720
 ,0.00014645,-0.00065486,0.00179054,0.00204184,0.00015513,-0.00045899,-
 0.00012642,0.22540249,-0.00021881,-0.00006803,-0.00027006,0.00104859,0
 .00088922,0.00111445,0.01752407,-0.01018222,0.01116750,0.08279326,-0.0
 8942361,0.05533562,-0.02792684,0.00861657,-0.01504428,-0.00021054,0.00
 018319,0.00002916,-0.00004536,-0.00003094,-0.00005563,0.00002670,0.000
 02407,0.00003133,-0.00064367,-0.00030067,-0.00070414,-0.00000090,-0.00
 001287,0.00001072,0.00168588,-0.00241030,-0.00342910,-0.00076183,0.000
 97562,-0.00013518,-0.08056067,0.09965161,0.00026000,0.00002344,0.00008
 220,0.00052128,0.00067336,0.00079260,0.01639678,-0.00872914,0.01007544
 ,-0.10070139,0.05303164,-0.11661954,-0.00817250,-0.00020171,-0.0030176
 7,-0.00009821,0.00001929,-0.00010344,-0.00008577,0.00008494,-0.0000034
 5,0.00001667,0.00000344,-0.00001615,-0.00025625,0.00016552,0.00002335,
 -0.00014714,-0.00004296,-0.00005585,0.00229849,-0.00334672,-0.00144541
 ,-0.00017369,0.00061256,0.00105071,0.11102645,-0.05242251,0.12327225,0
 .00004412,0.00022382,-0.00022598,0.00007193,-0.00070238,-0.00030614,-0
 .00550246,-0.00637529,0.01585768,-0.07823408,-0.03116934,0.06337066,-0
 .01171276,-0.01918287,0.01400671,-0.00004269,-0.00000449,0.00003133,0.
 00001707,0.00006738,-0.00002316,0.00003598,-0.00011680,-0.00016596,-0.
 00000177,0.00018413,-0.00001844,0.00054179,0.00035387,-0.00018352,0.00
 024791,-0.00084883,-0.00036111,-0.00103263,0.00187095,0.00200164,0.009
 42666,0.01090202,-0.02049656,0.08539206,0.00013183,0.00011428,-0.00017
 928,0.00073198,0.00144358,-0.00013920,0.00725958,0.00899617,-0.0197251
 1,-0.03203485,-0.09579452,0.09023918,-0.01860447,-0.02086728,0.0157158
 2,0.00001061,0.00001363,0.00001381,-0.00005124,-0.00001658,0.00008816,
 -0.00004943,-0.00014162,0.00010808,-0.00015798,-0.00000125,0.00003408,
 -0.00007590,-0.00020127,0.00021709,-0.00041672,0.00082751,0.00080042,0
 .00212281,-0.00270494,-0.00322299,-0.00355732,-0.00509172,0.01195296,0
 .04385812,0.11234964,-0.00026133,-0.00053577,0.00030199,0.00054432,0.0
 0140368,0.00000980,0.00625331,0.00865073,-0.01805417,0.06362214,0.0888
 4615,-0.21814735,-0.00383534,-0.00588432,0.01333020,0.00002153,0.00006
 064,-0.00001222,-0.00000675,-0.00013589,-0.00004792,-0.00013850,0.0001
 7888,0.00027868,0.00000972,-0.00000944,-0.00004895,-0.00046595,-0.0011
 2756,0.00027522,0.00010121,-0.00016965,0.00117415,0.00213576,-0.003245
 83,-0.00097050,0.00514046,0.00695265,-0.01402934,-0.07406855,-0.095944
 67,0.23372582,0.00008950,-0.00002401,0.00007382,0.00002374,0.00009972,
 0.00028627,0.00156442,0.00007548,0.00054530,-0.02013615,0.00794678,-0.
 01489993,-0.26291325,0.09870984,-0.15312398,-0.00000292,0.00000308,-0.
 00003433,-0.00002345,0.00001792,0.00000760,-0.00000163,0.00001229,0.00
 003087,0.00004091,0.00013843,0.00009711,-0.00011399,-0.00010168,0.0000
 3539,0.00036221,-0.00032319,-0.00071129,0.00000471,-0.00006310,0.00024
 858,-0.00119731,-0.00423719,0.00000163,0.00046884,0.00107447,0.0008557
 8,0.29598346,0.00011493,-0.00000741,0.00004688,0.00003357,-0.00037062,
 0.00008934,-0.00158581,0.00221692,-0.00017670,-0.02727031,0.00909914,-
 0.01667569,0.11967499,-0.10153321,0.05481879,0.00002545,-0.00005915,-0
 .00003905,-0.00000232,0.00003604,0.00002795,-0.00000785,-0.00001050,0.
 00001131,0.00029592,0.00004115,0.00015729,-0.00004249,0.00002510,-0.00
 000689,0.00094762,-0.00066817,0.00036213,0.00018810,-0.00005952,0.0001
 5186,-0.00378119,-0.00381630,-0.00181603,-0.00010449,0.00069819,0.0001
 1586,-0.10908666,0.10362703,0.00006577,-0.00001823,-0.00000165,0.00023
 742,-0.00055366,0.00005329,-0.00091235,0.00078798,-0.00024131,-0.00237
 721,0.00766154,-0.00608865,-0.19809107,0.06075995,-0.14648782,0.000003
 18,-0.00006117,-0.00000254,0.00001698,0.00002242,0.00001848,-0.0000152
 3,-0.00001583,-0.00003896,0.00026174,0.00020324,0.00013962,0.00010609,
 0.00014851,-0.00004465,0.00036019,-0.00093180,0.00003209,-0.00015801,-
 0.00009389,-0.00040751,-0.00124242,-0.00236418,0.00025529,0.00109638,-
 0.00059090,0.00119966,0.17870301,-0.05643482,0.14244077,-0.00035216,-0
 .00030473,-0.00009379,0.00102642,-0.00093832,-0.00076104,-0.00329148,-
 0.00264768,-0.00036558,0.01252943,-0.02105169,-0.01390852,-0.14649044,
 0.13951529,0.08666618,-0.00000092,0.00000510,0.00002361,0.00005515,-0.
 00012182,-0.00009713,-0.00000491,0.00001664,-0.00000721,0.00003431,0.0
 0010329,-0.00001655,0.00005528,0.00005264,0.00004307,0.00020586,-0.000
 28634,0.00020955,-0.00013570,0.00009407,-0.00016141,0.00035677,0.00062
 529,-0.00038981,0.00028003,-0.00024149,0.00009219,-0.01414907,0.020600
 53,0.02194554,0.14988143,-0.00043689,-0.00032814,-0.00004955,0.0012703
 2,-0.00020799,-0.00112337,-0.00521358,-0.00294245,0.00011056,0.0142509
 1,-0.01897756,-0.01608406,0.11876428,-0.21407389,-0.14496487,0.0000169
 4,-0.00000222,0.00002009,0.00009989,-0.00010236,-0.00009596,-0.0000107
 3,0.00002525,-0.00000110,-0.00002850,-0.00000362,-0.00004886,0.0000416
 0,-0.00001298,0.00010867,-0.00018491,0.00025198,0.00025483,-0.00006537
 ,0.00019703,-0.00008288,0.00011482,0.00099635,-0.00000807,0.00104421,0
 .00037618,0.00084455,0.00575779,-0.00921871,-0.00851917,-0.13542078,0.
 24402313,-0.00032808,-0.00023494,0.00000013,0.00101616,-0.00050153,0.0
 0018234,-0.00306222,-0.00224786,-0.00065834,0.00817078,0.00142611,-0.0
 0669912,0.10041532,-0.18805960,-0.15502968,0.00001327,0.00001088,0.000
 01609,0.00005584,-0.00011131,-0.00009054,0.00002394,0.00002275,-0.0000
 1412,-0.00006208,0.00005873,-0.00005807,-0.00011461,-0.00011998,-0.000
 00192,0.00019778,0.00006040,0.00012530,-0.00016886,0.00027319,0.000501
 64,-0.00034729,-0.00021635,-0.00026099,-0.00051498,0.00063255,0.001014
 92,-0.01211583,0.01936778,0.00917388,-0.09317911,0.16963918,0.15179848
 \\0.00000160,-0.00000169,-0.00000445,-0.00000239,-0.00000114,0.0000031
 7,0.00000428,-0.00000283,-0.00000121,-0.00000808,-0.00000287,0.0000028
 6,0.00000583,0.00000542,-0.00000263,-0.00000191,0.00000137,-0.00000010
 ,-0.00000134,0.00000177,0.00000018,0.00000042,0.,-0.00000209,0.0000009
 4,-0.00000031,-0.00000062,-0.00000028,0.00000129,0.00000071,-0.0000007
 9,0.00000057,-0.00000052,-0.00000041,-0.00000093,0.00000050,-0.0000005
 1,-0.00000105,0.,0.00000091,0.00000029,-0.00000079,0.00000377,-0.00000
 193,0.00000181,-0.00000203,0.00000203,0.00000318\\\@


 NOTHING PUZZLES ME MORE THAN TIME AND SPACE; AND YET NOTHING TROUBLES ME LESS
                                                          -- CHARLES LAMB (1810)
 Job cpu time:       0 days  0 hours 17 minutes 53.5 seconds.
 Elapsed time:       0 days  0 hours  0 minutes 45.3 seconds.
 File lengths (MBytes):  RWF=     54 Int=      0 D2E=      0 Chk=      4 Scr=      1
 Normal termination of Gaussian 16 at Sun Oct 13 20:28:51 2019.
real 143.10
user 3263.43
sys 17.75
Machine:
brown-a467
brown-a467
brown-a467
brown-a467
brown-a467
brown-a467
brown-a467
brown-a467
brown-a467
brown-a467
brown-a467
brown-a467
brown-a467
brown-a467
brown-a467
brown-a467
brown-a467
brown-a467
brown-a467
brown-a467
brown-a467
brown-a467
brown-a467
brown-a467
