Title Card Required                                                     
Freq      RM062X                                                      6-311++G(d,p)       
Number of atoms                            I               17
Info1-9                                    I   N=           9
          44          44        1002           0           0         100
           6          18        -502
Full Title                                 C   N=           2
Title Card Required     
Route                                      C   N=           6
#P opt freq m062x/6-311++g(d,p) geom=connectivity temperatur
e=0.001     
Charge                                     I                1
Multiplicity                               I                1
Number of electrons                        I               42
Number of alpha electrons                  I               21
Number of beta electrons                   I               21
Number of basis functions                  I              194
Number of independent functions            I              194
Number of point charges in /Mol/           I                0
Number of translation vectors              I                0
Atomic numbers                             I   N=          17
           6           6           6           6           7           1
           1           1           1           1           1           1
           1           1           1           1           1
Nuclear charges                            R   N=          17
  6.00000000E+00  6.00000000E+00  6.00000000E+00  6.00000000E+00  7.00000000E+00
  1.00000000E+00  1.00000000E+00  1.00000000E+00  1.00000000E+00  1.00000000E+00
  1.00000000E+00  1.00000000E+00  1.00000000E+00  1.00000000E+00  1.00000000E+00
  1.00000000E+00  1.00000000E+00
Current cartesian coordinates              R   N=          51
 -4.86554487E+00 -6.27227303E-01 -9.21919321E-05 -2.48976473E+00  1.00792312E+00
  7.98054307E-05 -8.67628320E-02 -6.07445449E-01  1.13421530E-04  2.25649139E+00
  1.04449548E+00 -8.85214711E-05  4.62306346E+00 -5.82801881E-01 -1.20726518E-05
 -4.93567139E+00 -1.83581634E+00  1.67116652E+00 -6.55606292E+00  5.48655826E-01
  4.65125310E-04 -4.93610134E+00 -1.83483449E+00 -1.67201813E+00 -2.48298197E+00
  2.23895193E+00 -1.66111058E+00 -2.48310407E+00  2.23879129E+00  1.66141951E+00
 -8.43793447E-02 -1.83202119E+00  1.67092875E+00 -8.44410344E-02 -1.83249173E+00
 -1.67037433E+00  2.37371267E+00  2.23381991E+00 -1.67836675E+00  2.37390353E+00
  2.23417050E+00  1.67794176E+00  4.66179389E+00 -1.73099567E+00  1.55862010E+00
  4.66207418E+00 -1.73053945E+00 -1.55898713E+00  6.24329989E+00  4.75447520E-01
  3.24583639E-04
Number of symbols in /Mol/                 I                0
Force Field                                I                0
Atom Types                                 C   N=          17
                                                            
                                                            
                                                            
                        
Int Atom Types                             I   N=          17
           0           0           0           0           0           0
           0           0           0           0           0           0
           0           0           0           0           0
MM charges                                 R   N=          17
  0.00000000E+00  0.00000000E+00  0.00000000E+00  0.00000000E+00  0.00000000E+00
  0.00000000E+00  0.00000000E+00  0.00000000E+00  0.00000000E+00  0.00000000E+00
  0.00000000E+00  0.00000000E+00  0.00000000E+00  0.00000000E+00  0.00000000E+00
  0.00000000E+00  0.00000000E+00
Integer atomic weights                     I   N=          17
          12          12          12          12          14           1
           1           1           1           1           1           1
           1           1           1           1           1
Real atomic weights                        R   N=          17
  1.20000000E+01  1.20000000E+01  1.20000000E+01  1.20000000E+01  1.40030740E+01
  1.00782504E+00  1.00782504E+00  1.00782504E+00  1.00782504E+00  1.00782504E+00
  1.00782504E+00  1.00782504E+00  1.00782504E+00  1.00782504E+00  1.00782504E+00
  1.00782504E+00  1.00782504E+00
Atom fragment info                         I   N=          17
           0           0           0           0           0           0
           0           0           0           0           0           0
           0           0           0           0           0
Atom residue num                           I   N=          17
           0           0           0           0           0           0
           0           0           0           0           0           0
           0           0           0           0           0
Nuclear spins                              I   N=          17
           0           0           0           0           2           1
           1           1           1           1           1           1
           1           1           1           1           1
Nuclear ZEff                               R   N=          17
 -3.60000000E+00 -3.60000000E+00 -3.60000000E+00 -3.60000000E+00 -4.55000000E+00
 -1.00000000E+00 -1.00000000E+00 -1.00000000E+00 -1.00000000E+00 -1.00000000E+00
 -1.00000000E+00 -1.00000000E+00 -1.00000000E+00 -1.00000000E+00 -1.00000000E+00
 -1.00000000E+00 -1.00000000E+00
Nuclear ZNuc                               R   N=          17
  6.00000000E+00  6.00000000E+00  6.00000000E+00  6.00000000E+00  7.00000000E+00
  1.00000000E+00  1.00000000E+00  1.00000000E+00  1.00000000E+00  1.00000000E+00
  1.00000000E+00  1.00000000E+00  1.00000000E+00  1.00000000E+00  1.00000000E+00
  1.00000000E+00  1.00000000E+00
Nuclear QMom                               R   N=          17
  0.00000000E+00  0.00000000E+00  0.00000000E+00  0.00000000E+00  2.04400000E+00
  0.00000000E+00  0.00000000E+00  0.00000000E+00  0.00000000E+00  0.00000000E+00
  0.00000000E+00  0.00000000E+00  0.00000000E+00  0.00000000E+00  0.00000000E+00
  0.00000000E+00  0.00000000E+00
Nuclear GFac                               R   N=          17
  0.00000000E+00  0.00000000E+00  0.00000000E+00  0.00000000E+00  4.03761000E-01
  2.79284600E+00  2.79284600E+00  2.79284600E+00  2.79284600E+00  2.79284600E+00
  2.79284600E+00  2.79284600E+00  2.79284600E+00  2.79284600E+00  2.79284600E+00
  2.79284600E+00  2.79284600E+00
MicOpt                                     I   N=          17
          -1          -1          -1          -1          -1          -1
          -1          -1          -1          -1          -1          -1
          -1          -1          -1          -1          -1
Number of residues                         I                0
Number of secondary structures             I                0
Redundant internal dimensions              I   N=           4
          82          16          30          36
Redundant internal coordinate indices      I   N=         328
           1           2           0           0           1           6
           0           0           1           7           0           0
           1           8           0           0           2           3
           0           0           2           9           0           0
           2          10           0           0           3           4
           0           0           3          11           0           0
           3          12           0           0           4           5
           0           0           4          13           0           0
           4          14           0           0           5          15
           0           0           5          16           0           0
           5          17           0           0           2           1
           6           0           2           1           7           0
           2           1           8           0           6           1
           7           0           6           1           8           0
           7           1           8           0           1           2
           3           0           1           2           9           0
           1           2          10           0           3           2
           9           0           3           2          10           0
           9           2          10           0           2           3
           4           0           2           3          11           0
           2           3          12           0           4           3
          11           0           4           3          12           0
          11           3          12           0           3           4
           5           0           3           4          13           0
           3           4          14           0           5           4
          13           0           5           4          14           0
          13           4          14           0           4           5
          15           0           4           5          16           0
           4           5          17           0          15           5
          16           0          15           5          17           0
          16           5          17           0           6           1
           2           3           6           1           2           9
           6           1           2          10           7           1
           2           3           7           1           2           9
           7           1           2          10           8           1
           2           3           8           1           2           9
           8           1           2          10           1           2
           3           4           1           2           3          11
           1           2           3          12           9           2
           3           4           9           2           3          11
           9           2           3          12          10           2
           3           4          10           2           3          11
          10           2           3          12           2           3
           4           5           2           3           4          13
           2           3           4          14          11           3
           4           5          11           3           4          13
          11           3           4          14          12           3
           4           5          12           3           4          13
          12           3           4          14           3           4
           5          15           3           4           5          16
           3           4           5          17          13           4
           5          15          13           4           5          16
          13           4           5          17          14           4
           5          15          14           4           5          16
          14           4           5          17
Redundant internal coordinates             R   N=          82
  2.88410267E+00  2.06366443E+00  2.05926023E+00  2.06364475E+00  2.89548506E+00
  2.06761491E+00  2.06763886E+00  2.86701050E+00  2.07152487E+00  2.07153883E+00
  2.87206547E+00  2.06030368E+00  2.06031500E+00  1.93628079E+00  1.93629197E+00
  1.93521523E+00  1.93904394E+00  1.93104013E+00  1.93904600E+00  1.88210471E+00
  1.88835743E+00  1.88210328E+00  1.94694671E+00  1.91793671E+00  1.91793586E+00
  1.90651519E+00  1.90649739E+00  1.86618404E+00  1.93569019E+00  1.90790572E+00
  1.90799161E+00  1.91742510E+00  1.91746691E+00  1.87635284E+00  1.92516664E+00
  1.95969328E+00  1.95975481E+00  1.85481024E+00  1.85478439E+00  1.90378776E+00
  1.93102481E+00  1.93096165E+00  1.96064227E+00  1.87151304E+00  1.88323720E+00
  1.88326692E+00  1.05130650E+00 -3.11473095E+00 -1.06581829E+00  3.14129206E+00
 -1.02474539E+00  1.02416727E+00 -1.05190813E+00  1.06523973E+00  3.11415239E+00
  3.14145328E+00 -1.02496323E+00  1.02457562E+00  1.01768065E+00  3.13444944E+00
 -1.09919702E+00 -1.01797255E+00  1.09879624E+00 -3.13485022E+00  3.14157755E+00
 -1.07642128E+00  1.07638410E+00  1.03041942E+00  3.09560590E+00 -1.03477402E+00
 -1.03031437E+00  1.03487211E+00 -3.09550781E+00 -1.03549985E+00  1.03603032E+00
 -3.14133056E+00  3.11927596E+00 -1.09237919E+00  1.01344524E+00  1.09296821E+00
 -3.11868694E+00 -1.01286251E+00
ZRed-IntVec                                I   N=          82
           0           0           0           0           0           0
           0           0           0           0           0           0
           0           0           0           0           0           0
           0           0           0           0           0           0
           0           0           0           0           0           0
           0           0           0           0           0           0
           0           0           0           0           0           0
           0           0           0           0           0           0
           0           0           0           0           0           0
           0           0           0           0           0           0
           0           0           0           0           0           0
           0           0           0           0           0           0
           0           0           0           0           0           0
           0           0           0           0
ZRed-FPVec                                 R   N=          82
  0.00000000E+00  0.00000000E+00  0.00000000E+00  0.00000000E+00  0.00000000E+00
  0.00000000E+00  0.00000000E+00  0.00000000E+00  0.00000000E+00  0.00000000E+00
  0.00000000E+00  0.00000000E+00  0.00000000E+00  0.00000000E+00  0.00000000E+00
  0.00000000E+00  0.00000000E+00  0.00000000E+00  0.00000000E+00  0.00000000E+00
  0.00000000E+00  0.00000000E+00  0.00000000E+00  0.00000000E+00  0.00000000E+00
  0.00000000E+00  0.00000000E+00  0.00000000E+00  0.00000000E+00  0.00000000E+00
  0.00000000E+00  0.00000000E+00  0.00000000E+00  0.00000000E+00  0.00000000E+00
  0.00000000E+00  0.00000000E+00  0.00000000E+00  0.00000000E+00  0.00000000E+00
  0.00000000E+00  0.00000000E+00  0.00000000E+00  0.00000000E+00  0.00000000E+00
  0.00000000E+00  0.00000000E+00  0.00000000E+00  0.00000000E+00  0.00000000E+00
  0.00000000E+00  0.00000000E+00  0.00000000E+00  0.00000000E+00  0.00000000E+00
  0.00000000E+00  0.00000000E+00  0.00000000E+00  0.00000000E+00  0.00000000E+00
  0.00000000E+00  0.00000000E+00  0.00000000E+00  0.00000000E+00  0.00000000E+00
  0.00000000E+00  0.00000000E+00  0.00000000E+00  0.00000000E+00  0.00000000E+00
  0.00000000E+00  0.00000000E+00  0.00000000E+00  0.00000000E+00  0.00000000E+00
  0.00000000E+00  0.00000000E+00  0.00000000E+00  0.00000000E+00  0.00000000E+00
  0.00000000E+00  0.00000000E+00
ZRed-Constraint1                           R   N=          82
  2.88410267E+00  2.06366443E+00  2.05926023E+00  2.06364475E+00  2.89548506E+00
  2.06761491E+00  2.06763886E+00  2.86701050E+00  2.07152487E+00  2.07153883E+00
  2.87206547E+00  2.06030368E+00  2.06031500E+00  1.93628079E+00  1.93629197E+00
  1.93521523E+00  1.93904394E+00  1.93104013E+00  1.93904600E+00  1.88210471E+00
  1.88835743E+00  1.88210328E+00  1.94694671E+00  1.91793671E+00  1.91793586E+00
  1.90651519E+00  1.90649739E+00  1.86618404E+00  1.93569019E+00  1.90790572E+00
  1.90799161E+00  1.91742510E+00  1.91746691E+00  1.87635284E+00  1.92516664E+00
  1.95969328E+00  1.95975481E+00  1.85481024E+00  1.85478439E+00  1.90378776E+00
  1.93102481E+00  1.93096165E+00  1.96064227E+00  1.87151304E+00  1.88323720E+00
  1.88326692E+00  1.05130650E+00 -3.11473095E+00 -1.06581829E+00  3.14129206E+00
 -1.02474539E+00  1.02416727E+00 -1.05190813E+00  1.06523973E+00  3.11415239E+00
  3.14145328E+00 -1.02496323E+00  1.02457562E+00  1.01768065E+00  3.13444944E+00
 -1.09919702E+00 -1.01797255E+00  1.09879624E+00 -3.13485022E+00  3.14157755E+00
 -1.07642128E+00  1.07638410E+00  1.03041942E+00  3.09560590E+00 -1.03477402E+00
 -1.03031437E+00  1.03487211E+00 -3.09550781E+00 -1.03549985E+00  1.03603032E+00
 -3.14133056E+00  3.11927596E+00 -1.09237919E+00  1.01344524E+00  1.09296821E+00
 -3.11868694E+00 -1.01286251E+00
ZRed-Constraint2                           R   N=          82
  2.92213097E+00  2.05968141E+00  2.05986214E+00  2.05987701E+00  2.93229792E+00
  2.05977500E+00  2.05977543E+00  2.92509460E+00  2.05987783E+00  2.05979041E+00
  2.76869007E+00  2.05974358E+00  2.05984182E+00  1.88972613E+00  1.88972613E+00
  1.88972613E+00  1.91069876E+00  1.91063951E+00  1.91060390E+00  1.91068510E+00
  1.91061793E+00  1.91055420E+00  1.96381362E+00  1.85116252E+00  1.85112131E+00
  1.85326984E+00  1.85331771E+00  2.09438156E+00  1.97138410E+00  1.85140126E+00
  1.85139481E+00  1.84976838E+00  1.84977775E+00  2.09435199E+00  1.92752997E+00
  1.87678148E+00  1.87668443E+00  1.84291814E+00  1.84290205E+00  2.09446126E+00
  1.91063324E+00  1.91063323E+00  1.91063323E+00  1.91063323E+00  1.91063324E+00
  1.91063324E+00  1.51473133E+00 -2.74942005E+00 -5.04335389E-01 -2.67395137E+00
 -6.54917449E-01  1.59016721E+00 -5.79667190E-01  1.43936674E+00 -2.59873391E+00
  3.13960403E+00 -1.12467034E+00  1.12068571E+00  1.12183902E+00  3.14074996E+00
 -8.97079298E-01 -1.12583711E+00  8.93073833E-01  3.13842988E+00 -3.13086620E+00
 -1.12823510E+00  1.14976106E+00  1.13243343E+00  3.13506453E+00 -8.70124614E-01
 -1.11098259E+00  8.91648504E-01 -3.11354064E+00 -8.81015014E-02  2.00629360E+00
 -2.18249660E+00 -2.11198860E+00 -1.75935038E-02  2.07680160E+00  1.93566271E+00
 -2.25312750E+00 -1.58732391E-01
SymInf integers                            I   N=          26
           1           1           1           1           1           0
           0           0           0           0           0           0
           0           0           0           0           0           0
           0           0           0           0           0           0
           0           0
RotTr to input orientation                 R   N=          12
  6.84296378E-02  8.33702495E-01  5.47957603E-01 -9.27426314E-01 -1.49269269E-01
  3.42927277E-01  3.67692557E-01 -5.31656690E-01  7.62983190E-01  3.16509034E+00
  2.85724589E+00  1.03542474E-02
Number of contracted shells                I               90
Number of primitive shells                 I              149
Pure/Cartesian d shells                    I                0
Pure/Cartesian f shells                    I                0
Highest angular momentum                   I                2
Largest degree of contraction              I                6
Shell types                                I   N=          90
           0          -1          -1          -1          -1          -2
           0          -1          -1          -1          -1          -2
           0          -1          -1          -1          -1          -2
           0          -1          -1          -1          -1          -2
           0          -1          -1          -1          -1          -2
           0           0           0           0           1           0
           0           0           0           1           0           0
           0           0           1           0           0           0
           0           1           0           0           0           0
           1           0           0           0           0           1
           0           0           0           0           1           0
           0           0           0           1           0           0
           0           0           1           0           0           0
           0           1           0           0           0           0
           1           0           0           0           0           1
Number of primitives per shell             I   N=          90
           6           3           1           1           1           1
           6           3           1           1           1           1
           6           3           1           1           1           1
           6           3           1           1           1           1
           6           3           1           1           1           1
           3           1           1           1           1           3
           1           1           1           1           3           1
           1           1           1           3           1           1
           1           1           3           1           1           1
           1           3           1           1           1           1
           3           1           1           1           1           3
           1           1           1           1           3           1
           1           1           1           3           1           1
           1           1           3           1           1           1
           1           3           1           1           1           1
Shell to atom map                          I   N=          90
           1           1           1           1           1           1
           2           2           2           2           2           2
           3           3           3           3           3           3
           4           4           4           4           4           4
           5           5           5           5           5           5
           6           6           6           6           6           7
           7           7           7           7           8           8
           8           8           8           9           9           9
           9           9          10          10          10          10
          10          11          11          11          11          11
          12          12          12          12          12          13
          13          13          13          13          14          14
          14          14          14          15          15          15
          15          15          16          16          16          16
          16          17          17          17          17          17
Primitive exponents                        R   N=         149
  4.56324000E+03  6.82024000E+02  1.54973000E+02  4.44553000E+01  1.30290000E+01
  1.82773000E+00  2.09642000E+01  4.80331000E+00  1.45933000E+00  4.83456000E-01
  1.45585000E-01  4.38000000E-02  6.26000000E-01  4.56324000E+03  6.82024000E+02
  1.54973000E+02  4.44553000E+01  1.30290000E+01  1.82773000E+00  2.09642000E+01
  4.80331000E+00  1.45933000E+00  4.83456000E-01  1.45585000E-01  4.38000000E-02
  6.26000000E-01  4.56324000E+03  6.82024000E+02  1.54973000E+02  4.44553000E+01
  1.30290000E+01  1.82773000E+00  2.09642000E+01  4.80331000E+00  1.45933000E+00
  4.83456000E-01  1.45585000E-01  4.38000000E-02  6.26000000E-01  4.56324000E+03
  6.82024000E+02  1.54973000E+02  4.44553000E+01  1.30290000E+01  1.82773000E+00
  2.09642000E+01  4.80331000E+00  1.45933000E+00  4.83456000E-01  1.45585000E-01
  4.38000000E-02  6.26000000E-01  6.29348000E+03  9.49044000E+02  2.18776000E+02
  6.36916000E+01  1.88282000E+01  2.72023000E+00  3.06331000E+01  7.02614000E+00
  2.11205000E+00  6.84009000E-01  2.00878000E-01  6.39000000E-02  9.13000000E-01
  3.38650000E+01  5.09479000E+00  1.15879000E+00  3.25840000E-01  1.02741000E-01
  3.60000000E-02  7.50000000E-01  3.38650000E+01  5.09479000E+00  1.15879000E+00
  3.25840000E-01  1.02741000E-01  3.60000000E-02  7.50000000E-01  3.38650000E+01
  5.09479000E+00  1.15879000E+00  3.25840000E-01  1.02741000E-01  3.60000000E-02
  7.50000000E-01  3.38650000E+01  5.09479000E+00  1.15879000E+00  3.25840000E-01
  1.02741000E-01  3.60000000E-02  7.50000000E-01  3.38650000E+01  5.09479000E+00
  1.15879000E+00  3.25840000E-01  1.02741000E-01  3.60000000E-02  7.50000000E-01
  3.38650000E+01  5.09479000E+00  1.15879000E+00  3.25840000E-01  1.02741000E-01
  3.60000000E-02  7.50000000E-01  3.38650000E+01  5.09479000E+00  1.15879000E+00
  3.25840000E-01  1.02741000E-01  3.60000000E-02  7.50000000E-01  3.38650000E+01
  5.09479000E+00  1.15879000E+00  3.25840000E-01  1.02741000E-01  3.60000000E-02
  7.50000000E-01  3.38650000E+01  5.09479000E+00  1.15879000E+00  3.25840000E-01
  1.02741000E-01  3.60000000E-02  7.50000000E-01  3.38650000E+01  5.09479000E+00
  1.15879000E+00  3.25840000E-01  1.02741000E-01  3.60000000E-02  7.50000000E-01
  3.38650000E+01  5.09479000E+00  1.15879000E+00  3.25840000E-01  1.02741000E-01
  3.60000000E-02  7.50000000E-01  3.38650000E+01  5.09479000E+00  1.15879000E+00
  3.25840000E-01  1.02741000E-01  3.60000000E-02  7.50000000E-01
Contraction coefficients                   R   N=         149
  1.96665025E-03  1.52306019E-02  7.61269097E-02  2.60801033E-01  6.16462078E-01
  2.21006028E-01  1.14660081E-01  9.19999648E-01 -3.03068213E-03  1.00000000E+00
  1.00000000E+00  1.00000000E+00  1.00000000E+00  1.96665025E-03  1.52306019E-02
  7.61269097E-02  2.60801033E-01  6.16462078E-01  2.21006028E-01  1.14660081E-01
  9.19999648E-01 -3.03068213E-03  1.00000000E+00  1.00000000E+00  1.00000000E+00
  1.00000000E+00  1.96665025E-03  1.52306019E-02  7.61269097E-02  2.60801033E-01
  6.16462078E-01  2.21006028E-01  1.14660081E-01  9.19999648E-01 -3.03068213E-03
  1.00000000E+00  1.00000000E+00  1.00000000E+00  1.00000000E+00  1.96665025E-03
  1.52306019E-02  7.61269097E-02  2.60801033E-01  6.16462078E-01  2.21006028E-01
  1.14660081E-01  9.19999648E-01 -3.03068213E-03  1.00000000E+00  1.00000000E+00
  1.00000000E+00  1.00000000E+00  1.96978815E-03  1.49612859E-02  7.35005308E-02
  2.48936766E-01  6.02459433E-01  2.56201759E-01  1.11906080E-01  9.21666655E-01
 -2.56919183E-03  1.00000000E+00  1.00000000E+00  1.00000000E+00  1.00000000E+00
  2.54938145E-02  1.90373109E-01  8.52161486E-01  1.00000000E+00  1.00000000E+00
  1.00000000E+00  1.00000000E+00  2.54938145E-02  1.90373109E-01  8.52161486E-01
  1.00000000E+00  1.00000000E+00  1.00000000E+00  1.00000000E+00  2.54938145E-02
  1.90373109E-01  8.52161486E-01  1.00000000E+00  1.00000000E+00  1.00000000E+00
  1.00000000E+00  2.54938145E-02  1.90373109E-01  8.52161486E-01  1.00000000E+00
  1.00000000E+00  1.00000000E+00  1.00000000E+00  2.54938145E-02  1.90373109E-01
  8.52161486E-01  1.00000000E+00  1.00000000E+00  1.00000000E+00  1.00000000E+00
  2.54938145E-02  1.90373109E-01  8.52161486E-01  1.00000000E+00  1.00000000E+00
  1.00000000E+00  1.00000000E+00  2.54938145E-02  1.90373109E-01  8.52161486E-01
  1.00000000E+00  1.00000000E+00  1.00000000E+00  1.00000000E+00  2.54938145E-02
  1.90373109E-01  8.52161486E-01  1.00000000E+00  1.00000000E+00  1.00000000E+00
  1.00000000E+00  2.54938145E-02  1.90373109E-01  8.52161486E-01  1.00000000E+00
  1.00000000E+00  1.00000000E+00  1.00000000E+00  2.54938145E-02  1.90373109E-01
  8.52161486E-01  1.00000000E+00  1.00000000E+00  1.00000000E+00  1.00000000E+00
  2.54938145E-02  1.90373109E-01  8.52161486E-01  1.00000000E+00  1.00000000E+00
  1.00000000E+00  1.00000000E+00  2.54938145E-02  1.90373109E-01  8.52161486E-01
  1.00000000E+00  1.00000000E+00  1.00000000E+00  1.00000000E+00
P(S=P) Contraction coefficients            R   N=         149
  0.00000000E+00  0.00000000E+00  0.00000000E+00  0.00000000E+00  0.00000000E+00
  0.00000000E+00  4.02486927E-02  2.37593957E-01  8.15853851E-01  1.00000000E+00
  1.00000000E+00  1.00000000E+00  0.00000000E+00  0.00000000E+00  0.00000000E+00
  0.00000000E+00  0.00000000E+00  0.00000000E+00  0.00000000E+00  4.02486927E-02
  2.37593957E-01  8.15853851E-01  1.00000000E+00  1.00000000E+00  1.00000000E+00
  0.00000000E+00  0.00000000E+00  0.00000000E+00  0.00000000E+00  0.00000000E+00
  0.00000000E+00  0.00000000E+00  4.02486927E-02  2.37593957E-01  8.15853851E-01
  1.00000000E+00  1.00000000E+00  1.00000000E+00  0.00000000E+00  0.00000000E+00
  0.00000000E+00  0.00000000E+00  0.00000000E+00  0.00000000E+00  0.00000000E+00
  4.02486927E-02  2.37593957E-01  8.15853851E-01  1.00000000E+00  1.00000000E+00
  1.00000000E+00  0.00000000E+00  0.00000000E+00  0.00000000E+00  0.00000000E+00
  0.00000000E+00  0.00000000E+00  0.00000000E+00  3.83119186E-02  2.37403116E-01
  8.17592398E-01  1.00000000E+00  1.00000000E+00  1.00000000E+00  0.00000000E+00
  0.00000000E+00  0.00000000E+00  0.00000000E+00  0.00000000E+00  0.00000000E+00
  0.00000000E+00  0.00000000E+00  0.00000000E+00  0.00000000E+00  0.00000000E+00
  0.00000000E+00  0.00000000E+00  0.00000000E+00  0.00000000E+00  0.00000000E+00
  0.00000000E+00  0.00000000E+00  0.00000000E+00  0.00000000E+00  0.00000000E+00
  0.00000000E+00  0.00000000E+00  0.00000000E+00  0.00000000E+00  0.00000000E+00
  0.00000000E+00  0.00000000E+00  0.00000000E+00  0.00000000E+00  0.00000000E+00
  0.00000000E+00  0.00000000E+00  0.00000000E+00  0.00000000E+00  0.00000000E+00
  0.00000000E+00  0.00000000E+00  0.00000000E+00  0.00000000E+00  0.00000000E+00
  0.00000000E+00  0.00000000E+00  0.00000000E+00  0.00000000E+00  0.00000000E+00
  0.00000000E+00  0.00000000E+00  0.00000000E+00  0.00000000E+00  0.00000000E+00
  0.00000000E+00  0.00000000E+00  0.00000000E+00  0.00000000E+00  0.00000000E+00
  0.00000000E+00  0.00000000E+00  0.00000000E+00  0.00000000E+00  0.00000000E+00
  0.00000000E+00  0.00000000E+00  0.00000000E+00  0.00000000E+00  0.00000000E+00
  0.00000000E+00  0.00000000E+00  0.00000000E+00  0.00000000E+00  0.00000000E+00
  0.00000000E+00  0.00000000E+00  0.00000000E+00  0.00000000E+00  0.00000000E+00
  0.00000000E+00  0.00000000E+00  0.00000000E+00  0.00000000E+00  0.00000000E+00
  0.00000000E+00  0.00000000E+00  0.00000000E+00  0.00000000E+00
Coordinates of each shell                  R   N=         270
 -4.86554487E+00 -6.27227303E-01 -9.21919321E-05 -4.86554487E+00 -6.27227303E-01
 -9.21919321E-05 -4.86554487E+00 -6.27227303E-01 -9.21919321E-05 -4.86554487E+00
 -6.27227303E-01 -9.21919321E-05 -4.86554487E+00 -6.27227303E-01 -9.21919321E-05
 -4.86554487E+00 -6.27227303E-01 -9.21919321E-05 -2.48976473E+00  1.00792312E+00
  7.98054307E-05 -2.48976473E+00  1.00792312E+00  7.98054307E-05 -2.48976473E+00