 Entering Gaussian System, Link 0=/apps/cent7/gaussian/g16-A.03/g16-haswell/g16/g16
 Initial command:
 /apps/cent7/gaussian/g16-A.03/g16-haswell/g16/l1.exe "/scratch/brown/finej/gaussian/Gau-207901.inp" -scrdir="/scratch/brown/finej/gaussian/"
 Entering Link 1 = /apps/cent7/gaussian/g16-A.03/g16-haswell/g16/l1.exe PID=    207902.
  
 Copyright (c) 1988,1990,1992,1993,1995,1998,2003,2009,2016,
            Gaussian, Inc.  All Rights Reserved.
  
 This is part of the Gaussian(R) 16 program.  It is based on
 the Gaussian(R) 09 system (copyright 2009, Gaussian, Inc.),
 the Gaussian(R) 03 system (copyright 2003, Gaussian, Inc.),
 the Gaussian(R) 98 system (copyright 1998, Gaussian, Inc.),
 the Gaussian(R) 94 system (copyright 1995, Gaussian, Inc.),
 the Gaussian 92(TM) system (copyright 1992, Gaussian, Inc.),
 the Gaussian 90(TM) system (copyright 1990, Gaussian, Inc.),
 the Gaussian 88(TM) system (copyright 1988, Gaussian, Inc.),
 the Gaussian 86(TM) system (copyright 1986, Carnegie Mellon
 University), and the Gaussian 82(TM) system (copyright 1983,
 Carnegie Mellon University). Gaussian is a federally registered
 trademark of Gaussian, Inc.
  
 This software contains proprietary and confidential information,
 including trade secrets, belonging to Gaussian, Inc.
  
 This software is provided under written license and may be
 used, copied, transmitted, or stored only in accord with that
 written license.
  
 The following legend is applicable only to US Government
 contracts under FAR:
  
                    RESTRICTED RIGHTS LEGEND
  
 Use, reproduction and disclosure by the US Government is
 subject to restrictions as set forth in subparagraphs (a)
 and (c) of the Commercial Computer Software - Restricted
 Rights clause in FAR 52.227-19.
  
 Gaussian, Inc.
 340 Quinnipiac St., Bldg. 40, Wallingford CT 06492
  
  
 ---------------------------------------------------------------
 Warning -- This program may not be used in any manner that
 competes with the business of Gaussian, Inc. or will provide
 assistance to any competitor of Gaussian, Inc.  The licensee
 of this program is prohibited from giving any competitor of
 Gaussian, Inc. access to this program.  By using this program,
 the user acknowledges that Gaussian, Inc. is engaged in the
 business of creating and licensing software in the field of
 computational chemistry and represents and warrants to the
 licensee that it is not a competitor of Gaussian, Inc. and that
 it will not use this program in any manner prohibited above.
 ---------------------------------------------------------------
  

 Cite this work as:
 Gaussian 16, Revision A.03,
 M. J. Frisch, G. W. Trucks, H. B. Schlegel, G. E. Scuseria, 
 M. A. Robb, J. R. Cheeseman, G. Scalmani, V. Barone, 
 G. A. Petersson, H. Nakatsuji, X. Li, M. Caricato, A. V. Marenich, 
 J. Bloino, B. G. Janesko, R. Gomperts, B. Mennucci, H. P. Hratchian, 
 J. V. Ortiz, A. F. Izmaylov, J. L. Sonnenberg, D. Williams-Young, 
 F. Ding, F. Lipparini, F. Egidi, J. Goings, B. Peng, A. Petrone, 
 T. Henderson, D. Ranasinghe, V. G. Zakrzewski, J. Gao, N. Rega, 
 G. Zheng, W. Liang, M. Hada, M. Ehara, K. Toyota, R. Fukuda, 
 J. Hasegawa, M. Ishida, T. Nakajima, Y. Honda, O. Kitao, H. Nakai, 
 T. Vreven, K. Throssell, J. A. Montgomery, Jr., J. E. Peralta, 
 F. Ogliaro, M. J. Bearpark, J. J. Heyd, E. N. Brothers, K. N. Kudin, 
 V. N. Staroverov, T. A. Keith, R. Kobayashi, J. Normand, 
 K. Raghavachari, A. P. Rendell, J. C. Burant, S. S. Iyengar, 
 J. Tomasi, M. Cossi, J. M. Millam, M. Klene, C. Adamo, R. Cammi, 
 J. W. Ochterski, R. L. Martin, K. Morokuma, O. Farkas, 
 J. B. Foresman, and D. J. Fox, Gaussian, Inc., Wallingford CT, 2016.
 
 ******************************************
 Gaussian 16:  ES64L-G16RevA.03 25-Dec-2016
                13-Oct-2019 
 ******************************************
 %chk=18_p.chk
 %nprocshared=24
 Will use up to   24 processors via shared memory.
 %mem=80GB
 -------------------------------------------------------------------
 #P opt freq m062x/6-311++g(d,p) geom=connectivity temperature=0.001
 -------------------------------------------------------------------
 1/18=20,19=15,26=3,38=1,57=2,112=-1000/1,3;
 2/9=110,12=2,17=6,18=5,40=1/2;
 3/5=4,6=6,7=1111,11=2,25=1,30=1,71=1,74=-55/1,2,3;
 4//1;
 5/5=2,38=5/2;
 6/7=2,8=2,9=2,10=2,28=1/1;
 7//1,2,3,16;
 1/18=20,19=15,26=3/3(2);
 2/9=110/2;
 99//99;
 2/9=110/2;
 3/5=4,6=6,7=1111,11=2,25=1,30=1,71=1,74=-55/1,2,3;
 4/5=5,16=3,69=1/1;
 5/5=2,38=5/2;
 7//1,2,3,16;
 1/18=20,19=15,26=3/3(-5);
 2/9=110/2;
 6/7=2,8=2,9=2,10=2,19=2,28=1/1;
 99/9=1/99;
 Leave Link    1 at Sun Oct 13 20:27:38 2019, MaxMem= 10737418240 cpu:               0.8 elap:               0.0
 (Enter /apps/cent7/gaussian/g16-A.03/g16-haswell/g16/l101.exe)
 -------------------
 Title Card Required
 -------------------
 Symbolic Z-matrix:
 Charge =  1 Multiplicity = 1
 C                     1.829    -0.6552   -1.4686 
 C                     1.0852    0.321    -0.5279 
 C                     1.9673    1.5247   -0.1027 
 C                     1.2314    2.5101    0.8372 
 N                     2.1073    3.6298    1.1917 
 H                     2.3827   -1.3818   -0.8741 
 H                     1.1064   -1.1753   -2.0975 
 H                     2.5222   -0.0965   -2.0975 
 H                     0.2648    0.7371   -1.1126 
 H                     0.8757   -0.2391    0.3834 
 H                     2.7865    1.1068    0.4825 
 H                     2.1784    2.0816   -1.0156 
 H                     0.4084    2.9491    0.2733 
 H                     1.0331    1.9859    1.7721 
 H                     3.01976   3.47167   0.81432 
 H                     1.73335   4.47757   0.81559 
 H                     2.16662   3.7044    2.18715 
 
 ITRead=  0  0  0  0  0  0  0  0  0  0  0  0  0  0  0  0  0
 MicOpt= -1 -1 -1 -1 -1 -1 -1 -1 -1 -1 -1 -1 -1 -1 -1 -1 -1
 NAtoms=     17 NQM=       17 NQMF=       0 NMMI=      0 NMMIF=      0
                NMic=       0 NMicF=      0.
                    Isotopes and Nuclear Properties:
 (Nuclear quadrupole moments (NQMom) in fm**2, nuclear magnetic moments (NMagM)
  in nuclear magnetons)

  Atom         1           2           3           4           5           6           7           8           9          10
 IAtWgt=          12          12          12          12          14           1           1           1           1           1
 AtmWgt=  12.0000000  12.0000000  12.0000000  12.0000000  14.0030740   1.0078250   1.0078250   1.0078250   1.0078250   1.0078250
 NucSpn=           0           0           0           0           2           1           1           1           1           1
 AtZEff=  -0.0000000  -0.0000000  -0.0000000  -0.0000000  -0.0000000  -0.0000000  -0.0000000  -0.0000000  -0.0000000  -0.0000000
 NQMom=    0.0000000   0.0000000   0.0000000   0.0000000   2.0440000   0.0000000   0.0000000   0.0000000   0.0000000   0.0000000
 NMagM=    0.0000000   0.0000000   0.0000000   0.0000000   0.4037610   2.7928460   2.7928460   2.7928460   2.7928460   2.7928460
 AtZNuc=   6.0000000   6.0000000   6.0000000   6.0000000   7.0000000   1.0000000   1.0000000   1.0000000   1.0000000   1.0000000

  Atom        11          12          13          14          15          16          17
 IAtWgt=           1           1           1           1           1           1           1
 AtmWgt=   1.0078250   1.0078250   1.0078250   1.0078250   1.0078250   1.0078250   1.0078250
 NucSpn=           1           1           1           1           1           1           1
 AtZEff=  -0.0000000  -0.0000000  -0.0000000  -0.0000000  -0.0000000  -0.0000000  -0.0000000
 NQMom=    0.0000000   0.0000000   0.0000000   0.0000000   0.0000000   0.0000000   0.0000000
 NMagM=    2.7928460   2.7928460   2.7928460   2.7928460   2.7928460   2.7928460   2.7928460
 AtZNuc=   1.0000000   1.0000000   1.0000000   1.0000000   1.0000000   1.0000000   1.0000000
 Leave Link  101 at Sun Oct 13 20:27:39 2019, MaxMem= 10737418240 cpu:               8.3 elap:               0.4
 (Enter /apps/cent7/gaussian/g16-A.03/g16-haswell/g16/l103.exe)

 GradGradGradGradGradGradGradGradGradGradGradGradGradGradGradGradGradGrad
 Berny optimization.
 Initialization pass.
                           ----------------------------
                           !    Initial Parameters    !
                           ! (Angstroms and Degrees)  !
 --------------------------                            --------------------------
 ! Name  Definition              Value          Derivative Info.                !
 --------------------------------------------------------------------------------
 ! R1    R(1,2)                  1.5463         estimate D2E/DX2                !
 ! R2    R(1,6)                  1.0899         estimate D2E/DX2                !
 ! R3    R(1,7)                  1.09           estimate D2E/DX2                !
 ! R4    R(1,8)                  1.09           estimate D2E/DX2                !
 ! R5    R(2,3)                  1.5517         estimate D2E/DX2                !
 ! R6    R(2,9)                  1.09           estimate D2E/DX2                !
 ! R7    R(2,10)                 1.09           estimate D2E/DX2                !
 ! R8    R(3,4)                  1.5479         estimate D2E/DX2                !
 ! R9    R(3,11)                 1.09           estimate D2E/DX2                !
 ! R10   R(3,12)                 1.09           estimate D2E/DX2                !
 ! R11   R(4,5)                  1.4651         estimate D2E/DX2                !
 ! R12   R(4,13)                 1.09           estimate D2E/DX2                !
 ! R13   R(4,14)                 1.09           estimate D2E/DX2                !
 ! R14   R(5,15)                 1.0            estimate D2E/DX2                !
 ! R15   R(5,16)                 1.0            estimate D2E/DX2                !
 ! R16   R(5,17)                 1.0            estimate D2E/DX2                !
 ! A1    A(2,1,6)              109.475          estimate D2E/DX2                !
 ! A2    A(2,1,7)              109.4716         estimate D2E/DX2                !
 ! A3    A(2,1,8)              109.4695         estimate D2E/DX2                !
 ! A4    A(6,1,7)              109.4742         estimate D2E/DX2                !
 ! A5    A(6,1,8)              109.4703         estimate D2E/DX2                !
 ! A6    A(7,1,8)              109.4667         estimate D2E/DX2                !
 ! A7    A(1,2,3)              112.5182         estimate D2E/DX2                !
 ! A8    A(1,2,9)              106.0638         estimate D2E/DX2                !
 ! A9    A(1,2,10)             106.0614         estimate D2E/DX2                !
 ! A10   A(3,2,9)              106.1845         estimate D2E/DX2                !
 ! A11   A(3,2,10)             106.1873         estimate D2E/DX2                !
 ! A12   A(9,2,10)             119.9992         estimate D2E/DX2                !
 ! A13   A(2,3,4)              112.952          estimate D2E/DX2                !
 ! A14   A(2,3,11)             106.0775         estimate D2E/DX2                !
 ! A15   A(2,3,12)             106.0771         estimate D2E/DX2                !
 ! A16   A(4,3,11)             105.9839         estimate D2E/DX2                !
 ! A17   A(4,3,12)             105.9845         estimate D2E/DX2                !
 ! A18   A(11,3,12)            119.9975         estimate D2E/DX2                !
 ! A19   A(3,4,5)              110.4393         estimate D2E/DX2                !
 ! A20   A(3,4,13)             107.5317         estimate D2E/DX2                !
 ! A21   A(3,4,14)             107.5261         estimate D2E/DX2                !
 ! A22   A(5,4,13)             105.5914         estimate D2E/DX2                !
 ! A23   A(5,4,14)             105.5905         estimate D2E/DX2                !
 ! A24   A(13,4,14)            120.0038         estimate D2E/DX2                !
 ! A25   A(4,5,15)             109.4712         estimate D2E/DX2                !
 ! A26   A(4,5,16)             109.4712         estimate D2E/DX2                !
 ! A27   A(4,5,17)             109.4712         estimate D2E/DX2                !
 ! A28   A(15,5,16)            109.4712         estimate D2E/DX2                !
 ! A29   A(15,5,17)            109.4712         estimate D2E/DX2                !
 ! A30   A(16,5,17)            109.4712         estimate D2E/DX2                !
 ! D1    D(6,1,2,3)             86.7877         estimate D2E/DX2                !
 ! D2    D(6,1,2,9)           -157.5302         estimate D2E/DX2                !
 ! D3    D(6,1,2,10)           -28.8963         estimate D2E/DX2                !
 ! D4    D(7,1,2,3)           -153.2061         estimate D2E/DX2                !
 ! D5    D(7,1,2,9)            -37.524          estimate D2E/DX2                !
 ! D6    D(7,1,2,10)            91.1099         estimate D2E/DX2                !
 ! D7    D(8,1,2,3)            -33.2125         estimate D2E/DX2                !
 ! D8    D(8,1,2,9)             82.4696         estimate D2E/DX2                !
 ! D9    D(8,1,2,10)          -148.8965         estimate D2E/DX2                !
 ! D10   D(1,2,3,4)            179.8861         estimate D2E/DX2                !
 ! D11   D(1,2,3,11)           -64.4389         estimate D2E/DX2                !
 ! D12   D(1,2,3,12)            64.2106         estimate D2E/DX2                !
 ! D13   D(9,2,3,4)             64.2766         estimate D2E/DX2                !
 ! D14   D(9,2,3,11)           179.9517         estimate D2E/DX2                !
 ! D15   D(9,2,3,12)           -51.3989         estimate D2E/DX2                !
 ! D16   D(10,2,3,4)           -64.5057         estimate D2E/DX2                !
 ! D17   D(10,2,3,11)           51.1694         estimate D2E/DX2                !
 ! D18   D(10,2,3,12)          179.8188         estimate D2E/DX2                !
 ! D19   D(2,3,4,5)           -179.3854         estimate D2E/DX2                !
 ! D20   D(2,3,4,13)           -64.6431         estimate D2E/DX2                !
 ! D21   D(2,3,4,14)            65.8765         estimate D2E/DX2                !
 ! D22   D(11,3,4,5)            64.8837         estimate D2E/DX2                !
 ! D23   D(11,3,4,13)          179.626          estimate D2E/DX2                !
 ! D24   D(11,3,4,14)          -49.8545         estimate D2E/DX2                !
 ! D25   D(12,3,4,5)           -63.6546         estimate D2E/DX2                !
 ! D26   D(12,3,4,13)           51.0877         estimate D2E/DX2                !
 ! D27   D(12,3,4,14)         -178.3927         estimate D2E/DX2                !
 ! D28   D(3,4,5,15)            -5.0478         estimate D2E/DX2                !
 ! D29   D(3,4,5,16)           114.9522         estimate D2E/DX2                !
 ! D30   D(3,4,5,17)          -125.0478         estimate D2E/DX2                !
 ! D31   D(13,4,5,15)         -121.008          estimate D2E/DX2                !
 ! D32   D(13,4,5,16)           -1.008          estimate D2E/DX2                !
 ! D33   D(13,4,5,17)          118.992          estimate D2E/DX2                !
 ! D34   D(14,4,5,15)          110.9053         estimate D2E/DX2                !
 ! D35   D(14,4,5,16)         -129.0947         estimate D2E/DX2                !
 ! D36   D(14,4,5,17)           -9.0947         estimate D2E/DX2                !
 --------------------------------------------------------------------------------
 Trust Radius=3.00D-01 FncErr=1.00D-07 GrdErr=1.00D-06 EigMax=2.50D+02 EigMin=1.00D-04
 Number of steps in this run=     92 maximum allowed number of steps=    102.
 GradGradGradGradGradGradGradGradGradGradGradGradGradGradGradGradGradGrad

 Leave Link  103 at Sun Oct 13 20:27:39 2019, MaxMem= 10737418240 cpu:               0.2 elap:               0.0
 (Enter /apps/cent7/gaussian/g16-A.03/g16-haswell/g16/l202.exe)
                          Input orientation:                          
 ---------------------------------------------------------------------
 Center     Atomic      Atomic             Coordinates (Angstroms)
 Number     Number       Type             X           Y           Z
 ---------------------------------------------------------------------
      1          6           0        1.829000   -0.655200   -1.468600
      2          6           0        1.085200    0.321000   -0.527900
      3          6           0        1.967300    1.524700   -0.102700
      4          6           0        1.231400    2.510100    0.837200
      5          7           0        2.107300    3.629800    1.191700
      6          1           0        2.382700   -1.381800   -0.874100
      7          1           0        1.106400   -1.175300   -2.097500
      8          1           0        2.522200   -0.096500   -2.097500
      9          1           0        0.264800    0.737100   -1.112600
     10          1           0        0.875700   -0.239100    0.383400
     11          1           0        2.786500    1.106800    0.482500
     12          1           0        2.178400    2.081600   -1.015600
     13          1           0        0.408400    2.949100    0.273300
     14          1           0        1.033100    1.985900    1.772100
     15          1           0        3.019756    3.471666    0.814317
     16          1           0        1.733354    4.477567    0.815594
     17          1           0        2.166621    3.704400    2.187148
 ---------------------------------------------------------------------
                    Distance matrix (angstroms):
                    1          2          3          4          5
     1  C    0.000000
     2  C    1.546325   0.000000
     3  C    2.576194   1.551705   0.000000
     4  C    3.961435   2.583995   1.547893   0.000000
     5  N    5.051324   3.866506   2.475180   1.465128   0.000000
     6  H    1.089936   2.168614   3.035681   4.404648   5.427662
     7  H    1.090032   2.168642   3.465599   4.712776   5.908437
     8  H    1.090040   2.168622   2.629721   4.131948   4.987614
     9  H    2.124137   1.089986   2.130427   2.807056   4.131866
    10  H    2.124105   1.089986   2.130463   2.809014   4.139876
    11  H    2.797899   2.129040   1.090040   2.124476   2.707361
    12  H    2.795955   2.129002   1.089994   2.124450   2.697064
    13  H    4.247740   2.829645   2.144868   1.089969   2.047699
    14  H    4.255702   2.839825   2.144833   1.090021   2.047725
    15  H    4.864220   3.933288   2.395676   2.030604   1.000000
    16  H    5.618895   4.416121   3.101196   2.030604   1.000000
    17  H    5.699526   4.470834   3.167684   2.030604   1.000000
                    6          7          8          9         10
     6  H    0.000000
     7  H    1.779970   0.000000
     8  H    1.779934   1.779972   0.000000
     9  H    3.005349   2.309890   2.600148   0.000000
    10  H    2.271149   2.661683   2.980967   1.887904   0.000000
    11  H    2.862961   3.832377   2.859053   3.006658   2.339321
    12  H    3.472305   3.595426   2.456181   2.340717   3.006639
    13  H    4.896027   4.808178   4.400514   2.614246   3.224145
    14  H    4.490568   4.997235   4.639786   3.235936   2.627525
    15  H    5.178101   5.808090   4.632284   4.333664   4.307256
    16  H    6.132609   6.390156   5.480007   4.457093   4.813451
    17  H    5.940317   6.579799   5.738596   4.828057   4.524509
                   11         12         13         14         15
    11  H    0.000000
    12  H    1.887942   0.000000
    13  H    3.015492   2.355147   0.000000
    14  H    2.347402   3.015318   1.887963   0.000000
    15  H    2.399397   2.447195   2.717528   2.659258   0.000000
    16  H    3.547131   3.048277   2.094230   2.759287   1.632993
    17  H    3.168217   3.590433   2.706406   2.100090   1.632993
                   16         17
    16  H    0.000000
    17  H    1.632993   0.000000
 Stoichiometry    C4H12N(1+)
 Framework group  C1[X(C4H12N)]
 Deg. of freedom    45
 Full point group                 C1      NOp   1
 Largest Abelian subgroup         C1      NOp   1
 Largest concise Abelian subgroup C1      NOp   1
                         Standard orientation:                         
 ---------------------------------------------------------------------
 Center     Atomic      Atomic             Coordinates (Angstroms)
 Number     Number       Type             X           Y           Z
 ---------------------------------------------------------------------
      1          6           0       -2.610279   -0.327301   -0.001391
      2          6           0       -1.330216    0.540200   -0.002834
      3          6           0       -0.034137   -0.312961    0.006434
      4          6           0        1.253768    0.545675    0.002236
      5          7           0        2.441024   -0.312807   -0.003396
      6          1           0       -2.881937   -0.572468    1.025282
      7          1           0       -3.424275    0.225357   -0.470591
      8          1           0       -2.426942   -1.246368   -0.558070
      9          1           0       -1.332299    1.079314   -0.950157
     10          1           0       -1.338154    1.091017    0.937702
     11          1           0       -0.033388   -0.850559    0.954683
     12          1           0       -0.029663   -0.865373   -0.933197
     13          1           0        1.281907    1.090755   -0.941231
     14          1           0        1.289354    1.088664    0.946716
     15          1           0        2.161177   -1.269253    0.079650
     16          1           0        2.940793   -0.184905   -0.860060
     17          1           0        3.031443   -0.070207    0.766376
 ---------------------------------------------------------------------
 Rotational constants (GHZ):          17.3711861           1.8761485           1.7933683
 Leave Link  202 at Sun Oct 13 20:27:39 2019, MaxMem= 10737418240 cpu:               0.5 elap:               0.0
 (Enter /apps/cent7/gaussian/g16-A.03/g16-haswell/g16/l301.exe)
 Standard basis: 6-311++G(d,p) (5D, 7F)
 Ernie: Thresh=  0.10000D-02 Tol=  0.10000D-05 Strict=F.
 There are   199 symmetry adapted cartesian basis functions of A   symmetry.
 There are   194 symmetry adapted basis functions of A   symmetry.
   194 basis functions,   288 primitive gaussians,   199 cartesian basis functions
    21 alpha electrons       21 beta electrons
       nuclear repulsion energy       195.1092592871 Hartrees.
 IExCor= 4336 DFT=T Ex+Corr=M062X ExCW=0 ScaHFX=  0.540000
 ScaDFX=  1.000000  1.000000  1.000000  1.000000 ScalE2=  1.000000  1.000000
 IRadAn=      5 IRanWt=     -1 IRanGd=            0 ICorTp=0 IEmpDi=  4
 NAtoms=   17 NActive=   17 NUniq=   17 SFac= 1.00D+00 NAtFMM=   60 NAOKFM=F Big=F
 Integral buffers will be    131072 words long.
 Raffenetti 2 integral format.
 Two-electron integral symmetry is turned on.
 Leave Link  301 at Sun Oct 13 20:27:39 2019, MaxMem= 10737418240 cpu:               1.4 elap:               0.1
 (Enter /apps/cent7/gaussian/g16-A.03/g16-haswell/g16/l302.exe)
 NPDir=0 NMtPBC=     1 NCelOv=     1 NCel=       1 NClECP=     1 NCelD=      1
         NCelK=      1 NCelE2=     1 NClLst=     1 CellRange=     0.0.
 One-electron integrals computed using PRISM.
 One-electron integral symmetry used in STVInt
 NBasis=   194 RedAO= T EigKep=  1.61D-05  NBF=   194
 NBsUse=   194 1.00D-06 EigRej= -1.00D+00 NBFU=   194
 Precomputing XC quadrature grid using
 IXCGrd= 4 IRadAn=           5 IRanWt=          -1 IRanGd=           0 AccXCQ= 0.00D+00.
 Generated NRdTot=       0 NPtTot=           0 NUsed=           0 NTot=          32
 NSgBfM=   199   199   199   199   199 MxSgAt=    17 MxSgA2=    17.
 Leave Link  302 at Sun Oct 13 20:27:39 2019, MaxMem= 10737418240 cpu:               4.1 elap:               0.2
 (Enter /apps/cent7/gaussian/g16-A.03/g16-haswell/g16/l303.exe)
 DipDrv:  MaxL=1.
 Leave Link  303 at Sun Oct 13 20:27:39 2019, MaxMem= 10737418240 cpu:               1.0 elap:               0.1
 (Enter /apps/cent7/gaussian/g16-A.03/g16-haswell/g16/l401.exe)
 ExpMin= 3.60D-02 ExpMax= 6.29D+03 ExpMxC= 9.49D+02 IAcc=3 IRadAn=         5 AccDes= 0.00D+00
 Harris functional with IExCor= 1009 and IRadAn=       5 diagonalized for initial guess.
 HarFok:  IExCor= 1009 AccDes= 0.00D+00 IRadAn=         5 IDoV= 1 UseB2=F ITyADJ=14
 ICtDFT=  3500011 ScaDFX=  1.000000  1.000000  1.000000  1.000000
 FoFCou: FMM=F IPFlag=           0 FMFlag=      100000 FMFlg1=           0
         NFxFlg=           0 DoJE=T BraDBF=F KetDBF=T FulRan=T
         wScrn=  0.000000 ICntrl=       500 IOpCl=  0 I1Cent=   200000004 NGrid=           0
         NMat0=    1 NMatS0=      1 NMatT0=    0 NMatD0=    1 NMtDS0=    0 NMtDT0=    0
 Petite list used in FoFCou.
 Harris En= -214.099834046090    
 JPrj=0 DoOrth=F DoCkMO=F.
 Leave Link  401 at Sun Oct 13 20:27:40 2019, MaxMem= 10737418240 cpu:               8.8 elap:               0.4
 (Enter /apps/cent7/gaussian/g16-A.03/g16-haswell/g16/l502.exe)
 Integral symmetry usage will be decided dynamically.
 Closed shell SCF:
 Using DIIS extrapolation, IDIIS=  1040.
 NGot= 10737418240 LenX= 10737332085 LenY= 10737292043
 Requested convergence on RMS density matrix=1.00D-08 within 128 cycles.
 Requested convergence on MAX density matrix=1.00D-06.
 Requested convergence on             energy=1.00D-06.
 No special actions if energy rises.
 Fock matrices will be formed incrementally for  20 cycles.

 Cycle   1  Pass 1  IDiag  1:
 FoFJK:  IHMeth= 1 ICntrl=       0 DoSepK=F KAlg= 0 I1Cent=           0 FoldK=F
 IRaf= 970000000 NMat=       1 IRICut=       1 DoRegI=T DoRafI=F ISym2E= 0 IDoP0=0 IntGTp=1.
 FoFCou: FMM=F IPFlag=           0 FMFlag=      100000 FMFlg1=           0
         NFxFlg=           0 DoJE=F BraDBF=F KetDBF=F FulRan=T
         wScrn=  0.000000 ICntrl=         0 IOpCl=  0 I1Cent=           0 NGrid=           0
         NMat0=    1 NMatS0=      1 NMatT0=    0 NMatD0=    1 NMtDS0=    0 NMtDT0=    0
 Symmetry not used in FoFCou.
 E= -213.904158236963    
 DIIS: error= 3.74D-02 at cycle   1 NSaved=   1.
 NSaved= 1 IEnMin= 1 EnMin= -213.904158236963     IErMin= 1 ErrMin= 3.74D-02
 ErrMax= 3.74D-02  0.00D+00 EMaxC= 1.00D-01 BMatC= 2.07D-01 BMatP= 2.07D-01
 IDIUse=3 WtCom= 6.26D-01 WtEn= 3.74D-01
 Coeff-Com:  0.100D+01
 Coeff-En:   0.100D+01
 Coeff:      0.100D+01
 Gap=     0.286 Goal=   None    Shift=    0.000
 GapD=    0.286 DampG=1.000 DampE=0.500 DampFc=0.5000 IDamp=-1.
 Damping current iteration by 5.00D-01
 RMSDP=6.85D-03 MaxDP=2.56D-01              OVMax= 1.54D-01

 Cycle   2  Pass 1  IDiag  1:
 RMSU=  3.15D-03    CP:  9.09D-01
 E= -213.997427680728     Delta-E=       -0.093269443765 Rises=F Damp=T
 DIIS: error= 6.58D-03 at cycle   2 NSaved=   2.
 NSaved= 2 IEnMin= 2 EnMin= -213.997427680728     IErMin= 2 ErrMin= 6.58D-03
 ErrMax= 6.58D-03  0.00D+00 EMaxC= 1.00D-01 BMatC= 1.37D-02 BMatP= 2.07D-01
 IDIUse=3 WtCom= 9.34D-01 WtEn= 6.58D-02
 Coeff-Com: -0.143D+00 0.114D+01
 Coeff-En:   0.000D+00 0.100D+01
 Coeff:     -0.133D+00 0.113D+01
 Gap=     0.368 Goal=   None    Shift=    0.000
 RMSDP=2.44D-03 MaxDP=8.68D-02 DE=-9.33D-02 OVMax= 8.74D-02

 Cycle   3  Pass 1  IDiag  1:
 RMSU=  2.38D-03    CP:  9.39D-01  1.08D+00
 E= -214.083888323836     Delta-E=       -0.086460643108 Rises=F Damp=F
 DIIS: error= 2.95D-03 at cycle   3 NSaved=   3.
 NSaved= 3 IEnMin= 3 EnMin= -214.083888323836     IErMin= 3 ErrMin= 2.95D-03
 ErrMax= 2.95D-03  0.00D+00 EMaxC= 1.00D-01 BMatC= 1.47D-03 BMatP= 1.37D-02
 IDIUse=3 WtCom= 9.70D-01 WtEn= 2.95D-02
 Coeff-Com: -0.795D-01 0.247D+00 0.832D+00
 Coeff-En:   0.000D+00 0.000D+00 0.100D+01
 Coeff:     -0.771D-01 0.240D+00 0.837D+00
 Gap=     0.344 Goal=   None    Shift=    0.000
 RMSDP=3.08D-04 MaxDP=1.21D-02 DE=-8.65D-02 OVMax= 1.00D-02

 Cycle   4  Pass 1  IDiag  1:
 RMSU=  2.37D-04    CP:  9.30D-01  1.12D+00  9.68D-01
 E= -214.085183328666     Delta-E=       -0.001295004830 Rises=F Damp=F
 DIIS: error= 1.15D-03 at cycle   4 NSaved=   4.
 NSaved= 4 IEnMin= 4 EnMin= -214.085183328666     IErMin= 4 ErrMin= 1.15D-03
 ErrMax= 1.15D-03  0.00D+00 EMaxC= 1.00D-01 BMatC= 1.80D-04 BMatP= 1.47D-03
 IDIUse=3 WtCom= 9.89D-01 WtEn= 1.15D-02
 Coeff-Com: -0.273D-01 0.620D-01 0.336D+00 0.630D+00
 Coeff-En:   0.000D+00 0.000D+00 0.000D+00 0.100D+01
 Coeff:     -0.270D-01 0.613D-01 0.332D+00 0.634D+00
 Gap=     0.347 Goal=   None    Shift=    0.000
 RMSDP=1.19D-04 MaxDP=6.08D-03 DE=-1.30D-03 OVMax= 2.78D-03

 Cycle   5  Pass 1  IDiag  1:
 RMSU=  7.05D-05    CP:  9.33D-01  1.10D+00  9.82D-01  8.67D-01
 E= -214.085341888600     Delta-E=       -0.000158559934 Rises=F Damp=F
 DIIS: error= 2.05D-04 at cycle   5 NSaved=   5.
 NSaved= 5 IEnMin= 5 EnMin= -214.085341888600     IErMin= 5 ErrMin= 2.05D-04
 ErrMax= 2.05D-04  0.00D+00 EMaxC= 1.00D-01 BMatC= 7.92D-06 BMatP= 1.80D-04
 IDIUse=3 WtCom= 9.98D-01 WtEn= 2.05D-03
 Coeff-Com: -0.199D-02 0.151D-02 0.311D-01 0.191D+00 0.778D+00
 Coeff-En:   0.000D+00 0.000D+00 0.000D+00 0.000D+00 0.100D+01
 Coeff:     -0.198D-02 0.151D-02 0.310D-01 0.191D+00 0.779D+00
 Gap=     0.346 Goal=   None    Shift=    0.000
 RMSDP=4.05D-05 MaxDP=3.13D-03 DE=-1.59D-04 OVMax= 6.28D-04

 Cycle   6  Pass 1  IDiag  1:
 RMSU=  2.79D-05    CP:  9.35D-01  1.09D+00  9.88D-01  8.79D-01  1.08D+00
 E= -214.085349442658     Delta-E=       -0.000007554059 Rises=F Damp=F
 DIIS: error= 4.17D-05 at cycle   6 NSaved=   6.
 NSaved= 6 IEnMin= 6 EnMin= -214.085349442658     IErMin= 6 ErrMin= 4.17D-05
 ErrMax= 4.17D-05  0.00D+00 EMaxC= 1.00D-01 BMatC= 2.33D-07 BMatP= 7.92D-06
 IDIUse=1 WtCom= 1.00D+00 WtEn= 0.00D+00
 Coeff-Com:  0.138D-02-0.357D-02-0.169D-01-0.108D-01 0.106D+00 0.924D+00
 Coeff:      0.138D-02-0.357D-02-0.169D-01-0.108D-01 0.106D+00 0.924D+00
 Gap=     0.347 Goal=   None    Shift=    0.000
 RMSDP=1.24D-05 MaxDP=7.11D-04 DE=-7.55D-06 OVMax= 1.72D-04

 Cycle   7  Pass 1  IDiag  1:
 RMSU=  4.11D-06    CP:  9.35D-01  1.09D+00  9.89D-01  8.93D-01  1.15D+00
                    CP:  1.12D+00
 E= -214.085349697408     Delta-E=       -0.000000254750 Rises=F Damp=F
 DIIS: error= 1.40D-05 at cycle   7 NSaved=   7.
 NSaved= 7 IEnMin= 7 EnMin= -214.085349697408     IErMin= 7 ErrMin= 1.40D-05
 ErrMax= 1.40D-05  0.00D+00 EMaxC= 1.00D-01 BMatC= 4.52D-08 BMatP= 2.33D-07
 IDIUse=1 WtCom= 1.00D+00 WtEn= 0.00D+00
 Coeff-Com:  0.680D-03-0.151D-02-0.891D-02-0.167D-01-0.630D-02 0.360D+00
 Coeff-Com:  0.672D+00
 Coeff:      0.680D-03-0.151D-02-0.891D-02-0.167D-01-0.630D-02 0.360D+00
 Coeff:      0.672D+00
 Gap=     0.347 Goal=   None    Shift=    0.000
 RMSDP=2.33D-06 MaxDP=1.53D-04 DE=-2.55D-07 OVMax= 7.42D-05

 Cycle   8  Pass 1  IDiag  1:
 RMSU=  1.17D-06    CP:  9.35D-01  1.09D+00  9.89D-01  8.93D-01  1.16D+00
                    CP:  1.16D+00  9.55D-01
 E= -214.085349735367     Delta-E=       -0.000000037959 Rises=F Damp=F
 DIIS: error= 2.44D-06 at cycle   8 NSaved=   8.
 NSaved= 8 IEnMin= 8 EnMin= -214.085349735367     IErMin= 8 ErrMin= 2.44D-06
 ErrMax= 2.44D-06  0.00D+00 EMaxC= 1.00D-01 BMatC= 1.98D-09 BMatP= 4.52D-08
 IDIUse=1 WtCom= 1.00D+00 WtEn= 0.00D+00
 Coeff-Com:  0.108D-03-0.234D-03-0.160D-02-0.435D-02-0.745D-02 0.552D-01
 Coeff-Com:  0.218D+00 0.740D+00
 Coeff:      0.108D-03-0.234D-03-0.160D-02-0.435D-02-0.745D-02 0.552D-01
 Coeff:      0.218D+00 0.740D+00
 Gap=     0.347 Goal=   None    Shift=    0.000
 RMSDP=5.49D-07 MaxDP=2.87D-05 DE=-3.80D-08 OVMax= 7.32D-06

 Cycle   9  Pass 1  IDiag  1:
 RMSU=  3.26D-07    CP:  9.35D-01  1.09D+00  9.89D-01  8.92D-01  1.16D+00
                    CP:  1.17D+00  9.62D-01  1.07D+00
 E= -214.085349737027     Delta-E=       -0.000000001660 Rises=F Damp=F
 DIIS: error= 3.87D-07 at cycle   9 NSaved=   9.
 NSaved= 9 IEnMin= 9 EnMin= -214.085349737027     IErMin= 9 ErrMin= 3.87D-07
 ErrMax= 3.87D-07  0.00D+00 EMaxC= 1.00D-01 BMatC= 2.95D-11 BMatP= 1.98D-09
 IDIUse=1 WtCom= 1.00D+00 WtEn= 0.00D+00
 Coeff-Com: -0.231D-04 0.493D-04 0.250D-03 0.287D-03-0.398D-03-0.110D-01
 Coeff-Com: -0.444D-02 0.919D-01 0.923D+00
 Coeff:     -0.231D-04 0.493D-04 0.250D-03 0.287D-03-0.398D-03-0.110D-01
 Coeff:     -0.444D-02 0.919D-01 0.923D+00
 Gap=     0.347 Goal=   None    Shift=    0.000
 RMSDP=1.09D-07 MaxDP=2.36D-06 DE=-1.66D-09 OVMax= 1.92D-06

 Cycle  10  Pass 1  IDiag  1:
 RMSU=  5.33D-08    CP:  9.35D-01  1.09D+00  9.89D-01  8.92D-01  1.16D+00
                    CP:  1.17D+00  9.78D-01  1.13D+00  1.05D+00
 E= -214.085349737061     Delta-E=       -0.000000000034 Rises=F Damp=F
 DIIS: error= 1.11D-07 at cycle  10 NSaved=  10.
 NSaved=10 IEnMin=10 EnMin= -214.085349737061     IErMin=10 ErrMin= 1.11D-07
 ErrMax= 1.11D-07  0.00D+00 EMaxC= 1.00D-01 BMatC= 2.17D-12 BMatP= 2.95D-11
 IDIUse=1 WtCom= 1.00D+00 WtEn= 0.00D+00
 Coeff-Com: -0.728D-05 0.160D-04 0.880D-04 0.138D-03-0.398D-04-0.379D-02
 Coeff-Com: -0.538D-02 0.107D-01 0.243D+00 0.755D+00
 Coeff:     -0.728D-05 0.160D-04 0.880D-04 0.138D-03-0.398D-04-0.379D-02
 Coeff:     -0.538D-02 0.107D-01 0.243D+00 0.755D+00
 Gap=     0.347 Goal=   None    Shift=    0.000
 RMSDP=2.52D-08 MaxDP=1.56D-06 DE=-3.38D-11 OVMax= 4.83D-07

 Cycle  11  Pass 1  IDiag  1:
 RMSU=  1.18D-08    CP:  9.35D-01  1.09D+00  9.89D-01  8.92D-01  1.16D+00
                    CP:  1.17D+00  9.78D-01  1.13D+00  1.07D+00  9.50D-01
 E= -214.085349737065     Delta-E=       -0.000000000004 Rises=F Damp=F
 DIIS: error= 5.99D-08 at cycle  11 NSaved=  11.
 NSaved=11 IEnMin=11 EnMin= -214.085349737065     IErMin=11 ErrMin= 5.99D-08
 ErrMax= 5.99D-08  0.00D+00 EMaxC= 1.00D-01 BMatC= 4.21D-13 BMatP= 2.17D-12
 IDIUse=1 WtCom= 1.00D+00 WtEn= 0.00D+00
 Coeff-Com:  0.353D-06-0.396D-06 0.108D-05 0.122D-04 0.191D-04-0.918D-05
 Coeff-Com: -0.157D-02-0.782D-02-0.231D-01 0.299D+00 0.734D+00
 Coeff:      0.353D-06-0.396D-06 0.108D-05 0.122D-04 0.191D-04-0.918D-05
 Coeff:     -0.157D-02-0.782D-02-0.231D-01 0.299D+00 0.734D+00
 Gap=     0.347 Goal=   None    Shift=    0.000
 RMSDP=6.84D-09 MaxDP=1.92D-07 DE=-3.75D-12 OVMax= 1.83D-07

 SCF Done:  E(RM062X) =  -214.085349737     A.U. after   11 cycles
            NFock= 11  Conv=0.68D-08     -V/T= 2.0035
 KE= 2.133326032852D+02 PE=-8.780554626687D+02 EE= 2.555282503593D+02
 Leave Link  502 at Sun Oct 13 20:27:46 2019, MaxMem= 10737418240 cpu:             149.6 elap:               6.3
 (Enter /apps/cent7/gaussian/g16-A.03/g16-haswell/g16/l601.exe)
 Copying SCF densities to generalized density rwf, IOpCl= 0 IROHF=0.

 **********************************************************************

            Population analysis using the SCF density.

 **********************************************************************

 Orbital symmetries:
       Occupied  (A) (A) (A) (A) (A) (A) (A) (A) (A) (A) (A) (A)
                 (A) (A) (A) (A) (A) (A) (A) (A) (A)
       Virtual   (A) (A) (A) (A) (A) (A) (A) (A) (A) (A) (A) (A)
                 (A) (A) (A) (A) (A) (A) (A) (A) (A) (A) (A) (A)
                 (A) (A) (A) (A) (A) (A) (A) (A) (A) (A) (A) (A)
                 (A) (A) (A) (A) (A) (A) (A) (A) (A) (A) (A) (A)
                 (A) (A) (A) (A) (A) (A) (A) (A) (A) (A) (A) (A)
                 (A) (A) (A) (A) (A) (A) (A) (A) (A) (A) (A) (A)
                 (A) (A) (A) (A) (A) (A) (A) (A) (A) (A) (A) (A)
                 (A) (A) (A) (A) (A) (A) (A) (A) (A) (A) (A) (A)
                 (A) (A) (A) (A) (A) (A) (A) (A) (A) (A) (A) (A)
                 (A) (A) (A) (A) (A) (A) (A) (A) (A) (A) (A) (A)
                 (A) (A) (A) (A) (A) (A) (A) (A) (A) (A) (A) (A)
                 (A) (A) (A) (A) (A) (A) (A) (A) (A) (A) (A) (A)
                 (A) (A) (A) (A) (A) (A) (A) (A) (A) (A) (A) (A)
                 (A) (A) (A) (A) (A) (A) (A) (A) (A) (A) (A) (A)
                 (A) (A) (A) (A) (A)
 The electronic state is 1-A.
 Alpha  occ. eigenvalues --  -15.06921 -10.78051 -10.71144 -10.67773 -10.64402
 Alpha  occ. eigenvalues --   -1.33730  -1.06921  -0.98824  -0.91123  -0.88929
 Alpha  occ. eigenvalues --   -0.86809  -0.79966  -0.75095  -0.73474  -0.66277
 Alpha  occ. eigenvalues --   -0.63651  -0.60142  -0.59249  -0.54232  -0.53736
 Alpha  occ. eigenvalues --   -0.52198
 Alpha virt. eigenvalues --   -0.17545  -0.13316  -0.12874  -0.11931  -0.09335
 Alpha virt. eigenvalues --   -0.08827  -0.08534  -0.07519  -0.07362  -0.05526
 Alpha virt. eigenvalues --   -0.04486  -0.04077  -0.03644  -0.03258  -0.01928
 Alpha virt. eigenvalues --   -0.00980  -0.00400  -0.00031   0.00185   0.01059
 Alpha virt. eigenvalues --    0.02026   0.02267   0.02383   0.03367   0.04319
 Alpha virt. eigenvalues --    0.04419   0.04868   0.05863   0.05948   0.06602
 Alpha virt. eigenvalues --    0.07892   0.07949   0.08755   0.09084   0.09634
 Alpha virt. eigenvalues --    0.10102   0.10856   0.11846   0.12542   0.12712
 Alpha virt. eigenvalues --    0.14865   0.16279   0.16564   0.17627   0.18765
 Alpha virt. eigenvalues --    0.21720   0.22374   0.24018   0.30913   0.33919
 Alpha virt. eigenvalues --    0.34974   0.35584   0.36629   0.37984   0.38300
 Alpha virt. eigenvalues --    0.40002   0.41862   0.45366   0.46527   0.51341
 Alpha virt. eigenvalues --    0.52930   0.53450   0.54793   0.55478   0.57034
 Alpha virt. eigenvalues --    0.58585   0.58989   0.59953   0.60363   0.61693
 Alpha virt. eigenvalues --    0.62650   0.63020   0.64006   0.65922   0.68230
 Alpha virt. eigenvalues --    0.75097   0.78168   0.82339   0.85486   0.86629
 Alpha virt. eigenvalues --    0.95842   1.01874   1.11301   1.13419   1.15990
 Alpha virt. eigenvalues --    1.17709   1.21084   1.21942   1.26989   1.29514
 Alpha virt. eigenvalues --    1.35537   1.37106   1.40078   1.40874   1.45105
 Alpha virt. eigenvalues --    1.46388   1.48237   1.49703   1.50537   1.51485
 Alpha virt. eigenvalues --    1.53078   1.54367   1.55709   1.60525   1.61846
 Alpha virt. eigenvalues --    1.63265   1.64441   1.67479   1.68492   1.72020
 Alpha virt. eigenvalues --    1.75944   1.78934   1.80000   1.89014   1.89348
 Alpha virt. eigenvalues --    1.90181   1.91933   1.96955   1.97919   2.01795
 Alpha virt. eigenvalues --    2.04787   2.08010   2.14204   2.16026   2.20816
 Alpha virt. eigenvalues --    2.25739   2.28038   2.28680   2.35121   2.39485
 Alpha virt. eigenvalues --    2.40568   2.41710   2.44268   2.45985   2.47032
 Alpha virt. eigenvalues --    2.48220   2.51615   2.51889   2.53074   2.53544
 Alpha virt. eigenvalues --    2.56708   2.57226   2.60845   2.62759   2.65164
 Alpha virt. eigenvalues --    2.65411   2.71325   2.76188   2.79932   2.80924
 Alpha virt. eigenvalues --    2.83401   2.87921   2.89744   2.91678   3.04089
 Alpha virt. eigenvalues --    3.21200   3.32029   3.62942   3.65228   3.69954
 Alpha virt. eigenvalues --    3.80384   3.85380   3.94856   3.99500   4.20076
 Alpha virt. eigenvalues --    4.64685   4.65129   4.67597  23.73808  23.79538
 Alpha virt. eigenvalues --   23.82432  23.93024  35.45434
          Condensed to atoms (all electrons):
               1          2          3          4          5          6
     1  C    5.387450  -0.023535   0.166134  -0.109709   0.001099   0.403953
     2  C   -0.023535   5.589012  -0.342436   0.383024   0.004984   0.022106
     3  C    0.166134  -0.342436   6.219816  -0.793182   0.034596  -0.036468
     4  C   -0.109709   0.383024  -0.793182   6.925254  -0.201475  -0.005308
     5  N    0.001099   0.004984   0.034596  -0.201475   6.330952   0.000543
     6  H    0.403953   0.022106  -0.036468  -0.005308   0.000543   0.513846
     7  H    0.408579  -0.058996   0.026127  -0.003727   0.000377  -0.016415
     8  H    0.361881  -0.021481  -0.012691  -0.000245   0.001781  -0.044002
     9  H   -0.043582   0.444331  -0.025586  -0.025386  -0.003594   0.012140
    10  H   -0.060623   0.380626   0.009741  -0.007470  -0.000283  -0.031959
    11  H    0.009232  -0.022468   0.445154  -0.087422  -0.002527   0.011102
    12  H    0.009008  -0.087144   0.479280  -0.057674   0.010266  -0.008045
    13  H    0.001631  -0.032152   0.065582   0.293373  -0.026763   0.001561
    14  H    0.005391  -0.051182   0.076721   0.298667  -0.025154   0.000171
    15  H    0.000953  -0.010913   0.054078  -0.079681   0.366161  -0.000070
    16  H   -0.000395   0.001410  -0.008079   0.002258   0.354094   0.000174
    17  H   -0.000171  -0.001839  -0.009416   0.008886   0.355010  -0.000223
               7          8          9         10         11         12
     1  C    0.408579   0.361881  -0.043582  -0.060623   0.009232   0.009008
     2  C   -0.058996  -0.021481   0.444331   0.380626  -0.022468  -0.087144
     3  C    0.026127  -0.012691  -0.025586   0.009741   0.445154   0.479280
     4  C   -0.003727  -0.000245  -0.025386  -0.007470  -0.087422  -0.057674
     5  N    0.000377   0.001781  -0.003594  -0.000283  -0.002527   0.010266
     6  H   -0.016415  -0.044002   0.012140  -0.031959   0.011102  -0.008045
     7  H    0.499722  -0.036968  -0.007383   0.001914  -0.002167   0.000384
     8  H   -0.036968   0.592991  -0.010716   0.017884  -0.004086   0.012584
     9  H   -0.007383  -0.010716   0.576801  -0.056069   0.021624  -0.043571
    10  H    0.001914   0.017884  -0.056069   0.595690  -0.041608   0.023964
    11  H   -0.002167  -0.004086   0.021624  -0.041608   0.549232  -0.061191
    12  H    0.000384   0.012584  -0.043571   0.023964  -0.061191   0.545106
    13  H   -0.000004   0.000480   0.008126  -0.003359   0.002467  -0.009715
    14  H    0.000341   0.001247  -0.001876   0.005543  -0.008882  -0.000113
    15  H    0.000205   0.000540   0.000135   0.000941  -0.001800  -0.001554
    16  H   -0.000053   0.000042   0.002342  -0.001378   0.007361  -0.009421
    17  H    0.000033   0.000111  -0.001370   0.002162  -0.007458   0.006765
              13         14         15         16         17
     1  C    0.001631   0.005391   0.000953  -0.000395  -0.000171
     2  C   -0.032152  -0.051182  -0.010913   0.001410  -0.001839
     3  C    0.065582   0.076721   0.054078  -0.008079  -0.009416
     4  C    0.293373   0.298667  -0.079681   0.002258   0.008886
     5  N   -0.026763  -0.025154   0.366161   0.354094   0.355010
     6  H    0.001561   0.000171  -0.000070   0.000174  -0.000223
     7  H   -0.000004   0.000341   0.000205  -0.000053   0.000033
     8  H    0.000480   0.001247   0.000540   0.000042   0.000111
     9  H    0.008126  -0.001876   0.000135   0.002342  -0.001370
    10  H   -0.003359   0.005543   0.000941  -0.001378   0.002162
    11  H    0.002467  -0.008882  -0.001800   0.007361  -0.007458
    12  H   -0.009715  -0.000113  -0.001554  -0.009421   0.006765
    13  H    0.420301   0.023395   0.005747  -0.001316  -0.002270
    14  H    0.023395   0.419390   0.006428  -0.001261  -0.001567
    15  H    0.005747   0.006428   0.338352  -0.017484  -0.019289
    16  H   -0.001316  -0.001261  -0.017484   0.338929  -0.023598
    17  H   -0.002270  -0.001567  -0.019289  -0.023598   0.341246
 Mulliken charges:
               1
     1  C   -0.517297
     2  C   -0.173346
     3  C   -0.349372
     4  C   -0.540182
     5  N   -0.200067
     6  H    0.176895
     7  H    0.188029
     8  H    0.140648
     9  H    0.153635
    10  H    0.164285
    11  H    0.193436
    12  H    0.191072
    13  H    0.252914
    14  H    0.252740
    15  H    0.357250
    16  H    0.356374
    17  H    0.352987
 Sum of Mulliken charges =   1.00000
 Mulliken charges with hydrogens summed into heavy atoms:
               1
     1  C   -0.011725
     2  C    0.144573
     3  C    0.035136
     4  C   -0.034528
     5  N    0.866544
 Electronic spatial extent (au):  <R**2>=            694.0299
 Charge=              1.0000 electrons
 Dipole moment (field-independent basis, Debye):
    X=              8.6793    Y=             -0.8895    Z=             -0.0137  Tot=              8.7248
 Quadrupole moment (field-independent basis, Debye-Ang):
   XX=             -2.7896   YY=            -30.8280   ZZ=            -28.3252
   XY=             -3.0817   XZ=              0.0080   YZ=             -0.0008
 Traceless Quadrupole moment (field-independent basis, Debye-Ang):
   XX=             17.8580   YY=            -10.1804   ZZ=             -7.6776
   XY=             -3.0817   XZ=              0.0080   YZ=             -0.0008
 Octapole moment (field-independent basis, Debye-Ang**2):
  XXX=             80.7806  YYY=             -4.6347  ZZZ=              0.3413  XYY=              9.8784
  XXY=             -6.1843  XXZ=             -0.3836  XZZ=             11.2675  YZZ=              0.7596
  YYZ=             -0.2421  XYZ=              0.5739
 Hexadecapole moment (field-independent basis, Debye-Ang**3):
 XXXX=           -479.2397 YYYY=           -101.1814 ZZZZ=            -59.3125 XXXY=            -27.1697
 XXXZ=              3.6905 YYYX=            -10.6370 YYYZ=              0.5095 ZZZX=             -3.2131
 ZZZY=             -0.2521 XXYY=           -129.2365 XXZZ=           -105.4409 YYZZ=            -24.3039
 XXYZ=             -1.1756 YYXZ=              1.4252 ZZXY=             -0.8012
 N-N= 1.951092592871D+02 E-N=-8.780554627055D+02  KE= 2.133326032852D+02
 No NMR shielding tensors so no spin-rotation constants.
 Leave Link  601 at Sun Oct 13 20:27:46 2019, MaxMem= 10737418240 cpu:               2.5 elap:               0.1
 (Enter /apps/cent7/gaussian/g16-A.03/g16-haswell/g16/l701.exe)
 ... and contract with generalized density number  0.
 Compute integral first derivatives.
 Leave Link  701 at Sun Oct 13 20:27:46 2019, MaxMem= 10737418240 cpu:               5.6 elap:               0.3
 (Enter /apps/cent7/gaussian/g16-A.03/g16-haswell/g16/l702.exe)
 L702 exits ... SP integral derivatives will be done elsewhere.
 Leave Link  702 at Sun Oct 13 20:27:46 2019, MaxMem= 10737418240 cpu:               0.6 elap:               0.0
 (Enter /apps/cent7/gaussian/g16-A.03/g16-haswell/g16/l703.exe)
 Integral derivatives from FoFJK, PRISM(SPDF).
 Compute integral first derivatives, UseDBF=F ICtDFT=           0.
 Calling FoFJK, ICntrl=      2127 FMM=F ISym2X=0 I1Cent= 0 IOpClX= 0 NMat=1 NMatS=1 NMatT=0.
 FoFJK:  IHMeth= 1 ICntrl=    2127 DoSepK=F KAlg= 0 I1Cent=           0 FoldK=F
 IRaf=         0 NMat=       1 IRICut=       1 DoRegI=T DoRafI=F ISym2E= 0 IDoP0=0 IntGTp=1.
 FoFCou: FMM=F IPFlag=           0 FMFlag=      100000 FMFlg1=         800
         NFxFlg=           0 DoJE=F BraDBF=F KetDBF=F FulRan=T
         wScrn=  0.000000 ICntrl=      2127 IOpCl=  0 I1Cent=           0 NGrid=           0
         NMat0=    1 NMatS0=      1 NMatT0=    0 NMatD0=    1 NMtDS0=    0 NMtDT0=    0
 Symmetry not used in FoFCou.
 Leave Link  703 at Sun Oct 13 20:27:48 2019, MaxMem= 10737418240 cpu:              26.7 elap:               1.1
 (Enter /apps/cent7/gaussian/g16-A.03/g16-haswell/g16/l716.exe)
 Dipole        = 3.41468949D+00-3.49973631D-01-5.38770878D-03
 ***** Axes restored to original set *****
 -------------------------------------------------------------------
 Center     Atomic                   Forces (Hartrees/Bohr)
 Number     Number              X              Y              Z
 -------------------------------------------------------------------
      1        6           0.000337126    0.009507099    0.008277397
      2        6           0.019101832    0.006723820   -0.004739882
      3        6          -0.020354608   -0.003173017    0.006940392
      4        6          -0.007023358   -0.038393791   -0.021233296
      5        7           0.002235183    0.003245719    0.000960697
      6        1           0.002338522   -0.001085787   -0.003720259
      7        1           0.002591661   -0.001436704    0.000490544
      8        1           0.001085334   -0.003256168   -0.003976468
      9        1          -0.011869210   -0.005012181    0.012098390
     10        1          -0.019441995    0.003199788   -0.002150453
     11        1           0.013728342    0.005149617   -0.010052004
     12        1           0.017254726   -0.001647724   -0.000114258
     13        1          -0.010253290   -0.007433177    0.012776320
     14        1          -0.016756348    0.003138204   -0.004023124
     15        1           0.022904096    0.001442241   -0.006169893
     16        1          -0.001238820    0.020792616   -0.004350543
     17        1           0.005360808    0.008239445    0.018986441
 -------------------------------------------------------------------
 Cartesian Forces:  Max     0.038393791 RMS     0.011322996
 Leave Link  716 at Sun Oct 13 20:27:48 2019, MaxMem= 10737418240 cpu:               0.6 elap:               0.0
 (Enter /apps/cent7/gaussian/g16-A.03/g16-haswell/g16/l103.exe)

 GradGradGradGradGradGradGradGradGradGradGradGradGradGradGradGradGradGrad
 Berny optimization.
 FormGI is forming the generalized inverse of G from B-inverse, IUseBI=4.
 Internal  Forces:  Max     0.045544157 RMS     0.008458701
 Search for a local minimum.
 Step number   1 out of a maximum of   92
 All quantities printed in internal units (Hartrees-Bohrs-Radians)
 RMS Force = .84587D-02 SwitMx=.10000D-02 MixMth= 1
 Mixed Optimization -- RFO/linear search
 Second derivative matrix not updated -- first step.
 ITU=  0
     Eigenvalues ---    0.00230   0.00230   0.00230   0.00830   0.03907
     Eigenvalues ---    0.03951   0.04385   0.05128   0.05142   0.05341
     Eigenvalues ---    0.05715   0.05715   0.06107   0.06107   0.07685
     Eigenvalues ---    0.07784   0.07852   0.11630   0.11804   0.11857
     Eigenvalues ---    0.16000   0.16000   0.16000   0.16000   0.16000
     Eigenvalues ---    0.16000   0.22463   0.22510   0.22520   0.27507
     Eigenvalues ---    0.27831   0.27966   0.34808   0.34808   0.34809
     Eigenvalues ---    0.34810   0.34813   0.34814   0.34814   0.34816
     Eigenvalues ---    0.34820   0.36330   0.47688   0.47688   0.47688
 RFO step:  Lambda=-2.56448447D-02 EMin= 2.30000000D-03
 Linear search not attempted -- first point.
 Maximum step size (   0.300) exceeded in Quadratic search.
    -- Step size scaled by   0.960
 Iteration  1 RMS(Cart)=  0.05092808 RMS(Int)=  0.00109145
 Iteration  2 RMS(Cart)=  0.00113520 RMS(Int)=  0.00025983
 Iteration  3 RMS(Cart)=  0.00000037 RMS(Int)=  0.00025983
 ITry= 1 IFail=0 DXMaxC= 1.60D-01 DCOld= 1.00D+10 DXMaxT= 3.00D-01 DXLimC= 3.00D+00 Rises=F
 Variable       Old X    -DE/DX   Delta X   Delta X   Delta X     New X
                                 (Linear)    (Quad)   (Total)
    R1        2.92213   0.00005   0.00000   0.00016   0.00016   2.92229
    R2        2.05968  -0.00012   0.00000  -0.00030  -0.00030   2.05938
    R3        2.05986  -0.00132   0.00000  -0.00338  -0.00338   2.05648
    R4        2.05988   0.00132   0.00000   0.00338   0.00338   2.06326
    R5        2.93230  -0.00509   0.00000  -0.01626  -0.01626   2.91604
    R6        2.05978   0.00053   0.00000   0.00136   0.00136   2.06114
    R7        2.05978   0.00029   0.00000   0.00076   0.00076   2.06053
    R8        2.92509  -0.00530   0.00000  -0.01672  -0.01672   2.90837
    R9        2.05988   0.00295   0.00000   0.00757   0.00757   2.06745
   R10        2.05979   0.00260   0.00000   0.00667   0.00667   2.06646
   R11        2.76869   0.04554   0.00000   0.11240   0.11240   2.88109
   R12        2.05974  -0.00186   0.00000  -0.00478  -0.00478   2.05496
   R13        2.05984  -0.00191   0.00000  -0.00491  -0.00491   2.05493
   R14        1.88973   0.02300   0.00000   0.04393   0.04393   1.93366
   R15        1.88973   0.01973   0.00000   0.03768   0.03768   1.92741
   R16        1.88973   0.01983   0.00000   0.03788   0.03788   1.92761
    A1        1.91070   0.00492   0.00000   0.02624   0.02592   1.93662
    A2        1.91064   0.00135   0.00000   0.00534   0.00528   1.91591
    A3        1.91060   0.00570   0.00000   0.03035   0.03003   1.94063
    A4        1.91069  -0.00347   0.00000  -0.01965  -0.01970   1.89099
    A5        1.91062  -0.00466   0.00000  -0.02080  -0.02133   1.88929
    A6        1.91055  -0.00384   0.00000  -0.02149  -0.02156   1.88899
    A7        1.96381  -0.01587   0.00000  -0.04059  -0.04014   1.92368
    A8        1.85116   0.00723   0.00000   0.04555   0.04587   1.89703
    A9        1.85112   0.00715   0.00000   0.04364   0.04397   1.89509
   A10        1.85327   0.00609   0.00000   0.03477   0.03520   1.88847
   A11        1.85332   0.00584   0.00000   0.03174   0.03219   1.88550
   A12        2.09438  -0.01255   0.00000  -0.12037  -0.12029   1.97409
   A13        1.97138  -0.01693   0.00000  -0.04668  -0.04606   1.92532
   A14        1.85140   0.00664   0.00000   0.03738   0.03789   1.88929
   A15        1.85139   0.00621   0.00000   0.03436   0.03488   1.88628
   A16        1.84977   0.00664   0.00000   0.03842   0.03889   1.88866
   A17        1.84978   0.00703   0.00000   0.04088   0.04133   1.89111
   A18        2.09435  -0.01190   0.00000  -0.11107  -0.11108   1.98328
   A19        1.92753  -0.01116   0.00000  -0.02323  -0.02321   1.90432
   A20        1.87678   0.00478   0.00000   0.02736   0.02745   1.90423
   A21        1.87668   0.00499   0.00000   0.02896   0.02904   1.90573
   A22        1.84292   0.00588   0.00000   0.03997   0.04002   1.88293
   A23        1.84290   0.00572   0.00000   0.03907   0.03911   1.88201
   A24        2.09446  -0.01141   0.00000  -0.11143  -0.11124   1.98323
   A25        1.91063   0.00483   0.00000   0.02456   0.02405   1.93469
   A26        1.91063   0.00793   0.00000   0.04104   0.04032   1.95096
   A27        1.91063   0.00793   0.00000   0.04136   0.04063   1.95126
   A28        1.91063  -0.00654   0.00000  -0.03455  -0.03501   1.87563
   A29        1.91063  -0.00639   0.00000  -0.03314  -0.03363   1.87700
   A30        1.91063  -0.00775   0.00000  -0.03927  -0.04015   1.87049
    D1        1.51473  -0.00057   0.00000  -0.02624  -0.02612   1.48861
    D2       -2.74942   0.00283   0.00000   0.02171   0.02175  -2.72767
    D3       -0.50434  -0.00362   0.00000  -0.06941  -0.06919  -0.57353
    D4       -2.67395  -0.00098   0.00000  -0.03096  -0.03097  -2.70492
    D5       -0.65492   0.00243   0.00000   0.01699   0.01690  -0.63802
    D6        1.59017  -0.00403   0.00000  -0.07413  -0.07405   1.51612
    D7       -0.57967  -0.00136   0.00000  -0.03542  -0.03555  -0.61522
    D8        1.43937   0.00204   0.00000   0.01252   0.01232   1.45169
    D9       -2.59873  -0.00441   0.00000  -0.07859  -0.07862  -2.67736
   D10        3.13960   0.00028   0.00000   0.00595   0.00596  -3.13762
   D11       -1.12467   0.00346   0.00000   0.05058   0.05049  -1.07418
   D12        1.12069  -0.00312   0.00000  -0.03981  -0.03974   1.08095
   D13        1.12184  -0.00379   0.00000  -0.04846  -0.04843   1.07341
   D14        3.14075  -0.00061   0.00000  -0.00383  -0.00389   3.13686
   D15       -0.89708  -0.00719   0.00000  -0.09422  -0.09412  -0.99120
   D16       -1.12584   0.00410   0.00000   0.05625   0.05624  -1.06960
   D17        0.89307   0.00728   0.00000   0.10088   0.10078   0.99385
   D18        3.13843   0.00070   0.00000   0.01050   0.01055  -3.13421
   D19       -3.13087   0.00006   0.00000   0.00015   0.00016  -3.13071
   D20       -1.12824   0.00389   0.00000   0.05073   0.05077  -1.07746
   D21        1.14976  -0.00371   0.00000  -0.05026  -0.05028   1.09948
   D22        1.13243  -0.00315   0.00000  -0.04389  -0.04379   1.08865
   D23        3.13506   0.00069   0.00000   0.00669   0.00683  -3.14129
   D24       -0.87012  -0.00691   0.00000  -0.09430  -0.09423  -0.96435
   D25       -1.11098   0.00298   0.00000   0.04204   0.04192  -1.06906
   D26        0.89165   0.00681   0.00000   0.09262   0.09254   0.98419
   D27       -3.11354  -0.00079   0.00000  -0.00837  -0.00851  -3.12205
   D28       -0.08810  -0.00022   0.00000  -0.00612  -0.00611  -0.09422
   D29        2.00629  -0.00041   0.00000  -0.00827  -0.00838   1.99792
   D30       -2.18250  -0.00020   0.00000  -0.00590  -0.00580  -2.18830
   D31       -2.11199  -0.00358   0.00000  -0.04885  -0.04885  -2.16084
   D32       -0.01759  -0.00377   0.00000  -0.05099  -0.05111  -0.06871
   D33        2.07680  -0.00356   0.00000  -0.04862  -0.04854   2.02826
   D34        1.93566   0.00330   0.00000   0.03799   0.03802   1.97368
   D35       -2.25313   0.00311   0.00000   0.03585   0.03575  -2.21737
   D36       -0.15873   0.00332   0.00000   0.03821   0.03833  -0.12040
         Item               Value     Threshold  Converged?
 Maximum Force            0.045544     0.000450     NO 
 RMS     Force            0.008459     0.000300     NO 
 Maximum Displacement     0.160491     0.001800     NO 
 RMS     Displacement     0.050821     0.001200     NO 
 Predicted change in Energy=-1.505616D-02
 Lowest energy point so far.  Saving SCF results.
 GradGradGradGradGradGradGradGradGradGradGradGradGradGradGradGradGradGrad

 Leave Link  103 at Sun Oct 13 20:27:48 2019, MaxMem= 10737418240 cpu:               1.1 elap:               0.1
 (Enter /apps/cent7/gaussian/g16-A.03/g16-haswell/g16/l202.exe)
                          Input orientation:                          
 ---------------------------------------------------------------------
 Center     Atomic      Atomic             Coordinates (Angstroms)
 Number     Number       Type             X           Y           Z
 ---------------------------------------------------------------------
      1          6           0        1.837815   -0.633247   -1.455462
      2          6           0        1.068188    0.329953   -0.522028
      3          6           0        1.971664    1.512410   -0.113750
      4          6           0        1.209571    2.469541    0.819937
      5          7           0        2.120773    3.633497    1.193220
      6          1           0        2.421079   -1.351306   -0.879435
      7          1           0        1.134521   -1.183585   -2.077378
      8          1           0        2.518911   -0.087167   -2.111202
      9          1           0        0.208923    0.728595   -1.062759
     10          1           0        0.790772   -0.211068    0.383113
     11          1           0        2.831405    1.113811    0.432967
     12          1           0        2.244133    2.059990   -1.020230
     13          1           0        0.350507    2.874503    0.290277
     14          1           0        0.949011    1.943753    1.735440
     15          1           0        3.064064    3.490706    0.823291
     16          1           0        1.776487    4.518281    0.820527
     17          1           0        2.200310    3.743165    2.204230
 ---------------------------------------------------------------------
                    Distance matrix (angstroms):
                    1          2          3          4          5
     1  C    0.000000
     2  C    1.546409   0.000000
     3  C    2.534156   1.543102   0.000000
     4  C    3.898644   2.529564   1.539045   0.000000
     5  N    5.029978   3.868257   2.495880   1.524606   0.000000
     6  H    1.089777   2.187393   2.998185   4.353675   5.406879
     7  H    1.088244   2.171247   3.438754   4.663196   5.905403
     8  H    1.091828   2.191817   2.616856   4.103986   4.992099
     9  H    2.159194   1.090707   2.149939   2.752587   4.145247
    10  H    2.157520   1.090387   2.147499   2.748067   4.147994
    11  H    2.757824   2.152994   1.094045   2.148975   2.726133
    12  H    2.758268   2.150367   1.093521   2.150411   2.718548
    13  H    4.190942   2.765798   2.155618   1.087439   2.127256
    14  H    4.196756   2.777538   2.156706   1.087424   2.126562
    15  H    4.868613   3.972879   2.446435   2.117058   1.023247
    16  H    5.632240   4.454911   3.153765   2.125731   1.019939
    17  H    5.716443   4.512670   3.225148   2.126017   1.020046
                    6          7          8          9         10
     6  H    0.000000
     7  H    1.765908   0.000000
     8  H    1.767729   1.766300   0.000000
     9  H    3.041912   2.354276   2.664722   0.000000
    10  H    2.356283   2.667952   3.037009   1.819906   0.000000
    11  H    2.822688   3.802536   2.830688   3.043517   2.433510
    12  H    3.418782   3.587420   2.424047   2.432386   3.039627
    13  H    4.849016   4.763250   4.386407   2.540802   3.118204
    14  H    4.456677   4.934799   4.624487   3.139150   2.548938
    15  H    5.172793   5.829753   4.659358   4.397531   4.366319
    16  H    6.144707   6.428162   5.509662   4.512843   4.850743
    17  H    5.959141   6.613693   5.778918   4.870982   4.575939
                   11         12         13         14         15
    11  H    0.000000
    12  H    1.830826   0.000000
    13  H    3.045530   2.442679   0.000000
    14  H    2.434881   3.047059   1.820164   0.000000
    15  H    2.419941   2.473420   2.833232   2.774622   0.000000
    16  H    3.585174   3.106490   2.239775   2.854816   1.647353
    17  H    3.232515   3.637601   2.799921   2.241293   1.648271
                   16         17
    16  H    0.000000
    17  H    1.641665   0.000000
 Stoichiometry    C4H12N(1+)
 Framework group  C1[X(C4H12N)]
 Deg. of freedom    45
 Full point group                 C1      NOp   1
 RotChk:  IX=0 Diff= 9.40D-03
 Largest Abelian subgroup         C1      NOp   1
 Largest concise Abelian subgroup C1      NOp   1
                         Standard orientation:                         
 ---------------------------------------------------------------------
 Center     Atomic      Atomic             Coordinates (Angstroms)
 Number     Number       Type             X           Y           Z
 ---------------------------------------------------------------------
      1          6           0       -2.580784   -0.344465    0.000661
      2          6           0       -1.320221    0.551267   -0.004310
      3          6           0       -0.046747   -0.320148    0.003685
      4          6           0        1.209264    0.569288    0.004483
      5          7           0        2.449123   -0.317907   -0.003256
      6          1           0       -2.851452   -0.630937    1.016676
      7          1           0       -3.417872    0.195535   -0.437471
      8          1           0       -2.420192   -1.255028   -0.580005
      9          1           0       -1.319005    1.147958   -0.917326
     10          1           0       -1.320617    1.156685    0.902558
     11          1           0       -0.044751   -0.915458    0.921583
     12          1           0       -0.041793   -0.922106   -0.909229
     13          1           0        1.221674    1.168419   -0.902938
     14          1           0        1.228277    1.160121    0.917196
     15          1           0        2.191538   -1.304468    0.082657
     16          1           0        2.982824   -0.214911   -0.866292
     17          1           0        3.078439   -0.096109    0.768275
 ---------------------------------------------------------------------
 Rotational constants (GHZ):          16.5863410           1.8989887           1.8005535
 Leave Link  202 at Sun Oct 13 20:27:48 2019, MaxMem= 10737418240 cpu:               0.2 elap:               0.0
 (Enter /apps/cent7/gaussian/g16-A.03/g16-haswell/g16/l301.exe)
 Standard basis: 6-311++G(d,p) (5D, 7F)
 Ernie: Thresh=  0.10000D-02 Tol=  0.10000D-05 Strict=F.
 There are   199 symmetry adapted cartesian basis functions of A   symmetry.
 There are   194 symmetry adapted basis functions of A   symmetry.
   194 basis functions,   288 primitive gaussians,   199 cartesian basis functions
    21 alpha electrons       21 beta electrons
       nuclear repulsion energy       194.1993597616 Hartrees.
 IExCor= 4336 DFT=T Ex+Corr=M062X ExCW=0 ScaHFX=  0.540000
 ScaDFX=  1.000000  1.000000  1.000000  1.000000 ScalE2=  1.000000  1.000000
 IRadAn=      5 IRanWt=     -1 IRanGd=            0 ICorTp=0 IEmpDi=  4
 NAtoms=   17 NActive=   17 NUniq=   17 SFac= 1.00D+00 NAtFMM=   60 NAOKFM=F Big=F
 Integral buffers will be    131072 words long.
 Raffenetti 2 integral format.
 Two-electron integral symmetry is turned on.
 Leave Link  301 at Sun Oct 13 20:27:48 2019, MaxMem= 10737418240 cpu:               1.3 elap:               0.1
 (Enter /apps/cent7/gaussian/g16-A.03/g16-haswell/g16/l302.exe)
 NPDir=0 NMtPBC=     1 NCelOv=     1 NCel=       1 NClECP=     1 NCelD=      1
         NCelK=      1 NCelE2=     1 NClLst=     1 CellRange=     0.0.
 One-electron integrals computed using PRISM.
 One-electron integral symmetry used in STVInt
 NBasis=   194 RedAO= T EigKep=  1.61D-05  NBF=   194
 NBsUse=   194 1.00D-06 EigRej= -1.00D+00 NBFU=   194
 Precomputing XC quadrature grid using
 IXCGrd= 4 IRadAn=           5 IRanWt=          -1 IRanGd=           0 AccXCQ= 0.00D+00.
 Generated NRdTot=       0 NPtTot=           0 NUsed=           0 NTot=          32
 NSgBfM=   199   199   199   199   199 MxSgAt=    17 MxSgA2=    17.
 Leave Link  302 at Sun Oct 13 20:27:48 2019, MaxMem= 10737418240 cpu:               3.4 elap:               0.2
 (Enter /apps/cent7/gaussian/g16-A.03/g16-haswell/g16/l303.exe)
 DipDrv:  MaxL=1.
 Leave Link  303 at Sun Oct 13 20:27:48 2019, MaxMem= 10737418240 cpu:               1.1 elap:               0.1
 (Enter /apps/cent7/gaussian/g16-A.03/g16-haswell/g16/l401.exe)
 Initial guess from the checkpoint file:  "18_p.chk"
 B after Tr=     0.000000    0.000000   -0.000000
         Rot=    0.999996   -0.002301   -0.000168   -0.001892 Ang=  -0.34 deg.
 Guess basis will be translated and rotated to current coordinates.
 JPrj=2 DoOrth=T DoCkMO=T.
 Generating alternative initial guess.
 ExpMin= 3.60D-02 ExpMax= 6.29D+03 ExpMxC= 9.49D+02 IAcc=3 IRadAn=         5 AccDes= 0.00D+00
 Harris functional with IExCor= 1009 and IRadAn=       5 diagonalized for initial guess.
 HarFok:  IExCor= 1009 AccDes= 0.00D+00 IRadAn=         5 IDoV= 1 UseB2=F ITyADJ=14
 ICtDFT=  3500011 ScaDFX=  1.000000  1.000000  1.000000  1.000000
 FoFCou: FMM=F IPFlag=           0 FMFlag=      100000 FMFlg1=           0
         NFxFlg=           0 DoJE=T BraDBF=F KetDBF=T FulRan=T
         wScrn=  0.000000 ICntrl=       500 IOpCl=  0 I1Cent=   200000004 NGrid=           0
         NMat0=    1 NMatS0=      1 NMatT0=    0 NMatD0=    1 NMtDS0=    0 NMtDT0=    0
 Petite list used in FoFCou.
 Harris En= -214.111948202559    
 Leave Link  401 at Sun Oct 13 20:27:49 2019, MaxMem= 10737418240 cpu:               9.9 elap:               0.4
 (Enter /apps/cent7/gaussian/g16-A.03/g16-haswell/g16/l502.exe)
 Integral symmetry usage will be decided dynamically.
 Closed shell SCF:
 Using DIIS extrapolation, IDIIS=  1040.
 NGot= 10737418240 LenX= 10737332085 LenY= 10737292043
 Requested convergence on RMS density matrix=1.00D-08 within 128 cycles.
 Requested convergence on MAX density matrix=1.00D-06.
 Requested convergence on             energy=1.00D-06.
 No special actions if energy rises.
 Fock matrices will be formed incrementally for  20 cycles.

 Cycle   1  Pass 1  IDiag  1:
 FoFJK:  IHMeth= 1 ICntrl=       0 DoSepK=F KAlg= 0 I1Cent=           0 FoldK=F
 IRaf= 970000000 NMat=       1 IRICut=       1 DoRegI=T DoRafI=F ISym2E= 0 IDoP0=0 IntGTp=1.
 FoFCou: FMM=F IPFlag=           0 FMFlag=      100000 FMFlg1=           0
         NFxFlg=           0 DoJE=F BraDBF=F KetDBF=F FulRan=T
         wScrn=  0.000000 ICntrl=         0 IOpCl=  0 I1Cent=           0 NGrid=           0
         NMat0=    1 NMatS0=      1 NMatT0=    0 NMatD0=    1 NMtDS0=    0 NMtDT0=    0
 Symmetry not used in FoFCou.
 E= -214.097701815921    
 DIIS: error= 2.58D-03 at cycle   1 NSaved=   1.
 NSaved= 1 IEnMin= 1 EnMin= -214.097701815921     IErMin= 1 ErrMin= 2.58D-03
 ErrMax= 2.58D-03  0.00D+00 EMaxC= 1.00D-01 BMatC= 2.43D-03 BMatP= 2.43D-03
 IDIUse=3 WtCom= 9.74D-01 WtEn= 2.58D-02
 Coeff-Com:  0.100D+01
 Coeff-En:   0.100D+01
 Coeff:      0.100D+01
 Gap=     0.514 Goal=   None    Shift=    0.000
 GapD=    0.514 DampG=2.000 DampE=1.000 DampFc=2.0000 IDamp=-1.
 RMSDP=1.10D-03 MaxDP=4.76D-02              OVMax= 1.26D-02

 Cycle   2  Pass 1  IDiag  1:
 RMSU=  1.06D-03    CP:  9.79D-01
 E= -214.100201824893     Delta-E=       -0.002500008971 Rises=F Damp=F
 DIIS: error= 1.48D-03 at cycle   2 NSaved=   2.
 NSaved= 2 IEnMin= 2 EnMin= -214.100201824893     IErMin= 2 ErrMin= 1.48D-03
 ErrMax= 1.48D-03  0.00D+00 EMaxC= 1.00D-01 BMatC= 3.33D-04 BMatP= 2.43D-03
 IDIUse=3 WtCom= 9.85D-01 WtEn= 1.48D-02
 Coeff-Com:  0.151D+00 0.849D+00
 Coeff-En:   0.000D+00 0.100D+01
 Coeff:      0.148D+00 0.852D+00
 Gap=     0.355 Goal=   None    Shift=    0.000
 RMSDP=1.66D-04 MaxDP=1.10D-02 DE=-2.50D-03 OVMax= 6.46D-03

 Cycle   3  Pass 1  IDiag  1:
 RMSU=  1.51D-04    CP:  9.84D-01  1.02D+00
 E= -214.100378670015     Delta-E=       -0.000176845122 Rises=F Damp=F
 DIIS: error= 7.75D-04 at cycle   3 NSaved=   3.
 NSaved= 3 IEnMin= 3 EnMin= -214.100378670015     IErMin= 3 ErrMin= 7.75D-04
 ErrMax= 7.75D-04  0.00D+00 EMaxC= 1.00D-01 BMatC= 1.66D-04 BMatP= 3.33D-04
 IDIUse=3 WtCom= 9.92D-01 WtEn= 7.75D-03
 Coeff-Com: -0.458D-01 0.408D+00 0.638D+00
 Coeff-En:   0.000D+00 0.245D+00 0.755D+00
 Coeff:     -0.454D-01 0.407D+00 0.638D+00
 Gap=     0.357 Goal=   None    Shift=    0.000
 RMSDP=7.04D-05 MaxDP=2.84D-03 DE=-1.77D-04 OVMax= 2.78D-03

 Cycle   4  Pass 1  IDiag  1:
 RMSU=  5.55D-05    CP:  9.84D-01  1.06D+00  9.92D-01
 E= -214.100512169353     Delta-E=       -0.000133499338 Rises=F Damp=F
 DIIS: error= 7.46D-05 at cycle   4 NSaved=   4.
 NSaved= 4 IEnMin= 4 EnMin= -214.100512169353     IErMin= 4 ErrMin= 7.46D-05
 ErrMax= 7.46D-05  0.00D+00 EMaxC= 1.00D-01 BMatC= 1.27D-06 BMatP= 1.66D-04
 IDIUse=1 WtCom= 1.00D+00 WtEn= 0.00D+00
 Coeff-Com: -0.122D-01 0.469D-01 0.114D+00 0.851D+00
 Coeff:     -0.122D-01 0.469D-01 0.114D+00 0.851D+00
 Gap=     0.356 Goal=   None    Shift=    0.000
 RMSDP=1.62D-05 MaxDP=5.37D-04 DE=-1.33D-04 OVMax= 4.27D-04

 Cycle   5  Pass 1  IDiag  1:
 RMSU=  1.18D-05    CP:  9.84D-01  1.06D+00  1.05D+00  1.10D+00
 E= -214.100513609319     Delta-E=       -0.000001439966 Rises=F Damp=F
 DIIS: error= 3.62D-05 at cycle   5 NSaved=   5.
 NSaved= 5 IEnMin= 5 EnMin= -214.100513609319     IErMin= 5 ErrMin= 3.62D-05
 ErrMax= 3.62D-05  0.00D+00 EMaxC= 1.00D-01 BMatC= 1.95D-07 BMatP= 1.27D-06
 IDIUse=1 WtCom= 1.00D+00 WtEn= 0.00D+00
 Coeff-Com:  0.977D-04-0.196D-01-0.190D-01 0.252D+00 0.787D+00
 Coeff:      0.977D-04-0.196D-01-0.190D-01 0.252D+00 0.787D+00
 Gap=     0.356 Goal=   None    Shift=    0.000
 RMSDP=7.14D-06 MaxDP=5.05D-04 DE=-1.44D-06 OVMax= 1.41D-04

 Cycle   6  Pass 1  IDiag  1:
 RMSU=  2.61D-06    CP:  9.85D-01  1.06D+00  1.08D+00  1.17D+00  8.96D-01
 E= -214.100513833323     Delta-E=       -0.000000224004 Rises=F Damp=F
 DIIS: error= 1.03D-05 at cycle   6 NSaved=   6.
 NSaved= 6 IEnMin= 6 EnMin= -214.100513833323     IErMin= 6 ErrMin= 1.03D-05
 ErrMax= 1.03D-05  0.00D+00 EMaxC= 1.00D-01 BMatC= 1.53D-08 BMatP= 1.95D-07
 IDIUse=1 WtCom= 1.00D+00 WtEn= 0.00D+00
 Coeff-Com:  0.100D-02-0.986D-02-0.156D-01 0.260D-02 0.246D+00 0.776D+00
 Coeff:      0.100D-02-0.986D-02-0.156D-01 0.260D-02 0.246D+00 0.776D+00
 Gap=     0.356 Goal=   None    Shift=    0.000
 RMSDP=1.38D-06 MaxDP=4.21D-05 DE=-2.24D-07 OVMax= 4.15D-05

 Cycle   7  Pass 1  IDiag  1:
 RMSU=  1.01D-06    CP:  9.85D-01  1.06D+00  1.08D+00  1.17D+00  9.60D-01
                    CP:  1.03D+00
 E= -214.100513851617     Delta-E=       -0.000000018294 Rises=F Damp=F
 DIIS: error= 1.43D-06 at cycle   7 NSaved=   7.
 NSaved= 7 IEnMin= 7 EnMin= -214.100513851617     IErMin= 7 ErrMin= 1.43D-06
 ErrMax= 1.43D-06  0.00D+00 EMaxC= 1.00D-01 BMatC= 3.43D-10 BMatP= 1.53D-08
 IDIUse=1 WtCom= 1.00D+00 WtEn= 0.00D+00
 Coeff-Com:  0.116D-03-0.375D-03-0.142D-02-0.113D-01 0.162D-02 0.122D+00
 Coeff-Com:  0.889D+00
 Coeff:      0.116D-03-0.375D-03-0.142D-02-0.113D-01 0.162D-02 0.122D+00
 Coeff:      0.889D+00
 Gap=     0.356 Goal=   None    Shift=    0.000
 RMSDP=2.61D-07 MaxDP=1.19D-05 DE=-1.83D-08 OVMax= 7.86D-06

 Cycle   8  Pass 1  IDiag  1:
 RMSU=  1.95D-07    CP:  9.85D-01  1.06D+00  1.08D+00  1.17D+00  9.69D-01
                    CP:  1.08D+00  1.07D+00
 E= -214.100513852040     Delta-E=       -0.000000000423 Rises=F Damp=F
 DIIS: error= 4.39D-07 at cycle   8 NSaved=   8.
 NSaved= 8 IEnMin= 8 EnMin= -214.100513852040     IErMin= 8 ErrMin= 4.39D-07
 ErrMax= 4.39D-07  0.00D+00 EMaxC= 1.00D-01 BMatC= 3.75D-11 BMatP= 3.43D-10
 IDIUse=1 WtCom= 1.00D+00 WtEn= 0.00D+00
 Coeff-Com: -0.252D-04 0.506D-03 0.512D-03-0.374D-02-0.149D-01-0.916D-02
 Coeff-Com:  0.273D+00 0.754D+00
 Coeff:     -0.252D-04 0.506D-03 0.512D-03-0.374D-02-0.149D-01-0.916D-02
 Coeff:      0.273D+00 0.754D+00
 Gap=     0.356 Goal=   None    Shift=    0.000
 RMSDP=9.81D-08 MaxDP=7.24D-06 DE=-4.23D-10 OVMax= 2.01D-06

 Cycle   9  Pass 1  IDiag  1:
 RMSU=  4.52D-08    CP:  9.85D-01  1.06D+00  1.08D+00  1.17D+00  9.70D-01
                    CP:  1.08D+00  1.11D+00  1.06D+00
 E= -214.100513852080     Delta-E=       -0.000000000040 Rises=F Damp=F
 DIIS: error= 1.07D-07 at cycle   9 NSaved=   9.
 NSaved= 9 IEnMin= 9 EnMin= -214.100513852080     IErMin= 9 ErrMin= 1.07D-07
 ErrMax= 1.07D-07  0.00D+00 EMaxC= 1.00D-01 BMatC= 3.45D-12 BMatP= 3.75D-11
 IDIUse=1 WtCom= 1.00D+00 WtEn= 0.00D+00
 Coeff-Com: -0.169D-04 0.208D-03 0.284D-03-0.499D-03-0.535D-02-0.115D-01
 Coeff-Com:  0.373D-01 0.273D+00 0.707D+00
 Coeff:     -0.169D-04 0.208D-03 0.284D-03-0.499D-03-0.535D-02-0.115D-01
 Coeff:      0.373D-01 0.273D+00 0.707D+00
 Gap=     0.356 Goal=   None    Shift=    0.000
 RMSDP=2.19D-08 MaxDP=1.21D-06 DE=-3.98D-11 OVMax= 6.67D-07

 Cycle  10  Pass 1  IDiag  1:
 RMSU=  1.06D-08    CP:  9.85D-01  1.06D+00  1.08D+00  1.17D+00  9.70D-01
                    CP:  1.08D+00  1.12D+00  1.10D+00  9.99D-01
 E= -214.100513852084     Delta-E=       -0.000000000004 Rises=F Damp=F
 DIIS: error= 1.43D-08 at cycle  10 NSaved=  10.
 NSaved=10 IEnMin=10 EnMin= -214.100513852084     IErMin=10 ErrMin= 1.43D-08
 ErrMax= 1.43D-08  0.00D+00 EMaxC= 1.00D-01 BMatC= 5.86D-14 BMatP= 3.45D-12
 IDIUse=1 WtCom= 1.00D+00 WtEn= 0.00D+00
 Coeff-Com:  0.325D-06-0.165D-04-0.923D-05 0.210D-03 0.479D-03-0.523D-03
 Coeff-Com: -0.142D-01-0.303D-01 0.426D-01 0.100D+01
 Coeff:      0.325D-06-0.165D-04-0.923D-05 0.210D-03 0.479D-03-0.523D-03
 Coeff:     -0.142D-01-0.303D-01 0.426D-01 0.100D+01
 Gap=     0.356 Goal=   None    Shift=    0.000
 RMSDP=9.17D-09 MaxDP=6.71D-07 DE=-3.92D-12 OVMax= 1.18D-07

 SCF Done:  E(RM062X) =  -214.100513852     A.U. after   10 cycles
            NFock= 10  Conv=0.92D-08     -V/T= 2.0045
 KE= 2.131310873787D+02 PE=-8.762250468372D+02 EE= 2.547940858449D+02
 Leave Link  502 at Sun Oct 13 20:27:54 2019, MaxMem= 10737418240 cpu:             131.2 elap:               5.5
 (Enter /apps/cent7/gaussian/g16-A.03/g16-haswell/g16/l701.exe)
 ... and contract with generalized density number  0.
 Compute integral first derivatives.
 Leave Link  701 at Sun Oct 13 20:27:54 2019, MaxMem= 10737418240 cpu:               2.6 elap:               0.1
 (Enter /apps/cent7/gaussian/g16-A.03/g16-haswell/g16/l702.exe)
 L702 exits ... SP integral derivatives will be done elsewhere.
 Leave Link  702 at Sun Oct 13 20:27:54 2019, MaxMem= 10737418240 cpu:               0.4 elap:               0.0
 (Enter /apps/cent7/gaussian/g16-A.03/g16-haswell/g16/l703.exe)
 Integral derivatives from FoFJK, PRISM(SPDF).
 Compute integral first derivatives, UseDBF=F ICtDFT=           0.
 Calling FoFJK, ICntrl=      2127 FMM=F ISym2X=0 I1Cent= 0 IOpClX= 0 NMat=1 NMatS=1 NMatT=0.
 FoFJK:  IHMeth= 1 ICntrl=    2127 DoSepK=F KAlg= 0 I1Cent=           0 FoldK=F
 IRaf=         0 NMat=       1 IRICut=       1 DoRegI=T DoRafI=F ISym2E= 0 IDoP0=0 IntGTp=1.
 FoFCou: FMM=F IPFlag=           0 FMFlag=      100000 FMFlg1=         800
         NFxFlg=           0 DoJE=F BraDBF=F KetDBF=F FulRan=T
         wScrn=  0.000000 ICntrl=      2127 IOpCl=  0 I1Cent=           0 NGrid=           0
         NMat0=    1 NMatS0=      1 NMatT0=    0 NMatD0=    1 NMtDS0=    0 NMtDT0=    0
 Symmetry not used in FoFCou.
 Leave Link  703 at Sun Oct 13 20:27:55 2019, MaxMem= 10737418240 cpu:              25.7 elap:               1.1
 (Enter /apps/cent7/gaussian/g16-A.03/g16-haswell/g16/l716.exe)
 Dipole        = 3.43145333D+00-3.45350535D-01-3.95760025D-03
 ***** Axes restored to original set *****
 -------------------------------------------------------------------
 Center     Atomic                   Forces (Hartrees/Bohr)
 Number     Number              X              Y              Z
 -------------------------------------------------------------------
      1        6          -0.004174941    0.003892976    0.004532124
      2        6           0.018692062    0.001890029   -0.006715627
      3        6          -0.016140571   -0.000109761    0.007294171
      4        6           0.011410496   -0.013651125   -0.013256689
      5        7          -0.002031587    0.001327781    0.001978555
      6        1           0.001142771    0.000068539   -0.000304154
      7        1           0.000868430   -0.002068512   -0.000351969
      8        1          -0.000933028   -0.000268012   -0.001202420
      9        1          -0.004865822   -0.002059757    0.005136602
     10        1          -0.009171298    0.000915453   -0.001413993
     11        1           0.005191793    0.002561073   -0.005427378
     12        1           0.007398972   -0.001299780    0.001055959
     13        1          -0.003399240    0.001417921    0.006522687
     14        1          -0.005274449    0.004549111    0.001110115
     15        1           0.001269024   -0.000803020   -0.000532589
     16        1          -0.000404139    0.002593851   -0.001078697
     17        1           0.000421528    0.001043234    0.002653302
 -------------------------------------------------------------------
 Cartesian Forces:  Max     0.018692062 RMS     0.005709472
 Leave Link  716 at Sun Oct 13 20:27:55 2019, MaxMem= 10737418240 cpu:               0.9 elap:               0.1
 (Enter /apps/cent7/gaussian/g16-A.03/g16-haswell/g16/l103.exe)

 GradGradGradGradGradGradGradGradGradGradGradGradGradGradGradGradGradGrad
 Berny optimization.
 Using GEDIIS/GDIIS optimizer.
 FormGI is forming the generalized inverse of G from B-inverse, IUseBI=4.
 Internal  Forces:  Max     0.004757687 RMS     0.002047123
 Search for a local minimum.
 Step number   2 out of a maximum of   92
 All quantities printed in internal units (Hartrees-Bohrs-Radians)
 RMS Force = .20471D-02 SwitMx=.10000D-02 MixMth= 1
 Mixed Optimization -- RFO/linear search
 Update second derivatives using D2CorX and points    1    2
 DE= -1.52D-02 DEPred=-1.51D-02 R= 1.01D+00
 TightC=F SS=  1.41D+00  RLast= 4.20D-01 DXNew= 5.0454D-01 1.2598D+00
 Trust test= 1.01D+00 RLast= 4.20D-01 DXMaxT set to 5.05D-01
 ITU=  1  0
 Use linear search instead of GDIIS.
     Eigenvalues ---    0.00230   0.00230   0.00230   0.00830   0.03912
     Eigenvalues ---    0.03927   0.04269   0.04409   0.04999   0.05244
     Eigenvalues ---    0.05434   0.05572   0.05706   0.05793   0.07615
     Eigenvalues ---    0.07639   0.07764   0.11624   0.11689   0.11691
     Eigenvalues ---    0.15865   0.16000   0.16000   0.16000   0.16000
     Eigenvalues ---    0.16486   0.21802   0.22133   0.22917   0.27388
     Eigenvalues ---    0.27738   0.28041   0.34783   0.34808   0.34809
     Eigenvalues ---    0.34811   0.34812   0.34814   0.34815   0.34819
     Eigenvalues ---    0.34830   0.37602   0.47484   0.47688   0.48003
 RFO step:  Lambda=-4.81293104D-03 EMin= 2.29935451D-03
 Quartic linear search produced a step of  0.36021.
 Iteration  1 RMS(Cart)=  0.05389601 RMS(Int)=  0.00259537
 Iteration  2 RMS(Cart)=  0.00271435 RMS(Int)=  0.00041722
 Iteration  3 RMS(Cart)=  0.00000642 RMS(Int)=  0.00041719
 Iteration  4 RMS(Cart)=  0.00000000 RMS(Int)=  0.00041719
 ITry= 1 IFail=0 DXMaxC= 1.95D-01 DCOld= 1.00D+10 DXMaxT= 5.05D-01 DXLimC= 3.00D+00 Rises=F
 Variable       Old X    -DE/DX   Delta X   Delta X   Delta X     New X
                                 (Linear)    (Quad)   (Total)
    R1        2.92229  -0.00417   0.00006  -0.01963  -0.01957   2.90272
    R2        2.05938   0.00041  -0.00011   0.00162   0.00151   2.06089
    R3        2.05648   0.00069  -0.00122   0.00358   0.00236   2.05884
    R4        2.06326   0.00001   0.00122  -0.00095   0.00026   2.06352
    R5        2.91604  -0.00264  -0.00586  -0.00787  -0.01373   2.90231
    R6        2.06114   0.00053   0.00049   0.00163   0.00212   2.06326
[...]
 1\1\GINC-BROWN-A265\Freq\RM062X\6-311++G(d,p)\C4H12N1(1+)\FINEJ\13-Oct
 -2019\0\\#P Geom=AllCheck Guess=TCheck SCRF=Check GenChk RM062X/6-311+
 +G(d,p) Freq\\Title Card Required\\1,1\C,1.8065136683,-0.5850034161,-1
 .5192263656\C,1.0900900051,0.3339258711,-0.5335302476\C,1.9698916894,1
 .5216618412,-0.1298660042\C,1.2439771331,2.4250203835,0.8492946609\N,2
 .1283223034,3.5976145787,1.240248053\H,2.722301364,-0.9906681922,-1.08
 41062752\H,1.1683145364,-1.4238596946,-1.7958085559\H,2.0713053742,-0.
 0503618444,-2.4338746629\H,0.1629547518,0.7070397357,-0.9788806649\H,0
 .8095088694,-0.2277640692,0.362537323\H,2.8960646414,1.1493742953,0.32
 31994554\H,2.2461608892,2.0894284757,-1.0259660231\H,0.3379835335,2.85
 49588441,0.4215003981\H,0.9908705068,1.9107494902,1.7767400549\H,2.996
 49726,3.266890722,1.6724195728\H,2.3896765744,4.1440878423,0.413839381
 8\H,1.6676987496,4.2287388668,1.9022383294\\Version=ES64L-G16RevA.03\S
 tate=1-A\HF=-214.1089154\RMSD=2.221e-09\RMSF=2.388e-05\ZeroPoint=0.165
 7216\Thermal=0.1657217\Dipole=0.5385809,2.9162506,1.7724991\DipoleDeri
 v=0.0371741,-0.0708706,-0.0330378,-0.0284669,0.0031031,-0.0336491,-0.0
 034755,-0.013179,0.0635779,0.0935139,0.0967069,0.0769046,0.0405739,0.1
 608065,0.0135846,0.0377899,-0.0134782,0.0856709,0.0224035,-0.0623836,0
 .0065986,-0.1000682,-0.0639304,-0.084369,-0.0196496,-0.1025251,0.06437
 07,0.2602214,0.1889236,0.0814467,0.1915081,0.5333569,0.1706176,0.08323
 7,0.1718547,0.2356871,-0.2430677,-0.1295583,-0.0504854,-0.1133045,-0.4
 944992,-0.1781433,-0.0391518,-0.1703311,-0.2602936,-0.054237,0.0735023
 ,-0.0343535,0.0377299,0.0588386,-0.0046924,-0.0794619,0.0150752,0.0072
 194,0.0214902,-0.0613593,-0.0070903,-0.048057,-0.0242316,-0.0601742,0.
 0021693,-0.0537568,0.0568947,0.0584871,0.0123049,0.0492262,-0.0190501,
 -0.0059249,0.0944411,0.0475682,0.0422995,-0.0407248,-0.0680248,0.03971
 47,-0.0386669,0.0774056,-0.0214234,-0.0009065,-0.0461069,0.0065804,0.0
 431369,0.0409763,-0.0329177,0.018724,-0.0285723,0.0089561,0.0232125,0.
 0554509,0.0359845,-0.0962363,-0.0595425,0.0182978,-0.0493701,0.0376871
 ,0.0515021,0.0040098,-0.0742988,-0.0221406,-0.004762,0.0452427,-0.0007
 76,0.0352042,-0.0324728,-0.0385947,0.0505951,0.0515413,0.0708161,-0.01
 94193,0.032066,0.0081642,-0.0164238,0.0223926,-0.0042982,-0.0104122,-0
 .0381267,0.0102582,0.0744007,0.0709176,-0.0266073,-0.0217307,-0.030266
 7,0.0408935,0.0045481,0.0073357,-0.0110172,-0.0096415,0.2787724,-0.001
 8625,0.0419567,0.006942,0.2318411,0.0170806,0.0468377,0.0226276,0.2728
 652,0.2261099,0.0096169,-0.0197268,0.0181363,0.3090567,-0.0284063,-0.0
 125384,-0.0256054,0.2483024,0.237497,-0.0608959,-0.0391755,-0.0321171,
 0.2545478,0.0226633,-0.0191203,0.0365371,0.2789517\Polar=50.2118688,1.
 3812706,59.3191629,-0.3842976,7.6279902,52.9179265\Quadrupole=-6.24548
 05,7.7947582,-1.5492778,2.9442864,1.8062624,8.7190304\PG=C01 [X(C4H12N
 1)]\NImag=0\\0.56190240,0.03221605,0.55065436,0.03121083,-0.03606254,0
 .53994988,-0.10949245,0.03533089,0.03891771,0.54804538,0.03914588,-0.1
 2107244,-0.04760547,-0.02478079,0.49658652,0.04157177,-0.04576774,-0.1
 3177080,0.00985570,-0.06309822,0.55555317,0.01057546,0.01118329,0.0024
 8470,-0.12036857,-0.05156570,-0.01579640,0.55192521,-0.01269283,-0.022
 50117,-0.00925445,-0.05122614,-0.13775036,-0.01654294,-0.02363169,0.49
 757584,-0.01415276,-0.02076393,-0.00808351,-0.01556268,-0.01638118,-0.
 08250230,0.00792091,-0.06175674,0.55569548,-0.00366346,-0.00313875,-0.
 00084518,0.01124283,-0.00839781,-0.01202215,-0.12126466,0.03401767,0.0
 4052347,0.55688059,-0.00204906,-0.00290921,-0.00042619,0.00635889,-0.0
 2069093,-0.01638938,0.05096951,-0.10988897,-0.04095069,-0.07204830,0.4
 7119808,-0.00008813,0.00009773,-0.00076935,-0.00173992,-0.00928114,-0.
 00719254,0.05233529,-0.03278502,-0.13440997,-0.00207083,-0.09458493,0.
 59186598,0.00060089,0.00073081,0.00056034,-0.00098524,0.00051929,0.000
 76495,0.00989393,0.01025051,0.00205948,-0.11819578,-0.02343384,-0.0055
 3390,0.65453831,-0.00288718,-0.00101120,0.00019472,0.00807793,-0.00116
 766,-0.00460397,-0.02278174,-0.02936508,-0.00903188,-0.02495026,-0.117
 60195,-0.00317478,-0.10471184,0.60280771,-0.00196053,-0.00154966,0.000
 57264,0.00603246,-0.00096102,-0.00372369,-0.02095678,-0.02494727,-0.00
 793709,-0.00658175,-0.00390565,-0.09533423,-0.03694823,-0.03764247,0.7
 2083348,-0.23584911,0.08233473,-0.09238110,-0.01335516,0.00505470,-0.0
 0570423,0.00075240,-0.00062998,-0.00026353,0.00026379,-0.00034610,0.00
 004241,0.00007762,0.00014126,0.00012619,0.25477573,0.08203978,-0.08348
 551,0.04080674,0.01655955,-0.00887977,0.00785363,0.00103632,0.00071805
 ,0.00125697,-0.00008503,0.00023669,-0.00008197,-0.00016845,-0.00002404
 ,-0.00005297,-0.09243790,0.08836779,-0.09385065,0.04147975,-0.09412430
 ,0.02056642,-0.00974600,0.00923261,0.00083429,0.00076010,0.00106837,0.
 00028208,0.00014462,0.00010899,-0.00014730,0.00008123,-0.00002077,0.09
 957288,-0.04159874,0.09958844,-0.14588678,-0.12804180,-0.04138896,0.01
 065442,0.01454812,0.00422732,-0.00155357,0.00257697,0.00263078,0.00095
 941,0.00026381,0.00000519,-0.00008980,0.00062680,0.00048287,-0.0152421
 8,-0.02106988,-0.00541447,0.15458928,-0.12602031,-0.20984733,-0.052835
 08,-0.01087188,-0.01422923,-0.00355760,0.00290502,-0.00129576,-0.00242
 772,-0.00091895,-0.00016109,-0.00007941,0.00012482,-0.00053828,-0.0004
 3929,0.00772705,0.01088620,0.00336701,0.13583156,0.22580780,-0.0399799
 8,-0.05185929,-0.06360262,-0.01348251,-0.01581748,-0.00611522,0.002860
 16,-0.00227142,-0.00278114,-0.00081957,-0.00064966,0.00053034,0.000133
 12,-0.00068140,-0.00053323,-0.00744349,-0.01050090,-0.00405888,0.04237
 129,0.05957770,0.06731776,-0.06279182,-0.03115554,0.05204215,-0.005056
 89,-0.00840600,0.01395689,0.00028499,-0.00031596,-0.00071486,-0.000058
 40,-0.00015519,-0.00018519,0.00002576,0.00011693,-0.00001587,0.0081497
 0,0.01376559,-0.02327447,-0.00469318,-0.00878671,0.01684263,0.06439397
 ,-0.03201877,-0.11588152,0.11401459,0.00490896,0.01007520,-0.01984145,
 0.00056860,0.00191514,-0.00045894,0.00020945,0.00020815,-0.00010773,-0
 .00008041,-0.00000782,0.00017928,-0.00360419,-0.00638829,0.00814453,-0
 .00408259,-0.01180870,0.02123519,0.03287447,0.12358113,0.05270821,0.11
 278374,-0.23480881,0.00497533,0.00972905,-0.01802042,-0.00003392,0.001
 26692,0.00033633,0.00001037,-0.00003360,0.00045959,-0.00009563,-0.0001
 9936,0.00001466,0.00332578,0.00573750,-0.01022329,-0.00197059,-0.00425
 333,0.00808672,-0.06038429,-0.12093199,0.25477961,-0.01263244,0.006166
 80,-0.00548039,-0.23344962,0.07493073,-0.09194286,-0.01690405,0.004708
 70,-0.00836183,-0.00007117,0.00080177,0.00025184,0.00059456,-0.0002626
 8,0.00021226,-0.00008962,0.00152985,0.00240701,0.00071204,-0.00009559,
 -0.00003431,0.00007554,-0.00057750,-0.00012070,0.25432276,0.01780445,-
 0.00800332,0.00838855,0.07614418,-0.08005099,0.04079199,-0.02426915,0.
 00722874,-0.01312550,-0.00143203,0.00107086,-0.00022045,0.00028648,0.0
 0022045,0.00025014,0.00154963,-0.00169554,-0.00356551,-0.00023861,0.00
 008251,0.00052677,-0.00066960,0.00087526,-0.00010755,-0.08161602,0.089
 22486,0.02035550,-0.00871858,0.00955330,-0.09299464,0.04008449,-0.0948
 7949,-0.00642740,0.00190513,-0.00471261,-0.00119967,0.00044961,-0.0000
 8610,0.00049172,-0.00010864,0.00009946,0.00248626,-0.00302437,-0.00253
 715,-0.00068582,0.00054314,0.00075588,-0.00019143,0.00076237,0.0008301
 9,0.10056732,-0.03782479,0.10108759,-0.00411497,-0.00755751,0.01375038
 ,-0.06530487,-0.03245015,0.04993056,-0.00644169,-0.01183486,0.01584454
 ,0.00025610,0.00046920,0.00055087,0.00006913,0.00024559,-0.00021998,0.
 00006327,-0.00074250,-0.00025759,0.00059518,-0.00002949,-0.00069332,-0
 .00078477,0.00204840,0.00192979,0.00793756,0.01453156,-0.02251288,0.06
 852589,0.00571076,0.01151972,-0.01896153,-0.03350199,-0.11773896,0.112
 53465,-0.00658880,-0.01629224,0.01995119,-0.00069964,-0.00019211,0.001
 84980,0.00036141,0.00047494,-0.00054633,-0.00032665,0.00064229,0.00076
 605,-0.00057139,0.00071496,0.00043406,0.00242086,-0.00225154,-0.003155
 12,-0.00249564,-0.00598208,0.00834923,0.03801707,0.13166417,0.00527203
 ,0.01015161,-0.01848814,0.05109479,0.11332001,-0.22531801,-0.00262954,
 -0.00651784,0.00834494,-0.00036809,-0.00045947,0.00084892,-0.00003593,
 0.00013333,0.00037005,0.00003899,0.00005178,0.00107274,-0.00051937,0.0
 0008747,0.00024313,0.00212559,-0.00350785,-0.00128557,0.00325310,0.006
 42238,-0.01095405,-0.05761462,-0.11821684,0.24442770,0.00106913,0.0009
 4627,0.00086378,-0.01799154,0.00489483,-0.00947418,-0.22786945,0.07765
 907,-0.08908358,-0.01456057,0.00441420,-0.00666288,0.00174412,-0.00037
 406,-0.00002992,0.00052889,-0.00042258,-0.00046379,0.00011262,-0.00005
 539,0.00035834,-0.00000365,-0.00010697,0.00003246,-0.00103841,-0.00333
 565,-0.00030871,0.00038026,0.00036386,0.00050361,0.24983852,-0.0008570
 0,0.00182831,0.00052170,-0.02325870,0.00830450,-0.01243478,0.07683113,
 -0.07755581,0.03941975,0.01787167,-0.01014947,0.00745899,0.00028216,0.
 00128738,0.00115702,0.00065305,-0.00040610,0.00015371,0.00004627,0.000
 07865,0.00026748,0.00017083,-0.00006420,0.00001070,-0.00301699,-0.0041
 0501,-0.00167066,0.00057849,0.00097230,0.00048346,-0.08315010,0.087533
 98,-0.00057889,0.00089273,0.00023803,-0.00780367,0.00293469,-0.0042340
 2,-0.09147136,0.03989752,-0.09804504,0.02190474,-0.01042891,0.00906643
 ,0.00058555,0.00116679,0.00123192,0.00026451,-0.00058468,0.00002370,0.
 00029376,-0.00005136,0.00005814,-0.00006894,0.00007836,-0.00008577,-0.
 00068091,-0.00207600,0.00053614,0.00065077,-0.00028777,0.00051890,0.09
 850094,-0.03766645,0.10237008,0.00052306,0.00126254,0.00018736,-0.0057
 2304,-0.01234847,0.01575011,-0.06347206,-0.02709994,0.04999961,-0.0056
 8329,-0.00971303,0.01423156,0.00075030,0.00001630,-0.00089239,-0.00002
 525,0.00003776,-0.00018994,-0.00022685,0.00025376,-0.00000306,0.000468
 61,-0.00010471,-0.00034192,0.00026743,0.00062048,0.00053323,-0.0015967
 2,-0.00281298,-0.00126537,0.00758858,0.01347113,-0.02251675,0.06707632
 ,0.00000449,0.00127068,0.00164542,-0.00700066,-0.01591483,0.02164361,-
 0.02890337,-0.11704082,0.11237669,0.00564406,0.00939998,-0.02149342,0.
 00062808,0.00230017,0.00014188,0.00003973,-0.00003890,-0.00000561,0.00
 003913,0.00035171,-0.00024296,0.00024811,-0.00015611,-0.00104191,0.000
 34184,0.00117791,-0.00038794,-0.00329172,-0.00329568,-0.00253082,-0.00
 321388,-0.00605875,0.00843945,0.03442890,0.12974200,-0.00050367,-0.000
 20044,0.00134387,-0.00180925,-0.00471141,0.00772310,0.05054990,0.11063
 014,-0.22295015,0.00574111,0.01027485,-0.01935699,-0.00062467,0.000741
 71,0.00121285,0.00010656,0.00006133,-0.00008986,-0.00001710,0.00002120
 ,0.00012414,-0.00007438,0.00038517,-0.00016612,0.00034211,0.00035320,0
 .00042452,-0.00100384,-0.00220211,0.00028535,0.00302081,0.00613836,-0.
 01029144,-0.05734022,-0.11691581,0.24290804,0.00010533,-0.00013588,0.0
 0022574,0.00080326,-0.00050853,-0.00024365,-0.01158057,0.00705037,-0.0
 0498258,-0.23522333,0.08807928,-0.08997330,-0.01840530,0.00325475,-0.0
 0907750,0.00002414,-0.00014790,-0.00010141,0.00004676,-0.00003297,0.00
 001467,-0.00003387,0.00002399,0.00002311,0.00045091,0.00041615,0.00003
 070,-0.00001176,-0.00002259,0.00010576,-0.00007005,0.00109498,0.001959
 43,0.00025846,-0.00059388,-0.00023400,0.25572246,-0.00026265,-0.000199
 74,-0.00021235,0.00122582,0.00124762,0.00091174,0.01591983,-0.00773801
 ,0.00841970,0.10032368,-0.09813291,0.05242151,-0.03336405,0.00600742,-
 0.01659021,-0.00018766,0.00013962,0.00004596,-0.00000190,-0.00004470,-
 0.00004429,0.00001417,0.00003852,0.00005148,-0.00062645,-0.00020573,-0
 .00065135,-0.00003454,-0.00003112,0.00005469,0.00115115,-0.00136396,-0
 .00354855,-0.00072009,0.00084527,-0.00029783,-0.09413592,0.10624348,0.
 00012231,-0.00001789,-0.00010659,0.00072001,0.00099083,0.00104046,0.01
 932168,-0.00913634,0.01073590,-0.09089498,0.04473659,-0.09613168,-0.00
 717286,0.00143426,-0.00426123,-0.00014542,0.00009057,-0.00004234,-0.00
 008287,0.00004653,-0.00000910,0.00003676,-0.00000552,-0.00001073,-0.00
 055990,-0.00003465,-0.00019783,-0.00020508,0.00004299,-0.00007902,0.00
 209663,-0.00312155,-0.00261879,-0.00013011,0.00080991,0.00083914,0.099
 17304,-0.04417073,0.09946875,-0.00021358,0.00000552,-0.00010601,0.0005
 3825,-0.00026124,-0.00066043,-0.00313143,-0.00712459,0.01425477,-0.064
 03166,-0.02436724,0.04491660,-0.00883394,-0.01576722,0.01753346,-0.000
 03922,0.00003474,0.00004423,0.00003262,0.00000062,-0.00009938,-0.00000
 378,-0.00006142,-0.00009374,-0.00003299,0.00012951,-0.00011844,0.00045
 344,0.00016300,-0.00000656,0.00019284,-0.00086508,-0.00031633,-0.00062
 682,0.00179974,0.00182388,0.00889322,0.01337781,-0.02219450,0.06818309
 ,0.00000932,-0.00013038,-0.00012502,0.00084981,0.00198716,-0.00005972,
 0.00420425,0.01203412,-0.01835767,-0.02741010,-0.10882882,0.10609998,-
 0.01013121,-0.02010071,0.02187103,0.00001231,0.00003688,0.00000103,-0.
 00002250,-0.00003408,0.00003578,-0.00007840,-0.00008487,0.00017751,-0.
 00013149,-0.00006636,0.00011434,-0.00014150,-0.00054571,0.00041636,-0.
 00018001,0.00059359,0.00074549,0.00215971,-0.00267708,-0.00293092,-0.0
 0221351,-0.00439149,0.00959701,0.03520770,0.12436721,-0.00008786,-0.00
 037866,0.00014301,0.00035805,0.00123143,0.00056588,0.00402411,0.008928
 30,-0.01748104,0.05224569,0.11821925,-0.25661946,-0.00595484,-0.011081
 89,0.01227291,0.00000795,0.00004267,-0.00000354,0.00000368,-0.00005121
 ,-0.00000574,-0.00008926,0.00010542,0.00021010,0.00000228,-0.00000535,
 -0.00002268,-0.00035440,-0.00084929,0.00013948,-0.00003100,-0.00009311
 ,0.00115658,0.00197621,-0.00315739,-0.00074862,0.00353121,0.00475456,-
 0.00905529,-0.05465610,-0.11618861,0.26887423,0.00031413,0.00009062,0.
 00003783,-0.00064585,0.00012979,0.00044693,0.00280673,0.00023968,0.000
 47085,-0.01734411,0.00283332,-0.00871138,-0.30708991,0.10502868,-0.123
 14769,-0.00003151,0.00002012,-0.00002576,-0.00007415,0.00006840,0.0000
 6946,-0.00000683,0.00000002,0.00002107,-0.00001888,0.00006634,0.000051
 00,-0.00002961,-0.00007428,-0.00000481,0.00005196,-0.00007135,-0.00076
 781,-0.00003575,-0.00006122,0.00005826,-0.00039572,-0.00325414,0.00020
 902,0.00024922,0.00051025,0.00083949,0.32253203,0.00010988,-0.00000632
 ,0.00003973,0.00023538,-0.00064441,0.00001303,-0.00183007,0.00234217,0
 .00020918,-0.02386997,0.01395959,-0.01257647,0.09576247,-0.09636160,0.
 04750178,0.00003379,-0.00008078,-0.00005091,0.00000009,0.00002259,0.00
 002185,-0.00001184,-0.00001171,0.00000859,0.00034579,0.00018485,0.0001
 7577,-0.00005568,0.00003656,0.00000263,0.00137652,-0.00103585,0.000205
 64,0.00034668,-0.00008239,0.00014936,-0.00288614,-0.00532947,-0.001371
 08,-0.00004770,0.00062884,0.00055156,-0.10546703,0.10015192,0.00016713
 ,0.00005131,-0.00002900,-0.00005331,-0.00053439,-0.00000991,-0.0000687
 6,0.00127617,-0.00014399,-0.00670205,0.00098788,-0.00280627,-0.1230016
 4,0.05158775,-0.12517800,-0.00002156,-0.00004668,-0.00000235,-0.000015
 42,0.00005163,0.00004483,-0.00002527,-0.00001759,-0.00002346,0.0001705
 0,0.00017005,0.00006277,0.00008247,0.00013942,0.00000163,0.00035850,-0
 .00073783,0.00021747,-0.00007624,0.00002213,-0.00037153,-0.00014932,-0
 .00120959,0.00045572,0.00119175,0.00040979,0.00043973,0.13326885,-0.05
 358875,0.12428316,0.00011025,0.00013305,-0.00008156,-0.00038742,0.0001
 9842,0.00025631,0.00086135,0.00110859,-0.00054942,-0.00512941,-0.01197
 038,0.01747764,-0.08125473,-0.04243348,0.07419002,-0.00001250,0.000029
 96,-0.00000351,-0.00004057,0.00002279,0.00004401,0.00002633,-0.0000253
 7,0.00001235,-0.00010969,-0.00008911,-0.00004497,-0.00001105,0.0000784
 1,-0.00000561,-0.00009737,0.00027145,-0.00020826,0.00059420,-0.0003601
 1,-0.00014576,-0.00054276,0.00044283,0.00050283,-0.00209192,-0.0026846
 0,-0.00221377,0.01212664,0.01784003,-0.02846698,0.08030887,0.00024746,
 0.00015898,-0.00011295,-0.00049701,-0.00022372,-0.00045772,0.00092995,
 0.00115658,0.00157696,-0.00710688,-0.01441610,0.02097814,-0.04154340,-
 0.15661429,0.15452874,-0.00002424,-0.00002525,0.00000136,-0.00004053,0
 .00007710,0.00007492,-0.00001735,-0.00006185,-0.00003869,0.00006136,0.
 00005596,0.00006348,0.00021804,0.00033550,0.00001620,0.00015771,-0.000
 16185,-0.00004089,0.00026225,-0.00014074,-0.00137775,0.00055767,0.0015
 0986,-0.00008384,-0.00282109,-0.00270187,-0.00282513,-0.00398770,-0.00
 655915,0.00913196,0.04856382,0.16099773,-0.00011761,-0.00005995,0.0000
 0951,0.00034528,-0.00019455,-0.00068797,-0.00157600,-0.00057166,0.0029
 8259,0.00024261,-0.00311729,0.01335023,0.06821014,0.14640657,-0.290752
 60,-0.00000322,-0.00000436,-0.00000428,0.00003714,-0.00001832,-0.00004
 327,0.00002325,-0.00003250,-0.00007905,-0.00001433,0.00000829,0.000062
 17,0.00016691,0.00022374,-0.00009582,0.00013082,0.00022828,-0.00023013
 ,0.00017041,0.00056201,-0.00121997,-0.00015815,-0.00015646,0.00035350,
 -0.00169536,-0.00287638,-0.00047529,0.00458587,0.00662134,-0.01140387,
 -0.07419425,-0.16044278,0.30565576,-0.00055605,-0.00037110,0.00000236,
 0.00147650,-0.00070306,-0.00091664,-0.00451402,-0.00305558,-0.00003318
 ,0.01562312,-0.01010682,-0.01484585,-0.13343993,0.09666023,0.10125339,
 0.00000901,0.00002057,0.00002200,0.00010476,-0.00012271,-0.00013807,0.
 00000830,0.00002806,0.00000232,-0.00001394,0.00010139,-0.00003176,0.00
 001460,-0.00002140,0.00005605,0.00012411,-0.00005194,0.00025324,-0.000
 13719,0.00025077,0.00011025,-0.00004118,0.00013211,-0.00079656,0.00046
 264,0.00003999,0.00039855,-0.01240838,0.01811781,0.02334136,-0.0043502
 3,0.00503992,0.00384649,0.13763788,-0.00050026,-0.00038391,-0.00001588
 ,0.00144578,0.00016228,-0.00099513,-0.00497736,-0.00354241,0.00004381,
 0.01199120,-0.01310179,-0.01452082,0.10448718,-0.19030542,-0.13899500,
 0.00001048,-0.00000333,0.00002141,0.00013647,-0.00006235,-0.00010636,-
 0.00001438,0.00002322,-0.00000392,-0.00006448,-0.00001238,-0.00006124,
 0.00002961,-0.00003100,0.00009290,-0.00012497,0.00030230,0.00032394,-0
 .00006029,0.00031758,-0.00011904,0.00020013,0.00140535,0.00019290,0.00
 059695,-0.00008644,0.00079745,0.00392848,-0.00721484,-0.00769328,-0.01
 112628,0.01661308,0.01342403,-0.10595824,0.19592008,-0.00008770,-0.000
 07819,-0.00002713,0.00058022,0.00004034,0.00033914,-0.00137086,-0.0008
 8060,-0.00011677,0.00055421,-0.00386702,-0.00352390,0.10670969,-0.1352
 2199,-0.20886712,-0.00000898,-0.00000652,0.00001189,0.00004257,0.00001
 865,-0.00001173,-0.00000330,-0.00000134,-0.00001395,-0.00001119,0.0000
 4843,-0.00002211,-0.00004455,-0.00007213,-0.00003223,0.00018818,-0.000
 11507,0.00008778,-0.00009250,0.00013477,0.00033365,-0.00014376,0.00022
 171,-0.00038086,0.00018216,0.00107000,0.00060973,-0.00740117,0.0120867
 5,0.01446306,0.01343092,-0.02099202,-0.01742152,-0.11252395,0.14761424
 ,0.21457208\\0.00000254,0.00000045,-0.00000641,0.00001025,0.00001260,-
 0.00000071,-0.00003159,-0.00000984,-0.00000094,0.00007350,0.00007910,0
 .00001579,-0.00006601,-0.00009750,-0.00002396,0.00000441,-0.00000070,0
 .00000115,0.00000280,-0.00000025,-0.00000087,-0.00000107,-0.00000143,0
 .00000067,0.00000076,0.00000115,0.00000752,-0.00000613,0.00000082,0.00
 000512,-0.00000209,-0.00000076,-0.00000211,0.00000687,0.00000014,-0.00
 000181,-0.00000506,-0.00001508,0.00000051,-0.00001214,-0.00000265,-0.0
 0000180,0.00001040,0.00001287,0.00000500,0.00000759,0.00001203,-0.0000
 0506,0.00000494,0.00000903,0.00000790\\\@


 THERE IS SOMETHING FASCINATING ABOUT SCIENCE.
 ONE GETS SUCH WHOLESALE CONJECTURE OUT OF SUCH TRIFLING INVESTMENTS.

                                                       -- MARK TWAIN
 Job cpu time:       0 days  0 hours 20 minutes 25.6 seconds.
 Elapsed time:       0 days  0 hours  0 minutes 51.7 seconds.
 File lengths (MBytes):  RWF=     59 Int=      0 D2E=      0 Chk=      4 Scr=      1
 Normal termination of Gaussian 16 at Sun Oct 13 20:30:34 2019.
real 175.45
user 4011.87
sys 20.99
Machine:
brown-a265
brown-a265
brown-a265
brown-a265
brown-a265
brown-a265
brown-a265
brown-a265
brown-a265
brown-a265
brown-a265
brown-a265
brown-a265
brown-a265
brown-a265
brown-a265
brown-a265
brown-a265
brown-a265
brown-a265
brown-a265
brown-a265
brown-a265
brown-a265
