 Entering Gaussian System, Link 0=/apps/cent7/gaussian/g16-A.03/g16-haswell/g16/g16
 Initial command:
 /apps/cent7/gaussian/g16-A.03/g16-haswell/g16/l1.exe "/scratch/brown/finej/gaussian/Gau-138172.inp" -scrdir="/scratch/brown/finej/gaussian/"
 Entering Link 1 = /apps/cent7/gaussian/g16-A.03/g16-haswell/g16/l1.exe PID=    138174.
  
 Copyright (c) 1988,1990,1992,1993,1995,1998,2003,2009,2016,
            Gaussian, Inc.  All Rights Reserved.
  
 This is part of the Gaussian(R) 16 program.  It is based on
 the Gaussian(R) 09 system (copyright 2009, Gaussian, Inc.),
 the Gaussian(R) 03 system (copyright 2003, Gaussian, Inc.),
 the Gaussian(R) 98 system (copyright 1998, Gaussian, Inc.),
 the Gaussian(R) 94 system (copyright 1995, Gaussian, Inc.),
 the Gaussian 92(TM) system (copyright 1992, Gaussian, Inc.),
 the Gaussian 90(TM) system (copyright 1990, Gaussian, Inc.),
 the Gaussian 88(TM) system (copyright 1988, Gaussian, Inc.),
 the Gaussian 86(TM) system (copyright 1986, Carnegie Mellon
 University), and the Gaussian 82(TM) system (copyright 1983,
 Carnegie Mellon University). Gaussian is a federally registered
 trademark of Gaussian, Inc.
  
 This software contains proprietary and confidential information,
 including trade secrets, belonging to Gaussian, Inc.
  
 This software is provided under written license and may be
 used, copied, transmitted, or stored only in accord with that
 written license.
  
 The following legend is applicable only to US Government
 contracts under FAR:
  
                    RESTRICTED RIGHTS LEGEND
  
 Use, reproduction and disclosure by the US Government is
 subject to restrictions as set forth in subparagraphs (a)
 and (c) of the Commercial Computer Software - Restricted
 Rights clause in FAR 52.227-19.
  
 Gaussian, Inc.
 340 Quinnipiac St., Bldg. 40, Wallingford CT 06492
  
  
 ---------------------------------------------------------------
 Warning -- This program may not be used in any manner that
 competes with the business of Gaussian, Inc. or will provide
 assistance to any competitor of Gaussian, Inc.  The licensee
 of this program is prohibited from giving any competitor of
 Gaussian, Inc. access to this program.  By using this program,
 the user acknowledges that Gaussian, Inc. is engaged in the
 business of creating and licensing software in the field of
 computational chemistry and represents and warrants to the
 licensee that it is not a competitor of Gaussian, Inc. and that
 it will not use this program in any manner prohibited above.
 ---------------------------------------------------------------
  

 Cite this work as:
 Gaussian 16, Revision A.03,
 M. J. Frisch, G. W. Trucks, H. B. Schlegel, G. E. Scuseria, 
 M. A. Robb, J. R. Cheeseman, G. Scalmani, V. Barone, 
 G. A. Petersson, H. Nakatsuji, X. Li, M. Caricato, A. V. Marenich, 
 J. Bloino, B. G. Janesko, R. Gomperts, B. Mennucci, H. P. Hratchian, 
 J. V. Ortiz, A. F. Izmaylov, J. L. Sonnenberg, D. Williams-Young, 
 F. Ding, F. Lipparini, F. Egidi, J. Goings, B. Peng, A. Petrone, 
 T. Henderson, D. Ranasinghe, V. G. Zakrzewski, J. Gao, N. Rega, 
 G. Zheng, W. Liang, M. Hada, M. Ehara, K. Toyota, R. Fukuda, 
 J. Hasegawa, M. Ishida, T. Nakajima, Y. Honda, O. Kitao, H. Nakai, 
 T. Vreven, K. Throssell, J. A. Montgomery, Jr., J. E. Peralta, 
 F. Ogliaro, M. J. Bearpark, J. J. Heyd, E. N. Brothers, K. N. Kudin, 
 V. N. Staroverov, T. A. Keith, R. Kobayashi, J. Normand, 
 K. Raghavachari, A. P. Rendell, J. C. Burant, S. S. Iyengar, 
 J. Tomasi, M. Cossi, J. M. Millam, M. Klene, C. Adamo, R. Cammi, 
 J. W. Ochterski, R. L. Martin, K. Morokuma, O. Farkas, 
 J. B. Foresman, and D. J. Fox, Gaussian, Inc., Wallingford CT, 2016.
 
 ******************************************
 Gaussian 16:  ES64L-G16RevA.03 25-Dec-2016
                14-Oct-2019 
 ******************************************
 %chk=19.chk
 %nprocshared=24
 Will use up to   24 processors via shared memory.
 %mem=80GB
 -------------------------------------------------------------------
 #p opt freq m062x/6-311++g(d,p) geom=connectivity temperature=0.001
 -------------------------------------------------------------------
 1/18=20,19=15,26=3,38=1,57=2,112=-1000/1,3;
 2/9=110,12=2,17=6,18=5,40=1/2;
 3/5=4,6=6,7=1111,11=2,25=1,30=1,71=1,74=-55/1,2,3;
 4//1;
 5/5=2,38=5/2;
 6/7=2,8=2,9=2,10=2,28=1/1;
 7//1,2,3,16;
 1/18=20,19=15,26=3/3(2);
 2/9=110/2;
 99//99;
 2/9=110/2;
 3/5=4,6=6,7=1111,11=2,25=1,30=1,71=1,74=-55/1,2,3;
 4/5=5,16=3,69=1/1;
 5/5=2,38=5/2;
 7//1,2,3,16;
 1/18=20,19=15,26=3/3(-5);
 2/9=110/2;
 6/7=2,8=2,9=2,10=2,19=2,28=1/1;
 99/9=1/99;
 Leave Link    1 at Mon Oct 14 10:34:14 2019, MaxMem= 10737418240 cpu:               2.9 elap:               0.1
 (Enter /apps/cent7/gaussian/g16-A.03/g16-haswell/g16/l101.exe)
 -------------------
 Title Card Required
 -------------------
 Symbolic Z-matrix:
 Charge =  0 Multiplicity = 1
 N                    -0.7642   -1.25002   0.30077 
 C                    -0.03392   0.01911   0.17077 
 C                    -0.71584   1.18468   0.05686 
 C                     0.04922   2.51424  -0.07933 
 C                     1.40439   2.51868  -0.08528 
 C                     2.17931   1.19416   0.04416 
 C                     1.50606   0.02415   0.16401 
 H                    -1.64031  -1.18086  -0.17636 
 H                    -0.2231   -1.98866  -0.10126 
 H                    -1.78583   1.18118   0.06156 
 H                    -0.4892    3.43453  -0.16926 
 H                     1.93596   3.44247  -0.1799 
 H                     3.2493    1.19767   0.03947 
 H                     2.04448  -0.89613   0.25394 
 
 ITRead=  0  0  0  0  0  0  0  0  0  0  0  0  0  0
 MicOpt= -1 -1 -1 -1 -1 -1 -1 -1 -1 -1 -1 -1 -1 -1
 NAtoms=     14 NQM=       14 NQMF=       0 NMMI=      0 NMMIF=      0
                NMic=       0 NMicF=      0.
                    Isotopes and Nuclear Properties:
 (Nuclear quadrupole moments (NQMom) in fm**2, nuclear magnetic moments (NMagM)
  in nuclear magnetons)

  Atom         1           2           3           4           5           6           7           8           9          10
 IAtWgt=          14          12          12          12          12          12          12           1           1           1
 AtmWgt=  14.0030740  12.0000000  12.0000000  12.0000000  12.0000000  12.0000000  12.0000000   1.0078250   1.0078250   1.0078250
 NucSpn=           2           0           0           0           0           0           0           1           1           1
 AtZEff=  -0.0000000  -0.0000000  -0.0000000  -0.0000000  -0.0000000  -0.0000000  -0.0000000  -0.0000000  -0.0000000  -0.0000000
 NQMom=    2.0440000   0.0000000   0.0000000   0.0000000   0.0000000   0.0000000   0.0000000   0.0000000   0.0000000   0.0000000
 NMagM=    0.4037610   0.0000000   0.0000000   0.0000000   0.0000000   0.0000000   0.0000000   2.7928460   2.7928460   2.7928460
 AtZNuc=   7.0000000   6.0000000   6.0000000   6.0000000   6.0000000   6.0000000   6.0000000   1.0000000   1.0000000   1.0000000

  Atom        11          12          13          14
 IAtWgt=           1           1           1           1
 AtmWgt=   1.0078250   1.0078250   1.0078250   1.0078250
 NucSpn=           1           1           1           1
 AtZEff=  -0.0000000  -0.0000000  -0.0000000  -0.0000000
 NQMom=    0.0000000   0.0000000   0.0000000   0.0000000
 NMagM=    2.7928460   2.7928460   2.7928460   2.7928460
 AtZNuc=   1.0000000   1.0000000   1.0000000   1.0000000
 Leave Link  101 at Mon Oct 14 10:34:14 2019, MaxMem= 10737418240 cpu:               8.4 elap:               0.4
 (Enter /apps/cent7/gaussian/g16-A.03/g16-haswell/g16/l103.exe)

 GradGradGradGradGradGradGradGradGradGradGradGradGradGradGradGradGradGrad
 Berny optimization.
 Initialization pass.
                           ----------------------------
                           !    Initial Parameters    !
                           ! (Angstroms and Degrees)  !
 --------------------------                            --------------------------
 ! Name  Definition              Value          Derivative Info.                !
 --------------------------------------------------------------------------------
 ! R1    R(1,2)                  1.47           estimate D2E/DX2                !
 ! R2    R(1,8)                  1.0            estimate D2E/DX2                !
 ! R3    R(1,9)                  1.0            estimate D2E/DX2                !
 ! R4    R(2,3)                  1.3552         estimate D2E/DX2                !
 ! R5    R(2,7)                  1.54           estimate D2E/DX2                !
 ! R6    R(3,4)                  1.54           estimate D2E/DX2                !
 ! R7    R(3,10)                 1.07           estimate D2E/DX2                !
 ! R8    R(4,5)                  1.3552         estimate D2E/DX2                !
 ! R9    R(4,11)                 1.07           estimate D2E/DX2                !
 ! R10   R(5,6)                  1.54           estimate D2E/DX2                !
 ! R11   R(5,12)                 1.07           estimate D2E/DX2                !
 ! R12   R(6,7)                  1.3552         estimate D2E/DX2                !
 ! R13   R(6,13)                 1.07           estimate D2E/DX2                !
 ! R14   R(7,14)                 1.07           estimate D2E/DX2                !
 ! A1    A(2,1,8)              109.4712         estimate D2E/DX2                !
 ! A2    A(2,1,9)              109.4712         estimate D2E/DX2                !
 ! A3    A(8,1,9)              109.4712         estimate D2E/DX2                !
 ! A4    A(1,2,3)              120.0            estimate D2E/DX2                !
 ! A5    A(1,2,7)              120.0            estimate D2E/DX2                !
 ! A6    A(3,2,7)              120.0            estimate D2E/DX2                !
 ! A7    A(2,3,4)              120.0            estimate D2E/DX2                !
 ! A8    A(2,3,10)             120.0            estimate D2E/DX2                !
 ! A9    A(4,3,10)             120.0            estimate D2E/DX2                !
 ! A10   A(3,4,5)              120.0            estimate D2E/DX2                !
 ! A11   A(3,4,11)             120.0            estimate D2E/DX2                !
 ! A12   A(5,4,11)             120.0            estimate D2E/DX2                !
 ! A13   A(4,5,6)              120.0            estimate D2E/DX2                !
 ! A14   A(4,5,12)             120.0            estimate D2E/DX2                !
 ! A15   A(6,5,12)             120.0            estimate D2E/DX2                !
 ! A16   A(5,6,7)              120.0            estimate D2E/DX2                !
 ! A17   A(5,6,13)             120.0            estimate D2E/DX2                !
 ! A18   A(7,6,13)             120.0            estimate D2E/DX2                !
 ! A19   A(2,7,6)              120.0            estimate D2E/DX2                !
 ! A20   A(2,7,14)             120.0            estimate D2E/DX2                !
 ! A21   A(6,7,14)             120.0            estimate D2E/DX2                !
 ! D1    D(8,1,2,3)             30.0            estimate D2E/DX2                !
 ! D2    D(8,1,2,7)           -150.0            estimate D2E/DX2                !
 ! D3    D(9,1,2,3)            150.0            estimate D2E/DX2                !
 ! D4    D(9,1,2,7)            -30.0            estimate D2E/DX2                !
 ! D5    D(1,2,3,4)           -180.0            estimate D2E/DX2                !
 ! D6    D(1,2,3,10)             0.0            estimate D2E/DX2                !
 ! D7    D(7,2,3,4)              0.0            estimate D2E/DX2                !
 ! D8    D(7,2,3,10)          -180.0            estimate D2E/DX2                !
 ! D9    D(1,2,7,6)            180.0            estimate D2E/DX2                !
 ! D10   D(1,2,7,14)             0.0            estimate D2E/DX2                !
 ! D11   D(3,2,7,6)              0.0            estimate D2E/DX2                !
 ! D12   D(3,2,7,14)           180.0            estimate D2E/DX2                !
 ! D13   D(2,3,4,5)              0.0            estimate D2E/DX2                !
 ! D14   D(2,3,4,11)          -180.0            estimate D2E/DX2                !
 ! D15   D(10,3,4,5)          -180.0            estimate D2E/DX2                !
 ! D16   D(10,3,4,11)            0.0            estimate D2E/DX2                !
 ! D17   D(3,4,5,6)             -0.0001         estimate D2E/DX2                !
 ! D18   D(3,4,5,12)          -180.0            estimate D2E/DX2                !
 ! D19   D(11,4,5,6)           180.0            estimate D2E/DX2                !
 ! D20   D(11,4,5,12)            0.0001         estimate D2E/DX2                !
 ! D21   D(4,5,6,7)              0.0001         estimate D2E/DX2                !
 ! D22   D(4,5,6,13)          -179.9999         estimate D2E/DX2                !
 ! D23   D(12,5,6,7)           180.0            estimate D2E/DX2                !
 ! D24   D(12,5,6,13)            0.0            estimate D2E/DX2                !
 ! D25   D(5,6,7,2)              0.0            estimate D2E/DX2                !
 ! D26   D(5,6,7,14)           180.0            estimate D2E/DX2                !
 ! D27   D(13,6,7,2)           180.0            estimate D2E/DX2                !
 ! D28   D(13,6,7,14)            0.0            estimate D2E/DX2                !
 --------------------------------------------------------------------------------
 Trust Radius=3.00D-01 FncErr=1.00D-07 GrdErr=1.00D-06 EigMax=2.50D+02 EigMin=1.00D-04
 Number of steps in this run=     73 maximum allowed number of steps=    100.
 GradGradGradGradGradGradGradGradGradGradGradGradGradGradGradGradGradGrad

 Leave Link  103 at Mon Oct 14 10:34:14 2019, MaxMem= 10737418240 cpu:               0.2 elap:               0.0
 (Enter /apps/cent7/gaussian/g16-A.03/g16-haswell/g16/l202.exe)
                          Input orientation:                          
 ---------------------------------------------------------------------
 Center     Atomic      Atomic             Coordinates (Angstroms)
 Number     Number       Type             X           Y           Z
 ---------------------------------------------------------------------
      1          7           0       -0.764202   -1.250021    0.300768
      2          6           0       -0.033918    0.019106    0.170767
      3          6           0       -0.715845    1.184683    0.056863
      4          6           0        0.049215    2.514245   -0.079330
      5          6           0        1.404395    2.518682   -0.085275
      6          6           0        2.179312    1.194164    0.044162
      7          6           0        1.506059    0.024149    0.164011
      8          1           0       -1.640309   -1.180856   -0.176363
      9          1           0       -0.223099   -1.988657   -0.101256
     10          1           0       -1.785829    1.181179    0.061557
     11          1           0       -0.489201    3.434527   -0.169263
     12          1           0        1.935963    3.442469   -0.179902
     13          1           0        3.249296    1.197668    0.039468
     14          1           0        2.044475   -0.896133    0.253944
 ---------------------------------------------------------------------
                    Distance matrix (angstroms):
                    1          2          3          4          5
     1  N    0.000000
     2  C    1.470000   0.000000
     3  C    2.447368   1.355200   0.000000
     4  C    3.869860   2.509019   1.540000   0.000000
     5  C    4.365200   2.895200   2.509019   1.355200   0.000000
     6  C    3.834601   2.509019   2.895200   2.509019   1.540000
     7  C    2.606971   1.540000   2.509019   2.895200   2.509019
     8  H    1.000000   2.034920   2.550451   4.064194   4.792192
     9  H    1.000000   2.034920   3.215258   4.511182   4.792192
    10  H    2.647957   2.105120   1.070000   2.272510   3.462370
    11  H    4.716094   3.462370   2.272510   1.070000   2.105120
    12  H    5.435200   3.965200   3.490808   2.105120   1.070000
    13  H    4.708251   3.490808   3.965200   3.462370   2.272510
    14  H    2.831272   2.272510   3.462370   3.965200   3.490808
                    6          7          8          9         10
     6  C    0.000000
     7  C    1.355200   0.000000
     8  H    4.503205   3.386373   0.000000
     9  H    3.990373   2.666785   1.632993   0.000000
    10  H    3.965200   3.490808   2.378443   3.537866   0.000000
    11  H    3.490808   3.965200   4.756770   5.430135   2.610000
    12  H    2.272510   3.462370   5.845072   5.845072   4.361590
    13  H    1.070000   2.105120   5.441708   4.714870   5.035200
    14  H    2.105120   1.070000   3.720734   2.541981   4.361590
                   11         12         13         14
    11  H    0.000000
    12  H    2.425200   0.000000
    13  H    4.361590   2.610000   0.000000
    14  H    5.035200   4.361590   2.425200   0.000000
 Stoichiometry    C6H7N
 Framework group  C1[X(C6H7N)]
 Deg. of freedom    36
 Full point group                 C1      NOp   1
 Largest Abelian subgroup         C1      NOp   1
 Largest concise Abelian subgroup C1      NOp   1
                         Standard orientation:                         
 ---------------------------------------------------------------------
 Center     Atomic      Atomic             Coordinates (Angstroms)
 Number     Number       Type             X           Y           Z
 ---------------------------------------------------------------------
      1          7           0       -2.428868   -0.001359   -0.072070
      2          6           0       -0.959455   -0.027647   -0.039878
      3          6           0       -0.303112   -1.213215   -0.025410
      4          6           0        1.236272   -1.240756    0.008316
      5          6           0        1.934587   -0.079424    0.023527
      6          6           0        1.188742    1.267812    0.007086
      7          6           0       -0.165916    1.292048   -0.022593
      8          1           0       -2.786992   -0.811728    0.391663
      9          1           0       -2.757793    0.821004    0.392180
     10          1           0       -0.854467   -2.130147   -0.037420
     11          1           0        1.754489   -2.176823    0.019739
     12          1           0        3.004159   -0.098559    0.046960
     13          1           0        1.740098    2.184744    0.019095
     14          1           0       -0.684133    2.228115   -0.034016
 ---------------------------------------------------------------------
 Rotational constants (GHZ):           5.2391239           2.4335997           1.6661564
 Leave Link  202 at Mon Oct 14 10:34:14 2019, MaxMem= 10737418240 cpu:               0.4 elap:               0.0
 (Enter /apps/cent7/gaussian/g16-A.03/g16-haswell/g16/l301.exe)
 Standard basis: 6-311++G(d,p) (5D, 7F)
 Ernie: Thresh=  0.10000D-02 Tol=  0.10000D-05 Strict=F.
 There are   210 symmetry adapted cartesian basis functions of A   symmetry.
 There are   203 symmetry adapted basis functions of A   symmetry.
   203 basis functions,   315 primitive gaussians,   210 cartesian basis functions
    25 alpha electrons       25 beta electrons
       nuclear repulsion energy       263.7812720947 Hartrees.
 IExCor= 4336 DFT=T Ex+Corr=M062X ExCW=0 ScaHFX=  0.540000
 ScaDFX=  1.000000  1.000000  1.000000  1.000000 ScalE2=  1.000000  1.000000
 IRadAn=      5 IRanWt=     -1 IRanGd=            0 ICorTp=0 IEmpDi=  4
 NAtoms=   14 NActive=   14 NUniq=   14 SFac= 1.00D+00 NAtFMM=   60 NAOKFM=F Big=F
 Integral buffers will be    131072 words long.
 Raffenetti 2 integral format.
 Two-electron integral symmetry is turned on.
 Leave Link  301 at Mon Oct 14 10:34:14 2019, MaxMem= 10737418240 cpu:               1.3 elap:               0.1
 (Enter /apps/cent7/gaussian/g16-A.03/g16-haswell/g16/l302.exe)
 NPDir=0 NMtPBC=     1 NCelOv=     1 NCel=       1 NClECP=     1 NCelD=      1
         NCelK=      1 NCelE2=     1 NClLst=     1 CellRange=     0.0.
 One-electron integrals computed using PRISM.
 One-electron integral symmetry used in STVInt
 NBasis=   203 RedAO= T EigKep=  1.33D-06  NBF=   203
 NBsUse=   203 1.00D-06 EigRej= -1.00D+00 NBFU=   203
 Precomputing XC quadrature grid using
 IXCGrd= 4 IRadAn=           5 IRanWt=          -1 IRanGd=           0 AccXCQ= 0.00D+00.
 Generated NRdTot=       0 NPtTot=           0 NUsed=           0 NTot=          32
 NSgBfM=   210   210   210   210   210 MxSgAt=    14 MxSgA2=    14.
 Leave Link  302 at Mon Oct 14 10:34:14 2019, MaxMem= 10737418240 cpu:               3.6 elap:               0.2
 (Enter /apps/cent7/gaussian/g16-A.03/g16-haswell/g16/l303.exe)
 DipDrv:  MaxL=1.
 Leave Link  303 at Mon Oct 14 10:34:15 2019, MaxMem= 10737418240 cpu:               1.2 elap:               0.1
 (Enter /apps/cent7/gaussian/g16-A.03/g16-haswell/g16/l401.exe)
 ExpMin= 3.60D-02 ExpMax= 6.29D+03 ExpMxC= 9.49D+02 IAcc=3 IRadAn=         5 AccDes= 0.00D+00
 Harris functional with IExCor= 1009 and IRadAn=       5 diagonalized for initial guess.
 HarFok:  IExCor= 1009 AccDes= 0.00D+00 IRadAn=         5 IDoV= 1 UseB2=F ITyADJ=14
 ICtDFT=  3500011 ScaDFX=  1.000000  1.000000  1.000000  1.000000
 FoFCou: FMM=F IPFlag=           0 FMFlag=      100000 FMFlg1=           0
         NFxFlg=           0 DoJE=T BraDBF=F KetDBF=T FulRan=T
         wScrn=  0.000000 ICntrl=       500 IOpCl=  0 I1Cent=   200000004 NGrid=           0
         NMat0=    1 NMatS0=      1 NMatT0=    0 NMatD0=    1 NMtDS0=    0 NMtDT0=    0
 Petite list used in FoFCou.
 Harris En= -287.398091090043    
 JPrj=0 DoOrth=F DoCkMO=F.
 Leave Link  401 at Mon Oct 14 10:34:15 2019, MaxMem= 10737418240 cpu:               7.0 elap:               0.3
 (Enter /apps/cent7/gaussian/g16-A.03/g16-haswell/g16/l502.exe)
 Integral symmetry usage will be decided dynamically.
 Closed shell SCF:
 Using DIIS extrapolation, IDIIS=  1040.
 NGot= 10737418240 LenX= 10737322882 LenY= 10737278341
 Requested convergence on RMS density matrix=1.00D-08 within 128 cycles.
 Requested convergence on MAX density matrix=1.00D-06.
 Requested convergence on             energy=1.00D-06.
 No special actions if energy rises.
 Fock matrices will be formed incrementally for  20 cycles.

 Cycle   1  Pass 1  IDiag  1:
 FoFJK:  IHMeth= 1 ICntrl=       0 DoSepK=F KAlg= 0 I1Cent=           0 FoldK=F
 IRaf= 970000000 NMat=       1 IRICut=       1 DoRegI=T DoRafI=F ISym2E= 0 IDoP0=0 IntGTp=1.
 FoFCou: FMM=F IPFlag=           0 FMFlag=      100000 FMFlg1=           0
         NFxFlg=           0 DoJE=F BraDBF=F KetDBF=F FulRan=T
         wScrn=  0.000000 ICntrl=         0 IOpCl=  0 I1Cent=           0 NGrid=           0
         NMat0=    1 NMatS0=      1 NMatT0=    0 NMatD0=    1 NMtDS0=    0 NMtDT0=    0
 Symmetry not used in FoFCou.
 E= -287.336753815541    
 DIIS: error= 3.67D-02 at cycle   1 NSaved=   1.
 NSaved= 1 IEnMin= 1 EnMin= -287.336753815541     IErMin= 1 ErrMin= 3.67D-02
 ErrMax= 3.67D-02  0.00D+00 EMaxC= 1.00D-01 BMatC= 2.17D-01 BMatP= 2.17D-01
 IDIUse=3 WtCom= 6.33D-01 WtEn= 3.67D-01
 Coeff-Com:  0.100D+01
 Coeff-En:   0.100D+01
 Coeff:      0.100D+01
 Gap=     0.297 Goal=   None    Shift=    0.000
 GapD=    0.297 DampG=1.000 DampE=0.500 DampFc=0.5000 IDamp=-1.
 Damping current iteration by 5.00D-01
 RMSDP=1.58D-02 MaxDP=6.63D-01              OVMax= 1.59D-01

 Cycle   2  Pass 1  IDiag  1:
 RMSU=  6.95D-03    CP:  1.09D+00
 E= -287.430897647526     Delta-E=       -0.094143831985 Rises=F Damp=T
 DIIS: error= 7.93D-03 at cycle   2 NSaved=   2.
 NSaved= 2 IEnMin= 2 EnMin= -287.430897647526     IErMin= 2 ErrMin= 7.93D-03
 ErrMax= 7.93D-03  0.00D+00 EMaxC= 1.00D-01 BMatC= 1.62D-02 BMatP= 2.17D-01
 IDIUse=3 WtCom= 9.21D-01 WtEn= 7.93D-02
 Coeff-Com: -0.165D+00 0.117D+01
 Coeff-En:   0.000D+00 0.100D+01
 Coeff:     -0.152D+00 0.115D+01
 Gap=     0.271 Goal=   None    Shift=    0.000
 RMSDP=4.31D-03 MaxDP=1.73D-01 DE=-9.41D-02 OVMax= 7.90D-02

 Cycle   3  Pass 1  IDiag  1:
 RMSU=  4.07D-03    CP:  1.10D+00  1.20D+00
 E= -287.515534089911     Delta-E=       -0.084636442384 Rises=F Damp=F
 DIIS: error= 3.73D-03 at cycle   3 NSaved=   3.
 NSaved= 3 IEnMin= 3 EnMin= -287.515534089911     IErMin= 3 ErrMin= 3.73D-03
 ErrMax= 3.73D-03  0.00D+00 EMaxC= 1.00D-01 BMatC= 2.46D-03 BMatP= 1.62D-02
 IDIUse=3 WtCom= 9.63D-01 WtEn= 3.73D-02
 Coeff-Com: -0.962D-01 0.322D+00 0.774D+00
 Coeff-En:   0.000D+00 0.000D+00 0.100D+01
 Coeff:     -0.926D-01 0.310D+00 0.782D+00
 Gap=     0.269 Goal=   None    Shift=    0.000
 RMSDP=8.79D-04 MaxDP=3.42D-02 DE=-8.46D-02 OVMax= 2.03D-02

 Cycle   4  Pass 1  IDiag  1:
 RMSU=  6.08D-04    CP:  1.09D+00  1.20D+00  9.14D-01
 E= -287.517194616992     Delta-E=       -0.001660527081 Rises=F Damp=F
 DIIS: error= 3.10D-03 at cycle   4 NSaved=   4.
 NSaved= 4 IEnMin= 4 EnMin= -287.517194616992     IErMin= 4 ErrMin= 3.10D-03
 ErrMax= 3.10D-03  0.00D+00 EMaxC= 1.00D-01 BMatC= 6.05D-04 BMatP= 2.46D-03
 IDIUse=3 WtCom= 9.69D-01 WtEn= 3.10D-02
 Coeff-Com: -0.399D-01 0.107D+00 0.405D+00 0.529D+00
 Coeff-En:   0.000D+00 0.000D+00 0.160D+00 0.840D+00
 Coeff:     -0.387D-01 0.103D+00 0.397D+00 0.538D+00
 Gap=     0.267 Goal=   None    Shift=    0.000
 RMSDP=5.80D-04 MaxDP=3.83D-02 DE=-1.66D-03 OVMax= 1.03D-02

 Cycle   5  Pass 1  IDiag  1:
 RMSU=  3.47D-04    CP:  1.08D+00  1.20D+00  8.85D-01  8.58D-01
 E= -287.517799845868     Delta-E=       -0.000605228877 Rises=F Damp=F
 DIIS: error= 7.01D-04 at cycle   5 NSaved=   5.
 NSaved= 5 IEnMin= 5 EnMin= -287.517799845868     IErMin= 5 ErrMin= 7.01D-04
 ErrMax= 7.01D-04  0.00D+00 EMaxC= 1.00D-01 BMatC= 2.84D-05 BMatP= 6.05D-04
 IDIUse=3 WtCom= 9.93D-01 WtEn= 7.01D-03
 Coeff-Com: -0.732D-02 0.147D-01 0.912D-01 0.226D+00 0.675D+00
 Coeff-En:   0.000D+00 0.000D+00 0.000D+00 0.000D+00 0.100D+01
 Coeff:     -0.727D-02 0.146D-01 0.905D-01 0.224D+00 0.678D+00
 Gap=     0.267 Goal=   None    Shift=    0.000
 RMSDP=9.63D-05 MaxDP=4.02D-03 DE=-6.05D-04 OVMax= 2.40D-03

 Cycle   6  Pass 1  IDiag  1:
 RMSU=  5.80D-05    CP:  1.08D+00  1.20D+00  8.88D-01  8.70D-01  8.73D-01
 E= -287.517829994262     Delta-E=       -0.000030148393 Rises=F Damp=F
 DIIS: error= 9.08D-05 at cycle   6 NSaved=   6.
 NSaved= 6 IEnMin= 6 EnMin= -287.517829994262     IErMin= 6 ErrMin= 9.08D-05
 ErrMax= 9.08D-05  0.00D+00 EMaxC= 1.00D-01 BMatC= 1.23D-06 BMatP= 2.84D-05
 IDIUse=1 WtCom= 1.00D+00 WtEn= 0.00D+00
 Coeff-Com: -0.150D-02 0.230D-02 0.214D-01 0.645D-01 0.261D+00 0.653D+00
 Coeff:     -0.150D-02 0.230D-02 0.214D-01 0.645D-01 0.261D+00 0.653D+00
 Gap=     0.267 Goal=   None    Shift=    0.000
 RMSDP=4.38D-05 MaxDP=2.49D-03 DE=-3.01D-05 OVMax= 4.42D-04

 Cycle   7  Pass 1  IDiag  1:
 RMSU=  1.87D-05    CP:  1.08D+00  1.20D+00  8.90D-01  8.67D-01  8.48D-01
                    CP:  8.44D-01
 E= -287.517831248364     Delta-E=       -0.000001254102 Rises=F Damp=F
 DIIS: error= 2.90D-05 at cycle   7 NSaved=   7.
 NSaved= 7 IEnMin= 7 EnMin= -287.517831248364     IErMin= 7 ErrMin= 2.90D-05
 ErrMax= 2.90D-05  0.00D+00 EMaxC= 1.00D-01 BMatC= 1.68D-07 BMatP= 1.23D-06
 IDIUse=1 WtCom= 1.00D+00 WtEn= 0.00D+00
 Coeff-Com:  0.112D-02-0.262D-02-0.118D-01-0.247D-01-0.404D-01 0.241D+00
 Coeff-Com:  0.837D+00
 Coeff:      0.112D-02-0.262D-02-0.118D-01-0.247D-01-0.404D-01 0.241D+00
 Coeff:      0.837D+00
 Gap=     0.267 Goal=   None    Shift=    0.000
 RMSDP=2.88D-05 MaxDP=1.47D-03 DE=-1.25D-06 OVMax= 3.34D-04

 Cycle   8  Pass 1  IDiag  1:
 RMSU=  8.59D-06    CP:  1.08D+00  1.19D+00  8.89D-01  8.73D-01  8.68D-01
                    CP:  1.01D+00  9.31D-01
 E= -287.517831508640     Delta-E=       -0.000000260276 Rises=F Damp=F
 DIIS: error= 1.27D-05 at cycle   8 NSaved=   8.
 NSaved= 8 IEnMin= 8 EnMin= -287.517831508640     IErMin= 8 ErrMin= 1.27D-05
 ErrMax= 1.27D-05  0.00D+00 EMaxC= 1.00D-01 BMatC= 7.48D-09 BMatP= 1.68D-07
 IDIUse=1 WtCom= 1.00D+00 WtEn= 0.00D+00
 Coeff-Com:  0.226D-03-0.490D-03-0.293D-02-0.783D-02-0.225D-01-0.837D-02
 Coeff-Com:  0.148D+00 0.894D+00
 Coeff:      0.226D-03-0.490D-03-0.293D-02-0.783D-02-0.225D-01-0.837D-02
 Coeff:      0.148D+00 0.894D+00
 Gap=     0.267 Goal=   None    Shift=    0.000
 RMSDP=2.81D-06 MaxDP=1.60D-04 DE=-2.60D-07 OVMax= 8.85D-05

 Cycle   9  Pass 1  IDiag  1:
 RMSU=  2.12D-06    CP:  1.08D+00  1.19D+00  8.89D-01  8.74D-01  8.67D-01
                    CP:  1.01D+00  9.92D-01  1.10D+00
 E= -287.517831526200     Delta-E=       -0.000000017560 Rises=F Damp=F
 DIIS: error= 5.22D-06 at cycle   9 NSaved=   9.
 NSaved= 9 IEnMin= 9 EnMin= -287.517831526200     IErMin= 9 ErrMin= 5.22D-06
 ErrMax= 5.22D-06  0.00D+00 EMaxC= 1.00D-01 BMatC= 1.56D-09 BMatP= 7.48D-09
 IDIUse=1 WtCom= 1.00D+00 WtEn= 0.00D+00
 Coeff-Com: -0.502D-04 0.126D-03 0.286D-03-0.241D-03-0.390D-02-0.273D-01
 Coeff-Com: -0.251D-01 0.320D+00 0.736D+00
 Coeff:     -0.502D-04 0.126D-03 0.286D-03-0.241D-03-0.390D-02-0.273D-01
 Coeff:     -0.251D-01 0.320D+00 0.736D+00
 Gap=     0.267 Goal=   None    Shift=    0.000
 RMSDP=1.26D-06 MaxDP=8.93D-05 DE=-1.76D-08 OVMax= 4.82D-05

 Cycle  10  Pass 1  IDiag  1:
 RMSU=  4.73D-07    CP:  1.08D+00  1.19D+00  8.89D-01  8.74D-01  8.65D-01
                    CP:  1.01D+00  1.00D+00  1.16D+00  1.18D+00
 E= -287.517831529412     Delta-E=       -0.000000003212 Rises=F Damp=F
 DIIS: error= 3.43D-06 at cycle  10 NSaved=  10.
 NSaved=10 IEnMin=10 EnMin= -287.517831529412     IErMin=10 ErrMin= 3.43D-06
 ErrMax= 3.43D-06  0.00D+00 EMaxC= 1.00D-01 BMatC= 3.70D-10 BMatP= 1.56D-09
 IDIUse=1 WtCom= 1.00D+00 WtEn= 0.00D+00
 Coeff-Com: -0.595D-04 0.135D-03 0.646D-03 0.125D-02 0.225D-02-0.867D-02
 Coeff-Com: -0.373D-01-0.736D-01 0.304D+00 0.812D+00
 Coeff:     -0.595D-04 0.135D-03 0.646D-03 0.125D-02 0.225D-02-0.867D-02
 Coeff:     -0.373D-01-0.736D-01 0.304D+00 0.812D+00
 Gap=     0.267 Goal=   None    Shift=    0.000
 RMSDP=6.96D-07 MaxDP=5.59D-05 DE=-3.21D-09 OVMax= 2.22D-05

 Cycle  11  Pass 1  IDiag  1:
 RMSU=  2.56D-07    CP:  1.08D+00  1.19D+00  8.89D-01  8.74D-01  8.65D-01
                    CP:  1.01D+00  1.00D+00  1.19D+00  1.36D+00  1.13D+00
 E= -287.517831530158     Delta-E=       -0.000000000746 Rises=F Damp=F
 DIIS: error= 6.79D-07 at cycle  11 NSaved=  11.
 NSaved=11 IEnMin=11 EnMin= -287.517831530158     IErMin=11 ErrMin= 6.79D-07
 ErrMax= 6.79D-07  0.00D+00 EMaxC= 1.00D-01 BMatC= 2.56D-11 BMatP= 3.70D-10
 IDIUse=1 WtCom= 1.00D+00 WtEn= 0.00D+00
 Coeff-Com: -0.141D-04 0.319D-04 0.184D-03 0.408D-03 0.925D-03-0.230D-03
 Coeff-Com: -0.109D-01-0.570D-01 0.470D-01 0.263D+00 0.757D+00
 Coeff:     -0.141D-04 0.319D-04 0.184D-03 0.408D-03 0.925D-03-0.230D-03
 Coeff:     -0.109D-01-0.570D-01 0.470D-01 0.263D+00 0.757D+00
 Gap=     0.267 Goal=   None    Shift=    0.000
 RMSDP=1.79D-07 MaxDP=1.14D-05 DE=-7.46D-10 OVMax= 7.34D-06

 Cycle  12  Pass 1  IDiag  1:
 RMSU=  6.71D-08    CP:  1.08D+00  1.19D+00  8.89D-01  8.74D-01  8.65D-01
                    CP:  1.01D+00  1.00D+00  1.19D+00  1.39D+00  1.24D+00
                    CP:  1.19D+00
 E= -287.517831530209     Delta-E=       -0.000000000052 Rises=F Damp=F
 DIIS: error= 4.72D-07 at cycle  12 NSaved=  12.
 NSaved=12 IEnMin=12 EnMin= -287.517831530209     IErMin=12 ErrMin= 4.72D-07
 ErrMax= 4.72D-07  0.00D+00 EMaxC= 1.00D-01 BMatC= 9.83D-12 BMatP= 2.56D-11
 IDIUse=1 WtCom= 1.00D+00 WtEn= 0.00D+00
 Coeff-Com:  0.526D-05-0.115D-04-0.389D-04-0.498D-04-0.454D-05 0.210D-02
 Coeff-Com:  0.238D-02-0.151D-01-0.359D-01-0.309D-01 0.417D+00 0.661D+00
 Coeff:      0.526D-05-0.115D-04-0.389D-04-0.498D-04-0.454D-05 0.210D-02
 Coeff:      0.238D-02-0.151D-01-0.359D-01-0.309D-01 0.417D+00 0.661D+00
 Gap=     0.267 Goal=   None    Shift=    0.000
 RMSDP=1.00D-07 MaxDP=6.89D-06 DE=-5.15D-11 OVMax= 2.37D-06

 Cycle  13  Pass 1  IDiag  1:
 RMSU=  3.91D-08    CP:  1.08D+00  1.19D+00  8.89D-01  8.74D-01  8.64D-01
                    CP:  1.01D+00  1.00D+00  1.19D+00  1.42D+00  1.26D+00
                    CP:  1.36D+00  1.16D+00
 E= -287.517831530220     Delta-E=       -0.000000000011 Rises=F Damp=F
 DIIS: error= 3.95D-08 at cycle  13 NSaved=  13.
 NSaved=13 IEnMin=13 EnMin= -287.517831530220     IErMin=13 ErrMin= 3.95D-08
 ErrMax= 3.95D-08  0.00D+00 EMaxC= 1.00D-01 BMatC= 1.61D-13 BMatP= 9.83D-12
 IDIUse=1 WtCom= 1.00D+00 WtEn= 0.00D+00
 Coeff-Com:  0.102D-05-0.247D-05-0.144D-04-0.247D-04-0.598D-04 0.210D-03
 Coeff-Com:  0.695D-03 0.260D-02-0.494D-02-0.168D-01-0.352D-01-0.145D-01
 Coeff-Com:  0.107D+01
 Coeff:      0.102D-05-0.247D-05-0.144D-04-0.247D-04-0.598D-04 0.210D-03
 Coeff:      0.695D-03 0.260D-02-0.494D-02-0.168D-01-0.352D-01-0.145D-01
 Coeff:      0.107D+01
 Gap=     0.267 Goal=   None    Shift=    0.000
 RMSDP=3.54D-08 MaxDP=2.50D-06 DE=-1.09D-11 OVMax= 7.04D-07

 Cycle  14  Pass 1  IDiag  1:
 RMSU=  1.24D-08    CP:  1.08D+00  1.19D+00  8.89D-01  8.74D-01  8.64D-01
                    CP:  1.01D+00  1.00D+00  1.19D+00  1.42D+00  1.28D+00
                    CP:  1.41D+00  1.26D+00  1.15D+00
 E= -287.517831530222     Delta-E=       -0.000000000001 Rises=F Damp=F
 DIIS: error= 1.34D-08 at cycle  14 NSaved=  14.
 NSaved=14 IEnMin=14 EnMin= -287.517831530222     IErMin=14 ErrMin= 1.34D-08
 ErrMax= 1.34D-08  0.00D+00 EMaxC= 1.00D-01 BMatC= 2.68D-14 BMatP= 1.61D-13
 IDIUse=1 WtCom= 1.00D+00 WtEn= 0.00D+00
 Coeff-Com: -0.219D-06 0.376D-06-0.666D-06-0.154D-05-0.139D-04-0.931D-04
 Coeff-Com: -0.148D-04 0.162D-02 0.130D-02-0.301D-03-0.389D-01-0.687D-01
 Coeff-Com:  0.282D+00 0.824D+00
 Coeff:     -0.219D-06 0.376D-06-0.666D-06-0.154D-05-0.139D-04-0.931D-04
 Coeff:     -0.148D-04 0.162D-02 0.130D-02-0.301D-03-0.389D-01-0.687D-01
 Coeff:      0.282D+00 0.824D+00
 Gap=     0.267 Goal=   None    Shift=    0.000
 RMSDP=8.81D-09 MaxDP=6.18D-07 DE=-1.48D-12 OVMax= 1.42D-07

 SCF Done:  E(RM062X) =  -287.517831530     A.U. after   14 cycles
            NFock= 14  Conv=0.88D-08     -V/T= 2.0059
 KE= 2.858221092067D+02 PE=-1.194825765088D+03 EE= 3.577045522565D+02
 Leave Link  502 at Mon Oct 14 10:34:22 2019, MaxMem= 10737418240 cpu:             176.5 elap:               7.4
 (Enter /apps/cent7/gaussian/g16-A.03/g16-haswell/g16/l601.exe)
 Copying SCF densities to generalized density rwf, IOpCl= 0 IROHF=0.

 **********************************************************************

            Population analysis using the SCF density.

 **********************************************************************

 Orbital symmetries:
       Occupied  (A) (A) (A) (A) (A) (A) (A) (A) (A) (A) (A) (A)
                 (A) (A) (A) (A) (A) (A) (A) (A) (A) (A) (A) (A)
                 (A)
       Virtual   (A) (A) (A) (A) (A) (A) (A) (A) (A) (A) (A) (A)
                 (A) (A) (A) (A) (A) (A) (A) (A) (A) (A) (A) (A)
                 (A) (A) (A) (A) (A) (A) (A) (A) (A) (A) (A) (A)
                 (A) (A) (A) (A) (A) (A) (A) (A) (A) (A) (A) (A)
                 (A) (A) (A) (A) (A) (A) (A) (A) (A) (A) (A) (A)
                 (A) (A) (A) (A) (A) (A) (A) (A) (A) (A) (A) (A)
                 (A) (A) (A) (A) (A) (A) (A) (A) (A) (A) (A) (A)
                 (A) (A) (A) (A) (A) (A) (A) (A) (A) (A) (A) (A)
                 (A) (A) (A) (A) (A) (A) (A) (A) (A) (A) (A) (A)
                 (A) (A) (A) (A) (A) (A) (A) (A) (A) (A) (A) (A)
                 (A) (A) (A) (A) (A) (A) (A) (A) (A) (A) (A) (A)
                 (A) (A) (A) (A) (A) (A) (A) (A) (A) (A) (A) (A)
                 (A) (A) (A) (A) (A) (A) (A) (A) (A) (A) (A) (A)
                 (A) (A) (A) (A) (A) (A) (A) (A) (A) (A) (A) (A)
                 (A) (A) (A) (A) (A) (A) (A) (A) (A) (A)
 The electronic state is 1-A.
 Alpha  occ. eigenvalues --  -14.75191 -10.59642 -10.55734 -10.55630 -10.55435
 Alpha  occ. eigenvalues --  -10.54750 -10.54466  -1.01324  -0.92414  -0.83998
 Alpha  occ. eigenvalues --   -0.81934  -0.68934  -0.66981  -0.59036  -0.57524
 Alpha  occ. eigenvalues --   -0.55582  -0.50182  -0.49461  -0.48408  -0.44300
 Alpha  occ. eigenvalues --   -0.41224  -0.40119  -0.37376  -0.30795  -0.27113
 Alpha virt. eigenvalues --   -0.00382   0.00767   0.00969   0.01186   0.02476
 Alpha virt. eigenvalues --    0.02912   0.03000   0.05379   0.06259   0.07285
 Alpha virt. eigenvalues --    0.07725   0.09833   0.10065   0.11290   0.12226
 Alpha virt. eigenvalues --    0.12640   0.12964   0.13393   0.13878   0.14144
 Alpha virt. eigenvalues --    0.14195   0.14500   0.14741   0.15753   0.15919
 Alpha virt. eigenvalues --    0.17155   0.18152   0.18647   0.19092   0.20248
 Alpha virt. eigenvalues --    0.20474   0.21487   0.21994   0.22701   0.23756
 Alpha virt. eigenvalues --    0.24462   0.24965   0.25882   0.26441   0.27291
 Alpha virt. eigenvalues --    0.28469   0.29648   0.31298   0.32325   0.32713
 Alpha virt. eigenvalues --    0.33167   0.37462   0.38255   0.39878   0.40814
 Alpha virt. eigenvalues --    0.48486   0.50948   0.52720   0.56240   0.57156
 Alpha virt. eigenvalues --    0.58082   0.60545   0.60807   0.61576   0.62191
 Alpha virt. eigenvalues --    0.63105   0.65593   0.66283   0.66960   0.68606
 Alpha virt. eigenvalues --    0.71947   0.73077   0.74940   0.79690   0.80103
 Alpha virt. eigenvalues --    0.81977   0.84058   0.85370   0.86077   0.88580
 Alpha virt. eigenvalues --    0.88913   0.90925   0.91225   0.92385   0.93481
 Alpha virt. eigenvalues --    0.94177   0.95531   0.96097   1.01773   1.05414
 Alpha virt. eigenvalues --    1.05672   1.07954   1.12175   1.13443   1.18259
 Alpha virt. eigenvalues --    1.19693   1.28411   1.34279   1.43922   1.46193
 Alpha virt. eigenvalues --    1.48804   1.54166   1.55936   1.56054   1.58247
 Alpha virt. eigenvalues --    1.58779   1.59155   1.61194   1.63096   1.66627
 Alpha virt. eigenvalues --    1.69969   1.72281   1.73977   1.79035   1.81917
 Alpha virt. eigenvalues --    1.82160   1.84409   1.86803   1.90633   1.92423
 Alpha virt. eigenvalues --    1.93985   1.95233   1.98031   1.99896   2.00188
 Alpha virt. eigenvalues --    2.04330   2.05758   2.08909   2.10632   2.19813
 Alpha virt. eigenvalues --    2.25175   2.28246   2.30226   2.39212   2.41837
 Alpha virt. eigenvalues --    2.49077   2.50597   2.56254   2.56782   2.58679
 Alpha virt. eigenvalues --    2.62061   2.65482   2.70123   2.71028   2.72516
 Alpha virt. eigenvalues --    2.72769   2.74954   2.76360   2.78107   2.82734
 Alpha virt. eigenvalues --    2.84772   2.86847   2.88403   2.89960   2.93831
 Alpha virt. eigenvalues --    2.94997   2.96146   3.02709   3.05713   3.09601
 Alpha virt. eigenvalues --    3.20887   3.26614   3.29452   3.43887   3.55154
 Alpha virt. eigenvalues --    3.55791   3.55794   3.80872   4.03632   4.07423
 Alpha virt. eigenvalues --    4.14552   4.16302   4.17867   4.68249   4.87317
 Alpha virt. eigenvalues --    4.93519  23.68256  23.80173  23.83422  24.22891
 Alpha virt. eigenvalues --   24.25634  24.26460  35.70922
          Condensed to atoms (all electrons):
               1          2          3          4          5          6
     1  N    6.697538  -0.167004   0.117015  -0.129508   0.063235  -0.160628
     2  C   -0.167004   9.599399  -3.220482   2.143078  -1.185386   2.091693
     3  C    0.117015  -3.220482   9.638103  -2.224502   1.081275  -1.498068
     4  C   -0.129508   2.143078  -2.224502   6.784874  -0.478432   1.218443
     5  C    0.063235  -1.185386   1.081275  -0.478432   6.003313  -0.598787
     6  C   -0.160628   2.091693  -1.498068   1.218443  -0.598787   7.161805
     7  C    0.116834  -2.237959   1.371754  -1.242900   0.938477  -2.125898
     8  H    0.382517   0.015025  -0.080492   0.025477  -0.003111  -0.010058
     9  H    0.389934  -0.045704   0.059413  -0.012494   0.000172   0.020923
    10  H   -0.012219  -0.136794   0.477598  -0.034841  -0.004367  -0.005164
    11  H   -0.002930   0.028096  -0.070263   0.369409  -0.016133   0.001026
    12  H    0.002784  -0.006954   0.019002  -0.020491   0.339400  -0.027273
    13  H   -0.003575   0.019057   0.020481  -0.018395  -0.005286   0.356644
    14  H    0.003725  -0.092438  -0.031742   0.002985   0.001821  -0.033355
               7          8          9         10         11         12
     1  N    0.116834   0.382517   0.389934  -0.012219  -0.002930   0.002784
     2  C   -2.237959   0.015025  -0.045704  -0.136794   0.028096  -0.006954
     3  C    1.371754  -0.080492   0.059413   0.477598  -0.070263   0.019002
     4  C   -1.242900   0.025477  -0.012494  -0.034841   0.369409  -0.020491
     5  C    0.938477  -0.003111   0.000172  -0.004367  -0.016133   0.339400
     6  C   -2.125898  -0.010058   0.020923  -0.005164   0.001026  -0.027273
     7  C    8.605945   0.029011  -0.054588  -0.008919   0.007058   0.010200
     8  H    0.029011   0.457977  -0.052529  -0.000397   0.001384  -0.000077
     9  H   -0.054588  -0.052529   0.456378   0.005055  -0.000382   0.000067
    10  H   -0.008919  -0.000397   0.005055   0.522815  -0.000299   0.000080
    11  H    0.007058   0.001384  -0.000382  -0.000299   0.489123  -0.003773
    12  H    0.010200  -0.000077   0.000067   0.000080  -0.003773   0.491524
    13  H   -0.052397  -0.000381   0.001110   0.001547  -0.001590   0.004959
    14  H    0.433196   0.003041  -0.000467  -0.001600   0.001167  -0.000063
              13         14
     1  N   -0.003575   0.003725
     2  C    0.019057  -0.092438
     3  C    0.020481  -0.031742
     4  C   -0.018395   0.002985
     5  C   -0.005286   0.001821
     6  C    0.356644  -0.033355
     7  C   -0.052397   0.433196
     8  H   -0.000381   0.003041
     9  H    0.001110  -0.000467
    10  H    0.001547  -0.001600
    11  H   -0.001590   0.001167
    12  H    0.004959  -0.000063
    13  H    0.487154  -0.008093
    14  H   -0.008093   0.512087
 Mulliken charges:
               1
     1  N   -0.297717
     2  C   -0.803628
     3  C    0.340908
     4  C   -0.382703
     5  C   -0.136192
     6  C   -0.391303
     7  C    0.210185
     8  H    0.232614
     9  H    0.233113
    10  H    0.197505
    11  H    0.198107
    12  H    0.190613
    13  H    0.198764
    14  H    0.209735
 Sum of Mulliken charges =  -0.00000
 Mulliken charges with hydrogens summed into heavy atoms:
               1
     1  N    0.168010
     2  C   -0.803628
     3  C    0.538414
     4  C   -0.184596
     5  C    0.054420
     6  C   -0.192540
     7  C    0.419920
 Electronic spatial extent (au):  <R**2>=            724.9192
 Charge=             -0.0000 electrons
 Dipole moment (field-independent basis, Debye):
    X=             -0.3470    Y=              0.1760    Z=              1.3382  Tot=              1.3936
 Quadrupole moment (field-independent basis, Debye-Ang):
   XX=            -37.1538   YY=            -35.8818   ZZ=            -47.8074
   XY=              0.0808   XZ=             -4.2331   YZ=              0.0148
 Traceless Quadrupole moment (field-independent basis, Debye-Ang):
   XX=              3.1272   YY=              4.3992   ZZ=             -7.5264
   XY=              0.0808   XZ=             -4.2331   YZ=              0.0148
 Octapole moment (field-independent basis, Debye-Ang**2):
  XXX=             -3.4885  YYY=              0.8539  ZZZ=              1.0826  XYY=             -4.2569
  XXY=             -0.5078  XXZ=             13.5277  XZZ=             -3.2366  YZZ=              0.1584
  YYZ=              0.8790  XYZ=             -0.0515
 Hexadecapole moment (field-independent basis, Debye-Ang**3):
 XXXX=           -565.0410 YYYY=           -293.2834 ZZZZ=            -59.7451 XXXY=              1.1458
 XXXZ=            -39.8493 YYYX=              0.0794 YYYZ=              0.0059 ZZZX=             -4.2072
 ZZZY=              0.0189 XXYY=           -130.5033 XXZZ=           -125.8989 YYZZ=            -71.8344
 XXYZ=              0.0286 YYXZ=             -2.9498 ZZXY=              0.2010
 N-N= 2.637812720947D+02 E-N=-1.194825765070D+03  KE= 2.858221092067D+02
 No NMR shielding tensors so no spin-rotation constants.
 Leave Link  601 at Mon Oct 14 10:34:22 2019, MaxMem= 10737418240 cpu:               2.3 elap:               0.1
 (Enter /apps/cent7/gaussian/g16-A.03/g16-haswell/g16/l701.exe)
 ... and contract with generalized density number  0.
 Compute integral first derivatives.
 Leave Link  701 at Mon Oct 14 10:34:23 2019, MaxMem= 10737418240 cpu:               2.7 elap:               0.1
 (Enter /apps/cent7/gaussian/g16-A.03/g16-haswell/g16/l702.exe)
 L702 exits ... SP integral derivatives will be done elsewhere.
 Leave Link  702 at Mon Oct 14 10:34:23 2019, MaxMem= 10737418240 cpu:               0.4 elap:               0.0
 (Enter /apps/cent7/gaussian/g16-A.03/g16-haswell/g16/l703.exe)
 Integral derivatives from FoFJK, PRISM(SPDF).
 Compute integral first derivatives, UseDBF=F ICtDFT=           0.
 Calling FoFJK, ICntrl=      2127 FMM=F ISym2X=0 I1Cent= 0 IOpClX= 0 NMat=1 NMatS=1 NMatT=0.
 FoFJK:  IHMeth= 1 ICntrl=    2127 DoSepK=F KAlg= 0 I1Cent=           0 FoldK=F
 IRaf=         0 NMat=       1 IRICut=       1 DoRegI=T DoRafI=F ISym2E= 0 IDoP0=0 IntGTp=1.
 FoFCou: FMM=F IPFlag=           0 FMFlag=      100000 FMFlg1=         800
         NFxFlg=           0 DoJE=F BraDBF=F KetDBF=F FulRan=T
         wScrn=  0.000000 ICntrl=      2127 IOpCl=  0 I1Cent=           0 NGrid=           0
         NMat0=    1 NMatS0=      1 NMatT0=    0 NMatD0=    1 NMtDS0=    0 NMtDT0=    0
 Symmetry not used in FoFCou.
 Leave Link  703 at Mon Oct 14 10:34:24 2019, MaxMem= 10737418240 cpu:              27.3 elap:               1.2
 (Enter /apps/cent7/gaussian/g16-A.03/g16-haswell/g16/l716.exe)
 Dipole        =-1.36516468D-01 6.92308945D-02 5.26482650D-01
 ***** Axes restored to original set *****
 -------------------------------------------------------------------
 Center     Atomic                   Forces (Hartrees/Bohr)
 Number     Number              X              Y              Z
 -------------------------------------------------------------------
      1        7           0.031404270    0.039528197    0.005088295
      2        6           0.037894882   -0.029406851   -0.000599985
      3        6           0.042026647    0.058592180   -0.005155051
      4        6          -0.021668704   -0.066343839    0.007693957
      5        6           0.024864764   -0.058731500    0.005794990
      6        6          -0.045638238    0.051019851   -0.004605291
      7        6          -0.063392595    0.010336833    0.000209785
      8        1          -0.010415090   -0.000816065   -0.004224407
      9        1           0.004304559   -0.010671562   -0.003415569
     10        1          -0.009607889    0.002720797   -0.000306741
     11        1          -0.007958387    0.005819451   -0.000620408
     12        1           0.007641329    0.005889941   -0.000703591
     13        1           0.009074480    0.002761718   -0.000443517
     14        1           0.001469973   -0.010699152    0.001287532
 -------------------------------------------------------------------
 Cartesian Forces:  Max     0.066343839 RMS     0.026157105
 Leave Link  716 at Mon Oct 14 10:34:24 2019, MaxMem= 10737418240 cpu:               0.7 elap:               0.1
 (Enter /apps/cent7/gaussian/g16-A.03/g16-haswell/g16/l103.exe)

 GradGradGradGradGradGradGradGradGradGradGradGradGradGradGradGradGradGrad
 Berny optimization.
 FormGI is forming the generalized inverse of G from B-inverse, IUseBI=4.
 Internal  Forces:  Max     0.066297893 RMS     0.015561515
 Search for a local minimum.
 Step number   1 out of a maximum of   73
 All quantities printed in internal units (Hartrees-Bohrs-Radians)
 RMS Force = .15562D-01 SwitMx=.10000D-02 MixMth= 1
 Mixed Optimization -- RFO/linear search
 Second derivative matrix not updated -- first step.
 ITU=  0
     Eigenvalues ---    0.00753   0.00754   0.00766   0.01286   0.01394
     Eigenvalues ---    0.01459   0.01459   0.01474   0.02121   0.02165
     Eigenvalues ---    0.05453   0.16000   0.16000   0.16000   0.16000
     Eigenvalues ---    0.16000   0.16000   0.16000   0.22000   0.22000
     Eigenvalues ---    0.23465   0.25000   0.27913   0.28039   0.28519
     Eigenvalues ---    0.35740   0.37230   0.37230   0.37230   0.37230
     Eigenvalues ---    0.37230   0.47688   0.47688   0.51329   0.51405
     Eigenvalues ---    0.53930
 RFO step:  Lambda=-4.53805214D-02 EMin= 7.53418342D-03
 Linear search not attempted -- first point.
 Maximum step size (   0.300) exceeded in Quadratic search.
    -- Step size scaled by   0.815
 Iteration  1 RMS(Cart)=  0.05327592 RMS(Int)=  0.00045845
 Iteration  2 RMS(Cart)=  0.00043582 RMS(Int)=  0.00009466
 Iteration  3 RMS(Cart)=  0.00000025 RMS(Int)=  0.00009466
 ITry= 1 IFail=0 DXMaxC= 1.51D-01 DCOld= 1.00D+10 DXMaxT= 3.00D-01 DXLimC= 3.00D+00 Rises=F
 Variable       Old X    -DE/DX   Delta X   Delta X   Delta X     New X
                                 (Linear)    (Quad)   (Total)
    R1        2.77790  -0.03700   0.00000  -0.07485  -0.07485   2.70305
    R2        1.88973   0.01109   0.00000   0.01730   0.01730   1.90702
    R3        1.88973   0.01158   0.00000   0.01807   0.01807   1.90780
    R4        2.56096   0.00192   0.00000   0.00284   0.00281   2.56377
    R5        2.91018  -0.06450   0.00000  -0.15886  -0.15886   2.75132
    R6        2.91018  -0.06630   0.00000  -0.16324  -0.16327   2.74691
    R7        2.02201   0.00960   0.00000   0.01872   0.01872   2.04073
    R8        2.56096  -0.00149   0.00000  -0.00213  -0.00214   2.55882
    R9        2.02201   0.00906   0.00000   0.01768   0.01768   2.03968
   R10        2.91018  -0.06502   0.00000  -0.16054  -0.16052   2.74966
   R11        2.02201   0.00894   0.00000   0.01745   0.01745   2.03945
   R12        2.56096  -0.00251   0.00000  -0.00359  -0.00356   2.55739
   R13        2.02201   0.00909   0.00000   0.01772   0.01772   2.03973
   R14        2.02201   0.01005   0.00000   0.01961   0.01961   2.04161
    A1        1.91063   0.00274   0.00000   0.01379   0.01361   1.92425
    A2        1.91063   0.00496   0.00000   0.02257   0.02240   1.93303
    A3        1.91063  -0.00177   0.00000  -0.00119  -0.00151   1.90912
    A4        2.09440   0.01042   0.00000   0.02851   0.02846   2.12286
    A5        2.09440  -0.00973   0.00000  -0.02706  -0.02711   2.06729
    A6        2.09440  -0.00069   0.00000  -0.00145  -0.00153   2.09287
    A7        2.09440  -0.00106   0.00000  -0.00268  -0.00274   2.09166
    A8        2.09440   0.00334   0.00000   0.01248   0.01250   2.10689
    A9        2.09440  -0.00228   0.00000  -0.00979  -0.00977   2.08463
   A10        2.09440   0.00222   0.00000   0.00685   0.00683   2.10122
   A11        2.09440  -0.00508   0.00000  -0.01918  -0.01917   2.07522
   A12        2.09440   0.00286   0.00000   0.01233   0.01234   2.10674
   A13        2.09440  -0.00196   0.00000  -0.00654  -0.00651   2.08788
   A14        2.09440   0.00471   0.00000   0.01807   0.01805   2.11245
   A15        2.09440  -0.00275   0.00000  -0.01153  -0.01154   2.08285
   A16        2.09440   0.00156   0.00000   0.00419   0.00425   2.09865
   A17        2.09440  -0.00357   0.00000  -0.01314  -0.01318   2.08122
   A18        2.09440   0.00200   0.00000   0.00896   0.00892   2.10332
   A19        2.09440  -0.00007   0.00000  -0.00036  -0.00032   2.09408
   A20        2.09440  -0.00416   0.00000  -0.01649  -0.01651   2.07789
   A21        2.09440   0.00424   0.00000   0.01684   0.01682   2.11122
    D1        0.52360  -0.00060   0.00000  -0.00104  -0.00116   0.52244
    D2       -2.61799  -0.00203   0.00000  -0.02101  -0.02115  -2.63915
    D3        2.61799   0.00195   0.00000   0.01977   0.01991   2.63791
    D4       -0.52360   0.00052   0.00000  -0.00020  -0.00008  -0.52368
    D5       -3.14159  -0.00123   0.00000  -0.01658  -0.01685   3.12474
    D6        0.00000  -0.00097   0.00000  -0.01303  -0.01323  -0.01323
    D7        0.00000   0.00020   0.00000   0.00340   0.00343   0.00343
    D8       -3.14159   0.00045   0.00000   0.00694   0.00705  -3.13454
    D9        3.14159   0.00104   0.00000   0.01470   0.01442  -3.12718
   D10       -0.00000   0.00088   0.00000   0.01284   0.01261   0.01261
   D11       -0.00000  -0.00039   0.00000  -0.00527  -0.00522  -0.00522
   D12        3.14159  -0.00055   0.00000  -0.00714  -0.00703   3.13457
   D13        0.00000   0.00011   0.00000   0.00068   0.00065   0.00065
   D14       -3.14159  -0.00000   0.00000  -0.00061  -0.00059   3.14100
   D15       -3.14159  -0.00014   0.00000  -0.00286  -0.00293   3.13866
   D16       -0.00000  -0.00026   0.00000  -0.00416  -0.00417  -0.00417
   D17       -0.00000  -0.00024   0.00000  -0.00303  -0.00300  -0.00300
   D18       -3.14159  -0.00013   0.00000  -0.00134  -0.00130   3.14030
   D19        3.14159  -0.00012   0.00000  -0.00174  -0.00174   3.13985
   D20        0.00000  -0.00001   0.00000  -0.00004  -0.00003  -0.00003
   D21        0.00000   0.00005   0.00000   0.00116   0.00120   0.00120
   D22       -3.14159   0.00017   0.00000   0.00259   0.00256  -3.13903
   D23        3.14159  -0.00006   0.00000  -0.00053  -0.00048   3.14111
   D24       -0.00000   0.00006   0.00000   0.00089   0.00089   0.00089
   D25       -0.00000   0.00026   0.00000   0.00292   0.00287   0.00287
   D26        3.14159   0.00042   0.00000   0.00479   0.00471  -3.13688
   D27        3.14159   0.00014   0.00000   0.00149   0.00149  -3.14011
   D28       -0.00000   0.00030   0.00000   0.00336   0.00333   0.00333
         Item               Value     Threshold  Converged?
 Maximum Force            0.066298     0.000450     NO 
 RMS     Force            0.015562     0.000300     NO 
 Maximum Displacement     0.150577     0.001800     NO 
 RMS     Displacement     0.053345     0.001200     NO 
 Predicted change in Energy=-2.399724D-02
 Lowest energy point so far.  Saving SCF results.
 GradGradGradGradGradGradGradGradGradGradGradGradGradGradGradGradGradGrad

 Leave Link  103 at Mon Oct 14 10:34:24 2019, MaxMem= 10737418240 cpu:               1.1 elap:               0.1
 (Enter /apps/cent7/gaussian/g16-A.03/g16-haswell/g16/l202.exe)
                          Input orientation:                          
 ---------------------------------------------------------------------
 Center     Atomic      Atomic             Coordinates (Angstroms)
 Number     Number       Type             X           Y           Z
 ---------------------------------------------------------------------
      1          7           0       -0.697814   -1.206660    0.298428
      2          6           0       -0.013782    0.041543    0.156624
      3          6           0       -0.687798    1.213972    0.048391
      4          6           0        0.047049    2.462256   -0.073022
      5          6           0        1.401104    2.462207   -0.079538
      6          6           0        2.120948    1.203317    0.039685
      7          6           0        1.442149    0.038253    0.155090
      8          1           0       -1.594177   -1.168217   -0.163572
      9          1           0       -0.151517   -1.960395   -0.092289
     10          1           0       -1.767535    1.232111    0.054645
     11          1           0       -0.504511    3.386070   -0.158779
     12          1           0        1.957107    3.382727   -0.170342
     13          1           0        3.200297    1.210671    0.036195
     14          1           0        1.964794   -0.902652    0.248637
 ---------------------------------------------------------------------
                    Distance matrix (angstroms):
                    1          2          3          4          5
     1  N    0.000000
     2  C    1.430391   0.000000
     3  C    2.433532   1.356687   0.000000
     4  C    3.762146   2.432342   1.453601   0.000000
     5  C    4.243689   2.813768   2.436795   1.354070   0.000000
     6  C    3.717574   2.433201   2.808780   2.428721   1.455058
     7  C    2.479879   1.455936   2.435236   2.806088   2.435629
     8  H    1.009153   2.015860   2.557591   3.985242   4.707308
     9  H    1.009562   2.022050   3.222420   4.427148   4.687238
    10  H    2.674199   2.122145   1.079907   2.195967   3.401678
    11  H    4.619477   3.395019   2.189640   1.079354   2.119238
    12  H    5.322671   3.892920   3.427370   2.122512   1.079232
    13  H    4.594292   3.422231   3.888115   3.394313   2.194728
    14  H    2.680369   2.194250   3.399476   3.886362   3.427495
                    6          7          8          9         10
     6  C    0.000000
     7  C    1.353314   0.000000
     8  H    4.412215   3.282742   0.000000
     9  H    3.897511   2.568183   1.647391   0.000000
    10  H    3.888618   3.425997   2.416453   3.581229   0.000000
    11  H    3.420063   3.885341   4.682832   5.358518   2.506056
    12  H    2.195628   3.399499   5.772587   5.744680   4.306823
    13  H    1.079379   2.116549   5.355931   4.615931   4.967912
    14  H    2.122063   1.080375   3.592592   2.390361   4.304082
                   11         12         13         14
    11  H    0.000000
    12  H    2.461648   0.000000
    13  H    4.300695   2.511177   0.000000
    14  H    4.965540   4.305819   2.457179   0.000000
 Stoichiometry    C6H7N
 Framework group  C1[X(C6H7N)]
 Deg. of freedom    36
 Full point group                 C1      NOp   1
 RotChk:  IX=0 Diff= 2.22D-02
 Largest Abelian subgroup         C1      NOp   1
 Largest concise Abelian subgroup C1      NOp   1
                         Standard orientation:                         
 ---------------------------------------------------------------------
 Center     Atomic      Atomic             Coordinates (Angstroms)
 Number     Number       Type             X           Y           Z
 ---------------------------------------------------------------------
      1          7           0       -2.359554   -0.002358   -0.076710
      2          6           0       -0.930305   -0.035941   -0.030468
      3          6           0       -0.246108   -1.207418   -0.019664
      4          6           0        1.207213   -1.196087    0.006544
      5          6           0        1.882961   -0.022775    0.021008
      6          6           0        1.146176    1.231867    0.006385
      7          6           0       -0.206872    1.227502   -0.020113
      8          1           0       -2.742956   -0.818999    0.375496
      9          1           0       -2.712720    0.828114    0.375844
     10          1           0       -0.769383   -2.151974   -0.033691
     11          1           0        1.736146   -2.136914    0.015410
     12          1           0        2.961800   -0.002250    0.041684
     13          1           0        1.691108    2.163545    0.015629
     14          1           0       -0.765512    2.152106   -0.035558
 ---------------------------------------------------------------------
 Rotational constants (GHZ):           5.5309937           2.5689823           1.7587929
 Leave Link  202 at Mon Oct 14 10:34:24 2019, MaxMem= 10737418240 cpu:               1.5 elap:               0.1
 (Enter /apps/cent7/gaussian/g16-A.03/g16-haswell/g16/l301.exe)
 Standard basis: 6-311++G(d,p) (5D, 7F)
 Ernie: Thresh=  0.10000D-02 Tol=  0.10000D-05 Strict=F.
 There are   210 symmetry adapted cartesian basis functions of A   symmetry.
 There are   203 symmetry adapted basis functions of A   symmetry.
   203 basis functions,   315 primitive gaussians,   210 cartesian basis functions
    25 alpha electrons       25 beta electrons
       nuclear repulsion energy       269.9625252517 Hartrees.
 IExCor= 4336 DFT=T Ex+Corr=M062X ExCW=0 ScaHFX=  0.540000
 ScaDFX=  1.000000  1.000000  1.000000  1.000000 ScalE2=  1.000000  1.000000
 IRadAn=      5 IRanWt=     -1 IRanGd=            0 ICorTp=0 IEmpDi=  4
 NAtoms=   14 NActive=   14 NUniq=   14 SFac= 1.00D+00 NAtFMM=   60 NAOKFM=F Big=F
 Integral buffers will be    131072 words long.
 Raffenetti 2 integral format.
 Two-electron integral symmetry is turned on.
 Leave Link  301 at Mon Oct 14 10:34:24 2019, MaxMem= 10737418240 cpu:               1.5 elap:               0.1
 (Enter /apps/cent7/gaussian/g16-A.03/g16-haswell/g16/l302.exe)
 NPDir=0 NMtPBC=     1 NCelOv=     1 NCel=       1 NClECP=     1 NCelD=      1
         NCelK=      1 NCelE2=     1 NClLst=     1 CellRange=     0.0.
 One-electron integrals computed using PRISM.
 One-electron integral symmetry used in STVInt
 NBasis=   203 RedAO= T EigKep=  1.04D-06  NBF=   203
 NBsUse=   203 1.00D-06 EigRej= -1.00D+00 NBFU=   203
 Precomputing XC quadrature grid using
 IXCGrd= 4 IRadAn=           5 IRanWt=          -1 IRanGd=           0 AccXCQ= 0.00D+00.
 Generated NRdTot=       0 NPtTot=           0 NUsed=           0 NTot=          32
 NSgBfM=   210   210   210   210   210 MxSgAt=    14 MxSgA2=    14.
 Leave Link  302 at Mon Oct 14 10:34:24 2019, MaxMem= 10737418240 cpu:               3.3 elap:               0.2
 (Enter /apps/cent7/gaussian/g16-A.03/g16-haswell/g16/l303.exe)
 DipDrv:  MaxL=1.
 Leave Link  303 at Mon Oct 14 10:34:24 2019, MaxMem= 10737418240 cpu:               1.1 elap:               0.1
 (Enter /apps/cent7/gaussian/g16-A.03/g16-haswell/g16/l401.exe)
 Initial guess from the checkpoint file:  "19.chk"
 B after Tr=    -0.000000   -0.000000   -0.000000
         Rot=    0.999974    0.000453    0.000203   -0.007195 Ang=   0.83 deg.
 Guess basis will be translated and rotated to current coordinates.
 JPrj=2 DoOrth=T DoCkMO=T.
 Generating alternative initial guess.
 ExpMin= 3.60D-02 ExpMax= 6.29D+03 ExpMxC= 9.49D+02 IAcc=3 IRadAn=         5 AccDes= 0.00D+00
 Harris functional with IExCor= 1009 and IRadAn=       5 diagonalized for initial guess.
 HarFok:  IExCor= 1009 AccDes= 0.00D+00 IRadAn=         5 IDoV= 1 UseB2=F ITyADJ=14
 ICtDFT=  3500011 ScaDFX=  1.000000  1.000000  1.000000  1.000000
 FoFCou: FMM=F IPFlag=           0 FMFlag=      100000 FMFlg1=           0
         NFxFlg=           0 DoJE=T BraDBF=F KetDBF=T FulRan=T
         wScrn=  0.000000 ICntrl=       500 IOpCl=  0 I1Cent=   200000004 NGrid=           0
         NMat0=    1 NMatS0=      1 NMatT0=    0 NMatD0=    1 NMtDS0=    0 NMtDT0=    0
 Petite list used in FoFCou.
 Harris En= -287.436850250916    
 Leave Link  401 at Mon Oct 14 10:34:25 2019, MaxMem= 10737418240 cpu:               9.4 elap:               0.4
 (Enter /apps/cent7/gaussian/g16-A.03/g16-haswell/g16/l502.exe)
 Integral symmetry usage will be decided dynamically.
 Closed shell SCF:
 Using DIIS extrapolation, IDIIS=  1040.
 NGot= 10737418240 LenX= 10737322882 LenY= 10737278341
 Requested convergence on RMS density matrix=1.00D-08 within 128 cycles.
 Requested convergence on MAX density matrix=1.00D-06.
 Requested convergence on             energy=1.00D-06.
 No special actions if energy rises.
 Fock matrices will be formed incrementally for  20 cycles.

 Cycle   1  Pass 1  IDiag  1:
 FoFJK:  IHMeth= 1 ICntrl=       0 DoSepK=F KAlg= 0 I1Cent=           0 FoldK=F
 IRaf= 980000000 NMat=       1 IRICut=       1 DoRegI=T DoRafI=F ISym2E= 0 IDoP0=0 IntGTp=1.
 FoFCou: FMM=F IPFlag=           0 FMFlag=      100000 FMFlg1=           0
         NFxFlg=           0 DoJE=F BraDBF=F KetDBF=F FulRan=T
         wScrn=  0.000000 ICntrl=         0 IOpCl=  0 I1Cent=           0 NGrid=           0
         NMat0=    1 NMatS0=      1 NMatT0=    0 NMatD0=    1 NMtDS0=    0 NMtDT0=    0
 Symmetry not used in FoFCou.
 E= -287.537262799637    
 DIIS: error= 5.24D-03 at cycle   1 NSaved=   1.
 NSaved= 1 IEnMin= 1 EnMin= -287.537262799637     IErMin= 1 ErrMin= 5.24D-03
 ErrMax= 5.24D-03  0.00D+00 EMaxC= 1.00D-01 BMatC= 4.94D-03 BMatP= 4.94D-03
 IDIUse=3 WtCom= 9.48D-01 WtEn= 5.24D-02
 Coeff-Com:  0.100D+01
 Coeff-En:   0.100D+01
 Coeff:      0.100D+01
 Gap=     0.425 Goal=   None    Shift=    0.000
 GapD=    0.425 DampG=2.000 DampE=1.000 DampFc=2.0000 IDamp=-1.
 RMSDP=1.05D-02 MaxDP=6.31D-01              OVMax= 3.30D-02

 Cycle   2  Pass 1  IDiag  1:
 RMSU=  4.70D-03    CP:  1.22D+00
 E= -287.544321214266     Delta-E=       -0.007058414630 Rises=F Damp=F
 DIIS: error= 1.94D-03 at cycle   2 NSaved=   2.
 NSaved= 2 IEnMin= 2 EnMin= -287.544321214266     IErMin= 2 ErrMin= 1.94D-03
 ErrMax= 1.94D-03  0.00D+00 EMaxC= 1.00D-01 BMatC= 4.54D-04 BMatP= 4.94D-03
 IDIUse=3 WtCom= 9.81D-01 WtEn= 1.94D-02
 Coeff-Com:  0.719D-01 0.928D+00
 Coeff-En:   0.000D+00 0.100D+01
 Coeff:      0.705D-01 0.930D+00
 Gap=     0.262 Goal=   None    Shift=    0.000
 RMSDP=7.37D-04 MaxDP=3.03D-02 DE=-7.06D-03 OVMax= 1.37D-02

 Cycle   3  Pass 1  IDiag  1:
 RMSU=  6.92D-04    CP:  1.22D+00  1.04D+00
 E= -287.544879122540     Delta-E=       -0.000557908273 Rises=F Damp=F
 DIIS: error= 1.28D-03 at cycle   3 NSaved=   3.
 NSaved= 3 IEnMin= 3 EnMin= -287.544879122540     IErMin= 3 ErrMin= 1.28D-03
 ErrMax= 1.28D-03  0.00D+00 EMaxC= 1.00D-01 BMatC= 1.93D-04 BMatP= 4.54D-04
 IDIUse=3 WtCom= 9.87D-01 WtEn= 1.28D-02
 Coeff-Com: -0.462D-01 0.376D+00 0.671D+00
 Coeff-En:   0.000D+00 0.000D+00 0.100D+01
 Coeff:     -0.456D-01 0.371D+00 0.675D+00
 Gap=     0.265 Goal=   None    Shift=    0.000
 RMSDP=1.03D-03 MaxDP=6.20D-02 DE=-5.58D-04 OVMax= 6.93D-03

 Cycle   4  Pass 1  IDiag  1:
 RMSU=  2.82D-04    CP:  1.24D+00  1.10D+00  5.32D-01
 E= -287.545130028056     Delta-E=       -0.000250905517 Rises=F Damp=F
 DIIS: error= 6.67D-04 at cycle   4 NSaved=   4.
 NSaved= 4 IEnMin= 4 EnMin= -287.545130028056     IErMin= 4 ErrMin= 6.67D-04
 ErrMax= 6.67D-04  0.00D+00 EMaxC= 1.00D-01 BMatC= 1.57D-05 BMatP= 1.93D-04
 IDIUse=3 WtCom= 9.93D-01 WtEn= 6.67D-03
 Coeff-Com: -0.137D-01-0.384D-02 0.194D+00 0.824D+00
 Coeff-En:   0.000D+00 0.000D+00 0.000D+00 0.100D+01
 Coeff:     -0.136D-01-0.381D-02 0.192D+00 0.825D+00
 Gap=     0.265 Goal=   None    Shift=    0.000
 RMSDP=2.73D-04 MaxDP=2.06D-02 DE=-2.51D-04 OVMax= 4.05D-03

 Cycle   5  Pass 1  IDiag  1:
 RMSU=  1.33D-04    CP:  1.24D+00  1.10D+00  6.50D-01  9.41D-01
 E= -287.545165657370     Delta-E=       -0.000035629314 Rises=F Damp=F
 DIIS: error= 1.92D-04 at cycle   5 NSaved=   5.
 NSaved= 5 IEnMin= 5 EnMin= -287.545165657370     IErMin= 5 ErrMin= 1.92D-04
 ErrMax= 1.92D-04  0.00D+00 EMaxC= 1.00D-01 BMatC= 3.24D-06 BMatP= 1.57D-05
 IDIUse=3 WtCom= 9.98D-01 WtEn= 1.92D-03
 Coeff-Com:  0.271D-02-0.688D-01-0.320D-01 0.324D+00 0.774D+00
 Coeff-En:   0.000D+00 0.000D+00 0.000D+00 0.000D+00 0.100D+01
 Coeff:      0.270D-02-0.686D-01-0.319D-01 0.323D+00 0.775D+00
 Gap=     0.264 Goal=   None    Shift=    0.000
 RMSDP=6.33D-05 MaxDP=4.64D-03 DE=-3.56D-05 OVMax= 2.32D-03

 Cycle   6  Pass 1  IDiag  1:
 RMSU=  4.18D-05    CP:  1.23D+00  1.10D+00  6.71D-01  9.87D-01  1.29D+00
 E= -287.545174059045     Delta-E=       -0.000008401674 Rises=F Damp=F
 DIIS: error= 1.08D-04 at cycle   6 NSaved=   6.
 NSaved= 6 IEnMin= 6 EnMin= -287.545174059045     IErMin= 6 ErrMin= 1.08D-04
 ErrMax= 1.08D-04  0.00D+00 EMaxC= 1.00D-01 BMatC= 5.24D-07 BMatP= 3.24D-06
 IDIUse=3 WtCom= 9.99D-01 WtEn= 1.08D-03
 Coeff-Com:  0.372D-02-0.315D-01-0.563D-01-0.259D-01 0.306D+00 0.804D+00
 Coeff-En:   0.000D+00 0.000D+00 0.000D+00 0.000D+00 0.000D+00 0.100D+01
 Coeff:      0.372D-02-0.315D-01-0.563D-01-0.259D-01 0.306D+00 0.804D+00
 Gap=     0.264 Goal=   None    Shift=    0.000
 RMSDP=4.77D-05 MaxDP=4.27D-03 DE=-8.40D-06 OVMax= 1.02D-03

 Cycle   7  Pass 1  IDiag  1:
 RMSU=  1.43D-05    CP:  1.23D+00  1.10D+00  6.77D-01  1.02D+00  1.57D+00
                    CP:  1.38D+00
 E= -287.545175452320     Delta-E=       -0.000001393275 Rises=F Damp=F
 DIIS: error= 2.62D-05 at cycle   7 NSaved=   7.
 NSaved= 7 IEnMin= 7 EnMin= -287.545175452320     IErMin= 7 ErrMin= 2.62D-05
 ErrMax= 2.62D-05  0.00D+00 EMaxC= 1.00D-01 BMatC= 5.91D-08 BMatP= 5.24D-07
 IDIUse=1 WtCom= 1.00D+00 WtEn= 0.00D+00
 Coeff-Com:  0.118D-02-0.515D-02-0.203D-01-0.442D-01 0.467D-01 0.320D+00
 Coeff-Com:  0.702D+00
 Coeff:      0.118D-02-0.515D-02-0.203D-01-0.442D-01 0.467D-01 0.320D+00
 Coeff:      0.702D+00
 Gap=     0.264 Goal=   None    Shift=    0.000
 RMSDP=1.57D-05 MaxDP=1.50D-03 DE=-1.39D-06 OVMax= 2.69D-04

 Cycle   8  Pass 1  IDiag  1:
 RMSU=  4.65D-06    CP:  1.23D+00  1.10D+00  6.78D-01  1.02D+00  1.66D+00
                    CP:  1.42D+00  1.02D+00
 E= -287.545175542181     Delta-E=       -0.000000089861 Rises=F Damp=F
 DIIS: error= 9.69D-06 at cycle   8 NSaved=   8.
 NSaved= 8 IEnMin= 8 EnMin= -287.545175542181     IErMin= 8 ErrMin= 9.69D-06
 ErrMax= 9.69D-06  0.00D+00 EMaxC= 1.00D-01 BMatC= 1.10D-08 BMatP= 5.91D-08
 IDIUse=1 WtCom= 1.00D+00 WtEn= 0.00D+00
 Coeff-Com: -0.738D-04 0.315D-02 0.630D-03-0.132D-01-0.278D-01-0.883D-03
 Coeff-Com:  0.325D+00 0.713D+00
 Coeff:     -0.738D-04 0.315D-02 0.630D-03-0.132D-01-0.278D-01-0.883D-03
 Coeff:      0.325D+00 0.713D+00
 Gap=     0.264 Goal=   None    Shift=    0.000
 RMSDP=6.09D-06 MaxDP=4.82D-04 DE=-8.99D-08 OVMax= 5.31D-05

 Cycle   9  Pass 1  IDiag  1:
 RMSU=  1.50D-06    CP:  1.23D+00  1.10D+00  6.76D-01  1.02D+00  1.68D+00
                    CP:  1.50D+00  1.16D+00  8.93D-01
 E= -287.545175554126     Delta-E=       -0.000000011945 Rises=F Damp=F
 DIIS: error= 1.09D-06 at cycle   9 NSaved=   9.
 NSaved= 9 IEnMin= 9 EnMin= -287.545175554126     IErMin= 9 ErrMin= 1.09D-06
 ErrMax= 1.09D-06  0.00D+00 EMaxC= 1.00D-01 BMatC= 2.25D-10 BMatP= 1.10D-08
 IDIUse=1 WtCom= 1.00D+00 WtEn= 0.00D+00
 Coeff-Com: -0.592D-04 0.110D-02 0.889D-03-0.246D-02-0.100D-01-0.130D-01
 Coeff-Com:  0.764D-01 0.205D+00 0.742D+00
 Coeff:     -0.592D-04 0.110D-02 0.889D-03-0.246D-02-0.100D-01-0.130D-01
 Coeff:      0.764D-01 0.205D+00 0.742D+00
 Gap=     0.264 Goal=   None    Shift=    0.000
 RMSDP=1.13D-06 MaxDP=9.13D-05 DE=-1.19D-08 OVMax= 1.00D-05

 Cycle  10  Pass 1  IDiag  1:
 RMSU=  2.81D-07    CP:  1.23D+00  1.10D+00  6.76D-01  1.02D+00  1.69D+00
                    CP:  1.50D+00  1.19D+00  9.50D-01  1.07D+00
 E= -287.545175554364     Delta-E=       -0.000000000238 Rises=F Damp=F
 DIIS: error= 5.78D-07 at cycle  10 NSaved=  10.
 NSaved=10 IEnMin=10 EnMin= -287.545175554364     IErMin=10 ErrMin= 5.78D-07
 ErrMax= 5.78D-07  0.00D+00 EMaxC= 1.00D-01 BMatC= 5.68D-11 BMatP= 2.25D-10
 IDIUse=1 WtCom= 1.00D+00 WtEn= 0.00D+00
 Coeff-Com: -0.118D-04 0.229D-05 0.285D-03 0.921D-03-0.210D-03-0.560D-02
 Coeff-Com: -0.115D-01-0.162D-01 0.330D+00 0.702D+00
 Coeff:     -0.118D-04 0.229D-05 0.285D-03 0.921D-03-0.210D-03-0.560D-02
 Coeff:     -0.115D-01-0.162D-01 0.330D+00 0.702D+00
 Gap=     0.264 Goal=   None    Shift=    0.000
 RMSDP=4.45D-07 MaxDP=3.54D-05 DE=-2.38D-10 OVMax= 3.08D-06

 Cycle  11  Pass 1  IDiag  1:
 RMSU=  8.29D-08    CP:  1.23D+00  1.10D+00  6.76D-01  1.02D+00  1.69D+00
                    CP:  1.51D+00  1.20D+00  9.57D-01  1.14D+00  1.02D+00
 E= -287.545175554427     Delta-E=       -0.000000000063 Rises=F Damp=F
 DIIS: error= 1.45D-07 at cycle  11 NSaved=  11.
 NSaved=11 IEnMin=11 EnMin= -287.545175554427     IErMin=11 ErrMin= 1.45D-07
 ErrMax= 1.45D-07  0.00D+00 EMaxC= 1.00D-01 BMatC= 2.09D-12 BMatP= 5.68D-11
 IDIUse=1 WtCom= 1.00D+00 WtEn= 0.00D+00
 Coeff-Com:  0.135D-05-0.889D-04 0.105D-04 0.476D-03 0.742D-03-0.785D-03
 Coeff-Com: -0.955D-02-0.235D-01 0.372D-01 0.173D+00 0.823D+00
 Coeff:      0.135D-05-0.889D-04 0.105D-04 0.476D-03 0.742D-03-0.785D-03
 Coeff:     -0.955D-02-0.235D-01 0.372D-01 0.173D+00 0.823D+00
 Gap=     0.264 Goal=   None    Shift=    0.000
 RMSDP=1.60D-07 MaxDP=1.39D-05 DE=-6.30D-11 OVMax= 8.95D-07

 Cycle  12  Pass 1  IDiag  1:
 RMSU=  2.69D-08    CP:  1.23D+00  1.10D+00  6.76D-01  1.02D+00  1.69D+00
                    CP:  1.51D+00  1.20D+00  9.59D-01  1.16D+00  1.09D+00
                    CP:  1.08D+00
 E= -287.545175554428     Delta-E=       -0.000000000002 Rises=F Damp=F
 DIIS: error= 9.78D-08 at cycle  12 NSaved=  12.
 NSaved=12 IEnMin=12 EnMin= -287.545175554428     IErMin=12 ErrMin= 9.78D-08
 ErrMax= 9.78D-08  0.00D+00 EMaxC= 1.00D-01 BMatC= 5.95D-13 BMatP= 2.09D-12
 IDIUse=1 WtCom= 1.00D+00 WtEn= 0.00D+00
 Coeff-Com:  0.176D-05-0.437D-04-0.218D-04 0.153D-03 0.400D-03 0.111D-03
 Coeff-Com: -0.336D-02-0.986D-02-0.607D-02 0.184D-01 0.389D+00 0.611D+00
 Coeff:      0.176D-05-0.437D-04-0.218D-04 0.153D-03 0.400D-03 0.111D-03
 Coeff:     -0.336D-02-0.986D-02-0.607D-02 0.184D-01 0.389D+00 0.611D+00
 Gap=     0.264 Goal=   None    Shift=    0.000
 RMSDP=1.87D-08 MaxDP=1.14D-06 DE=-1.71D-12 OVMax= 4.67D-07

 Cycle  13  Pass 1  IDiag  1:
 RMSU=  8.51D-09    CP:  1.23D+00  1.10D+00  6.76D-01  1.02D+00  1.69D+00
                    CP:  1.51D+00  1.20D+00  9.59D-01  1.16D+00  1.10D+00
                    CP:  1.14D+00  1.09D+00
 E= -287.545175554429     Delta-E=       -0.000000000000 Rises=F Damp=F
 DIIS: error= 2.37D-08 at cycle  13 NSaved=  13.
 NSaved=13 IEnMin=13 EnMin= -287.545175554429     IErMin=13 ErrMin= 2.37D-08
 ErrMax= 2.37D-08  0.00D+00 EMaxC= 1.00D-01 BMatC= 6.24D-14 BMatP= 5.95D-13
 IDIUse=1 WtCom= 1.00D+00 WtEn= 0.00D+00
 Coeff-Com:  0.214D-06 0.201D-05-0.900D-05-0.368D-04-0.209D-05 0.160D-03
 Coeff-Com:  0.623D-03 0.754D-03-0.686D-02-0.307D-01-0.293D-01 0.218D+00
 Coeff-Com:  0.847D+00
 Coeff:      0.214D-06 0.201D-05-0.900D-05-0.368D-04-0.209D-05 0.160D-03
 Coeff:      0.623D-03 0.754D-03-0.686D-02-0.307D-01-0.293D-01 0.218D+00
 Coeff:      0.847D+00
 Gap=     0.264 Goal=   None    Shift=    0.000
 RMSDP=9.18D-09 MaxDP=3.74D-07 DE=-1.14D-13 OVMax= 1.45D-07

 SCF Done:  E(RM062X) =  -287.545175554     A.U. after   13 cycles
            NFock= 13  Conv=0.92D-08     -V/T= 2.0045
 KE= 2.862612015935D+02 PE=-1.207612681372D+03 EE= 3.638437789719D+02
 Leave Link  502 at Mon Oct 14 10:34:32 2019, MaxMem= 10737418240 cpu:             159.2 elap:               6.7
 (Enter /apps/cent7/gaussian/g16-A.03/g16-haswell/g16/l701.exe)
 ... and contract with generalized density number  0.
 Compute integral first derivatives.
 Leave Link  701 at Mon Oct 14 10:34:32 2019, MaxMem= 10737418240 cpu:               2.5 elap:               0.1
 (Enter /apps/cent7/gaussian/g16-A.03/g16-haswell/g16/l702.exe)
 L702 exits ... SP integral derivatives will be done elsewhere.
 Leave Link  702 at Mon Oct 14 10:34:32 2019, MaxMem= 10737418240 cpu:               0.9 elap:               0.1
 (Enter /apps/cent7/gaussian/g16-A.03/g16-haswell/g16/l703.exe)
 Integral derivatives from FoFJK, PRISM(SPDF).
 Compute integral first derivatives, UseDBF=F ICtDFT=           0.
 Calling FoFJK, ICntrl=      2127 FMM=F ISym2X=0 I1Cent= 0 IOpClX= 0 NMat=1 NMatS=1 NMatT=0.
 FoFJK:  IHMeth= 1 ICntrl=    2127 DoSepK=F KAlg= 0 I1Cent=           0 FoldK=F
 IRaf=         0 NMat=       1 IRICut=       1 DoRegI=T DoRafI=F ISym2E= 0 IDoP0=0 IntGTp=1.
 FoFCou: FMM=F IPFlag=           0 FMFlag=      100000 FMFlg1=         800
         NFxFlg=           0 DoJE=F BraDBF=F KetDBF=F FulRan=T
         wScrn=  0.000000 ICntrl=      2127 IOpCl=  0 I1Cent=           0 NGrid=           0
         NMat0=    1 NMatS0=      1 NMatT0=    0 NMatD0=    1 NMtDS0=    0 NMtDT0=    0
 Symmetry not used in FoFCou.
 Leave Link  703 at Mon Oct 14 10:34:33 2019, MaxMem= 10737418240 cpu:              27.1 elap:               1.2
 (Enter /apps/cent7/gaussian/g16-A.03/g16-haswell/g16/l716.exe)
 Dipole        =-2.32271170D-01 3.97483731D-02 5.05121756D-01
 ***** Axes restored to original set *****
 -------------------------------------------------------------------
 Center     Atomic                   Forces (Hartrees/Bohr)
 Number     Number              X              Y              Z
 -------------------------------------------------------------------
      1        7           0.010194517    0.017804274   -0.003436184
      2        6           0.028110659   -0.030659265    0.001579616
      3        6           0.011091749    0.043050386   -0.003348108
      4        6          -0.028773826   -0.030274178    0.003458697
      5        6           0.030257833   -0.025986239    0.002507051
      6        6          -0.011228489    0.038692152   -0.003368555
      7        6          -0.035769376   -0.007739323    0.001649248
      8        1          -0.003599278   -0.002603300    0.000786082
      9        1          -0.000243660   -0.003326186    0.000539771
     10        1          -0.002988300   -0.000001938   -0.000117497
     11        1          -0.002125913    0.002037852   -0.000253126
     12        1           0.001644006    0.001859723   -0.000244098
     13        1           0.002843723    0.000235341   -0.000137319
     14        1           0.000586355   -0.003089299    0.000384422
 -------------------------------------------------------------------
 Cartesian Forces:  Max     0.043050386 RMS     0.015854216
 Leave Link  716 at Mon Oct 14 10:34:33 2019, MaxMem= 10737418240 cpu:               0.4 elap:               0.0
 (Enter /apps/cent7/gaussian/g16-A.03/g16-haswell/g16/l103.exe)

 GradGradGradGradGradGradGradGradGradGradGradGradGradGradGradGradGradGrad
 Berny optimization.
 Using GEDIIS/GDIIS optimizer.
 FormGI is forming the generalized inverse of G from B-inverse, IUseBI=4.
 Internal  Forces:  Max     0.030752476 RMS     0.007711475
 Search for a local minimum.
 Step number   2 out of a maximum of   73
 All quantities printed in internal units (Hartrees-Bohrs-Radians)
 RMS Force = .77115D-02 SwitMx=.10000D-02 MixMth= 1
 Mixed Optimization -- RFO/linear search
 Update second derivatives using D2CorX and points    1    2
 DE= -2.73D-02 DEPred=-2.40D-02 R= 1.14D+00
 TightC=F SS=  1.41D+00  RLast= 3.03D-01 DXNew= 5.0454D-01 9.0931D-01
 Trust test= 1.14D+00 RLast= 3.03D-01 DXMaxT set to 5.05D-01
 ITU=  1  0
 Use linear search instead of GDIIS.
     Eigenvalues ---    0.00760   0.00763   0.00766   0.01311   0.01419
     Eigenvalues ---    0.01475   0.01482   0.01494   0.02129   0.02171
     Eigenvalues ---    0.05129   0.15549   0.16000   0.16000   0.16000
     Eigenvalues ---    0.16000   0.16000   0.16159   0.20295   0.22000
     Eigenvalues ---    0.22045   0.23691   0.25512   0.27886   0.28085
     Eigenvalues ---    0.35534   0.37225   0.37230   0.37230   0.37230
     Eigenvalues ---    0.37255   0.47663   0.47697   0.51185   0.51280
     Eigenvalues ---    0.60868
 RFO step:  Lambda=-4.91925892D-03 EMin= 7.59663409D-03
 Quartic linear search produced a step of  0.54580.
 Iteration  1 RMS(Cart)=  0.02856984 RMS(Int)=  0.00085505
 Iteration  2 RMS(Cart)=  0.00075238 RMS(Int)=  0.00048300
 Iteration  3 RMS(Cart)=  0.00000075 RMS(Int)=  0.00048300
 ITry= 1 IFail=0 DXMaxC= 7.75D-02 DCOld= 1.00D+10 DXMaxT= 5.05D-01 DXLimC= 3.00D+00 Rises=F
 Variable       Old X    -DE/DX   Delta X   Delta X   Delta X     New X
                                 (Linear)    (Quad)   (Total)
    R1        2.70305  -0.01361  -0.04085  -0.00314  -0.04399   2.65906
    R2        1.90702   0.00274   0.00944  -0.00297   0.00647   1.91349
    R3        1.90780   0.00214   0.00986  -0.00541   0.00445   1.91225
    R4        2.56377   0.01756   0.00153   0.04802   0.04947   2.61324
    R5        2.75132  -0.02761  -0.08670  -0.02196  -0.10863   2.64269
    R6        2.74691  -0.03075  -0.08911  -0.03510  -0.12433   2.62258
    R7        2.04073   0.00299   0.01022  -0.00133   0.00888   2.04961
    R8        2.55882   0.01594  -0.00117   0.04657   0.04537   2.60419
    R9        2.03968   0.00285   0.00965  -0.00114   0.00851   2.04820
   R10        2.74966  -0.03029  -0.08761  -0.03516  -0.12270   2.62697
   R11        2.03945   0.00245   0.00952  -0.00259   0.00693   2.04638
   R12        2.55739   0.01532  -0.00194   0.04571   0.04387   2.60127
   R13        2.03973   0.00285   0.00967  -0.00119   0.00848   2.04822
   R14        2.04161   0.00301   0.01070  -0.00189   0.00881   2.05042
    A1        1.92425   0.00530   0.00743   0.04773   0.05365   1.97789
    A2        1.93303   0.00369   0.01222   0.02383   0.03453   1.96756
    A3        1.90912  -0.00197  -0.00083   0.00522   0.00187   1.91099
    A4        2.12286   0.00171   0.01553  -0.01301   0.00251   2.12537
    A5        2.06729   0.00091  -0.01479   0.02784   0.01304   2.08033
    A6        2.09287  -0.00264  -0.00083  -0.01468  -0.01559   2.07728
    A7        2.09166   0.00073  -0.00149   0.00749   0.00581   2.09747
    A8        2.10689  -0.00040   0.00682  -0.01510  -0.00820   2.09870
    A9        2.08463  -0.00033  -0.00533   0.00764   0.00239   2.08701
   A10        2.10122   0.00142   0.00373   0.00361   0.00719   2.10841
   A11        2.07522  -0.00150  -0.01046   0.00637  -0.00402   2.07120
   A12        2.10674   0.00008   0.00674  -0.00998  -0.00317   2.10357
[...]
 ! D6    D(1,2,3,10)            -2.3066         -DE/DX =    0.0                 !
 ! D7    D(7,2,3,4)              0.2616         -DE/DX =    0.0                 !
 ! D8    D(7,2,3,10)          -179.4732         -DE/DX =    0.0                 !
 ! D9    D(1,2,7,6)           -177.4314         -DE/DX =    0.0                 !
 ! D10   D(1,2,7,14)             2.2725         -DE/DX =    0.0                 !
 ! D11   D(3,2,7,6)             -0.2647         -DE/DX =    0.0                 !
 ! D12   D(3,2,7,14)           179.4391         -DE/DX =    0.0                 !
 ! D13   D(2,3,4,5)             -0.0945         -DE/DX =    0.0                 !
 ! D14   D(2,3,4,11)           179.8725         -DE/DX =    0.0                 !
 ! D15   D(10,3,4,5)           179.6382         -DE/DX =    0.0                 !
 ! D16   D(10,3,4,11)           -0.3948         -DE/DX =    0.0                 !
 ! D17   D(3,4,5,6)             -0.0732         -DE/DX =    0.0                 !
 ! D18   D(3,4,5,12)           179.9396         -DE/DX =    0.0                 !
 ! D19   D(11,4,5,6)           179.9601         -DE/DX =    0.0                 !
 ! D20   D(11,4,5,12)           -0.0272         -DE/DX =    0.0                 !
 ! D21   D(4,5,6,7)              0.07           -DE/DX =    0.0                 !
 ! D22   D(4,5,6,13)          -179.9173         -DE/DX =    0.0                 !
 ! D23   D(12,5,6,7)          -179.9427         -DE/DX =    0.0                 !
 ! D24   D(12,5,6,13)            0.0699         -DE/DX =    0.0                 !
 ! D25   D(5,6,7,2)              0.1008         -DE/DX =    0.0                 !
 ! D26   D(5,6,7,14)          -179.6008         -DE/DX =    0.0                 !
 ! D27   D(13,6,7,2)          -179.9118         -DE/DX =    0.0                 !
 ! D28   D(13,6,7,14)            0.3867         -DE/DX =    0.0                 !
 --------------------------------------------------------------------------------
 GradGradGradGradGradGradGradGradGradGradGradGradGradGradGradGradGradGrad

 Leave Link  103 at Mon Oct 14 10:36:21 2019, MaxMem= 10737418240 cpu:               1.0 elap:               0.1
 (Enter /apps/cent7/gaussian/g16-A.03/g16-haswell/g16/l9999.exe)

 ----------------------------------------------------------------------

 Electric dipole moment (input orientation):
 (Debye = 10**-18 statcoulomb cm , SI units = C m)
                  (au)            (Debye)         (10**-30 SI)
   Tot        0.596174D+00      0.151532D+01      0.505458D+01
   x         -0.217485D+00     -0.552792D+00     -0.184392D+01
   y         -0.411486D+00     -0.104589D+01     -0.348872D+01
   z         -0.372563D+00     -0.946961D+00     -0.315872D+01

 Dipole polarizability, Alpha (input orientation).
 (esu units = cm**3 , SI units = C**2 m**2 J**-1)
 Alpha(0;0):
               (au)            (10**-24 esu)      (10**-40 SI)
   iso        0.757432D+02      0.112240D+02      0.124884D+02
   aniso      0.460519D+02      0.682418D+01      0.759293D+01
   xx         0.865388D+02      0.128237D+02      0.142683D+02
   yx         0.674342D+01      0.999272D+00      0.111184D+01
   yy         0.940305D+02      0.139339D+02      0.155035D+02
   zx        -0.210355D+00     -0.311714D-01     -0.346828D-01
   zy        -0.360793D+01     -0.534640D+00     -0.594867D+00
   zz         0.466604D+02      0.691436D+01      0.769326D+01

 ----------------------------------------------------------------------

 Dipole orientation:
     7         -1.01245129          1.71195461          1.69653640
     6         -0.05302595          0.12610605         -0.18150244
     6         -1.53160787         -1.82442012         -1.17935104
     6         -0.60707451         -3.33319189         -3.11651301
     6          1.79798470         -2.93315104         -4.10160526
     6          3.26896590         -0.98927804         -3.11562983
     6          2.36143155          0.52991236         -1.17851546
     1         -2.40066432          0.95434694          2.76172645
     1          0.30289909          2.59006307          2.76166714
     1         -3.41367966         -2.14456165         -0.43170953
     1         -1.78152974         -4.83726004         -3.86073530
     1          2.51274238         -4.11482686         -5.61076189
     1          5.14623531         -0.64655442         -3.85984860
     1          3.51861304          2.04846290         -0.43114812

 Electric dipole moment (dipole orientation):
 (Debye = 10**-18 statcoulomb cm , SI units = C m)
                  (au)            (Debye)         (10**-30 SI)
   Tot        0.596174D+00      0.151532D+01      0.505458D+01
   x          0.000000D+00      0.000000D+00      0.000000D+00
   y          0.000000D+00      0.000000D+00      0.000000D+00
   z          0.596174D+00      0.151532D+01      0.505458D+01

 Dipole polarizability, Alpha (dipole orientation).
 (esu units = cm**3 , SI units = C**2 m**2 J**-1)
 Alpha(0;0):
               (au)            (10**-24 esu)      (10**-40 SI)
   iso        0.757432D+02      0.112240D+02      0.124884D+02
   aniso      0.460519D+02      0.682418D+01      0.759293D+01
   xx         0.792260D+02      0.117401D+02      0.130626D+02
   yx         0.565772D+01      0.838388D+00      0.932833D+00
   yy         0.732821D+02      0.108593D+02      0.120826D+02
   zx        -0.133471D+02     -0.197783D+01     -0.220063D+01
   zy         0.220716D+02      0.327067D+01      0.363912D+01
   zz         0.747217D+02      0.110726D+02      0.123199D+02

 ----------------------------------------------------------------------
 1\1\GINC-BROWN-A276\Freq\RM062X\6-311++G(d,p)\C6H7N1\FINEJ\14-Oct-2019
 \0\\#P Geom=AllCheck Guess=TCheck SCRF=Check GenChk RM062X/6-311++G(d,
 p) Freq\\Title Card Required\\0,1\N,-0.6790164131,-1.1769596725,0.2596
 930923\C,0.0196165466,0.0234727472,0.1163177964\C,-0.6660460282,1.2387
 361273,0.0193155428\C,0.0333686643,2.4347946468,-0.0696204999\C,1.4248
 072723,2.4477531471,-0.0620263254\C,2.1085236276,1.2399381327,0.037939
 576\C,1.4182312028,0.0386061806,0.1274151303\H,-1.6212149205,-1.168811
 1653,-0.1012846989\H,-0.1735831415,-2.00229177,-0.0257376654\H,-1.7510
 072776,1.2397357508,0.0184680441\H,-0.5168898252,3.3654940036,-0.14613
 9595\H,1.966502311,3.3823415444,-0.1325357369\H,3.192342658,1.22963568
 75,0.0468302298\H,1.9606778535,-0.8972423802,0.2115183799\\Version=ES6
 4L-G16RevA.03\State=1-A\HF=-287.5535847\RMSD=3.419e-09\RMSF=1.811e-05\
 ZeroPoint=0.1178177\Thermal=0.1178178\Dipole=-0.2174851,-0.4114861,-0.
 372563\DipoleDeriv=-0.5070496,-0.5780839,0.0955893,-0.564029,-1.136508
 ,0.1356523,0.2507224,0.4050201,-0.5046101,0.3689792,0.6890533,-0.07381
 22,0.6895412,1.1551478,-0.1196578,-0.0684551,-0.1101659,0.062332,0.041
 9109,0.1030977,-0.0202966,-0.3062298,-0.3889204,0.0218075,0.0052303,0.
 0043002,-0.1802887,0.2187319,-0.0170143,0.0055494,0.1161934,0.1292809,
 -0.0221357,-0.0080325,-0.0265181,-0.1292793,-0.2475964,0.0794034,-0.00
 51454,0.0795191,-0.1553063,0.0012208,-0.0036266,0.004048,-0.1811342,0.
 1104597,0.053767,-0.0055676,-0.0797971,0.2372904,-0.0290251,0.0038197,
 -0.0325501,-0.1289842,-0.1952685,-0.4395248,0.0476781,-0.0320092,-0.15
 58299,-0.0102992,0.0014397,-0.0290435,-0.1763214,0.1872241,0.0510821,-
 0.0563811,0.0512823,0.1402366,0.0086541,-0.1410768,-0.1051906,0.257057
 7,0.1073816,0.0200105,0.0230956,0.007071,0.2100554,-0.0418099,-0.03248
 59,-0.1716154,0.2670705,-0.0947183,-0.0184909,-0.0009971,-0.0262921,0.
 0589412,0.0054702,0.0005767,0.007409,0.1449599,0.0316538,0.0714056,-0.
 0069006,0.0664811,-0.0453242,0.0141843,-0.0064294,0.0154363,0.136083,0
 .0256558,-0.0639315,0.0041168,-0.0639288,-0.046984,0.0152043,0.0044214
 ,0.0156817,0.1520568,-0.0869484,-0.0016469,-0.0016353,0.0033962,0.0724
 026,0.0043168,-0.0012802,0.0049175,0.1369621,0.0395841,0.0508726,-0.00
 52933,0.0588015,-0.0744823,0.0164171,-0.0048234,0.0182708,0.1440958\Po
 lar=86.5388321,6.7434207,94.0305041,-0.2103549,-3.6079264,46.6604053\Q
 uadrupole=2.656499,3.3517437,-6.0082428,0.4271539,1.2832079,1.4594855\
 PG=C01 [X(C6H7N1)]\NImag=0\\0.75349456,-0.06379106,0.69337691,0.092505
 75,0.10052340,0.13112556,-0.16611589,-0.08086172,-0.00936238,0.7028601
 7,-0.07865952,-0.25749717,-0.00908944,0.00388388,0.70467420,0.01489176
 ,0.03301504,-0.04095303,0.00763586,-0.03504257,0.16538145,0.01741125,-
 0.01955912,-0.00127773,-0.18720514,0.12355429,-0.00895826,0.74404608,0
 .01402911,-0.05396111,0.00861630,0.04499017,-0.25569022,0.01338112,0.0
 2295512,0.68399397,-0.00167971,0.00608938,0.00660736,-0.00466383,0.014
 20485,-0.06855190,0.00007443,-0.04422308,0.12825168,-0.00820764,0.0083
 7577,-0.00072070,0.08115322,-0.03208499,0.00267293,-0.18713771,-0.0615
 7529,0.00497680,0.69823365,0.00222869,0.00534972,-0.00245853,0.0282763
 3,-0.06237468,0.00580900,-0.13458249,-0.29601638,0.01877485,-0.0298929
 3,0.72963131,-0.00133811,0.00020222,0.00557702,-0.00162423,0.00409404,
 0.00138229,0.00959542,0.01849310,-0.05996881,0.00569273,-0.04675168,0.
 14287643,0.00366207,-0.00692369,0.00192476,-0.06523992,0.04185336,-0.0
 0409633,-0.02634116,-0.08573467,0.00558216,-0.34132127,0.03516005,-0.0
 0431429,0.68893358,-0.00705700,-0.00427831,0.00251944,0.04189895,-0.01
 674457,0.00044086,-0.02755737,0.03577931,-0.00198756,-0.03998923,-0.12
 890356,0.00478177,0.04104300,0.73243115,0.00044747,-0.00005390,-0.0014
 7759,-0.00357144,0.00134958,-0.00572121,0.00198566,-0.00280184,0.00832
 212,0.00140450,0.00546277,-0.06399897,0.00035922,-0.04740452,0.1322351
 2,-0.00251860,0.00539820,-0.00264701,-0.02523346,-0.03280197,0.0030945
 7,-0.00266073,0.00361473,-0.00026492,-0.02899594,0.02790264,-0.0025632
 7,-0.18013454,0.12778837,-0.01077748,0.75072424,0.01170055,-0.00027876
 ,-0.00069802,-0.09324325,0.04329029,-0.00391812,-0.00275726,-0.0762837
 5,0.00484678,0.08820695,0.03797302,-0.00171041,0.05264100,-0.28903168,
 0.01818307,0.00024014,0.67742808,-0.00031679,-0.00037597,0.00551869,0.
 00647694,-0.00379093,0.00211056,0.00020065,0.00558708,-0.00432921,-0.0
 0695900,-0.00230174,0.00678767,-0.00513959,0.01876108,-0.06509926,0.00
 426822,-0.04269941,0.14257507,-0.03454658,-0.01535135,0.00559426,-0.31
 241976,-0.02716635,-0.00173836,-0.02046431,0.07345603,-0.00557960,-0.0
 5859001,-0.02853372,0.00179197,0.06955364,-0.03055076,0.00273405,-0.18
 492659,-0.06035073,0.00415549,0.68173218,-0.04901975,-0.00285543,-0.00
 015572,0.05133317,-0.13103096,0.00581878,0.02674287,0.03735155,-0.0018
 2479,-0.03495674,-0.02068951,0.00099737,0.02761526,-0.05955762,0.00551
 542,-0.13325334,-0.29814333,0.01796778,-0.01261536,0.74547058,0.005110
 33,0.00085150,0.00745652,-0.00671609,0.00382849,-0.06795033,-0.0021058
 4,-0.00140560,0.00657360,0.00166857,0.00072051,-0.00399565,-0.00097257
 ,0.00450114,0.00776281,0.01000718,0.01982367,-0.06000676,0.00551364,-0
 .05115738,0.12900860,-0.39617614,0.01054189,-0.13418513,-0.01784641,-0
 .00199305,-0.00592312,0.00246639,0.00346104,0.00055748,-0.00091197,-0.
 00055631,0.00121443,0.00079892,0.00041932,-0.00007400,-0.00101974,0.00
 043767,0.00021599,0.00150055,-0.00295759,-0.00050400,0.42304597,0.0120
 0408,-0.06812481,-0.00404447,-0.03207383,0.00414525,-0.01256588,-0.001
 95708,0.00141443,0.00025222,0.00005206,-0.00025353,0.00010134,0.000329
 62,-0.00024005,-0.00008442,-0.00120160,0.00106815,0.00034962,-0.001414
 43,-0.00561492,0.00041781,-0.00530655,0.06540129,-0.17549075,-0.008260
 01,-0.06432519,0.01338335,0.00714470,-0.00409735,0.00050039,-0.0011529
 9,-0.00007624,-0.00033218,0.00001168,-0.00061063,0.00022741,-0.0010385
 1,0.00014525,0.00103535,0.00130424,0.00139589,-0.00118193,0.00100609,0
 .00177448,0.14787178,0.00153346,0.06560059,-0.17075762,0.16260129,0.04
 801987,0.01394641,-0.01543078,-0.00580806,-0.00207740,-0.00333494,0.00
 046251,0.00081716,-0.00021940,0.00015916,-0.00022011,-0.00028415,-0.00
 005183,-0.00017607,0.00046125,-0.00050753,0.00112227,-0.00276649,0.000
 15899,-0.01212104,0.02846105,0.01388248,0.17036977,0.15894987,-0.31500
 688,-0.09450609,0.01694036,-0.02687349,-0.00912400,-0.00485546,-0.0022
 3274,-0.00042347,0.00152593,-0.00073160,0.00057853,-0.00025703,0.00084
 052,-0.00015789,-0.00022019,-0.00092727,0.00109972,0.00251867,0.002869
 26,0.00067437,-0.00337053,0.00323043,-0.00016654,-0.16995876,0.3387618
 3,0.06522896,-0.13213884,-0.04287374,0.00013453,0.01502082,-0.00486887
 ,0.00137954,-0.00059851,0.00196889,0.00049794,0.00163325,0.00136096,-0
 .00103022,-0.00038029,0.00008390,0.00021960,-0.00023169,-0.00067430,-0
 .00126850,-0.00049872,-0.00018518,-0.00795082,0.01406417,0.00064197,-0
 .05684979,0.10321928,0.04492506,0.00163925,-0.00081045,0.00010032,-0.0
 1313460,-0.00441097,0.00017971,-0.33909470,0.00262624,-0.00050392,-0.0
 1160772,0.00261679,-0.00025188,0.00125859,-0.00331243,0.00031939,0.000
 70161,0.00043328,-0.00005823,0.00042013,0.00310084,-0.00019229,0.00002
 870,0.00136279,0.00001355,0.00023567,0.00003670,0.00006284,0.36027601,
 0.00078379,0.00199763,-0.00001288,0.02678268,0.00420387,0.00007038,0.0
 0230340,-0.05861678,0.00163259,-0.02813998,0.00499527,-0.00023254,-0.0
 0236427,-0.00436343,0.00089597,-0.00011376,-0.00155120,0.00004365,0.00
 246330,-0.00455970,0.00088330,-0.00051133,-0.00083373,-0.00048588,-0.0
 0023116,0.00013615,-0.00007326,-0.00150748,0.05746445,0.00091681,-0.00
 054221,-0.00305097,-0.00232868,0.00022260,0.00411909,-0.00003096,0.001
 79285,-0.03383846,0.00196834,-0.00023174,0.00238766,0.00011029,0.00087
 297,0.00732526,0.00001497,-0.00002101,-0.00096004,-0.00020249,0.000850
 02,0.00588663,-0.00086833,-0.00003454,0.00039873,0.00008003,-0.0001897
 8,-0.00059752,0.00034798,-0.00224317,0.02327167,0.00066189,-0.00041374
 ,-0.00015615,-0.00087838,-0.00377022,0.00035715,0.01141897,-0.01468221
 ,0.00120646,-0.13268596,0.12406389,-0.01033132,-0.00916082,0.02837661,
 -0.00231461,-0.00606939,-0.00085062,-0.00001013,-0.00071787,-0.0010413
 0,0.00006355,0.00001817,0.00001796,0.00001520,-0.00011235,-0.00025250,
 0.00009148,0.00070818,0.00046670,-0.00000394,0.13649746,0.00092409,-0.
 00113789,-0.00005785,-0.00372691,-0.00245445,0.00086041,0.01584219,-0.
 01783227,0.00183532,0.12362701,-0.26857801,0.01874585,-0.00225106,0.00
 405419,0.00001584,-0.00044440,0.00187051,0.00041759,-0.00093627,0.0001
 3528,-0.00011095,0.00008818,0.00003638,-0.00001772,-0.00021202,-0.0003
 0327,0.00009965,-0.00025173,0.00080788,-0.00040484,-0.13297961,0.28289
 187,-0.00000758,0.00019789,0.00006802,0.00015471,0.00073065,0.00778939
 ,-0.00118846,0.00150495,0.00356952,-0.01030032,0.01881526,-0.04000494,
 0.00012114,0.00016996,0.00401672,-0.00003003,0.00042835,0.00719178,0.0
 0013391,-0.00010413,-0.00111121,-0.00006190,0.00000458,0.00000574,0.00
 003983,0.00004069,-0.00015034,0.00000432,-0.00040931,-0.00430544,0.011
 13271,-0.02094720,0.02785124,0.00040541,-0.00012927,-0.00003677,-0.001
 18162,0.00092024,-0.00004774,-0.00536649,0.00137603,-0.00018973,-0.010
 04458,-0.02858458,0.00217717,-0.13065847,-0.12429878,0.00922113,0.0117
 2377,0.01510007,-0.00111826,-0.00080491,0.00314297,-0.00029290,0.00001
 232,0.00012955,0.00003680,-0.00003531,-0.00007118,-0.00000004,-0.00067
 252,-0.00139478,0.00008716,0.00091974,0.00042058,-0.00000682,0.1346490
 0,-0.00011860,0.00025695,-0.00016462,0.00091810,-0.00011635,0.00002445
 ,0.00052090,0.00184065,0.00038895,0.00259264,0.00391122,-0.00012436,-0
 .12430252,-0.27289803,0.01814696,-0.01607248,-0.01770576,0.00145490,0.
 00399646,-0.00268863,0.00076590,-0.00006040,0.00000107,0.00001288,0.00
 010955,0.00003461,0.00004140,0.00017652,0.00006462,0.00002776,-0.00046
 635,0.00049745,-0.00036434,0.13321553,0.28704263,0.00008162,0.00004015
 ,-0.00064347,-0.00006872,-0.00000672,-0.00052592,-0.00012212,0.0003695
 6,0.00667577,-0.00028010,-0.00031053,0.00200766,0.00922789,0.01817450,
 -0.03494640,0.00135297,0.00165348,0.00186208,-0.00037821,0.00075098,0.
 00664496,-0.00018666,0.00003263,-0.00008757,0.00012093,-0.00015619,-0.
 00007338,-0.00002143,0.00000579,0.00040582,0.00007061,-0.00036097,-0.0
 0402146,-0.00985477,-0.01991742,0.02632213,-0.00091821,0.00000677,-0.0
 0004936,0.00114136,-0.00255905,0.00015867,0.00078903,-0.00007539,0.000
 02406,0.00042628,0.00328420,-0.00031385,-0.01058086,-0.00307053,0.0001
 6498,-0.34334803,0.00256893,-0.00253947,-0.01114731,0.00287964,-0.0002
 9847,-0.00005916,-0.00017977,0.00005592,-0.00001501,0.00007214,-0.0000
 2790,-0.00009043,-0.00001399,0.00000482,-0.00066634,-0.00017627,0.0000
 1128,0.00064553,0.00026388,0.00000759,0.36310846,-0.00129862,0.0004236
 6,-0.00028199,-0.00262074,-0.00445898,0.00109017,-0.00017592,-0.001358
 13,-0.00000352,0.00287945,-0.00457893,0.00095701,0.02755246,0.00547388
 ,0.00009668,0.00301610,-0.05929874,0.00161812,-0.02765582,0.00457986,-
 0.00024176,-0.00022704,-0.00035400,0.00012134,0.00000043,0.00006677,0.
 00000135,0.00000431,0.00010623,-0.00008025,0.00143684,0.00006215,0.000
 00112,-0.00062478,0.00076911,-0.00038558,-0.00275725,0.05776902,0.0001
 5751,0.00007761,0.00008625,0.00015621,0.00085730,0.00777303,-0.0000023
 0,0.00007235,-0.00112457,-0.00027646,0.00097035,0.00714723,-0.00228081
 ,-0.00012329,0.00402270,-0.00254076,0.00165290,-0.03861719,0.00199582,
 -0.00008890,0.00371957,0.00003290,0.00005041,-0.00015271,0.00003328,-0
 .00004844,0.00000854,0.00000614,-0.00008367,-0.00090799,-0.00012098,-0
 .00000570,0.00000979,0.00007983,-0.00038482,-0.00401957,0.00274454,-0.
 00249236,0.02635632,0.00196622,0.00091649,0.00029026,-0.00984599,0.028
 66512,-0.00241880,-0.00578408,-0.00110598,-0.00000220,-0.00112750,-0.0
 0116316,0.00010605,-0.00054965,-0.00340601,0.00015298,0.01193348,-0.01
 458798,0.00133172,-0.13071143,0.12179582,-0.01144010,0.00026342,-0.000
 22385,-0.00001736,-0.00097637,-0.00105801,-0.00048763,-0.00066815,0.00
 147688,-0.00009600,0.00006669,0.00007622,-0.00000280,0.00040813,-0.000
 77324,0.00005040,0.00071467,0.00047057,0.00001507,0.13431055,-0.000675
 64,0.00173550,-0.00018953,-0.00249720,0.00092726,0.00014037,-0.0004740
 8,0.00161146,0.00043748,-0.00062065,0.00026567,-0.00013225,-0.00436153
 ,-0.00256177,0.00083629,0.01614758,-0.01840954,0.00186850,0.12214032,-
 0.26526643,0.02044899,0.00003470,0.00012403,-0.00001273,0.00080413,0.0
 0013568,-0.00015860,-0.00006441,0.00014874,-0.00001867,0.00009456,-0.0
 0004982,-0.00006848,0.00079840,-0.00100955,0.00011032,-0.00024332,0.00
 079812,-0.00045373,-0.13108287,0.28155067,-0.00050729,0.00037374,-0.00
 311543,0.00039377,0.00047663,0.00411278,-0.00005043,0.00036470,0.00592
 025,-0.00001304,-0.00014345,-0.00094793,0.00028095,0.00071245,0.007329
 53,-0.00116940,0.00138617,0.00224502,-0.01157005,0.02092319,-0.0355780
 3,-0.00013863,-0.00007693,-0.00061295,0.00026014,-0.00084018,0.0004339
 9,-0.00000650,0.00000903,-0.00013443,-0.00000004,-0.00006944,-0.000908
 82,-0.00005508,0.00009235,0.00039934,0.00005719,-0.00040033,-0.0043014
 0,0.01251840,-0.02280794,0.02515805\\-0.00000843,-0.00002040,0.0000034
 3,-0.00000207,0.00005653,-0.00000936,0.00002128,-0.00000889,0.00001750
 ,0.00000648,-0.00002170,0.00005103,-0.00000700,-0.00003903,-0.00002449
 ,-0.00001824,0.00001886,-0.00001788,-0.00002192,-0.00001460,-0.0000147
 0,0.00001129,0.00001229,-0.00000482,0.00000535,0.00001361,-0.00000020,
 0.00000530,-0.00000905,-0.00001198,0.00001154,-0.00000100,-0.00000833,
 -0.00000639,0.00000240,-0.00001098,-0.00000351,-0.00000200,0.00002273,
 0.00000633,0.00001297,0.00000807\\\@


    THE DOUGHNUT CREED
 AS YOU RAMBLE ON THROUGH LIFE, BROTHER
 WHATEVER BE YOUR GOAL
 KEEP YOUR EYE UPON THE DOUGHNUT
 AND NOT UPON THE HOLE.
 Job cpu time:       0 days  0 hours 20 minutes 25.1 seconds.
 Elapsed time:       0 days  0 hours  0 minutes 52.0 seconds.
 File lengths (MBytes):  RWF=     61 Int=      0 D2E=      0 Chk=      5 Scr=      1
 Normal termination of Gaussian 16 at Mon Oct 14 10:36:21 2019.
real 127.04
user 2921.16
sys 13.19
Machine:
brown-a276
brown-a276
brown-a276
brown-a276
brown-a276
brown-a276
brown-a276
brown-a276
brown-a276
brown-a276
brown-a276
brown-a276
brown-a276
brown-a276
brown-a276
brown-a276
brown-a276
brown-a276
brown-a276
brown-a276
brown-a276
brown-a276
brown-a276
brown-a276
