Title Card Required                                                     
Freq      RM062X                                                      6-311++G(d,p)       
Number of atoms                            I               15
Info1-9                                    I   N=           9
          40          40        1002           0           0         100
           6          18        -502
Full Title                                 C   N=           2
Title Card Required     
Route                                      C   N=           6
#p opt freq m062x/6-311++g(d,p) geom=connectivity temperatur
e=0.001     
Charge                                     I                1
Multiplicity                               I                1
Number of electrons                        I               50
Number of alpha electrons                  I               25
Number of beta electrons                   I               25
Number of basis functions                  I              210
Number of independent functions            I              209
Number of point charges in /Mol/           I                0
Number of translation vectors              I                0
Atomic numbers                             I   N=          15
           7           6           6           6           6           6
           6           1           1           1           1           1
           1           1           1
Nuclear charges                            R   N=          15
  7.00000000E+00  6.00000000E+00  6.00000000E+00  6.00000000E+00  6.00000000E+00
  6.00000000E+00  6.00000000E+00  1.00000000E+00  1.00000000E+00  1.00000000E+00
  1.00000000E+00  1.00000000E+00  1.00000000E+00  1.00000000E+00  1.00000000E+00
Current cartesian coordinates              R   N=          45
 -4.37249670E+00  2.46810235E-04  1.45296506E-02 -1.55639092E+00  1.75732269E-03
 -1.77866471E-02 -3.17712634E-01  2.30406233E+00 -1.05060385E-02  2.31107766E+00
  2.28271715E+00  2.73141954E-03  3.61193720E+00 -1.19469783E-03  1.06551436E-02
  2.30702668E+00 -2.28477226E+00  2.88954757E-03 -3.20254542E-01 -2.30366356E+00
 -1.06483398E-02 -5.08334704E+00 -1.44169823E+00 -1.06633824E+00 -5.06740137E+00
 -2.08979635E-01  1.81291518E+00 -1.34601213E+00  4.07773206E+00 -1.72706851E-02
  3.33201989E+00  4.05513487E+00  1.66763893E-03  5.65799907E+00 -2.89365396E-03
  1.67674790E-02  3.32653807E+00 -4.05805800E+00  2.02279620E-03 -1.35216298E+00
 -4.07515113E+00 -1.75705367E-02 -5.07425725E+00  1.65874834E+00 -6.97911696E-01
Number of symbols in /Mol/                 I                0
Force Field                                I                0
Atom Types                                 C   N=          15
                                                            
                                                            
                                                            
Int Atom Types                             I   N=          15
           0           0           0           0           0           0
           0           0           0           0           0           0
           0           0           0
MM charges                                 R   N=          15
  0.00000000E+00  0.00000000E+00  0.00000000E+00  0.00000000E+00  0.00000000E+00
  0.00000000E+00  0.00000000E+00  0.00000000E+00  0.00000000E+00  0.00000000E+00
  0.00000000E+00  0.00000000E+00  0.00000000E+00  0.00000000E+00  0.00000000E+00
Integer atomic weights                     I   N=          15
          14          12          12          12          12          12
          12           1           1           1           1           1
           1           1           1
Real atomic weights                        R   N=          15
  1.40030740E+01  1.20000000E+01  1.20000000E+01  1.20000000E+01  1.20000000E+01
  1.20000000E+01  1.20000000E+01  1.00782504E+00  1.00782504E+00  1.00782504E+00
  1.00782504E+00  1.00782504E+00  1.00782504E+00  1.00782504E+00  1.00782504E+00
Atom fragment info                         I   N=          15
           0           0           0           0           0           0
           0           0           0           0           0           0
           0           0           0
Atom residue num                           I   N=          15
           0           0           0           0           0           0
           0           0           0           0           0           0
           0           0           0
Nuclear spins                              I   N=          15
           2           0           0           0           0           0
           0           1           1           1           1           1
           1           1           1
Nuclear ZEff                               R   N=          15
 -4.55000000E+00 -3.60000000E+00 -3.60000000E+00 -3.60000000E+00 -3.60000000E+00
 -3.60000000E+00 -3.60000000E+00 -1.00000000E+00 -1.00000000E+00 -1.00000000E+00
 -1.00000000E+00 -1.00000000E+00 -1.00000000E+00 -1.00000000E+00 -1.00000000E+00
Nuclear ZNuc                               R   N=          15
  7.00000000E+00  6.00000000E+00  6.00000000E+00  6.00000000E+00  6.00000000E+00
  6.00000000E+00  6.00000000E+00  1.00000000E+00  1.00000000E+00  1.00000000E+00
  1.00000000E+00  1.00000000E+00  1.00000000E+00  1.00000000E+00  1.00000000E+00
Nuclear QMom                               R   N=          15
  2.04400000E+00  0.00000000E+00  0.00000000E+00  0.00000000E+00  0.00000000E+00
  0.00000000E+00  0.00000000E+00  0.00000000E+00  0.00000000E+00  0.00000000E+00
  0.00000000E+00  0.00000000E+00  0.00000000E+00  0.00000000E+00  0.00000000E+00
Nuclear GFac                               R   N=          15
  4.03761000E-01  0.00000000E+00  0.00000000E+00  0.00000000E+00  0.00000000E+00
  0.00000000E+00  0.00000000E+00  2.79284600E+00  2.79284600E+00  2.79284600E+00
  2.79284600E+00  2.79284600E+00  2.79284600E+00  2.79284600E+00  2.79284600E+00
MicOpt                                     I   N=          15
          -1          -1          -1          -1          -1          -1
          -1          -1          -1          -1          -1          -1
          -1          -1          -1
Number of residues                         I                0
Number of secondary structures             I                0
Redundant internal dimensions              I   N=           4
          69          15          24          30
Redundant internal coordinate indices      I   N=         276
           1           2           0           0           1           8
           0           0           1           9           0           0
           1          15           0           0           2           3
           0           0           2           7           0           0
           3           4           0           0           3          10
           0           0           4           5           0           0
           4          11           0           0           5           6
           0           0           5          12           0           0
           6           7           0           0           6          13
           0           0           7          14           0           0
           2           1           8           0           2           1
           9           0           2           1          15           0
           8           1           9           0           8           1
          15           0           9           1          15           0
           1           2           3           0           1           2
           7           0           3           2           7           0
           2           3           4           0           2           3
          10           0           4           3          10           0
           3           4           5           0           3           4
          11           0           5           4          11           0
           4           5           6           0           4           5
          12           0           6           5          12           0
           5           6           7           0           5           6
          13           0           7           6          13           0
           2           7           6           0           2           7
          14           0           6           7          14           0
           8           1           2           3           8           1
           2           7           9           1           2           3
           9           1           2           7          15           1
           2           3          15           1           2           7
           1           2           3           4           1           2
           3          10           7           2           3           4
           7           2           3          10           1           2
           7           6           1           2           7          14
           3           2           7           6           3           2
           7          14           2           3           4           5
           2           3           4          11          10           3
           4           5          10           3           4          11
           3           4           5           6           3           4
           5          12          11           4           5           6
          11           4           5          12           4           5
           6           7           4           5           6          13
          12           5           6           7          12           5
           6          13           5           6           7           2
           5           6           7          14          13           6
           7           2          13           6           7          14
Redundant internal coordinates             R   N=          69
  2.81629161E+00  1.93721168E+00  1.93929336E+00  1.93666410E+00  2.61438047E+00
  2.61592231E+00  2.62891028E+00  2.05020730E+00  2.62841238E+00  2.04543119E+00
  2.63012894E+00  2.04607171E+00  2.62738402E+00  2.04546976E+00  2.05013442E+00
  1.94004812E+00  1.94873354E+00  1.93654749E+00  1.88138335E+00  1.87466422E+00
  1.87936041E+00  2.06485523E+00  2.06236347E+00  2.15580584E+00  2.05628022E+00
  2.12257695E+00  2.10432732E+00  2.09667131E+00  2.08526451E+00  2.10124586E+00
  2.10468011E+00  2.08937975E+00  2.08912020E+00  2.09714309E+00  2.10066233E+00
  2.08537602E+00  2.05578924E+00  2.12194016E+00  2.10545522E+00  2.50398643E+00
 -6.56190178E-01 -1.67758609E+00  1.44542260E+00  4.19058683E-01 -2.74111793E+00
  3.12283484E+00 -2.01226482E-02  8.93721711E-04  3.14112154E+00 -3.12272885E+00
  2.01182034E-02 -7.61457106E-04 -3.14109971E+00 -1.05516578E-03  3.13765700E+00
 -3.14129793E+00 -2.58575580E-03  1.13966394E-03  3.13923950E+00 -3.13754587E+00
  5.53959796E-04 -1.00368847E-03  3.13758357E+00 -3.13910404E+00 -5.16780919E-04
  7.90197641E-04  3.14114086E+00 -3.13782339E+00  2.52727835E-03
ZRed-IntVec                                I   N=          69
           0           0           0           0           0           0
           0           0           0           0           0           0
           0           0           0           0           0           0
           0           0           0           0           0           0
           0           0           0           0           0           0
           0           0           0           0           0           0
           0           0           0           0           0           0
           0           0           0           0           0           0
           0           0           0           0           0           0
           0           0           0           0           0           0
           0           0           0           0           0           0
           0           0           0
ZRed-FPVec                                 R   N=          69
  0.00000000E+00  0.00000000E+00  0.00000000E+00  0.00000000E+00  0.00000000E+00
  0.00000000E+00  0.00000000E+00  0.00000000E+00  0.00000000E+00  0.00000000E+00
  0.00000000E+00  0.00000000E+00  0.00000000E+00  0.00000000E+00  0.00000000E+00
  0.00000000E+00  0.00000000E+00  0.00000000E+00  0.00000000E+00  0.00000000E+00
  0.00000000E+00  0.00000000E+00  0.00000000E+00  0.00000000E+00  0.00000000E+00
  0.00000000E+00  0.00000000E+00  0.00000000E+00  0.00000000E+00  0.00000000E+00
  0.00000000E+00  0.00000000E+00  0.00000000E+00  0.00000000E+00  0.00000000E+00
  0.00000000E+00  0.00000000E+00  0.00000000E+00  0.00000000E+00  0.00000000E+00
  0.00000000E+00  0.00000000E+00  0.00000000E+00  0.00000000E+00  0.00000000E+00
  0.00000000E+00  0.00000000E+00  0.00000000E+00  0.00000000E+00  0.00000000E+00
  0.00000000E+00  0.00000000E+00  0.00000000E+00  0.00000000E+00  0.00000000E+00
  0.00000000E+00  0.00000000E+00  0.00000000E+00  0.00000000E+00  0.00000000E+00
  0.00000000E+00  0.00000000E+00  0.00000000E+00  0.00000000E+00  0.00000000E+00
  0.00000000E+00  0.00000000E+00  0.00000000E+00  0.00000000E+00
ZRed-Constraint1                           R   N=          69
  2.81629161E+00  1.93721168E+00  1.93929336E+00  1.93666410E+00  2.61438047E+00
  2.61592231E+00  2.62891028E+00  2.05020730E+00  2.62841238E+00  2.04543119E+00
  2.63012894E+00  2.04607171E+00  2.62738402E+00  2.04546976E+00  2.05013442E+00
  1.94004812E+00  1.94873354E+00  1.93654749E+00  1.88138335E+00  1.87466422E+00
  1.87936041E+00  2.06485523E+00  2.06236347E+00  2.15580584E+00  2.05628022E+00
  2.12257695E+00  2.10432732E+00  2.09667131E+00  2.08526451E+00  2.10124586E+00
  2.10468011E+00  2.08937975E+00  2.08912020E+00  2.09714309E+00  2.10066233E+00
  2.08537602E+00  2.05578924E+00  2.12194016E+00  2.10545522E+00  2.50398643E+00
 -6.56190178E-01 -1.67758609E+00  1.44542260E+00  4.19058683E-01 -2.74111793E+00
  3.12283484E+00 -2.01226482E-02  8.93721711E-04  3.14112154E+00 -3.12272885E+00
  2.01182034E-02 -7.61457106E-04 -3.14109971E+00 -1.05516578E-03  3.13765700E+00
 -3.14129793E+00 -2.58575580E-03  1.13966394E-03  3.13923950E+00 -3.13754587E+00
  5.53959795E-04 -1.00368847E-03  3.13758357E+00 -3.13910404E+00 -5.16780919E-04
  7.90197641E-04  3.14114086E+00 -3.13782339E+00  2.52727835E-03
ZRed-Constraint2                           R   N=          69
  2.54508540E+00  1.88972611E+00  1.88972612E+00  1.88972612E+00  2.66529798E+00
  2.66513455E+00  2.66059488E+00  2.05969907E+00  2.65760656E+00  2.05988010E+00
  2.65756829E+00  2.05992378E+00  2.66061826E+00  2.05979515E+00  2.05972341E+00
  1.91063323E+00  1.91063324E+00  1.91063323E+00  1.91063324E+00  1.91063324E+00
  1.91063323E+00  2.09658204E+00  2.09671848E+00  2.08987043E+00  2.09562095E+00
  2.09523921E+00  2.09232514E+00  2.09458467E+00  2.09522031E+00  2.09338033E+00
  2.09584212E+00  2.09368241E+00  2.09366077E+00  2.09453697E+00  2.09344207E+00
  2.09520627E+00  2.09570235E+00  2.09517785E+00  2.09230511E+00  2.49702729E+00
 -6.38790509E-01 -1.69176291E+00  1.45560460E+00  4.02632185E-01 -2.73318561E+00
  3.14088305E+00 -7.08136964E-04 -6.46172585E-03  3.13513239E+00 -3.14088256E+00
  7.09605963E-04  6.46267140E-03 -3.13513047E+00 -7.36059829E-03  3.13427143E+00
  3.13423059E+00 -7.32268864E-03  2.12353110E-02 -3.12028063E+00 -3.12039667E+00
  2.12726925E-02 -2.12340859E-02  3.12039088E+00  3.12028186E+00 -2.12784830E-02
  7.35882466E-03 -3.13423335E+00 -3.13426617E+00  7.32696309E-03
SymInf integers                            I   N=          26
           1           1           1           1           1           0
           0           0           0           0           0           0
           0           0           0           0           0           0
           0           0           0           0           0           0
           0           0
RotTr to input orientation                 R   N=          12
  4.98560171E-01  8.64677433E-01 -6.14059638E-02 -8.66310175E-01  4.99506432E-01
  6.82521220E-05  3.07316900E-02  5.31625834E-02  9.98112871E-01  8.70263285E-01
  1.50713586E+00  1.23324812E-01
Number of contracted shells                I               82
Number of primitive shells                 I              147
Pure/Cartesian d shells                    I                0
Pure/Cartesian f shells                    I                0
Highest angular momentum                   I                2
Largest degree of contraction              I                6
Shell types                                I   N=          82
           0          -1          -1          -1          -1          -2
           0          -1          -1          -1          -1          -2
           0          -1          -1          -1          -1          -2
           0          -1          -1          -1          -1          -2
           0          -1          -1          -1          -1          -2
           0          -1          -1          -1          -1          -2
           0          -1          -1          -1          -1          -2
           0           0           0           0           1           0
           0           0           0           1           0           0
           0           0           1           0           0           0
           0           1           0           0           0           0
           1           0           0           0           0           1
           0           0           0           0           1           0
           0           0           0           1
Number of primitives per shell             I   N=          82
           6           3           1           1           1           1
           6           3           1           1           1           1
           6           3           1           1           1           1
           6           3           1           1           1           1
           6           3           1           1           1           1
           6           3           1           1           1           1
           6           3           1           1           1           1
           3           1           1           1           1           3
           1           1           1           1           3           1
           1           1           1           3           1           1
           1           1           3           1           1           1
           1           3           1           1           1           1
           3           1           1           1           1           3
           1           1           1           1
Shell to atom map                          I   N=          82
           1           1           1           1           1           1
           2           2           2           2           2           2
           3           3           3           3           3           3
           4           4           4           4           4           4
           5           5           5           5           5           5
           6           6           6           6           6           6
           7           7           7           7           7           7
           8           8           8           8           8           9
           9           9           9           9          10          10
          10          10          10          11          11          11
          11          11          12          12          12          12
          12          13          13          13          13          13
          14          14          14          14          14          15
          15          15          15          15
Primitive exponents                        R   N=         147
  6.29348000E+03  9.49044000E+02  2.18776000E+02  6.36916000E+01  1.88282000E+01
  2.72023000E+00  3.06331000E+01  7.02614000E+00  2.11205000E+00  6.84009000E-01
  2.00878000E-01  6.39000000E-02  9.13000000E-01  4.56324000E+03  6.82024000E+02
  1.54973000E+02  4.44553000E+01  1.30290000E+01  1.82773000E+00  2.09642000E+01
  4.80331000E+00  1.45933000E+00  4.83456000E-01  1.45585000E-01  4.38000000E-02
  6.26000000E-01  4.56324000E+03  6.82024000E+02  1.54973000E+02  4.44553000E+01
  1.30290000E+01  1.82773000E+00  2.09642000E+01  4.80331000E+00  1.45933000E+00
  4.83456000E-01  1.45585000E-01  4.38000000E-02  6.26000000E-01  4.56324000E+03
  6.82024000E+02  1.54973000E+02  4.44553000E+01  1.30290000E+01  1.82773000E+00
  2.09642000E+01  4.80331000E+00  1.45933000E+00  4.83456000E-01  1.45585000E-01
  4.38000000E-02  6.26000000E-01  4.56324000E+03  6.82024000E+02  1.54973000E+02
  4.44553000E+01  1.30290000E+01  1.82773000E+00  2.09642000E+01  4.80331000E+00
  1.45933000E+00  4.83456000E-01  1.45585000E-01  4.38000000E-02  6.26000000E-01
  4.56324000E+03  6.82024000E+02  1.54973000E+02  4.44553000E+01  1.30290000E+01
  1.82773000E+00  2.09642000E+01  4.80331000E+00  1.45933000E+00  4.83456000E-01
  1.45585000E-01  4.38000000E-02  6.26000000E-01  4.56324000E+03  6.82024000E+02
  1.54973000E+02  4.44553000E+01  1.30290000E+01  1.82773000E+00  2.09642000E+01
  4.80331000E+00  1.45933000E+00  4.83456000E-01  1.45585000E-01  4.38000000E-02
  6.26000000E-01  3.38650000E+01  5.09479000E+00  1.15879000E+00  3.25840000E-01
  1.02741000E-01  3.60000000E-02  7.50000000E-01  3.38650000E+01  5.09479000E+00
  1.15879000E+00  3.25840000E-01  1.02741000E-01  3.60000000E-02  7.50000000E-01
  3.38650000E+01  5.09479000E+00  1.15879000E+00  3.25840000E-01  1.02741000E-01
  3.60000000E-02  7.50000000E-01  3.38650000E+01  5.09479000E+00  1.15879000E+00
  3.25840000E-01  1.02741000E-01  3.60000000E-02  7.50000000E-01  3.38650000E+01
  5.09479000E+00  1.15879000E+00  3.25840000E-01  1.02741000E-01  3.60000000E-02
  7.50000000E-01  3.38650000E+01  5.09479000E+00  1.15879000E+00  3.25840000E-01
  1.02741000E-01  3.60000000E-02  7.50000000E-01  3.38650000E+01  5.09479000E+00
  1.15879000E+00  3.25840000E-01  1.02741000E-01  3.60000000E-02  7.50000000E-01
  3.38650000E+01  5.09479000E+00  1.15879000E+00  3.25840000E-01  1.02741000E-01
  3.60000000E-02  7.50000000E-01
Contraction coefficients                   R   N=         147
  1.96978815E-03  1.49612859E-02  7.35005308E-02  2.48936766E-01  6.02459433E-01
  2.56201759E-01  1.11906080E-01  9.21666655E-01 -2.56919183E-03  1.00000000E+00
  1.00000000E+00  1.00000000E+00  1.00000000E+00  1.96665025E-03  1.52306019E-02
  7.61269097E-02  2.60801033E-01  6.16462078E-01  2.21006028E-01  1.14660081E-01
  9.19999648E-01 -3.03068213E-03  1.00000000E+00  1.00000000E+00  1.00000000E+00
  1.00000000E+00  1.96665025E-03  1.52306019E-02  7.61269097E-02  2.60801033E-01
  6.16462078E-01  2.21006028E-01  1.14660081E-01  9.19999648E-01 -3.03068213E-03
  1.00000000E+00  1.00000000E+00  1.00000000E+00  1.00000000E+00  1.96665025E-03
  1.52306019E-02  7.61269097E-02  2.60801033E-01  6.16462078E-01  2.21006028E-01
  1.14660081E-01  9.19999648E-01 -3.03068213E-03  1.00000000E+00  1.00000000E+00
  1.00000000E+00  1.00000000E+00  1.96665025E-03  1.52306019E-02  7.61269097E-02
  2.60801033E-01  6.16462078E-01  2.21006028E-01  1.14660081E-01  9.19999648E-01
 -3.03068213E-03  1.00000000E+00  1.00000000E+00  1.00000000E+00  1.00000000E+00
  1.96665025E-03  1.52306019E-02  7.61269097E-02  2.60801033E-01  6.16462078E-01
  2.21006028E-01  1.14660081E-01  9.19999648E-01 -3.03068213E-03  1.00000000E+00
  1.00000000E+00  1.00000000E+00  1.00000000E+00  1.96665025E-03  1.52306019E-02
  7.61269097E-02  2.60801033E-01  6.16462078E-01  2.21006028E-01  1.14660081E-01
  9.19999648E-01 -3.03068213E-03  1.00000000E+00  1.00000000E+00  1.00000000E+00
  1.00000000E+00  2.54938145E-02  1.90373109E-01  8.52161486E-01  1.00000000E+00
  1.00000000E+00  1.00000000E+00  1.00000000E+00  2.54938145E-02  1.90373109E-01
  8.52161486E-01  1.00000000E+00  1.00000000E+00  1.00000000E+00  1.00000000E+00
  2.54938145E-02  1.90373109E-01  8.52161486E-01  1.00000000E+00  1.00000000E+00
  1.00000000E+00  1.00000000E+00  2.54938145E-02  1.90373109E-01  8.52161486E-01
  1.00000000E+00  1.00000000E+00  1.00000000E+00  1.00000000E+00  2.54938145E-02
  1.90373109E-01  8.52161486E-01  1.00000000E+00  1.00000000E+00  1.00000000E+00
  1.00000000E+00  2.54938145E-02  1.90373109E-01  8.52161486E-01  1.00000000E+00
  1.00000000E+00  1.00000000E+00  1.00000000E+00  2.54938145E-02  1.90373109E-01
  8.52161486E-01  1.00000000E+00  1.00000000E+00  1.00000000E+00  1.00000000E+00
  2.54938145E-02  1.90373109E-01  8.52161486E-01  1.00000000E+00  1.00000000E+00
  1.00000000E+00  1.00000000E+00
P(S=P) Contraction coefficients            R   N=         147
  0.00000000E+00  0.00000000E+00  0.00000000E+00  0.00000000E+00  0.00000000E+00
  0.00000000E+00  3.83119186E-02  2.37403116E-01  8.17592398E-01  1.00000000E+00
  1.00000000E+00  1.00000000E+00  0.00000000E+00  0.00000000E+00  0.00000000E+00
  0.00000000E+00  0.00000000E+00  0.00000000E+00  0.00000000E+00  4.02486927E-02
  2.37593957E-01  8.15853851E-01  1.00000000E+00  1.00000000E+00  1.00000000E+00
  0.00000000E+00  0.00000000E+00  0.00000000E+00  0.00000000E+00  0.00000000E+00
  0.00000000E+00  0.00000000E+00  4.02486927E-02  2.37593957E-01  8.15853851E-01
  1.00000000E+00  1.00000000E+00  1.00000000E+00  0.00000000E+00  0.00000000E+00
  0.00000000E+00  0.00000000E+00  0.00000000E+00  0.00000000E+00  0.00000000E+00
  4.02486927E-02  2.37593957E-01  8.15853851E-01  1.00000000E+00  1.00000000E+00
  1.00000000E+00  0.00000000E+00  0.00000000E+00  0.00000000E+00  0.00000000E+00
  0.00000000E+00  0.00000000E+00  0.00000000E+00  4.02486927E-02  2.37593957E-01
  8.15853851E-01  1.00000000E+00  1.00000000E+00  1.00000000E+00  0.00000000E+00
  0.00000000E+00  0.00000000E+00  0.00000000E+00  0.00000000E+00  0.00000000E+00
  0.00000000E+00  4.02486927E-02  2.37593957E-01  8.15853851E-01  1.00000000E+00
  1.00000000E+00  1.00000000E+00  0.00000000E+00  0.00000000E+00  0.00000000E+00
  0.00000000E+00  0.00000000E+00  0.00000000E+00  0.00000000E+00  4.02486927E-02
  2.37593957E-01  8.15853851E-01  1.00000000E+00  1.00000000E+00  1.00000000E+00
  0.00000000E+00  0.00000000E+00  0.00000000E+00  0.00000000E+00  0.00000000E+00
  0.00000000E+00  0.00000000E+00  0.00000000E+00  0.00000000E+00  0.00000000E+00
  0.00000000E+00  0.00000000E+00  0.00000000E+00  0.00000000E+00  0.00000000E+00
  0.00000000E+00  0.00000000E+00  0.00000000E+00  0.00000000E+00  0.00000000E+00
  0.00000000E+00  0.00000000E+00  0.00000000E+00  0.00000000E+00  0.00000000E+00
  0.00000000E+00  0.00000000E+00  0.00000000E+00  0.00000000E+00  0.00000000E+00
  0.00000000E+00  0.00000000E+00  0.00000000E+00  0.00000000E+00  0.00000000E+00
  0.00000000E+00  0.00000000E+00  0.00000000E+00  0.00000000E+00  0.00000000E+00
  0.00000000E+00  0.00000000E+00  0.00000000E+00  0.00000000E+00  0.00000000E+00
  0.00000000E+00  0.00000000E+00  0.00000000E+00  0.00000000E+00  0.00000000E+00
  0.00000000E+00  0.00000000E+00  0.00000000E+00  0.00000000E+00  0.00000000E+00
  0.00000000E+00  0.00000000E+00
Coordinates of each shell                  R   N=         246
 -4.37249670E+00  2.46810235E-04  1.45296506E-02 -4.37249670E+00  2.46810235E-04
  1.45296506E-02 -4.37249670E+00  2.46810235E-04  1.45296506E-02 -4.37249670E+00
  2.46810235E-04  1.45296506E-02 -4.37249670E+00  2.46810235E-04  1.45296506E-02
 -4.37249670E+00  2.46810235E-04  1.45296506E-02 -1.55639092E+00  1.75732269E-03
 -1.77866471E-02 -1.55639092E+00  1.75732269E-03 -1.77866471E-02 -1.55639092E+00
  1.75732269E-03 -1.77866471E-02 -1.55639092E+00  1.75732269E-03 -1.77866471E-02
 -1.55639092E+00  1.75732269E-03 -1.77866471E-02 -1.55639092E+00  1.75732269E-03
 -1.77866471E-02 -3.17712634E-01  2.30406233E+00 -1.05060385E-02 -3.17712634E-01
  2.30406233E+00 -1.05060385E-02 -3.17712634E-01  2.30406233E+00 -1.05060385E-02
 -3.17712634E-01  2.30406233E+00 -1.05060385E-02 -3.17712634E-01  2.30406233E+00
 -1.05060385E-02 -3.17712634E-01  2.30406233E+00 -1.05060385E-02  2.31107766E+00
  2.28271715E+00  2.73141954E-03  2.31107766E+00  2.28271715E+00  2.73141954E-03
  2.31107766E+00  2.28271715E+00  2.73141954E-03  2.31107766E+00  2.28271715E+00
  2.73141954E-03  2.31107766E+00  2.28271715E+00  2.73141954E-03  2.31107766E+00
  2.28271715E+00  2.73141954E-03  3.61193720E+00 -1.19469783E-03  1.06551436E-02
  3.61193720E+00 -1.19469783E-03  1.06551436E-02  3.61193720E+00 -1.19469783E-03
  1.06551436E-02  3.61193720E+00 -1.19469783E-03  1.06551436E-02  3.61193720E+00
 -1.19469783E-03  1.06551436E-02  3.61193720E+00 -1.19469783E-03  1.06551436E-02
  2.30702668E+00 -2.28477226E+00  2.88954757E-03  2.30702668E+00 -2.28477226E+00
  2.88954757E-03  2.30702668E+00 -2.28477226E+00  2.88954757E-03  2.30702668E+00
 -2.28477226E+00  2.88954757E-03  2.30702668E+00 -2.28477226E+00  2.88954757E-03
  2.30702668E+00 -2.28477226E+00  2.88954757E-03 -3.20254542E-01 -2.30366356E+00
 -1.06483398E-02 -3.20254542E-01 -2.30366356E+00 -1.06483398E-02 -3.20254542E-01
 -2.30366356E+00 -1.06483398E-02 -3.20254542E-01 -2.30366356E+00 -1.06483398E-02
 -3.20254542E-01 -2.30366356E+00 -1.06483398E-02 -3.20254542E-01 -2.30366356E+00
 -1.06483398E-02 -5.08334704E+00 -1.44169823E+00 -1.06633824E+00 -5.08334704E+00
 -1.44169823E+00 -1.06633824E+00 -5.08334704E+00 -1.44169823E+00 -1.06633824E+00
 -5.08334704E+00 -1.44169823E+00 -1.06633824E+00 -5.08334704E+00 -1.44169823E+00
 -1.06633824E+00 -5.06740137E+00 -2.08979635E-01  1.81291518E+00 -5.06740137E+00
 -2.08979635E-01  1.81291518E+00 -5.06740137E+00 -2.08979635E-01  1.81291518E+00
 -5.06740137E+00 -2.08979635E-01  1.81291518E+00 -5.06740137E+00 -2.08979635E-01
  1.81291518E+00 -1.34601213E+00  4.07773206E+00 -1.72706851E-02 -1.34601213E+00
  4.07773206E+00 -1.72706851E-02 -1.34601213E+00  4.07773206E+00 -1.72706851E-02
 -1.34601213E+00  4.07773206E+00 -1.72706851E-02 -1.34601213E+00  4.07773206E+00
 -1.72706851E-02  3.33201989E+00  4.05513487E+00  1.66763893E-03  3.33201989E+00
  4.05513487E+00  1.66763893E-03  3.33201989E+00  4.05513487E+00  1.66763893E-03