 Entering Gaussian System, Link 0=/apps/cent7/gaussian/g16-A.03/g16-haswell/g16/g16
 Initial command:
 /apps/cent7/gaussian/g16-A.03/g16-haswell/g16/l1.exe "/scratch/brown/finej/gaussian/Gau-108025.inp" -scrdir="/scratch/brown/finej/gaussian/"
 Entering Link 1 = /apps/cent7/gaussian/g16-A.03/g16-haswell/g16/l1.exe PID=    108026.
  
 Copyright (c) 1988,1990,1992,1993,1995,1998,2003,2009,2016,
            Gaussian, Inc.  All Rights Reserved.
  
 This is part of the Gaussian(R) 16 program.  It is based on
 the Gaussian(R) 09 system (copyright 2009, Gaussian, Inc.),
 the Gaussian(R) 03 system (copyright 2003, Gaussian, Inc.),
 the Gaussian(R) 98 system (copyright 1998, Gaussian, Inc.),
 the Gaussian(R) 94 system (copyright 1995, Gaussian, Inc.),
 the Gaussian 92(TM) system (copyright 1992, Gaussian, Inc.),
 the Gaussian 90(TM) system (copyright 1990, Gaussian, Inc.),
 the Gaussian 88(TM) system (copyright 1988, Gaussian, Inc.),
 the Gaussian 86(TM) system (copyright 1986, Carnegie Mellon
 University), and the Gaussian 82(TM) system (copyright 1983,
 Carnegie Mellon University). Gaussian is a federally registered
 trademark of Gaussian, Inc.
  
 This software contains proprietary and confidential information,
 including trade secrets, belonging to Gaussian, Inc.
  
 This software is provided under written license and may be
 used, copied, transmitted, or stored only in accord with that
 written license.
  
 The following legend is applicable only to US Government
 contracts under FAR:
  
                    RESTRICTED RIGHTS LEGEND
  
 Use, reproduction and disclosure by the US Government is
 subject to restrictions as set forth in subparagraphs (a)
 and (c) of the Commercial Computer Software - Restricted
 Rights clause in FAR 52.227-19.
  
 Gaussian, Inc.
 340 Quinnipiac St., Bldg. 40, Wallingford CT 06492
  
  
 ---------------------------------------------------------------
 Warning -- This program may not be used in any manner that
 competes with the business of Gaussian, Inc. or will provide
 assistance to any competitor of Gaussian, Inc.  The licensee
 of this program is prohibited from giving any competitor of
 Gaussian, Inc. access to this program.  By using this program,
 the user acknowledges that Gaussian, Inc. is engaged in the
 business of creating and licensing software in the field of
 computational chemistry and represents and warrants to the
 licensee that it is not a competitor of Gaussian, Inc. and that
 it will not use this program in any manner prohibited above.
 ---------------------------------------------------------------
  

 Cite this work as:
 Gaussian 16, Revision A.03,
 M. J. Frisch, G. W. Trucks, H. B. Schlegel, G. E. Scuseria, 
 M. A. Robb, J. R. Cheeseman, G. Scalmani, V. Barone, 
 G. A. Petersson, H. Nakatsuji, X. Li, M. Caricato, A. V. Marenich, 
 J. Bloino, B. G. Janesko, R. Gomperts, B. Mennucci, H. P. Hratchian, 
 J. V. Ortiz, A. F. Izmaylov, J. L. Sonnenberg, D. Williams-Young, 
 F. Ding, F. Lipparini, F. Egidi, J. Goings, B. Peng, A. Petrone, 
 T. Henderson, D. Ranasinghe, V. G. Zakrzewski, J. Gao, N. Rega, 
 G. Zheng, W. Liang, M. Hada, M. Ehara, K. Toyota, R. Fukuda, 
 J. Hasegawa, M. Ishida, T. Nakajima, Y. Honda, O. Kitao, H. Nakai, 
 T. Vreven, K. Throssell, J. A. Montgomery, Jr., J. E. Peralta, 
 F. Ogliaro, M. J. Bearpark, J. J. Heyd, E. N. Brothers, K. N. Kudin, 
 V. N. Staroverov, T. A. Keith, R. Kobayashi, J. Normand, 
 K. Raghavachari, A. P. Rendell, J. C. Burant, S. S. Iyengar, 
 J. Tomasi, M. Cossi, J. M. Millam, M. Klene, C. Adamo, R. Cammi, 
 J. W. Ochterski, R. L. Martin, K. Morokuma, O. Farkas, 
 J. B. Foresman, and D. J. Fox, Gaussian, Inc., Wallingford CT, 2016.
 
 ******************************************
 Gaussian 16:  ES64L-G16RevA.03 25-Dec-2016
                14-Oct-2019 
 ******************************************
 %chk=19_p.chk
 %nprocshared=24
 Will use up to   24 processors via shared memory.
 %mem=80GB
 -------------------------------------------------------------------
 #p opt freq m062x/6-311++g(d,p) geom=connectivity temperature=0.001
 -------------------------------------------------------------------
 1/18=20,19=15,26=3,38=1,57=2,112=-1000/1,3;
 2/9=110,12=2,17=6,18=5,40=1/2;
 3/5=4,6=6,7=1111,11=2,25=1,30=1,71=1,74=-55/1,2,3;
 4//1;
 5/5=2,38=5/2;
 6/7=2,8=2,9=2,10=2,28=1/1;
 7//1,2,3,16;
 1/18=20,19=15,26=3/3(2);
 2/9=110/2;
 99//99;
 2/9=110/2;
 3/5=4,6=6,7=1111,11=2,25=1,30=1,71=1,74=-55/1,2,3;
 4/5=5,16=3,69=1/1;
 5/5=2,38=5/2;
 7//1,2,3,16;
 1/18=20,19=15,26=3/3(-5);
 2/9=110/2;
 6/7=2,8=2,9=2,10=2,19=2,28=1/1;
 99/9=1/99;
 Leave Link    1 at Mon Oct 14 10:54:55 2019, MaxMem= 10737418240 cpu:               0.9 elap:               0.0
 (Enter /apps/cent7/gaussian/g16-A.03/g16-haswell/g16/l101.exe)
 -------------------
 Title Card Required
 -------------------
 Symbolic Z-matrix:
 Charge =  1 Multiplicity = 1
 N                    -0.6683   -1.1575    0.2096 
 C                     0.0038    0.0065    0.1244 
 C                    -0.6995    1.2281    0.0761 
 C                     0.0043    2.4443   -0.0121 
 C                     1.4103    2.4427   -0.0432 
 C                     2.1147    1.2259   -0.0121 
 C                     1.4133    0.0083    0.0761 
 H                    -0.19842  -1.85417  -0.33249 
 H                    -0.70885  -1.44983   1.16506 
 H                    -1.789     1.2322    0.107 
 H                    -0.5398    3.3878   -0.0563 
 H                     1.9548    3.3858   -0.0914 
 H                     3.2038    1.2264   -0.0563 
 H                     1.9616   -0.9332    0.107 
 H                    -1.59667  -1.03276  -0.14051 
 
 ITRead=  0  0  0  0  0  0  0  0  0  0  0  0  0  0  0
 MicOpt= -1 -1 -1 -1 -1 -1 -1 -1 -1 -1 -1 -1 -1 -1 -1
 NAtoms=     15 NQM=       15 NQMF=       0 NMMI=      0 NMMIF=      0
                NMic=       0 NMicF=      0.
                    Isotopes and Nuclear Properties:
 (Nuclear quadrupole moments (NQMom) in fm**2, nuclear magnetic moments (NMagM)
  in nuclear magnetons)

  Atom         1           2           3           4           5           6           7           8           9          10
 IAtWgt=          14          12          12          12          12          12          12           1           1           1
 AtmWgt=  14.0030740  12.0000000  12.0000000  12.0000000  12.0000000  12.0000000  12.0000000   1.0078250   1.0078250   1.0078250
 NucSpn=           2           0           0           0           0           0           0           1           1           1
 AtZEff=  -0.0000000  -0.0000000  -0.0000000  -0.0000000  -0.0000000  -0.0000000  -0.0000000  -0.0000000  -0.0000000  -0.0000000
 NQMom=    2.0440000   0.0000000   0.0000000   0.0000000   0.0000000   0.0000000   0.0000000   0.0000000   0.0000000   0.0000000
 NMagM=    0.4037610   0.0000000   0.0000000   0.0000000   0.0000000   0.0000000   0.0000000   2.7928460   2.7928460   2.7928460
 AtZNuc=   7.0000000   6.0000000   6.0000000   6.0000000   6.0000000   6.0000000   6.0000000   1.0000000   1.0000000   1.0000000

  Atom        11          12          13          14          15
 IAtWgt=           1           1           1           1           1
 AtmWgt=   1.0078250   1.0078250   1.0078250   1.0078250   1.0078250
 NucSpn=           1           1           1           1           1
 AtZEff=  -0.0000000  -0.0000000  -0.0000000  -0.0000000  -0.0000000
 NQMom=    0.0000000   0.0000000   0.0000000   0.0000000   0.0000000
 NMagM=    2.7928460   2.7928460   2.7928460   2.7928460   2.7928460
 AtZNuc=   1.0000000   1.0000000   1.0000000   1.0000000   1.0000000
 Leave Link  101 at Mon Oct 14 10:54:55 2019, MaxMem= 10737418240 cpu:               8.2 elap:               0.4
 (Enter /apps/cent7/gaussian/g16-A.03/g16-haswell/g16/l103.exe)

 GradGradGradGradGradGradGradGradGradGradGradGradGradGradGradGradGradGrad
 Berny optimization.
 Initialization pass.
                           ----------------------------
                           !    Initial Parameters    !
                           ! (Angstroms and Degrees)  !
 --------------------------                            --------------------------
 ! Name  Definition              Value          Derivative Info.                !
 --------------------------------------------------------------------------------
 ! R1    R(1,2)                  1.3468         estimate D2E/DX2                !
 ! R2    R(1,8)                  1.0            estimate D2E/DX2                !
 ! R3    R(1,9)                  1.0            estimate D2E/DX2                !
 ! R4    R(1,15)                 1.0            estimate D2E/DX2                !
 ! R5    R(2,3)                  1.4104         estimate D2E/DX2                !
 ! R6    R(2,7)                  1.4103         estimate D2E/DX2                !
 ! R7    R(3,4)                  1.4079         estimate D2E/DX2                !
 ! R8    R(3,10)                 1.0899         estimate D2E/DX2                !
 ! R9    R(4,5)                  1.4063         estimate D2E/DX2                !
 ! R10   R(4,11)                 1.09           estimate D2E/DX2                !
 ! R11   R(5,6)                  1.4063         estimate D2E/DX2                !
 ! R12   R(5,12)                 1.0901         estimate D2E/DX2                !
 ! R13   R(6,7)                  1.4079         estimate D2E/DX2                !
 ! R14   R(6,13)                 1.09           estimate D2E/DX2                !
 ! R15   R(7,14)                 1.09           estimate D2E/DX2                !
 ! A1    A(2,1,8)              109.4712         estimate D2E/DX2                !
 ! A2    A(2,1,9)              109.4712         estimate D2E/DX2                !
 ! A3    A(2,1,15)             109.4712         estimate D2E/DX2                !
 ! A4    A(8,1,9)              109.4712         estimate D2E/DX2                !
 ! A5    A(8,1,15)             109.4712         estimate D2E/DX2                !
 ! A6    A(9,1,15)             109.4712         estimate D2E/DX2                !
 ! A7    A(1,2,3)              120.1253         estimate D2E/DX2                !
 ! A8    A(1,2,7)              120.1331         estimate D2E/DX2                !
 ! A9    A(3,2,7)              119.7408         estimate D2E/DX2                !
 ! A10   A(2,3,4)              120.0702         estimate D2E/DX2                !
 ! A11   A(2,3,10)             120.0484         estimate D2E/DX2                !
 ! A12   A(4,3,10)             119.8814         estimate D2E/DX2                !
 ! A13   A(3,4,5)              120.0109         estimate D2E/DX2                !
 ! A14   A(3,4,11)             120.0473         estimate D2E/DX2                !
 ! A15   A(5,4,11)             119.9419         estimate D2E/DX2                !
 ! A16   A(4,5,6)              120.0829         estimate D2E/DX2                !
 ! A17   A(4,5,12)             119.9592         estimate D2E/DX2                !
 ! A18   A(6,5,12)             119.9579         estimate D2E/DX2                !
 ! A19   A(5,6,7)              120.0081         estimate D2E/DX2                !
 ! A20   A(5,6,13)             119.9454         estimate D2E/DX2                !
 ! A21   A(7,6,13)             120.0465         estimate D2E/DX2                !
 ! A22   A(2,7,6)              120.0749         estimate D2E/DX2                !
 ! A23   A(2,7,14)             120.0448         estimate D2E/DX2                !
 ! A24   A(6,7,14)             119.8803         estimate D2E/DX2                !
 ! D1    D(8,1,2,3)            143.0691         estimate D2E/DX2                !
 ! D2    D(8,1,2,7)            -36.6            estimate D2E/DX2                !
 ! D3    D(9,1,2,3)            -96.9309         estimate D2E/DX2                !
 ! D4    D(9,1,2,7)             83.4            estimate D2E/DX2                !
 ! D5    D(15,1,2,3)            23.0691         estimate D2E/DX2                !
 ! D6    D(15,1,2,7)          -156.6            estimate D2E/DX2                !
 ! D7    D(1,2,3,4)            179.9593         estimate D2E/DX2                !
 ! D8    D(1,2,3,10)            -0.0406         estimate D2E/DX2                !
 ! D9    D(7,2,3,4)             -0.3702         estimate D2E/DX2                !
 ! D10   D(7,2,3,10)           179.6299         estimate D2E/DX2                !
 ! D11   D(1,2,7,6)           -179.9593         estimate D2E/DX2                !
 ! D12   D(1,2,7,14)             0.0407         estimate D2E/DX2                !
 ! D13   D(3,2,7,6)              0.3703         estimate D2E/DX2                !
 ! D14   D(3,2,7,14)          -179.6297         estimate D2E/DX2                !
 ! D15   D(2,3,4,5)             -0.4217         estimate D2E/DX2                !
 ! D16   D(2,3,4,11)           179.5805         estimate D2E/DX2                !
 ! D17   D(10,3,4,5)           179.5782         estimate D2E/DX2                !
 ! D18   D(10,3,4,11)           -0.4196         estimate D2E/DX2                !
 ! D19   D(3,4,5,6)              1.2167         estimate D2E/DX2                !
 ! D20   D(3,4,5,12)          -178.7789         estimate D2E/DX2                !
 ! D21   D(11,4,5,6)          -178.7856         estimate D2E/DX2                !
 ! D22   D(11,4,5,12)            1.2188         estimate D2E/DX2                !
 ! D23   D(4,5,6,7)             -1.2166         estimate D2E/DX2                !
 ! D24   D(4,5,6,13)           178.7852         estimate D2E/DX2                !
 ! D25   D(12,5,6,7)           178.779          estimate D2E/DX2                !
 ! D26   D(12,5,6,13)           -1.2192         estimate D2E/DX2                !
 ! D27   D(5,6,7,2)              0.4216         estimate D2E/DX2                !
 ! D28   D(5,6,7,14)          -179.5783         estimate D2E/DX2                !
 ! D29   D(13,6,7,2)          -179.5802         estimate D2E/DX2                !
 ! D30   D(13,6,7,14)            0.4198         estimate D2E/DX2                !
 --------------------------------------------------------------------------------
 Trust Radius=3.00D-01 FncErr=1.00D-07 GrdErr=1.00D-06 EigMax=2.50D+02 EigMin=1.00D-04
 Number of steps in this run=     79 maximum allowed number of steps=    100.
 GradGradGradGradGradGradGradGradGradGradGradGradGradGradGradGradGradGrad

 Leave Link  103 at Mon Oct 14 10:54:56 2019, MaxMem= 10737418240 cpu:               0.2 elap:               0.0
 (Enter /apps/cent7/gaussian/g16-A.03/g16-haswell/g16/l202.exe)
                          Input orientation:                          
 ---------------------------------------------------------------------
 Center     Atomic      Atomic             Coordinates (Angstroms)
 Number     Number       Type             X           Y           Z
 ---------------------------------------------------------------------
      1          7           0       -0.668300   -1.157500    0.209600
      2          6           0        0.003800    0.006500    0.124400
      3          6           0       -0.699500    1.228100    0.076100
      4          6           0        0.004300    2.444300   -0.012100
      5          6           0        1.410300    2.442700   -0.043200
      6          6           0        2.114700    1.225900   -0.012100
      7          6           0        1.413300    0.008300    0.076100
      8          1           0       -0.198420   -1.854172   -0.332490
      9          1           0       -0.708846   -1.449835    1.165056
     10          1           0       -1.789000    1.232200    0.107000
     11          1           0       -0.539800    3.387800   -0.056300
     12          1           0        1.954800    3.385800   -0.091400
     13          1           0        3.203800    1.226400   -0.056300
     14          1           0        1.961600   -0.933200    0.107000
     15          1           0       -1.596668   -1.032763   -0.140505
 ---------------------------------------------------------------------
                    Distance matrix (angstroms):
                    1          2          3          4          5
     1  N    0.000000
     2  C    1.346801   0.000000
     3  C    2.389536   1.410415   0.000000
     4  C    3.670764   2.441619   1.407926   0.000000
     5  C    4.164844   2.818049   2.437364   1.406345   0.000000
     6  C    3.670809   2.441612   2.815583   2.436860   1.406325
     7  C    2.389554   1.410328   2.439638   2.815521   2.437323
     8  H    1.000000   1.926588   3.149353   4.315160   4.597258
     9  H    1.000000   1.926588   2.890891   4.130201   4.593745
    10  H    2.641432   2.171814   1.089946   2.167786   3.423944
    11  H    4.554884   3.429481   2.169640   1.090042   2.167089
    12  H    5.254791   3.908022   3.424768   2.167293   1.090065
    13  H    4.554870   3.429404   3.905545   3.423746   2.167072
    14  H    2.641441   2.171709   3.428356   3.905472   3.423915
    15  H    1.000000   1.926588   2.441993   3.830086   4.596757
                    6          7          8          9         10
     6  C    0.000000
     7  C    1.407939   0.000000
     8  H    3.865232   2.496676   0.000000
     9  H    4.064193   2.795619   1.632993   0.000000
    10  H    3.905522   3.428354   3.499827   3.078884   0.000000
    11  H    3.423760   3.905528   5.260332   4.992294   2.496754
    12  H    2.167262   3.424731   5.670254   5.661895   4.323586
    13  H    1.089997   2.169605   4.597968   4.895176   4.995473
    14  H    2.167795   1.089959   2.388939   2.918506   4.330815
    15  H    4.346527   3.192278   1.632993   1.632993   2.286550
                   11         12         13         14         15
    11  H    0.000000
    12  H    2.494848   0.000000
    13  H    4.322753   2.494843   0.000000
    14  H    4.995469   4.323560   2.496718   0.000000
    15  H    4.545926   5.669130   5.306166   3.568255   0.000000
 Stoichiometry    C6H8N(1+)
 Framework group  C1[X(C6H8N)]
 Deg. of freedom    39
 Full point group                 C1      NOp   1
 Largest Abelian subgroup         C1      NOp   1
 Largest concise Abelian subgroup C1      NOp   1
                         Standard orientation:                         
 ---------------------------------------------------------------------
 Center     Atomic      Atomic             Coordinates (Angstroms)
 Number     Number       Type             X           Y           Z
 ---------------------------------------------------------------------
      1          7           0       -2.246616   -0.000014    0.003328
      2          6           0       -0.899816   -0.000053    0.001532
      3          6           0       -0.191908    1.219831   -0.002935
      4          6           0        1.216017    1.218439   -0.003945
      5          6           0        1.918225    0.000016    0.008465
      6          6           0        1.216081   -1.218421   -0.003944
      7          6           0       -0.191857   -1.219807   -0.002935
      8          1           0       -2.580724   -0.755281   -0.560536
      9          1           0       -2.578703   -0.111072    0.940016
     10          1           0       -0.733994    2.165409   -0.005610
     11          1           0        1.762742    2.161400   -0.014306
     12          1           0        3.008119    0.000028    0.027798
     13          1           0        1.762766   -2.161353   -0.014309
     14          1           0       -0.733933   -2.165406   -0.005612
     15          1           0       -2.580419    0.866341   -0.368161
 ---------------------------------------------------------------------
 Rotational constants (GHZ):           5.4401053           2.5422971           1.7487543
 Leave Link  202 at Mon Oct 14 10:54:56 2019, MaxMem= 10737418240 cpu:               0.9 elap:               0.1
 (Enter /apps/cent7/gaussian/g16-A.03/g16-haswell/g16/l301.exe)
 Standard basis: 6-311++G(d,p) (5D, 7F)
 Ernie: Thresh=  0.10000D-02 Tol=  0.10000D-05 Strict=F.
 There are   217 symmetry adapted cartesian basis functions of A   symmetry.
 There are   210 symmetry adapted basis functions of A   symmetry.
   210 basis functions,   324 primitive gaussians,   217 cartesian basis functions
    25 alpha electrons       25 beta electrons
       nuclear repulsion energy       282.7050204996 Hartrees.
 IExCor= 4336 DFT=T Ex+Corr=M062X ExCW=0 ScaHFX=  0.540000
 ScaDFX=  1.000000  1.000000  1.000000  1.000000 ScalE2=  1.000000  1.000000
 IRadAn=      5 IRanWt=     -1 IRanGd=            0 ICorTp=0 IEmpDi=  4
 NAtoms=   15 NActive=   15 NUniq=   15 SFac= 1.00D+00 NAtFMM=   60 NAOKFM=F Big=F
 Integral buffers will be    131072 words long.
 Raffenetti 2 integral format.
 Two-electron integral symmetry is turned on.
 Leave Link  301 at Mon Oct 14 10:54:56 2019, MaxMem= 10737418240 cpu:               1.3 elap:               0.1
 (Enter /apps/cent7/gaussian/g16-A.03/g16-haswell/g16/l302.exe)
 NPDir=0 NMtPBC=     1 NCelOv=     1 NCel=       1 NClECP=     1 NCelD=      1
         NCelK=      1 NCelE2=     1 NClLst=     1 CellRange=     0.0.
 One-electron integrals computed using PRISM.
 One-electron integral symmetry used in STVInt
 NBasis=   210 RedAO= T EigKep=  4.96D-06  NBF=   210
 NBsUse=   209 1.00D-06 EigRej=  9.80D-07 NBFU=   209
 Precomputing XC quadrature grid using
 IXCGrd= 4 IRadAn=           5 IRanWt=          -1 IRanGd=           0 AccXCQ= 0.00D+00.
 Generated NRdTot=       0 NPtTot=           0 NUsed=           0 NTot=          32
 NSgBfM=   217   217   217   217   217 MxSgAt=    15 MxSgA2=    15.
 Leave Link  302 at Mon Oct 14 10:54:56 2019, MaxMem= 10737418240 cpu:               3.9 elap:               0.2
 (Enter /apps/cent7/gaussian/g16-A.03/g16-haswell/g16/l303.exe)
 DipDrv:  MaxL=1.
 Leave Link  303 at Mon Oct 14 10:54:56 2019, MaxMem= 10737418240 cpu:               0.8 elap:               0.1
 (Enter /apps/cent7/gaussian/g16-A.03/g16-haswell/g16/l401.exe)
 ExpMin= 3.60D-02 ExpMax= 6.29D+03 ExpMxC= 9.49D+02 IAcc=3 IRadAn=         5 AccDes= 0.00D+00
 Harris functional with IExCor= 1009 and IRadAn=       5 diagonalized for initial guess.
 HarFok:  IExCor= 1009 AccDes= 0.00D+00 IRadAn=         5 IDoV= 1 UseB2=F ITyADJ=14
 ICtDFT=  3500011 ScaDFX=  1.000000  1.000000  1.000000  1.000000
 FoFCou: FMM=F IPFlag=           0 FMFlag=      100000 FMFlg1=           0
         NFxFlg=           0 DoJE=T BraDBF=F KetDBF=T FulRan=T
         wScrn=  0.000000 ICntrl=       500 IOpCl=  0 I1Cent=   200000004 NGrid=           0
         NMat0=    1 NMatS0=      1 NMatT0=    0 NMatD0=    1 NMtDS0=    0 NMtDT0=    0
 Petite list used in FoFCou.
 Harris En= -287.805332227811    
 JPrj=0 DoOrth=F DoCkMO=F.
 Leave Link  401 at Mon Oct 14 10:54:56 2019, MaxMem= 10737418240 cpu:               8.2 elap:               0.4
 (Enter /apps/cent7/gaussian/g16-A.03/g16-haswell/g16/l502.exe)
 Integral symmetry usage will be decided dynamically.
 Closed shell SCF:
 Using DIIS extrapolation, IDIIS=  1040.
 NGot= 10737418240 LenX= 10737316623 LenY= 10737269093
 Requested convergence on RMS density matrix=1.00D-08 within 128 cycles.
 Requested convergence on MAX density matrix=1.00D-06.
 Requested convergence on             energy=1.00D-06.
 No special actions if energy rises.
 Fock matrices will be formed incrementally for  20 cycles.

 Cycle   1  Pass 1  IDiag  1:
 FoFJK:  IHMeth= 1 ICntrl=       0 DoSepK=F KAlg= 0 I1Cent=           0 FoldK=F
 IRaf= 980000000 NMat=       1 IRICut=       1 DoRegI=T DoRafI=F ISym2E= 0 IDoP0=0 IntGTp=1.
 FoFCou: FMM=F IPFlag=           0 FMFlag=      100000 FMFlg1=           0
         NFxFlg=           0 DoJE=F BraDBF=F KetDBF=F FulRan=T
         wScrn=  0.000000 ICntrl=         0 IOpCl=  0 I1Cent=           0 NGrid=           0
         NMat0=    1 NMatS0=      1 NMatT0=    0 NMatD0=    1 NMtDS0=    0 NMtDT0=    0
 Symmetry not used in FoFCou.
 E= -287.709498466686    
 DIIS: error= 3.84D-02 at cycle   1 NSaved=   1.
 NSaved= 1 IEnMin= 1 EnMin= -287.709498466686     IErMin= 1 ErrMin= 3.84D-02
 ErrMax= 3.84D-02  0.00D+00 EMaxC= 1.00D-01 BMatC= 1.97D-01 BMatP= 1.97D-01
 IDIUse=3 WtCom= 6.16D-01 WtEn= 3.84D-01
 Coeff-Com:  0.100D+01
 Coeff-En:   0.100D+01
 Coeff:      0.100D+01
 Gap=     0.355 Goal=   None    Shift=    0.000
 GapD=    0.355 DampG=1.000 DampE=0.500 DampFc=0.5000 IDamp=-1.
 Damping current iteration by 5.00D-01
 RMSDP=1.37D-02 MaxDP=8.25D-01              OVMax= 2.01D-01

 Cycle   2  Pass 1  IDiag  1:
 RMSU=  5.97D-03    CP:  1.15D+00
 E= -287.794182925696     Delta-E=       -0.084684459010 Rises=F Damp=T
 DIIS: error= 8.42D-03 at cycle   2 NSaved=   2.
 NSaved= 2 IEnMin= 2 EnMin= -287.794182925696     IErMin= 2 ErrMin= 8.42D-03
 ErrMax= 8.42D-03  0.00D+00 EMaxC= 1.00D-01 BMatC= 1.92D-02 BMatP= 1.97D-01
 IDIUse=3 WtCom= 9.16D-01 WtEn= 8.42D-02
 Coeff-Com: -0.156D+00 0.116D+01
 Coeff-En:   0.000D+00 0.100D+01
 Coeff:     -0.143D+00 0.114D+01
 Gap=     0.312 Goal=   None    Shift=    0.000
 RMSDP=5.21D-03 MaxDP=3.80D-01 DE=-8.47D-02 OVMax= 1.35D-01

 Cycle   3  Pass 1  IDiag  1:
 RMSU=  2.84D-03    CP:  9.83D-01  6.19D-01
 E= -287.871128762038     Delta-E=       -0.076945836341 Rises=F Damp=F
 DIIS: error= 1.04D-02 at cycle   3 NSaved=   3.
 NSaved= 3 IEnMin= 3 EnMin= -287.871128762038     IErMin= 2 ErrMin= 8.42D-03
 ErrMax= 1.04D-02  0.00D+00 EMaxC= 1.00D-01 BMatC= 7.11D-03 BMatP= 1.92D-02
 IDIUse=3 WtCom= 8.96D-01 WtEn= 1.04D-01
 Coeff-Com: -0.131D+00 0.473D+00 0.658D+00
 Coeff-En:   0.000D+00 0.000D+00 0.100D+01
 Coeff:     -0.117D+00 0.424D+00 0.693D+00
 Gap=     0.302 Goal=   None    Shift=    0.000
 RMSDP=7.56D-04 MaxDP=1.69D-02 DE=-7.69D-02 OVMax= 4.86D-02

 Cycle   4  Pass 1  IDiag  1:
 RMSU=  6.23D-04    CP:  9.88D-01  6.77D-01  9.22D-01
 E= -287.876872214816     Delta-E=       -0.005743452778 Rises=F Damp=F
 DIIS: error= 5.35D-03 at cycle   4 NSaved=   4.
 NSaved= 4 IEnMin= 4 EnMin= -287.876872214816     IErMin= 4 ErrMin= 5.35D-03
 ErrMax= 5.35D-03  0.00D+00 EMaxC= 1.00D-01 BMatC= 1.60D-03 BMatP= 7.11D-03
 IDIUse=3 WtCom= 9.46D-01 WtEn= 5.35D-02
 Coeff-Com: -0.490D-01 0.122D+00 0.374D+00 0.553D+00
 Coeff-En:   0.000D+00 0.000D+00 0.166D+00 0.834D+00
 Coeff:     -0.464D-01 0.116D+00 0.363D+00 0.568D+00
 Gap=     0.301 Goal=   None    Shift=    0.000
 RMSDP=3.19D-04 MaxDP=6.28D-03 DE=-5.74D-03 OVMax= 1.55D-02

 Cycle   5  Pass 1  IDiag  1:
 RMSU=  2.15D-04    CP:  9.90D-01  6.81D-01  9.44D-01  6.42D-01
 E= -287.878497957729     Delta-E=       -0.001625742913 Rises=F Damp=F
 DIIS: error= 6.54D-04 at cycle   5 NSaved=   5.
 NSaved= 5 IEnMin= 5 EnMin= -287.878497957729     IErMin= 5 ErrMin= 6.54D-04
 ErrMax= 6.54D-04  0.00D+00 EMaxC= 1.00D-01 BMatC= 2.46D-05 BMatP= 1.60D-03
 IDIUse=3 WtCom= 9.93D-01 WtEn= 6.54D-03
 Coeff-Com: -0.875D-02 0.160D-01 0.795D-01 0.186D+00 0.728D+00
 Coeff-En:   0.000D+00 0.000D+00 0.000D+00 0.000D+00 0.100D+01
 Coeff:     -0.870D-02 0.159D-01 0.789D-01 0.185D+00 0.729D+00
 Gap=     0.301 Goal=   None    Shift=    0.000
 RMSDP=6.67D-05 MaxDP=2.94D-03 DE=-1.63D-03 OVMax= 2.46D-03

 Cycle   6  Pass 1  IDiag  1:
 RMSU=  4.43D-05    CP:  9.89D-01  6.74D-01  9.46D-01  6.69D-01  9.01D-01
 E= -287.878524423686     Delta-E=       -0.000026465957 Rises=F Damp=F
 DIIS: error= 1.45D-04 at cycle   6 NSaved=   6.
 NSaved= 6 IEnMin= 6 EnMin= -287.878524423686     IErMin= 6 ErrMin= 1.45D-04
 ErrMax= 1.45D-04  0.00D+00 EMaxC= 1.00D-01 BMatC= 1.92D-06 BMatP= 2.46D-05
 IDIUse=3 WtCom= 9.99D-01 WtEn= 1.45D-03
 Coeff-Com: -0.305D-03-0.886D-03 0.906D-02 0.330D-01 0.263D+00 0.696D+00
 Coeff-En:   0.000D+00 0.000D+00 0.000D+00 0.000D+00 0.000D+00 0.100D+01
 Coeff:     -0.305D-03-0.885D-03 0.905D-02 0.330D-01 0.262D+00 0.697D+00
 Gap=     0.301 Goal=   None    Shift=    0.000
 RMSDP=1.61D-05 MaxDP=5.76D-04 DE=-2.65D-05 OVMax= 5.64D-04

 Cycle   7  Pass 1  IDiag  1:
 RMSU=  1.15D-05    CP:  9.90D-01  6.74D-01  9.46D-01  6.62D-01  9.33D-01
                    CP:  1.11D+00
 E= -287.878526275066     Delta-E=       -0.000001851380 Rises=F Damp=F
 DIIS: error= 4.76D-05 at cycle   7 NSaved=   7.
 NSaved= 7 IEnMin= 7 EnMin= -287.878526275066     IErMin= 7 ErrMin= 4.76D-05
 ErrMax= 4.76D-05  0.00D+00 EMaxC= 1.00D-01 BMatC= 2.64D-07 BMatP= 1.92D-06
 IDIUse=1 WtCom= 1.00D+00 WtEn= 0.00D+00
 Coeff-Com:  0.160D-02-0.359D-02-0.107D-01-0.236D-01-0.370D-01 0.251D+00
 Coeff-Com:  0.822D+00
 Coeff:      0.160D-02-0.359D-02-0.107D-01-0.236D-01-0.370D-01 0.251D+00
 Coeff:      0.822D+00
 Gap=     0.301 Goal=   None    Shift=    0.000
 RMSDP=1.06D-05 MaxDP=4.51D-04 DE=-1.85D-06 OVMax= 2.11D-04

 Cycle   8  Pass 1  IDiag  1:
 RMSU=  2.91D-06    CP:  9.89D-01  6.73D-01  9.46D-01  6.63D-01  9.51D-01
                    CP:  1.22D+00  1.10D+00
 E= -287.878526554511     Delta-E=       -0.000000279445 Rises=F Damp=F
 DIIS: error= 1.06D-05 at cycle   8 NSaved=   8.
 NSaved= 8 IEnMin= 8 EnMin= -287.878526554511     IErMin= 8 ErrMin= 1.06D-05
 ErrMax= 1.06D-05  0.00D+00 EMaxC= 1.00D-01 BMatC= 7.29D-09 BMatP= 2.64D-07
 IDIUse=1 WtCom= 1.00D+00 WtEn= 0.00D+00
 Coeff-Com:  0.358D-03-0.744D-03-0.228D-02-0.621D-02-0.143D-01 0.458D-01
 Coeff-Com:  0.183D+00 0.794D+00
 Coeff:      0.358D-03-0.744D-03-0.228D-02-0.621D-02-0.143D-01 0.458D-01
 Coeff:      0.183D+00 0.794D+00
 Gap=     0.301 Goal=   None    Shift=    0.000
 RMSDP=1.27D-06 MaxDP=4.46D-05 DE=-2.79D-07 OVMax= 4.27D-05

 Cycle   9  Pass 1  IDiag  1:
 RMSU=  8.15D-07    CP:  9.89D-01  6.73D-01  9.46D-01  6.63D-01  9.51D-01
                    CP:  1.22D+00  1.13D+00  1.06D+00
 E= -287.878526563220     Delta-E=       -0.000000008709 Rises=F Damp=F
 DIIS: error= 2.86D-06 at cycle   9 NSaved=   9.
 NSaved= 9 IEnMin= 9 EnMin= -287.878526563220     IErMin= 9 ErrMin= 2.86D-06
 ErrMax= 2.86D-06  0.00D+00 EMaxC= 1.00D-01 BMatC= 2.07D-09 BMatP= 7.29D-09
 IDIUse=1 WtCom= 1.00D+00 WtEn= 0.00D+00
 Coeff-Com: -0.675D-04 0.168D-03 0.576D-03 0.741D-03-0.106D-02-0.200D-01
 Coeff-Com: -0.624D-01 0.317D+00 0.765D+00
 Coeff:     -0.675D-04 0.168D-03 0.576D-03 0.741D-03-0.106D-02-0.200D-01
 Coeff:     -0.624D-01 0.317D+00 0.765D+00
 Gap=     0.301 Goal=   None    Shift=    0.000
 RMSDP=4.91D-07 MaxDP=1.21D-05 DE=-8.71D-09 OVMax= 2.33D-05

 Cycle  10  Pass 1  IDiag  1:
 RMSU=  3.11D-07    CP:  9.89D-01  6.72D-01  9.46D-01  6.63D-01  9.52D-01
                    CP:  1.22D+00  1.13D+00  1.14D+00  1.07D+00
 E= -287.878526565675     Delta-E=       -0.000000002456 Rises=F Damp=F
 DIIS: error= 7.33D-07 at cycle  10 NSaved=  10.
 NSaved=10 IEnMin=10 EnMin= -287.878526565675     IErMin=10 ErrMin= 7.33D-07
 ErrMax= 7.33D-07  0.00D+00 EMaxC= 1.00D-01 BMatC= 5.59D-11 BMatP= 2.07D-09
 IDIUse=1 WtCom= 1.00D+00 WtEn= 0.00D+00
 Coeff-Com: -0.349D-04 0.767D-04 0.271D-03 0.639D-03 0.109D-02-0.537D-02
 Coeff-Com: -0.231D-01-0.375D-01 0.492D-01 0.101D+01
 Coeff:     -0.349D-04 0.767D-04 0.271D-03 0.639D-03 0.109D-02-0.537D-02
 Coeff:     -0.231D-01-0.375D-01 0.492D-01 0.101D+01
 Gap=     0.301 Goal=   None    Shift=    0.000
 RMSDP=1.55D-07 MaxDP=4.89D-06 DE=-2.46D-09 OVMax= 7.66D-06

 Cycle  11  Pass 1  IDiag  1:
 RMSU=  8.58D-08    CP:  9.89D-01  6.72D-01  9.46D-01  6.63D-01  9.52D-01
                    CP:  1.22D+00  1.14D+00  1.16D+00  1.12D+00  1.17D+00
 E= -287.878526565800     Delta-E=       -0.000000000124 Rises=F Damp=F
 DIIS: error= 3.05D-07 at cycle  11 NSaved=  11.
 NSaved=11 IEnMin=11 EnMin= -287.878526565800     IErMin=11 ErrMin= 3.05D-07
 ErrMax= 3.05D-07  0.00D+00 EMaxC= 1.00D-01 BMatC= 4.33D-12 BMatP= 5.59D-11
 IDIUse=1 WtCom= 1.00D+00 WtEn= 0.00D+00
 Coeff-Com: -0.289D-05 0.639D-05 0.278D-04 0.896D-04 0.233D-03 0.902D-04
 Coeff-Com: -0.154D-02-0.168D-01-0.207D-01 0.214D+00 0.825D+00
 Coeff:     -0.289D-05 0.639D-05 0.278D-04 0.896D-04 0.233D-03 0.902D-04
 Coeff:     -0.154D-02-0.168D-01-0.207D-01 0.214D+00 0.825D+00
 Gap=     0.301 Goal=   None    Shift=    0.000
 RMSDP=4.57D-08 MaxDP=2.75D-06 DE=-1.24D-10 OVMax= 2.04D-06

 Cycle  12  Pass 1  IDiag  1:
 RMSU=  2.55D-08    CP:  9.89D-01  6.72D-01  9.46D-01  6.63D-01  9.52D-01
                    CP:  1.22D+00  1.14D+00  1.16D+00  1.11D+00  1.18D+00
                    CP:  1.11D+00
 E= -287.878526565807     Delta-E=       -0.000000000008 Rises=F Damp=F
 DIIS: error= 1.19D-07 at cycle  12 NSaved=  12.
 NSaved=12 IEnMin=12 EnMin= -287.878526565807     IErMin=12 ErrMin= 1.19D-07
 ErrMax= 1.19D-07  0.00D+00 EMaxC= 1.00D-01 BMatC= 2.50D-12 BMatP= 4.33D-12
 IDIUse=1 WtCom= 1.00D+00 WtEn= 0.00D+00
 Coeff-Com:  0.213D-05-0.477D-05-0.160D-04-0.195D-04-0.411D-05 0.560D-03
 Coeff-Com:  0.144D-02-0.674D-02-0.206D-01-0.165D-01 0.436D+00 0.606D+00
 Coeff:      0.213D-05-0.477D-05-0.160D-04-0.195D-04-0.411D-05 0.560D-03
 Coeff:      0.144D-02-0.674D-02-0.206D-01-0.165D-01 0.436D+00 0.606D+00
 Gap=     0.301 Goal=   None    Shift=    0.000
 RMSDP=1.89D-08 MaxDP=1.08D-06 DE=-7.96D-12 OVMax= 5.72D-07

 Cycle  13  Pass 1  IDiag  1:
 RMSU=  8.72D-09    CP:  9.89D-01  6.72D-01  9.46D-01  6.63D-01  9.52D-01
                    CP:  1.22D+00  1.14D+00  1.16D+00  1.11D+00  1.19D+00
                    CP:  1.20D+00  9.69D-01
 E= -287.878526565808     Delta-E=       -0.000000000001 Rises=F Damp=F
 DIIS: error= 2.37D-08 at cycle  13 NSaved=  13.
 NSaved=13 IEnMin=13 EnMin= -287.878526565808     IErMin=13 ErrMin= 2.37D-08
 ErrMax= 2.37D-08  0.00D+00 EMaxC= 1.00D-01 BMatC= 7.23D-14 BMatP= 2.50D-12
 IDIUse=1 WtCom= 1.00D+00 WtEn= 0.00D+00
 Coeff-Com:  0.766D-06-0.177D-05-0.717D-05-0.124D-04-0.225D-04 0.160D-03
 Coeff-Com:  0.519D-03-0.275D-03-0.377D-02-0.283D-01 0.524D-01 0.128D+00
 Coeff-Com:  0.852D+00
 Coeff:      0.766D-06-0.177D-05-0.717D-05-0.124D-04-0.225D-04 0.160D-03
 Coeff:      0.519D-03-0.275D-03-0.377D-02-0.283D-01 0.524D-01 0.128D+00
 Coeff:      0.852D+00
 Gap=     0.301 Goal=   None    Shift=    0.000
 RMSDP=7.39D-09 MaxDP=3.87D-07 DE=-6.82D-13 OVMax= 2.03D-07

 SCF Done:  E(RM062X) =  -287.878526566     A.U. after   13 cycles
            NFock= 13  Conv=0.74D-08     -V/T= 2.0037
 KE= 2.868114667556D+02 PE=-1.223752196679D+03 EE= 3.663571828576D+02
 Leave Link  502 at Mon Oct 14 10:55:04 2019, MaxMem= 10737418240 cpu:             183.4 elap:               7.7
 (Enter /apps/cent7/gaussian/g16-A.03/g16-haswell/g16/l601.exe)
 Copying SCF densities to generalized density rwf, IOpCl= 0 IROHF=0.

 **********************************************************************

            Population analysis using the SCF density.

 **********************************************************************

 Orbital symmetries:
       Occupied  (A) (A) (A) (A) (A) (A) (A) (A) (A) (A) (A) (A)
                 (A) (A) (A) (A) (A) (A) (A) (A) (A) (A) (A) (A)
                 (A)
       Virtual   (A) (A) (A) (A) (A) (A) (A) (A) (A) (A) (A) (A)
                 (A) (A) (A) (A) (A) (A) (A) (A) (A) (A) (A) (A)
                 (A) (A) (A) (A) (A) (A) (A) (A) (A) (A) (A) (A)
                 (A) (A) (A) (A) (A) (A) (A) (A) (A) (A) (A) (A)
                 (A) (A) (A) (A) (A) (A) (A) (A) (A) (A) (A) (A)
                 (A) (A) (A) (A) (A) (A) (A) (A) (A) (A) (A) (A)
                 (A) (A) (A) (A) (A) (A) (A) (A) (A) (A) (A) (A)
                 (A) (A) (A) (A) (A) (A) (A) (A) (A) (A) (A) (A)
                 (A) (A) (A) (A) (A) (A) (A) (A) (A) (A) (A) (A)
                 (A) (A) (A) (A) (A) (A) (A) (A) (A) (A) (A) (A)
                 (A) (A) (A) (A) (A) (A) (A) (A) (A) (A) (A) (A)
                 (A) (A) (A) (A) (A) (A) (A) (A) (A) (A) (A) (A)
                 (A) (A) (A) (A) (A) (A) (A) (A) (A) (A) (A) (A)
                 (A) (A) (A) (A) (A) (A) (A) (A) (A) (A) (A) (A)
                 (A) (A) (A) (A) (A) (A) (A) (A) (A) (A) (A) (A)
                 (A) (A) (A) (A)
 The electronic state is 1-A.
 Alpha  occ. eigenvalues --  -15.07966 -10.77247 -10.72750 -10.72685 -10.71152
 Alpha  occ. eigenvalues --  -10.71128 -10.70643  -1.37013  -1.12247  -1.01862
 Alpha  occ. eigenvalues --   -1.01610  -0.91723  -0.89640  -0.89432  -0.82844
 Alpha  occ. eigenvalues --   -0.79659  -0.73410  -0.67745  -0.67075  -0.65511
 Alpha  occ. eigenvalues --   -0.60329  -0.58493  -0.57175  -0.47673  -0.47295
 Alpha virt. eigenvalues --   -0.17172  -0.16187  -0.15304  -0.12386  -0.11474
 Alpha virt. eigenvalues --   -0.10545  -0.08689  -0.08005  -0.07867  -0.06128
 Alpha virt. eigenvalues --   -0.05793  -0.04066  -0.03819  -0.02955  -0.01843
 Alpha virt. eigenvalues --   -0.00641  -0.00428  -0.00148   0.00064   0.00748
 Alpha virt. eigenvalues --    0.01219   0.01336   0.01495   0.01652   0.03599
 Alpha virt. eigenvalues --    0.03837   0.03908   0.04163   0.05716   0.06122
 Alpha virt. eigenvalues --    0.06261   0.07404   0.07634   0.07893   0.08032
 Alpha virt. eigenvalues --    0.09086   0.10367   0.11626   0.12389   0.13381
 Alpha virt. eigenvalues --    0.14547   0.15848   0.16080   0.16152   0.17853
 Alpha virt. eigenvalues --    0.19138   0.19379   0.24212   0.24416   0.25615
 Alpha virt. eigenvalues --    0.27460   0.32270   0.35908   0.37191   0.37982
 Alpha virt. eigenvalues --    0.41546   0.42649   0.43566   0.44442   0.45080
 Alpha virt. eigenvalues --    0.45404   0.45876   0.46145   0.47844   0.49976
 Alpha virt. eigenvalues --    0.50387   0.52360   0.55826   0.56979   0.60035
 Alpha virt. eigenvalues --    0.60189   0.61910   0.62186   0.62941   0.63372
 Alpha virt. eigenvalues --    0.66660   0.70590   0.71392   0.72808   0.73036
 Alpha virt. eigenvalues --    0.75577   0.76262   0.77513   0.78652   0.79152
 Alpha virt. eigenvalues --    0.82979   0.88480   0.89604   0.90218   0.93472
 Alpha virt. eigenvalues --    0.96593   1.01548   1.02193   1.07955   1.17280
 Alpha virt. eigenvalues --    1.25746   1.29417   1.30880   1.31813   1.35156
 Alpha virt. eigenvalues --    1.39869   1.40869   1.43054   1.43519   1.45832
 Alpha virt. eigenvalues --    1.46152   1.50632   1.52536   1.54640   1.56401
 Alpha virt. eigenvalues --    1.58404   1.60199   1.62569   1.64519   1.71040
 Alpha virt. eigenvalues --    1.73716   1.74177   1.76405   1.77961   1.78465
 Alpha virt. eigenvalues --    1.79910   1.81277   1.84234   1.85685   1.87908
 Alpha virt. eigenvalues --    1.91208   1.93204   1.96295   1.97051   2.13923
 Alpha virt. eigenvalues --    2.15652   2.17240   2.18436   2.27189   2.29915
 Alpha virt. eigenvalues --    2.31555   2.33986   2.39544   2.43056   2.47326
 Alpha virt. eigenvalues --    2.47821   2.52386   2.56229   2.57402   2.58640
 Alpha virt. eigenvalues --    2.60961   2.61340   2.61643   2.62430   2.64815
 Alpha virt. eigenvalues --    2.68607   2.69653   2.72571   2.73139   2.78031
 Alpha virt. eigenvalues --    2.79282   2.79844   2.80947   2.92531   2.96612
 Alpha virt. eigenvalues --    3.00604   3.05875   3.20151   3.21271   3.29975
 Alpha virt. eigenvalues --    3.35577   3.38220   3.46120   3.76064   3.86357
 Alpha virt. eigenvalues --    3.93020   4.00983   4.02533   4.62543   4.63758
 Alpha virt. eigenvalues --    4.67536   4.84921  23.54663  23.85235  23.85579
 Alpha virt. eigenvalues --   23.94467  23.95730  24.04966  35.52314
          Condensed to atoms (all electrons):
               1          2          3          4          5          6
     1  N    6.495028  -0.080303  -0.000430   0.018394  -0.002010  -0.010924
     2  C   -0.080303   7.005300   0.005266  -0.200990   0.161224  -0.182489
     3  C   -0.000430   0.005266   7.051926   0.003983  -0.322292   0.682956
     4  C    0.018394  -0.200990   0.003983   5.236488   0.423012  -0.313991
     5  C   -0.002010   0.161224  -0.322292   0.423012   5.467765   0.421570
     6  C   -0.010924  -0.182489   0.682956  -0.313991   0.421570   5.312607
     7  C   -0.287425   0.145815  -1.823800   0.612612  -0.220624  -0.105995
     8  H    0.329503   0.001103   0.058452  -0.003761   0.002293   0.005391
     9  H    0.310024  -0.004687  -0.014313  -0.001851   0.006657  -0.000343
    10  H   -0.003872  -0.168236   0.545516  -0.008309   0.010173   0.025135
    11  H   -0.003447   0.034311  -0.101672   0.397602  -0.026821  -0.025467
    12  H    0.000261   0.018704  -0.007407  -0.045270   0.417915  -0.044119
    13  H   -0.002352   0.026889   0.045055  -0.022155  -0.025126   0.407707
    14  H   -0.000891  -0.190137  -0.110229   0.023869   0.011278  -0.017290
    15  H    0.327423   0.004549  -0.071178   0.003191   0.000814  -0.004897
               7          8          9         10         11         12
     1  N   -0.287425   0.329503   0.310024  -0.003872  -0.003447   0.000261
     2  C    0.145815   0.001103  -0.004687  -0.168236   0.034311   0.018704
     3  C   -1.823800   0.058452  -0.014313   0.545516  -0.101672  -0.007407
     4  C    0.612612  -0.003761  -0.001851  -0.008309   0.397602  -0.045270
     5  C   -0.220624   0.002293   0.006657   0.010173  -0.026821   0.417915
     6  C   -0.105995   0.005391  -0.000343   0.025135  -0.025467  -0.044119
     7  C    7.309188  -0.065674  -0.004761  -0.095042   0.045900  -0.005999
     8  H   -0.065674   0.354106  -0.023723   0.004026  -0.000363   0.000110
     9  H   -0.004761  -0.023723   0.359342  -0.000816  -0.000161   0.000184
    10  H   -0.095042   0.004026  -0.000816   0.498903  -0.010818   0.000449
    11  H    0.045900  -0.000363  -0.000161  -0.010818   0.431169  -0.003385
    12  H   -0.005999   0.000110   0.000184   0.000449  -0.003385   0.435374
    13  H   -0.108952   0.000853  -0.000070   0.001697  -0.001320  -0.003245
    14  H    0.590521   0.001643  -0.001127  -0.003256   0.001808   0.000354
    15  H    0.069080  -0.018809  -0.014382   0.002473   0.001141   0.000077
              13         14         15
     1  N   -0.002352  -0.000891   0.327423
     2  C    0.026889  -0.190137   0.004549
     3  C    0.045055  -0.110229  -0.071178
     4  C   -0.022155   0.023869   0.003191
     5  C   -0.025126   0.011278   0.000814
     6  C    0.407707  -0.017290  -0.004897
     7  C   -0.108952   0.590521   0.069080
     8  H    0.000853   0.001643  -0.018809
     9  H   -0.000070  -0.001127  -0.014382
    10  H    0.001697  -0.003256   0.002473
    11  H   -0.001320   0.001808   0.001141
    12  H   -0.003245   0.000354   0.000077
    13  H    0.430982  -0.010491  -0.000351
    14  H   -0.010491   0.493062   0.004427
    15  H   -0.000351   0.004427   0.347671
 Mulliken charges:
               1
     1  N   -0.088979
     2  C   -0.576320
     3  C    0.058165
     4  C   -0.122824
     5  C   -0.325829
     6  C   -0.149852
     7  C   -0.054844
     8  H    0.354851
     9  H    0.390026
    10  H    0.201976
    11  H    0.261524
    12  H    0.235996
    13  H    0.260879
    14  H    0.206459
    15  H    0.348771
 Sum of Mulliken charges =   1.00000
 Mulliken charges with hydrogens summed into heavy atoms:
               1
     1  N    1.004669
     2  C   -0.576320
     3  C    0.260142
     4  C    0.138700
     5  C   -0.089833
     6  C    0.111027
     7  C    0.151615
 Electronic spatial extent (au):  <R**2>=            680.5478
 Charge=              1.0000 electrons
 Dipole moment (field-independent basis, Debye):
    X=             -7.0064    Y=             -0.0127    Z=              0.0377  Tot=              7.0065
 Quadrupole moment (field-independent basis, Debye-Ang):
   XX=             -7.9811   YY=            -30.2084   ZZ=            -42.2630
   XY=              0.0086   XZ=             -0.0004   YZ=              0.0015
 Traceless Quadrupole moment (field-independent basis, Debye-Ang):
   XX=             18.8364   YY=             -3.3909   ZZ=            -15.4455
   XY=              0.0086   XZ=             -0.0004   YZ=              0.0015
 Octapole moment (field-independent basis, Debye-Ang**2):
  XXX=            -56.3365  YYY=              0.4116  ZZZ=              1.4037  XYY=             -3.9704
  XXY=             -0.0178  XXZ=              0.1449  XZZ=            -12.7892  YZZ=             -0.4816
  YYZ=             -1.3601  XYZ=             -0.0050
 Hexadecapole moment (field-independent basis, Debye-Ang**3):
 XXXX=           -314.9571 YYYY=           -249.1223 ZZZZ=            -50.0855 XXXY=             -0.1573
 XXXZ=              0.9408 YYYX=             -1.1411 YYYZ=              0.0027 ZZZX=             -3.4710
 ZZZY=             -0.0012 XXYY=           -104.9644 XXZZ=            -87.8701 YYZZ=            -64.4671
 XXYZ=              0.0153 YYXZ=              2.9768 ZZXY=              1.2325
 N-N= 2.827050204996D+02 E-N=-1.223752196697D+03  KE= 2.868114667556D+02
 No NMR shielding tensors so no spin-rotation constants.
 Leave Link  601 at Mon Oct 14 10:55:04 2019, MaxMem= 10737418240 cpu:               2.7 elap:               0.2
 (Enter /apps/cent7/gaussian/g16-A.03/g16-haswell/g16/l701.exe)
 ... and contract with generalized density number  0.
 Compute integral first derivatives.
 Leave Link  701 at Mon Oct 14 10:55:05 2019, MaxMem= 10737418240 cpu:               3.3 elap:               0.2
 (Enter /apps/cent7/gaussian/g16-A.03/g16-haswell/g16/l702.exe)
 L702 exits ... SP integral derivatives will be done elsewhere.
 Leave Link  702 at Mon Oct 14 10:55:05 2019, MaxMem= 10737418240 cpu:               0.4 elap:               0.0
 (Enter /apps/cent7/gaussian/g16-A.03/g16-haswell/g16/l703.exe)
 Integral derivatives from FoFJK, PRISM(SPDF).
 Compute integral first derivatives, UseDBF=F ICtDFT=           0.
 Calling FoFJK, ICntrl=      2127 FMM=F ISym2X=0 I1Cent= 0 IOpClX= 0 NMat=1 NMatS=1 NMatT=0.
 FoFJK:  IHMeth= 1 ICntrl=    2127 DoSepK=F KAlg= 0 I1Cent=           0 FoldK=F
 IRaf=         0 NMat=       1 IRICut=       1 DoRegI=T DoRafI=F ISym2E= 0 IDoP0=0 IntGTp=1.
 FoFCou: FMM=F IPFlag=           0 FMFlag=      100000 FMFlg1=         800
         NFxFlg=           0 DoJE=F BraDBF=F KetDBF=F FulRan=T
         wScrn=  0.000000 ICntrl=      2127 IOpCl=  0 I1Cent=           0 NGrid=           0
         NMat0=    1 NMatS0=      1 NMatT0=    0 NMatD0=    1 NMtDS0=    0 NMtDT0=    0
 Symmetry not used in FoFCou.
 Leave Link  703 at Mon Oct 14 10:55:06 2019, MaxMem= 10737418240 cpu:              30.5 elap:               1.3
 (Enter /apps/cent7/gaussian/g16-A.03/g16-haswell/g16/l716.exe)
 Dipole        =-2.75651324D+00-5.00958617D-03 1.48396889D-02
 ***** Axes restored to original set *****
 -------------------------------------------------------------------
 Center     Atomic                   Forces (Hartrees/Bohr)
 Number     Number              X              Y              Z
 -------------------------------------------------------------------
      1        7          -0.032325851   -0.056834236    0.005380029
      2        6           0.070442913    0.124877777   -0.012485823
      3        6           0.011210461   -0.002071389   -0.000327775
      4        6           0.005432254   -0.010702239    0.001676371
      5        6          -0.006055619   -0.009291177    0.000373362
      6        6          -0.012277985   -0.001739188    0.001756152
      7        6          -0.006177961    0.008536870   -0.000359078
      8        1           0.005055015   -0.022873631   -0.010837055
      9        1          -0.006448238   -0.015992071    0.022095838
     10        1           0.001960979    0.000598412   -0.000525666
     11        1           0.001548379   -0.005417099    0.000630447
     12        1          -0.002637901   -0.004526545   -0.000797112
     13        1          -0.005434789   -0.001392973    0.000628983
     14        1          -0.000461795    0.002104210   -0.000530936
     15        1          -0.023829862   -0.005276722   -0.006677737
 -------------------------------------------------------------------
 Cartesian Forces:  Max     0.124877777 RMS     0.024890087
 Leave Link  716 at Mon Oct 14 10:55:06 2019, MaxMem= 10737418240 cpu:               1.0 elap:               0.1
 (Enter /apps/cent7/gaussian/g16-A.03/g16-haswell/g16/l103.exe)

 GradGradGradGradGradGradGradGradGradGradGradGradGradGradGradGradGradGrad
 Berny optimization.
 FormGI is forming the generalized inverse of G from B-inverse, IUseBI=4.
 Internal  Forces:  Max     0.116620148 RMS     0.016120693
 Search for a local minimum.
 Step number   1 out of a maximum of   79
 All quantities printed in internal units (Hartrees-Bohrs-Radians)
 RMS Force = .16121D-01 SwitMx=.10000D-02 MixMth= 1
 Mixed Optimization -- RFO/linear search
 Second derivative matrix not updated -- first step.
 ITU=  0
     Eigenvalues ---    0.01956   0.01967   0.01969   0.01982   0.01993
     Eigenvalues ---    0.01995   0.02000   0.02005   0.02132   0.02395
     Eigenvalues ---    0.08442   0.08442   0.16000   0.16000   0.16000
     Eigenvalues ---    0.16000   0.16000   0.16000   0.16000   0.16000
     Eigenvalues ---    0.21998   0.21999   0.23481   0.25000   0.34805
     Eigenvalues ---    0.34808   0.34813   0.34817   0.34819   0.40396
     Eigenvalues ---    0.40546   0.44019   0.44288   0.44331   0.44540
     Eigenvalues ---    0.47688   0.47688   0.47688   0.55708
 RFO step:  Lambda=-3.35659338D-02 EMin= 1.95579053D-02
 Linear search not attempted -- first point.
 Iteration  1 RMS(Cart)=  0.04602356 RMS(Int)=  0.00052638
 Iteration  2 RMS(Cart)=  0.00044250 RMS(Int)=  0.00030572
 Iteration  3 RMS(Cart)=  0.00000023 RMS(Int)=  0.00030572
 ITry= 1 IFail=0 DXMaxC= 1.55D-01 DCOld= 1.00D+10 DXMaxT= 3.00D-01 DXLimC= 3.00D+00 Rises=F
 Variable       Old X    -DE/DX   Delta X   Delta X   Delta X     New X
                                 (Linear)    (Quad)   (Total)
    R1        2.54509   0.11662   0.00000   0.19745   0.19745   2.74253
    R2        1.88973   0.02419   0.00000   0.04738   0.04738   1.93711
    R3        1.88973   0.02605   0.00000   0.05103   0.05103   1.94076
    R4        1.88973   0.02380   0.00000   0.04663   0.04663   1.93636
    R5        2.66530  -0.01875   0.00000  -0.03981  -0.03978   2.62552
    R6        2.66513  -0.01807   0.00000  -0.03835  -0.03832   2.62681
    R7        2.66059  -0.01898   0.00000  -0.03980  -0.03980   2.62079
    R8        2.05970  -0.00197   0.00000  -0.00517  -0.00517   2.05453
    R9        2.65761  -0.01500   0.00000  -0.03115  -0.03118   2.62643
   R10        2.05988  -0.00549   0.00000  -0.01438  -0.01438   2.04550
   R11        2.65757  -0.01421   0.00000  -0.02948  -0.02951   2.62806
   R12        2.05992  -0.00520   0.00000  -0.01362  -0.01362   2.04630
   R13        2.66062  -0.01956   0.00000  -0.04102  -0.04101   2.61960
   R14        2.05980  -0.00546   0.00000  -0.01430  -0.01430   2.04550
   R15        2.05972  -0.00206   0.00000  -0.00541  -0.00541   2.05431
    A1        1.91063   0.00831   0.00000   0.04282   0.04179   1.95242
    A2        1.91063   0.01054   0.00000   0.05507   0.05387   1.96450
    A3        1.91063   0.00755   0.00000   0.03854   0.03760   1.94823
    A4        1.91063  -0.00906   0.00000  -0.04584  -0.04701   1.86362
    A5        1.91063  -0.00839   0.00000  -0.04454  -0.04524   1.86539
    A6        1.91063  -0.00896   0.00000  -0.04605  -0.04707   1.86356
    A7        2.09658  -0.00256   0.00000  -0.00892  -0.00896   2.08762
    A8        2.09672  -0.00310   0.00000  -0.01085  -0.01089   2.08583
    A9        2.08987   0.00566   0.00000   0.01982   0.01986   2.10973
   A10        2.09562  -0.00274   0.00000  -0.01073  -0.01071   2.08491
   A11        2.09524   0.00202   0.00000   0.00872   0.00871   2.10395
   A12        2.09233   0.00072   0.00000   0.00201   0.00199   2.09432
   A13        2.09458  -0.00032   0.00000  -0.00061  -0.00064   2.09394
   A14        2.09522  -0.00126   0.00000  -0.00706  -0.00704   2.08818
   A15        2.09338   0.00159   0.00000   0.00766   0.00768   2.10106
   A16        2.09584   0.00055   0.00000   0.00316   0.00310   2.09895
   A17        2.09368  -0.00030   0.00000  -0.00169  -0.00166   2.09202
   A18        2.09366  -0.00025   0.00000  -0.00147  -0.00144   2.09222
   A19        2.09454  -0.00009   0.00000   0.00036   0.00033   2.09487
   A20        2.09344   0.00150   0.00000   0.00732   0.00733   2.10077
   A21        2.09521  -0.00141   0.00000  -0.00768  -0.00767   2.08754
   A22        2.09570  -0.00304   0.00000  -0.01185  -0.01183   2.08388
   A23        2.09518   0.00223   0.00000   0.00957   0.00956   2.10474
   A24        2.09231   0.00082   0.00000   0.00228   0.00227   2.09457
    D1        2.49703  -0.00006   0.00000   0.00206   0.00183   2.49885
    D2       -0.63879  -0.00062   0.00000  -0.00793  -0.00806  -0.64685
    D3       -1.69176   0.00039   0.00000   0.00586   0.00587  -1.68589
    D4        1.45560  -0.00017   0.00000  -0.00412  -0.00401   1.45159
    D5        0.40263   0.00050   0.00000   0.00679   0.00685   0.40949
    D6       -2.73319  -0.00006   0.00000  -0.00320  -0.00303  -2.73621
    D7        3.14088  -0.00064   0.00000  -0.01198  -0.01202   3.12886
    D8       -0.00071  -0.00056   0.00000  -0.01049  -0.01054  -0.01124
    D9       -0.00646  -0.00011   0.00000  -0.00213  -0.00211  -0.00857
   D10        3.13513  -0.00004   0.00000  -0.00064  -0.00062   3.13451
   D11       -3.14088   0.00064   0.00000   0.01204   0.01207  -3.12881
   D12        0.00071   0.00056   0.00000   0.01049   0.01053   0.01124
   D13        0.00646   0.00011   0.00000   0.00218   0.00216   0.00862
   D14       -3.13513   0.00003   0.00000   0.00064   0.00062  -3.13451
   D15       -0.00736   0.00028   0.00000   0.00540   0.00537  -0.00199
   D16        3.13427   0.00005   0.00000   0.00104   0.00103   3.13530
   D17        3.13423   0.00020   0.00000   0.00391   0.00389   3.13812
   D18       -0.00732  -0.00003   0.00000  -0.00045  -0.00045  -0.00777
   D19        0.02124  -0.00048   0.00000  -0.00879  -0.00880   0.01243
   D20       -3.12028  -0.00058   0.00000  -0.01073  -0.01073  -3.13101
   D21       -3.12040  -0.00025   0.00000  -0.00442  -0.00443  -3.12483
   D22        0.02127  -0.00034   0.00000  -0.00637  -0.00636   0.01491
   D23       -0.02123   0.00048   0.00000   0.00883   0.00885  -0.01238
   D24        3.12039   0.00024   0.00000   0.00439   0.00440   3.12479
   D25        3.12028   0.00058   0.00000   0.01077   0.01078   3.13106
   D26       -0.02128   0.00034   0.00000   0.00633   0.00633  -0.01495
   D27        0.00736  -0.00029   0.00000  -0.00551  -0.00547   0.00189
   D28       -3.13423  -0.00021   0.00000  -0.00396  -0.00394  -3.13818
   D29       -3.13427  -0.00005   0.00000  -0.00106  -0.00105  -3.13532
   D30        0.00733   0.00003   0.00000   0.00048   0.00048   0.00781
         Item               Value     Threshold  Converged?
 Maximum Force            0.116620     0.000450     NO 
 RMS     Force            0.016121     0.000300     NO 
 Maximum Displacement     0.155074     0.001800     NO 
 RMS     Displacement     0.046106     0.001200     NO 
 Predicted change in Energy=-1.795595D-02
 Lowest energy point so far.  Saving SCF results.
 GradGradGradGradGradGradGradGradGradGradGradGradGradGradGradGradGradGrad

 Leave Link  103 at Mon Oct 14 10:55:06 2019, MaxMem= 10737418240 cpu:               1.5 elap:               0.1
 (Enter /apps/cent7/gaussian/g16-A.03/g16-haswell/g16/l202.exe)
                          Input orientation:                          
 ---------------------------------------------------------------------
 Center     Atomic      Atomic             Coordinates (Angstroms)
 Number     Number       Type             X           Y           Z
 ---------------------------------------------------------------------
      1          7           0       -0.687404   -1.192297    0.215321
      2          6           0        0.035614    0.062048    0.114870
      3          6           0       -0.668782    1.258768    0.069889
      4          6           0        0.025866    2.456410   -0.010766
      5          6           0        1.415321    2.452390   -0.043534
      6          6           0        2.113645    1.250168   -0.010658
      7          6           0        1.424881    0.049851    0.069894
      8          1           0       -0.238661   -1.936234   -0.328703
      9          1           0       -0.755035   -1.531709    1.182256
     10          1           0       -1.755605    1.261676    0.098809
     11          1           0       -0.520005    3.390217   -0.051889
     12          1           0        1.956129    3.389026   -0.096603
     13          1           0        3.195281    1.244355   -0.051769
     14          1           0        1.971133   -0.889591    0.098786
     15          1           0       -1.646313   -1.104549   -0.135044
 ---------------------------------------------------------------------
                    Distance matrix (angstroms):
                    1          2          3          4          5
     1  N    0.000000
     2  C    1.451285   0.000000
     3  C    2.455446   1.389365   0.000000
     4  C    3.724639   2.397676   1.386863   0.000000
     5  C    4.215710   2.764492   2.404389   1.389848   0.000000
     6  C    3.723249   2.396998   2.783606   2.411192   1.390711
     7  C    2.454756   1.390048   2.417624   2.784830   2.405234
     8  H    1.025073   2.065215   3.248371   4.412072   4.698616
     9  H    1.027004   2.074729   3.005255   4.235351   4.699580
    10  H    2.678920   2.155882   1.087211   2.147798   3.390108
    11  H    4.593350   3.378347   2.140103   1.082433   2.150599
    12  H    5.298499   3.847321   3.384654   2.145473   1.082856
    13  H    4.591716   3.377738   3.866004   3.393516   2.151203
    14  H    2.678252   2.156875   3.403738   3.871924   3.390873
    15  H    1.024676   2.062107   2.565702   3.935995   4.694017
                    6          7          8          9         10
     6  C    0.000000
     7  C    1.386235   0.000000
     8  H    3.973368   2.621217   0.000000
     9  H    4.170277   2.913883   1.647203   0.000000
    10  H    3.870815   3.403651   3.565180   3.158796   0.000000
    11  H    3.393763   3.867229   5.341054   5.079735   2.465787
    12  H    2.146372   3.385268   5.764492   5.761903   4.282613
    13  H    1.082432   2.139149   4.688794   4.983407   4.953205
    14  H    2.147291   1.087096   2.482216   3.003034   4.303083
    15  H    4.438181   3.287380   1.646417   1.646851   2.380263
                   11         12         13         14         15
    11  H    0.000000
    12  H    2.476538   0.000000
    13  H    4.290463   2.477322   0.000000
    14  H    4.954315   4.283103   2.464738   0.000000
    15  H    4.634480   5.759452   5.381943   3.631363   0.000000
 Stoichiometry    C6H8N(1+)
 Framework group  C1[X(C6H8N)]
 Deg. of freedom    39
 Full point group                 C1      NOp   1
 RotChk:  IX=0 Diff= 7.92D-04
 Largest Abelian subgroup         C1      NOp   1
 Largest concise Abelian subgroup C1      NOp   1
                         Standard orientation:                         
 ---------------------------------------------------------------------
 Center     Atomic      Atomic             Coordinates (Angstroms)
 Number     Number       Type             X           Y           Z
 ---------------------------------------------------------------------
      1          7           0       -2.301604    0.000459    0.006945
      2          6           0       -0.850358    0.000685   -0.003686
      3          6           0       -0.164033    1.208694   -0.006217
      4          6           0        1.222816    1.205174   -0.001008
      5          6           0        1.914105   -0.000519    0.009070
      6          6           0        1.220744   -1.206017   -0.000964
      7          6           0       -0.165478   -1.208929   -0.006237
      8          1           0       -2.687433   -0.759918   -0.562034
      9          1           0       -2.688649   -0.110472    0.951735
     10          1           0       -0.705162    2.151660   -0.010830
     11          1           0        1.760613    2.144521   -0.008878
     12          1           0        2.996870   -0.001147    0.023057
     13          1           0        1.757531   -2.145941   -0.008835
     14          1           0       -0.707200   -2.151422   -0.010864
     15          1           0       -2.682124    0.874983   -0.367718
 ---------------------------------------------------------------------
 Rotational constants (GHZ):           5.5355888           2.4933811           1.7352538
 Leave Link  202 at Mon Oct 14 10:55:06 2019, MaxMem= 10737418240 cpu:               0.3 elap:               0.0
 (Enter /apps/cent7/gaussian/g16-A.03/g16-haswell/g16/l301.exe)
 Standard basis: 6-311++G(d,p) (5D, 7F)
 Ernie: Thresh=  0.10000D-02 Tol=  0.10000D-05 Strict=F.
 There are   217 symmetry adapted cartesian basis functions of A   symmetry.
 There are   210 symmetry adapted basis functions of A   symmetry.
   210 basis functions,   324 primitive gaussians,   217 cartesian basis functions
    25 alpha electrons       25 beta electrons
       nuclear repulsion energy       282.0659407399 Hartrees.
 IExCor= 4336 DFT=T Ex+Corr=M062X ExCW=0 ScaHFX=  0.540000
 ScaDFX=  1.000000  1.000000  1.000000  1.000000 ScalE2=  1.000000  1.000000
 IRadAn=      5 IRanWt=     -1 IRanGd=            0 ICorTp=0 IEmpDi=  4
 NAtoms=   15 NActive=   15 NUniq=   15 SFac= 1.00D+00 NAtFMM=   60 NAOKFM=F Big=F
 Integral buffers will be    131072 words long.
 Raffenetti 2 integral format.
 Two-electron integral symmetry is turned on.
 Leave Link  301 at Mon Oct 14 10:55:06 2019, MaxMem= 10737418240 cpu:               1.2 elap:               0.1
 (Enter /apps/cent7/gaussian/g16-A.03/g16-haswell/g16/l302.exe)
 NPDir=0 NMtPBC=     1 NCelOv=     1 NCel=       1 NClECP=     1 NCelD=      1
         NCelK=      1 NCelE2=     1 NClLst=     1 CellRange=     0.0.
 One-electron integrals computed using PRISM.
 One-electron integral symmetry used in STVInt
 NBasis=   210 RedAO= T EigKep=  4.34D-06  NBF=   210
 NBsUse=   209 1.00D-06 EigRej=  8.98D-07 NBFU=   209
 Precomputing XC quadrature grid using
 IXCGrd= 4 IRadAn=           5 IRanWt=          -1 IRanGd=           0 AccXCQ= 0.00D+00.
 Generated NRdTot=       0 NPtTot=           0 NUsed=           0 NTot=          32
 NSgBfM=   217   217   217   217   217 MxSgAt=    15 MxSgA2=    15.
 Leave Link  302 at Mon Oct 14 10:55:06 2019, MaxMem= 10737418240 cpu:               3.3 elap:               0.2
 (Enter /apps/cent7/gaussian/g16-A.03/g16-haswell/g16/l303.exe)
 DipDrv:  MaxL=1.
 Leave Link  303 at Mon Oct 14 10:55:07 2019, MaxMem= 10737418240 cpu:               1.3 elap:               0.1
 (Enter /apps/cent7/gaussian/g16-A.03/g16-haswell/g16/l401.exe)
 Initial guess from the checkpoint file:  "19_p.chk"
 B after Tr=     0.000000    0.000000    0.000000
         Rot=    1.000000   -0.000000    0.000096    0.000243 Ang=  -0.03 deg.
 Guess basis will be translated and rotated to current coordinates.
 JPrj=2 DoOrth=T DoCkMO=T.
 Generating alternative initial guess.
 ExpMin= 3.60D-02 ExpMax= 6.29D+03 ExpMxC= 9.49D+02 IAcc=3 IRadAn=         5 AccDes= 0.00D+00
 Harris functional with IExCor= 1009 and IRadAn=       5 diagonalized for initial guess.
 HarFok:  IExCor= 1009 AccDes= 0.00D+00 IRadAn=         5 IDoV= 1 UseB2=F ITyADJ=14
 ICtDFT=  3500011 ScaDFX=  1.000000  1.000000  1.000000  1.000000
 FoFCou: FMM=F IPFlag=           0 FMFlag=      100000 FMFlg1=           0
         NFxFlg=           0 DoJE=T BraDBF=F KetDBF=T FulRan=T
         wScrn=  0.000000 ICntrl=       500 IOpCl=  0 I1Cent=   200000004 NGrid=           0
         NMat0=    1 NMatS0=      1 NMatT0=    0 NMatD0=    1 NMtDS0=    0 NMtDT0=    0
 Petite list used in FoFCou.
 Harris En= -287.828342699426    
 Leave Link  401 at Mon Oct 14 10:55:07 2019, MaxMem= 10737418240 cpu:               9.3 elap:               0.4
 (Enter /apps/cent7/gaussian/g16-A.03/g16-haswell/g16/l502.exe)
 Integral symmetry usage will be decided dynamically.
 Closed shell SCF:
 Using DIIS extrapolation, IDIIS=  1040.
 NGot= 10737418240 LenX= 10737316623 LenY= 10737269093
 Requested convergence on RMS density matrix=1.00D-08 within 128 cycles.
 Requested convergence on MAX density matrix=1.00D-06.
 Requested convergence on             energy=1.00D-06.
 No special actions if energy rises.
 Fock matrices will be formed incrementally for  20 cycles.

 Cycle   1  Pass 1  IDiag  1:
 FoFJK:  IHMeth= 1 ICntrl=       0 DoSepK=F KAlg= 0 I1Cent=           0 FoldK=F
 IRaf= 980000000 NMat=       1 IRICut=       1 DoRegI=T DoRafI=F ISym2E= 0 IDoP0=0 IntGTp=1.
 FoFCou: FMM=F IPFlag=           0 FMFlag=      100000 FMFlg1=           0
         NFxFlg=           0 DoJE=F BraDBF=F KetDBF=F FulRan=T
         wScrn=  0.000000 ICntrl=         0 IOpCl=  0 I1Cent=           0 NGrid=           0
         NMat0=    1 NMatS0=      1 NMatT0=    0 NMatD0=    1 NMtDS0=    0 NMtDT0=    0
 Symmetry not used in FoFCou.
 E= -287.890502631713    
 DIIS: error= 5.31D-03 at cycle   1 NSaved=   1.
 NSaved= 1 IEnMin= 1 EnMin= -287.890502631713     IErMin= 1 ErrMin= 5.31D-03
 ErrMax= 5.31D-03  0.00D+00 EMaxC= 1.00D-01 BMatC= 5.66D-03 BMatP= 5.66D-03
 IDIUse=3 WtCom= 9.47D-01 WtEn= 5.31D-02
 Coeff-Com:  0.100D+01
 Coeff-En:   0.100D+01
 Coeff:      0.100D+01
 Gap=     0.441 Goal=   None    Shift=    0.000
 GapD=    0.441 DampG=2.000 DampE=1.000 DampFc=2.0000 IDamp=-1.
 RMSDP=1.72D-03 MaxDP=5.41D-02              OVMax= 2.14D-02

 Cycle   2  Pass 1  IDiag  1:
 RMSU=  1.69D-03    CP:  9.85D-01
 E= -287.895181278389     Delta-E=       -0.004678646676 Rises=F Damp=F
 DIIS: error= 2.99D-03 at cycle   2 NSaved=   2.
 NSaved= 2 IEnMin= 2 EnMin= -287.895181278389     IErMin= 2 ErrMin= 2.99D-03
 ErrMax= 2.99D-03  0.00D+00 EMaxC= 1.00D-01 BMatC= 1.16D-03 BMatP= 5.66D-03
 IDIUse=3 WtCom= 9.70D-01 WtEn= 2.99D-02
 Coeff-Com:  0.225D+00 0.775D+00
 Coeff-En:   0.000D+00 0.100D+01
 Coeff:      0.219D+00 0.781D+00
 Gap=     0.298 Goal=   None    Shift=    0.000
 RMSDP=5.17D-04 MaxDP=3.61D-02 DE=-4.68D-03 OVMax= 1.41D-02

 Cycle   3  Pass 1  IDiag  1:
 RMSU=  3.79D-04    CP:  1.00D+00  1.01D+00
 E= -287.895729104663     Delta-E=       -0.000547826274 Rises=F Damp=F
 DIIS: error= 1.73D-03 at cycle   3 NSaved=   3.
 NSaved= 3 IEnMin= 3 EnMin= -287.895729104663     IErMin= 3 ErrMin= 1.73D-03
 ErrMax= 1.73D-03  0.00D+00 EMaxC= 1.00D-01 BMatC= 5.14D-04 BMatP= 1.16D-03
 IDIUse=3 WtCom= 9.83D-01 WtEn= 1.73D-02
 Coeff-Com: -0.380D-01 0.393D+00 0.645D+00
 Coeff-En:   0.000D+00 0.305D+00 0.695D+00
 Coeff:     -0.373D-01 0.391D+00 0.646D+00
 Gap=     0.302 Goal=   None    Shift=    0.000
 RMSDP=3.29D-04 MaxDP=2.06D-02 DE=-5.48D-04 OVMax= 7.53D-03

 Cycle   4  Pass 1  IDiag  1:
 RMSU=  1.12D-04    CP:  9.91D-01  1.07D+00  4.65D-01
 E= -287.896183729005     Delta-E=       -0.000454624341 Rises=F Damp=F
 DIIS: error= 4.67D-04 at cycle   4 NSaved=   4.
 NSaved= 4 IEnMin= 4 EnMin= -287.896183729005     IErMin= 4 ErrMin= 4.67D-04
 ErrMax= 4.67D-04  0.00D+00 EMaxC= 1.00D-01 BMatC= 1.21D-05 BMatP= 5.14D-04
 IDIUse=3 WtCom= 9.95D-01 WtEn= 4.67D-03
 Coeff-Com: -0.193D-01 0.133D+00 0.263D+00 0.624D+00
 Coeff-En:   0.000D+00 0.000D+00 0.000D+00 0.100D+01
 Coeff:     -0.193D-01 0.132D+00 0.261D+00 0.626D+00
 Gap=     0.302 Goal=   None    Shift=    0.000
 RMSDP=3.29D-05 MaxDP=1.13D-03 DE=-4.55D-04 OVMax= 1.81D-03

 Cycle   5  Pass 1  IDiag  1:
 RMSU=  3.03D-05    CP:  9.90D-01  1.07D+00  4.75D-01  1.02D+00
 E= -287.896194979380     Delta-E=       -0.000011250376 Rises=F Damp=F
 DIIS: error= 2.10D-04 at cycle   5 NSaved=   5.
 NSaved= 5 IEnMin= 5 EnMin= -287.896194979380     IErMin= 5 ErrMin= 2.10D-04
 ErrMax= 2.10D-04  0.00D+00 EMaxC= 1.00D-01 BMatC= 1.91D-06 BMatP= 1.21D-05
 IDIUse=3 WtCom= 9.98D-01 WtEn= 2.10D-03
 Coeff-Com: -0.305D-02-0.175D-02 0.218D-01 0.297D+00 0.686D+00
 Coeff-En:   0.000D+00 0.000D+00 0.000D+00 0.672D-01 0.933D+00
 Coeff:     -0.304D-02-0.175D-02 0.218D-01 0.297D+00 0.686D+00
 Gap=     0.302 Goal=   None    Shift=    0.000
 RMSDP=1.50D-05 MaxDP=4.95D-04 DE=-1.13D-05 OVMax= 6.29D-04

 Cycle   6  Pass 1  IDiag  1:
 RMSU=  8.17D-06    CP:  9.90D-01  1.07D+00  4.64D-01  1.10D+00  8.13D-01
 E= -287.896196979485     Delta-E=       -0.000002000105 Rises=F Damp=F
 DIIS: error= 1.48D-05 at cycle   6 NSaved=   6.
 NSaved= 6 IEnMin= 6 EnMin= -287.896196979485     IErMin= 6 ErrMin= 1.48D-05
 ErrMax= 1.48D-05  0.00D+00 EMaxC= 1.00D-01 BMatC= 3.67D-08 BMatP= 1.91D-06
 IDIUse=1 WtCom= 1.00D+00 WtEn= 0.00D+00
 Coeff-Com:  0.337D-03-0.775D-02-0.104D-01 0.235D-01 0.148D+00 0.846D+00
 Coeff:      0.337D-03-0.775D-02-0.104D-01 0.235D-01 0.148D+00 0.846D+00
 Gap=     0.302 Goal=   None    Shift=    0.000
 RMSDP=4.37D-06 MaxDP=1.88D-04 DE=-2.00D-06 OVMax= 8.80D-05

 Cycle   7  Pass 1  IDiag  1:
 RMSU=  2.89D-06    CP:  9.90D-01  1.07D+00  4.62D-01  1.12D+00  8.61D-01
                    CP:  1.09D+00
 E= -287.896197017393     Delta-E=       -0.000000037908 Rises=F Damp=F
 DIIS: error= 7.60D-06 at cycle   7 NSaved=   7.
 NSaved= 7 IEnMin= 7 EnMin= -287.896197017393     IErMin= 7 ErrMin= 7.60D-06
 ErrMax= 7.60D-06  0.00D+00 EMaxC= 1.00D-01 BMatC= 8.31D-09 BMatP= 3.67D-08
 IDIUse=1 WtCom= 1.00D+00 WtEn= 0.00D+00
 Coeff-Com:  0.329D-03-0.310D-02-0.600D-02-0.104D-01 0.215D-01 0.387D+00
 Coeff-Com:  0.610D+00
 Coeff:      0.329D-03-0.310D-02-0.600D-02-0.104D-01 0.215D-01 0.387D+00
 Coeff:      0.610D+00
 Gap=     0.302 Goal=   None    Shift=    0.000
 RMSDP=9.29D-07 MaxDP=2.40D-05 DE=-3.79D-08 OVMax= 2.61D-05

 Cycle   8  Pass 1  IDiag  1:
 RMSU=  6.87D-07    CP:  9.90D-01  1.07D+00  4.62D-01  1.12D+00  8.66D-01
                    CP:  1.12D+00  9.65D-01
 E= -287.896197025429     Delta-E=       -0.000000008036 Rises=F Damp=F
 DIIS: error= 1.09D-06 at cycle   8 NSaved=   8.
 NSaved= 8 IEnMin= 8 EnMin= -287.896197025429     IErMin= 8 ErrMin= 1.09D-06
 ErrMax= 1.09D-06  0.00D+00 EMaxC= 1.00D-01 BMatC= 2.00D-10 BMatP= 8.31D-09
 IDIUse=1 WtCom= 1.00D+00 WtEn= 0.00D+00
 Coeff-Com: -0.686D-05 0.550D-03 0.370D-03-0.494D-02-0.113D-01-0.299D-01
 Coeff-Com:  0.750D-01 0.970D+00
 Coeff:     -0.686D-05 0.550D-03 0.370D-03-0.494D-02-0.113D-01-0.299D-01
 Coeff:      0.750D-01 0.970D+00
 Gap=     0.302 Goal=   None    Shift=    0.000
 RMSDP=3.80D-07 MaxDP=1.91D-05 DE=-8.04D-09 OVMax= 9.02D-06

 Cycle   9  Pass 1  IDiag  1:
 RMSU=  1.34D-07    CP:  9.90D-01  1.07D+00  4.61D-01  1.12D+00  8.70D-01
                    CP:  1.13D+00  1.02D+00  1.11D+00
 E= -287.896197025742     Delta-E=       -0.000000000313 Rises=F Damp=F
 DIIS: error= 2.76D-07 at cycle   9 NSaved=   9.
 NSaved= 9 IEnMin= 9 EnMin= -287.896197025742     IErMin= 9 ErrMin= 2.76D-07
 ErrMax= 2.76D-07  0.00D+00 EMaxC= 1.00D-01 BMatC= 1.93D-11 BMatP= 2.00D-10
 IDIUse=1 WtCom= 1.00D+00 WtEn= 0.00D+00
 Coeff-Com: -0.147D-04 0.292D-03 0.367D-03-0.119D-02-0.409D-02-0.284D-01
 Coeff-Com: -0.730D-02 0.274D+00 0.766D+00
 Coeff:     -0.147D-04 0.292D-03 0.367D-03-0.119D-02-0.409D-02-0.284D-01
 Coeff:     -0.730D-02 0.274D+00 0.766D+00
 Gap=     0.302 Goal=   None    Shift=    0.000
 RMSDP=6.73D-08 MaxDP=1.61D-06 DE=-3.13D-10 OVMax= 1.63D-06

 Cycle  10  Pass 1  IDiag  1:
 RMSU=  3.97D-08    CP:  9.90D-01  1.07D+00  4.61D-01  1.12D+00  8.70D-01
                    CP:  1.13D+00  1.03D+00  1.13D+00  1.08D+00
 E= -287.896197025766     Delta-E=       -0.000000000024 Rises=F Damp=F
 DIIS: error= 1.42D-07 at cycle  10 NSaved=  10.
 NSaved=10 IEnMin=10 EnMin= -287.896197025766     IErMin=10 ErrMin= 1.42D-07
 ErrMax= 1.42D-07  0.00D+00 EMaxC= 1.00D-01 BMatC= 1.42D-12 BMatP= 1.93D-11
 IDIUse=1 WtCom= 1.00D+00 WtEn= 0.00D+00
 Coeff-Com: -0.244D-05 0.834D-05 0.445D-04 0.253D-03 0.485D-03-0.339D-02
 Coeff-Com: -0.812D-02-0.329D-01 0.169D+00 0.875D+00
 Coeff:     -0.244D-05 0.834D-05 0.445D-04 0.253D-03 0.485D-03-0.339D-02
 Coeff:     -0.812D-02-0.329D-01 0.169D+00 0.875D+00
 Gap=     0.302 Goal=   None    Shift=    0.000
 RMSDP=3.43D-08 MaxDP=2.04D-06 DE=-2.35D-11 OVMax= 1.17D-06

 Cycle  11  Pass 1  IDiag  1:
 RMSU=  1.47D-08    CP:  9.90D-01  1.07D+00  4.61D-01  1.12D+00  8.70D-01
                    CP:  1.13D+00  1.04D+00  1.14D+00  1.15D+00  1.19D+00
 E= -287.896197025766     Delta-E=       -0.000000000000 Rises=F Damp=F
 DIIS: error= 3.68D-08 at cycle  11 NSaved=  11.
 NSaved=11 IEnMin=11 EnMin= -287.896197025766     IErMin=11 ErrMin= 3.68D-08
 ErrMax= 3.68D-08  0.00D+00 EMaxC= 1.00D-01 BMatC= 3.04D-13 BMatP= 1.42D-12
 IDIUse=1 WtCom= 1.00D+00 WtEn= 0.00D+00
 Coeff-Com:  0.745D-06-0.286D-04-0.265D-04 0.238D-03 0.593D-03 0.175D-02
 Coeff-Com: -0.208D-02-0.425D-01-0.546D-01 0.267D+00 0.830D+00
 Coeff:      0.745D-06-0.286D-04-0.265D-04 0.238D-03 0.593D-03 0.175D-02
 Coeff:     -0.208D-02-0.425D-01-0.546D-01 0.267D+00 0.830D+00
 Gap=     0.302 Goal=   None    Shift=    0.000
 RMSDP=7.05D-09 MaxDP=2.70D-07 DE=-4.55D-13 OVMax= 2.43D-07

 SCF Done:  E(RM062X) =  -287.896197026     A.U. after   11 cycles
            NFock= 11  Conv=0.70D-08     -V/T= 2.0039
 KE= 2.867669698751D+02 PE=-1.222663019209D+03 EE= 3.659339115680D+02
 Leave Link  502 at Mon Oct 14 10:55:13 2019, MaxMem= 10737418240 cpu:             149.3 elap:               6.3
 (Enter /apps/cent7/gaussian/g16-A.03/g16-haswell/g16/l701.exe)
 ... and contract with generalized density number  0.
 Compute integral first derivatives.
 Leave Link  701 at Mon Oct 14 10:55:13 2019, MaxMem= 10737418240 cpu:               3.3 elap:               0.2
 (Enter /apps/cent7/gaussian/g16-A.03/g16-haswell/g16/l702.exe)
 L702 exits ... SP integral derivatives will be done elsewhere.
 Leave Link  702 at Mon Oct 14 10:55:13 2019, MaxMem= 10737418240 cpu:               0.4 elap:               0.0
 (Enter /apps/cent7/gaussian/g16-A.03/g16-haswell/g16/l703.exe)
 Integral derivatives from FoFJK, PRISM(SPDF).
 Compute integral first derivatives, UseDBF=F ICtDFT=           0.
 Calling FoFJK, ICntrl=      2127 FMM=F ISym2X=0 I1Cent= 0 IOpClX= 0 NMat=1 NMatS=1 NMatT=0.
 FoFJK:  IHMeth= 1 ICntrl=    2127 DoSepK=F KAlg= 0 I1Cent=           0 FoldK=F
 IRaf=         0 NMat=       1 IRICut=       1 DoRegI=T DoRafI=F ISym2E= 0 IDoP0=0 IntGTp=1.
 FoFCou: FMM=F IPFlag=           0 FMFlag=      100000 FMFlg1=         800
         NFxFlg=           0 DoJE=F BraDBF=F KetDBF=F FulRan=T
         wScrn=  0.000000 ICntrl=      2127 IOpCl=  0 I1Cent=           0 NGrid=           0
         NMat0=    1 NMatS0=      1 NMatT0=    0 NMatD0=    1 NMtDS0=    0 NMtDT0=    0
 Symmetry not used in FoFCou.
 Leave Link  703 at Mon Oct 14 10:55:15 2019, MaxMem= 10737418240 cpu:              29.9 elap:               1.3
 (Enter /apps/cent7/gaussian/g16-A.03/g16-haswell/g16/l716.exe)
 Dipole        =-2.84705025D+00-2.73048701D-03 1.54609588D-02
 ***** Axes restored to original set *****
 -------------------------------------------------------------------
 Center     Atomic                   Forces (Hartrees/Bohr)
 Number     Number              X              Y              Z
 -------------------------------------------------------------------
      1        7          -0.009716829   -0.017430205    0.002606397
      2        6           0.016365031    0.028554273   -0.003176168
      3        6          -0.008050920   -0.007157803    0.000784530
      4        6           0.001991209    0.001095297    0.000156432
      5        6           0.000411719    0.000799053   -0.000106449
      6        6          -0.000031210    0.002128890    0.000164796
      7        6          -0.001974674   -0.010301608    0.000765156
      8        1           0.001005693    0.000031628   -0.001175218
      9        1           0.000496236    0.000809224    0.001085487
     10        1           0.000712553    0.000427749   -0.000191830
     11        1          -0.000292440   -0.000319917    0.000342822
     12        1          -0.000018926   -0.000087263   -0.000562099
     13        1          -0.000110821   -0.000355777    0.000341297
     14        1          -0.000043712    0.000779282   -0.000190116
     15        1          -0.000742908    0.001027178   -0.000845037
 -------------------------------------------------------------------
 Cartesian Forces:  Max     0.028554273 RMS     0.006227477
 Leave Link  716 at Mon Oct 14 10:55:15 2019, MaxMem= 10737418240 cpu:               0.4 elap:               0.0
 (Enter /apps/cent7/gaussian/g16-A.03/g16-haswell/g16/l103.exe)

 GradGradGradGradGradGradGradGradGradGradGradGradGradGradGradGradGradGrad
 Berny optimization.
 Using GEDIIS/GDIIS optimizer.
 FormGI is forming the generalized inverse of G from B-inverse, IUseBI=4.
 Internal  Forces:  Max     0.018028790 RMS     0.002707613
 Search for a local minimum.
 Step number   2 out of a maximum of   79
 All quantities printed in internal units (Hartrees-Bohrs-Radians)
 RMS Force = .27076D-02 SwitMx=.10000D-02 MixMth= 1
 Mixed Optimization -- RFO/linear search
 Update second derivatives using D2CorX and points    1    2
 DE= -1.77D-02 DEPred=-1.80D-02 R= 9.84D-01
 TightC=F SS=  1.41D+00  RLast= 2.64D-01 DXNew= 5.0454D-01 7.9322D-01
 Trust test= 9.84D-01 RLast= 2.64D-01 DXMaxT set to 5.05D-01
 ITU=  1  0
 Use linear search instead of GDIIS.
     Eigenvalues ---    0.01957   0.01967   0.01969   0.01982   0.01993
     Eigenvalues ---    0.01995   0.02000   0.02005   0.02129   0.02395
     Eigenvalues ---    0.07950   0.08039   0.15987   0.16000   0.16000
     Eigenvalues ---    0.16000   0.16000   0.16000   0.16000   0.16742
     Eigenvalues ---    0.21983   0.22000   0.22749   0.25000   0.34800
     Eigenvalues ---    0.34806   0.34811   0.34818   0.34857   0.39919
     Eigenvalues ---    0.40356   0.44016   0.44135   0.44541   0.45278
     Eigenvalues ---    0.47683   0.47688   0.48825   0.50826
 RFO step:  Lambda=-1.14679193D-03 EMin= 1.95689165D-02
 Quartic linear search produced a step of  0.16877.
 Iteration  1 RMS(Cart)=  0.00931003 RMS(Int)=  0.00016151
 Iteration  2 RMS(Cart)=  0.00020605 RMS(Int)=  0.00009362
 Iteration  3 RMS(Cart)=  0.00000002 RMS(Int)=  0.00009362
 ITry= 1 IFail=0 DXMaxC= 3.73D-02 DCOld= 1.00D+10 DXMaxT= 5.05D-01 DXLimC= 3.00D+00 Rises=F
 Variable       Old X    -DE/DX   Delta X   Delta X   Delta X     New X
                                 (Linear)    (Quad)   (Total)
    R1        2.74253   0.01803   0.03332   0.01484   0.04817   2.79070
    R2        1.93711   0.00104   0.00800  -0.00279   0.00520   1.94231
    R3        1.94076   0.00072   0.00861  -0.00398   0.00463   1.94538
    R4        1.93636   0.00107   0.00787  -0.00263   0.00524   1.94160
    R5        2.62552  -0.00325  -0.00671  -0.00448  -0.01112   2.61440
    R6        2.62681  -0.00310  -0.00647  -0.00424  -0.01063   2.61618
    R7        2.62079   0.00193  -0.00672   0.00950   0.00278   2.62357
    R8        2.05453  -0.00072  -0.00087  -0.00186  -0.00273   2.05180
    R9        2.62643   0.00138  -0.00526   0.00732   0.00198   2.62841
   R10        2.04550  -0.00014  -0.00243   0.00102  -0.00141   2.04410
   R11        2.62806   0.00138  -0.00498   0.00713   0.00207   2.63014
   R12        2.04630  -0.00006  -0.00230   0.00122  -0.00107   2.04523
   R13        2.61960   0.00185  -0.00692   0.00941   0.00249   2.62209
   R14        2.04550  -0.00012  -0.00241   0.00108  -0.00133   2.04417
   R15        2.05431  -0.00070  -0.00091  -0.00178  -0.00269   2.05162
    A1        1.95242  -0.00094   0.00705  -0.00972  -0.00283   1.94959
    A2        1.96450  -0.00108   0.00909  -0.01062  -0.00172   1.96278
    A3        1.94823  -0.00095   0.00634  -0.00995  -0.00375   1.94447
    A4        1.86362   0.00128  -0.00793   0.01359   0.00547   1.86909
    A5        1.86539   0.00080  -0.00764   0.00745  -0.00031   1.86508
    A6        1.86356   0.00116  -0.00794   0.01192   0.00381   1.86738
    A7        2.08762  -0.00383  -0.00151  -0.01697  -0.01859   2.06903
    A8        2.08583  -0.00377  -0.00184  -0.01652  -0.01847   2.06737
    A9        2.10973   0.00761   0.00335   0.03344   0.03687   2.14659
   A10        2.08491  -0.00411  -0.00181  -0.02047  -0.02222   2.06269
   A11        2.10395   0.00251   0.00147   0.01328   0.01472   2.11867
   A12        2.09432   0.00161   0.00034   0.00719   0.00750   2.10182
   A13        2.09394   0.00013  -0.00011   0.00209   0.00188   2.09583
   A14        2.08818  -0.00050  -0.00119  -0.00375  -0.00489   2.08328
   A15        2.10106   0.00038   0.00130   0.00164   0.00298   2.10404
   A16        2.09895   0.00036   0.00052   0.00350   0.00386   2.10281
   A17        2.09202  -0.00015  -0.00028  -0.00154  -0.00174   2.09028
   A18        2.09222  -0.00021  -0.00024  -0.00197  -0.00213   2.09009
[...]
 (Enter /apps/cent7/gaussian/g16-A.03/g16-haswell/g16/l9999.exe)

 ----------------------------------------------------------------------

 Electric dipole moment (input orientation):
 (Debye = 10**-18 statcoulomb cm , SI units = C m)
                  (au)            (Debye)         (10**-30 SI)
   Tot        0.280697D+01      0.713460D+01      0.237985D+02
   x         -0.139648D+01     -0.354950D+01     -0.118399D+02
   y         -0.242739D+01     -0.616982D+01     -0.205803D+02
   z          0.191467D+00      0.486661D+00      0.162333D+01

 Dipole polarizability, Alpha (input orientation).
 (esu units = cm**3 , SI units = C**2 m**2 J**-1)
 Alpha(0;0):
               (au)            (10**-24 esu)      (10**-40 SI)
   iso        0.682815D+02      0.101183D+02      0.112581D+02
   aniso      0.408354D+02      0.605119D+01      0.673285D+01
   xx         0.796311D+02      0.118001D+02      0.131294D+02
   yx         0.328940D+01      0.487439D+00      0.542349D+00
   yy         0.835987D+02      0.123880D+02      0.137836D+02
   zx        -0.138967D+01     -0.205928D+00     -0.229126D+00
   zy        -0.241368D+01     -0.357670D+00     -0.397961D+00
   zz         0.416149D+02      0.616669D+01      0.686137D+01

 ----------------------------------------------------------------------

 Dipole orientation:
     7          0.11147720          0.19712816          2.64461009
     6          0.10597565          0.18516797         -0.17165075
     6         -1.88061535          1.34655718         -1.41246358
     6         -1.84437985          1.36166146         -4.04108073
     6          0.14460743          0.23641729         -5.33965947
     6          2.11444449         -0.91641107         -4.03263729
     6          2.11293955         -0.95183682         -1.40549255
     1          0.81913787         -1.46274954          3.34945865
     1          1.18685044          1.64767340          3.35196405
     1         -3.42563007          2.21978605         -0.38593992
     1         -3.37678768          2.25033698         -5.06371011
     1          0.15779346          0.25198036         -7.38562951
     1          3.65528288         -1.79611034         -5.05042546
     1          3.64051160         -1.84702947         -0.37195257
     1         -1.68430310          0.40306975          3.33990071

 Electric dipole moment (dipole orientation):
 (Debye = 10**-18 statcoulomb cm , SI units = C m)
                  (au)            (Debye)         (10**-30 SI)
   Tot        0.280697D+01      0.713460D+01      0.237985D+02
   x          0.000000D+00      0.000000D+00      0.000000D+00
   y          0.000000D+00      0.000000D+00      0.000000D+00
   z          0.280697D+01      0.713460D+01      0.237985D+02

 Dipole polarizability, Alpha (dipole orientation).
 (esu units = cm**3 , SI units = C**2 m**2 J**-1)
 Alpha(0;0):
               (au)            (10**-24 esu)      (10**-40 SI)
   iso        0.682815D+02      0.101183D+02      0.112581D+02
   aniso      0.408354D+02      0.605119D+01      0.673285D+01
   xx         0.687344D+02      0.101854D+02      0.113328D+02
   yx        -0.157077D+02     -0.232765D+01     -0.258986D+01
   yy         0.504795D+02      0.748028D+01      0.832294D+01
   zx        -0.586919D-01     -0.869725D-02     -0.967699D-02
   zy        -0.224943D+00     -0.333331D-01     -0.370880D-01
   zz         0.856308D+02      0.126892D+02      0.141186D+02

 ----------------------------------------------------------------------
 1\1\GINC-BROWN-A394\Freq\RM062X\6-311++G(d,p)\C6H8N1(1+)\FINEJ\14-Oct-
 2019\0\\#P Geom=AllCheck Guess=TCheck SCRF=Check GenChk RM062X/6-311++
 G(d,p) Freq\\Title Card Required\\1,1\N,-0.6929346506,-1.2026968468,0.
 2150176309\C,0.0488111809,0.0853520323,0.1064405748\C,-0.6797234094,1.
 2608982365,0.0701187891\C,0.0238221863,2.4584777697,-0.0083118254\C,1.
 414169866,2.4502313208,-0.046480131\C,2.1166374873,1.249315926,-0.0082
 616366\C,1.4319308124,0.0417828399,0.0699598076\H,-0.237020383,-1.9395
 119742,-0.3328269003\H,-0.7511067654,-1.5253740387,1.1874594742\H,-1.7
 642325239,1.2590209511,0.1000241267\H,-0.5193756112,3.3940965279,-0.04
 19848232\H,1.9548538365,3.3861658019,-0.1097378249\H,3.1985279193,1.24
 70588663,-0.0419121347\H,1.9716791476,-0.8988324969,0.0997711594\H,-1.
 6499734028,-1.1054550059,-0.1384152765\\Version=ES64L-G16RevA.03\State
 =1-A\HF=-287.8973912\RMSD=2.213e-09\RMSF=1.962e-05\ZeroPoint=0.132072\
 Thermal=0.132072\Dipole=-1.3964825,-2.4273938,0.191467\DipoleDeriv=-0.
 2225733,-0.1323652,0.005997,-0.1590564,-0.4118532,0.0118713,0.0567728,
 0.099002,-0.0860216,0.2868416,0.1824507,-0.0263145,0.1912469,0.5118069
 ,-0.0466917,-0.0560763,-0.0957725,-0.0596815,-0.0389254,-0.0410525,-0.
 0007245,0.0513671,-0.150439,0.0043509,-0.0039793,0.0033063,-0.0943739,
 -0.055676,-0.0508611,0.0039287,-0.1011115,0.0867412,-0.0072274,0.01080
 26,-0.0043647,-0.0932926,0.0039235,0.0702203,-0.00546,0.077977,0.09883
 69,-0.0103823,-0.0032188,-0.0058936,-0.0634986,0.1171378,-0.0029604,-0
 .0082448,0.0416667,-0.0934598,0.0001614,-0.0086731,0.0088702,-0.093033
 6,-0.1252393,0.0011904,0.0042519,-0.0908321,-0.0643717,0.0012362,0.004
 9959,-0.0046173,-0.0952445,0.2093792,-0.0102646,0.0013433,-0.0149161,0
 .3149302,0.0513462,0.0022829,0.055226,0.259934,0.2119572,-0.0207004,-0
 .0167607,-0.0153952,0.2077248,-0.0435835,-0.0388997,-0.0805061,0.32255
 17,0.0086031,-0.0437807,0.0052134,-0.0432062,0.0830834,0.003028,0.0009
 792,0.0023025,0.1583484,0.0681619,0.0153469,0.001094,0.0162862,0.05794
 84,0.0040552,-0.0014993,0.0026383,0.1474582,0.0753202,-0.0213411,0.003
 0503,-0.0211343,0.050851,0.0052885,0.0022029,0.0038617,0.1455521,0.046
 4683,0.0041835,0.0029286,0.0028502,0.0792874,0.0029645,0.0030096,0.000
 0319,0.1471273,0.1017683,0.0129459,0.0000442,0.0105476,-0.0044775,0.00
 61177,0.0014774,0.0015959,0.1579589,0.3128529,0.0369881,0.0296529,0.05
 37099,0.2333908,0.0174649,0.0298232,0.0143192,0.2462157\Polar=79.63105
 58,3.2893998,83.5986543,-1.389673,-2.4136755,41.6149181\Quadrupole=1.5
 552929,10.0515212,-11.6068141,7.3305465,-0.8201263,-1.4196037\PG=C01 [
 X(C6H8N1)]\NImag=0\\0.68785133,-0.08904044,0.58279164,0.00754378,0.013
 14770,0.69663943,-0.12234037,-0.02744737,0.00457162,0.71113727,-0.0284
 4266,-0.15684516,0.00821191,-0.07870833,0.62564347,0.00509273,0.008939
 34,-0.06812900,-0.01480763,-0.02596144,0.15200252,0.00940863,-0.029208
 21,0.00090719,-0.19957971,0.15744634,-0.00385993,0.76835513,0.00848917
 ,-0.03794036,-0.00022537,0.06351198,-0.26863942,0.00915772,-0.00330669
 ,0.67674580,-0.00041035,0.00294753,-0.00018044,0.00024461,0.00634324,-
 0.05746098,-0.01722758,-0.02734374,0.13191801,-0.00013260,0.00799857,0
 .00068102,0.07558330,-0.03825503,-0.00109638,-0.18487973,-0.05291762,0
 .00647773,0.69616588,0.00258611,-0.00309951,0.00005672,0.03303326,-0.0
 6366687,0.00235550,-0.13078617,-0.28995177,0.01521858,-0.04066240,0.74
 045391,-0.00117525,0.00030192,0.00856638,-0.00345745,0.00469152,0.0031
 0547,0.00985908,0.01267640,-0.06429157,-0.01283817,-0.02913120,0.14256
 702,-0.00011675,0.00064514,0.00004195,-0.06704879,0.03664434,-0.000096
 30,-0.02231252,-0.08506246,0.00430020,-0.34627062,0.03912158,0.0058306
 6,0.69861550,0.00021562,-0.00074430,0.00030929,0.03709608,-0.02388007,
 -0.00027290,-0.03111135,0.04160226,-0.00058311,-0.03665728,-0.13575583
 ,0.00471352,0.03773181,0.73990750,-0.00017184,-0.00027714,-0.00157686,
 0.00007786,0.00013193,-0.00546095,0.00230931,0.00047302,0.00528423,0.0
 0981976,0.00260498,-0.06525072,-0.01788863,-0.03088384,0.14521472,-0.0
 0747373,-0.00084135,-0.00033292,-0.02646026,-0.02632531,0.00259795,-0.
 00034576,-0.00287283,-0.00000395,-0.02369011,0.03173485,-0.00085403,-0
 .18877901,0.12869356,-0.00262944,0.76441618,0.00525143,0.00455935,0.00
 034287,-0.09800594,0.03792636,0.00035431,0.00663339,-0.07909285,0.0028
 3926,0.08342065,0.04279310,-0.00420429,0.05291157,-0.29087171,0.009754
 01,0.00066234,0.67197007,0.00079777,-0.00098331,0.00760744,0.00581524,
 -0.00057796,0.00331241,-0.00036174,0.00376978,-0.00406546,-0.00320277,
 -0.00283537,0.00565390,0.00116309,0.00736072,-0.06527421,-0.01886169,-
 0.02571753,0.14247782,-0.01836437,-0.00726148,-0.00045506,-0.34408486,
 -0.02066675,0.00974588,-0.02987829,0.08626134,-0.00272358,-0.06106589,
 -0.03798907,0.00347037,0.07591141,-0.02842509,-0.00075296,-0.18458906,
 -0.05335719,0.00612153,0.70063964,-0.04612612,-0.01080764,0.00083009,0
 .07233682,-0.12127335,0.00114045,0.02268500,0.03276947,-0.00146787,-0.
 02820837,-0.01823409,0.00156030,0.02532462,-0.05649895,0.00224301,-0.1
 3121043,-0.29265688,0.01499830,-0.03998685,0.74440824,0.00288249,0.001
 11500,0.00018639,0.00530291,0.00326749,-0.05864312,0.00006263,-0.00307
 099,0.00824867,0.00244136,0.00140535,-0.00392043,-0.00259261,0.0034178
 9,0.00537598,0.00998926,0.01335774,-0.06393087,-0.01518285,-0.02866233
 ,0.13201445,-0.13029831,0.10949413,0.08155685,0.01204718,-0.01106142,-
 0.01093843,-0.00267426,-0.00145669,-0.00032705,0.00023024,-0.00053750,
 0.00050325,0.00006077,-0.00006625,-0.00025153,-0.00051717,0.00008320,-
 0.00012285,0.00206285,-0.00203573,0.00040607,0.13378326,0.11675401,-0.
 23195342,-0.13630586,0.01204151,-0.02350626,-0.01156931,-0.00372473,-0
 .00276900,-0.00088634,0.00129704,-0.00034199,0.00098800,-0.00035590,0.
 00040197,-0.00013115,0.00030976,-0.00090259,0.00097515,0.00123315,0.00
 325172,0.00006806,-0.11958838,0.24500376,0.08468028,-0.13183348,-0.161
 23812,-0.00564694,0.00211831,0.00376524,0.00093843,0.00150541,0.000020
 54,0.00020050,0.00069729,-0.00012948,-0.00038174,0.00034345,0.00010376
 ,0.00009213,-0.00038612,-0.00007383,0.00045905,0.00074891,0.00002153,-
 0.09222950,0.14212786,0.16423295,-0.06083194,-0.00200760,0.01998086,-0
 .00104219,-0.00701962,0.01536837,-0.00010887,0.00174121,0.00033302,-0.
 00131950,-0.00069398,-0.00021673,0.00085589,-0.00056144,0.00017547,-0.
 00022131,0.00055409,-0.00111344,0.00002867,-0.00161118,0.00010181,-0.0
 0028586,-0.00725797,0.01755597,0.05758587,-0.00061027,-0.08659135,0.10
 418077,-0.00355862,-0.01281584,0.02540453,-0.00166101,-0.00054014,0.00
 059021,0.00003988,-0.00038341,-0.00167870,-0.00049130,0.00030242,0.000
 23400,0.00004490,-0.00145629,-0.00105295,0.00147700,0.00092180,0.00016
 960,-0.00084576,0.01159904,-0.02763232,0.00561021,0.09058881,0.0130672
 6,0.09292799,-0.37064209,0.00399932,0.00576739,0.00603197,-0.00071561,
 -0.00096209,-0.00009577,0.00011454,-0.00011102,0.00005796,-0.00014053,
 -0.00036726,0.00007761,-0.00008955,0.00018253,0.00022370,-0.00038025,-
 0.00107956,0.00004266,-0.00033796,0.00611616,-0.01690781,-0.01661254,-
 0.10494842,0.39112111,0.00168794,-0.00065872,-0.00038323,-0.01136651,-
 0.00449031,0.00064243,-0.34342592,0.00123518,0.00815249,-0.01016573,0.
 00216242,0.00039784,0.00047912,-0.00270592,0.00034963,0.00059423,-0.00
 046244,-0.00005969,0.00134290,0.00280866,-0.00003738,0.00008103,-0.000
 05952,0.00017741,-0.00002053,0.00031049,0.00005932,0.36108233,0.001087
 73,0.00242248,-0.00003771,0.02620882,0.00278261,-0.00070819,0.00120678
 ,-0.05870342,0.00087169,-0.02791779,0.00601328,0.00079620,-0.00249551,
 -0.00477667,0.00070487,-0.00026814,-0.00122110,-0.00001057,0.00212817,
 -0.00470565,0.00047055,0.00001967,0.00012759,-0.00014054,0.00012630,-0
 .00011928,0.00009947,-0.00011465,0.05783249,0.00059092,-0.00010122,-0.
 00430894,-0.00104878,-0.00051742,0.00290700,0.00823848,0.00113841,-0.0
 3522235,0.00170333,-0.00012414,0.00422584,0.00029184,0.00064833,0.0073
 9832,-0.00004608,-0.00003533,-0.00147427,0.00015639,0.00045145,0.00566
 089,-0.00002189,-0.00036795,0.00012600,-0.00011018,0.00086918,-0.00005
 350,-0.00917601,-0.00145224,0.02436202,0.00032822,-0.00159866,0.000009
 26,-0.00075533,-0.00273172,0.00042018,0.01164757,-0.01659403,0.0006699
 5,-0.13307503,0.12767491,-0.00416596,-0.00928643,0.02752923,-0.0010291
 8,-0.00569932,-0.00055817,0.00038270,-0.00097831,-0.00101095,0.0000315
 2,-0.00015909,-0.00019936,0.00007810,-0.00002728,-0.00004230,-0.000065
 53,0.00067946,0.00037696,-0.00015564,0.13665938,0.00051342,-0.00137399
 ,-0.00003995,-0.00325882,-0.00162962,0.00062517,0.01387940,-0.01758159
 ,0.00072875,0.12707555,-0.27808281,0.00877684,-0.00267066,0.00568945,0
 .00003321,-0.00095531,0.00125159,0.00035348,-0.00059347,0.00034929,-0.
 00007297,-0.00018289,-0.00020380,0.00011840,-0.00002720,-0.00008397,-0
 .00008786,0.00013710,0.00081139,-0.00026165,-0.13408797,0.29019894,0.0
 0011133,0.00025936,0.00054503,0.00032427,0.00036827,0.00732951,-0.0009
 3033,0.00155956,0.00385085,-0.00418938,0.00876525,-0.04095341,0.000598
 51,-0.00078669,0.00499563,0.00042242,0.00034898,0.00754991,0.00002002,
 -0.00008988,-0.00139034,0.00010891,0.00008709,-0.00003943,-0.00009985,
 -0.00004745,0.00005971,-0.00015438,-0.00028379,-0.00419118,0.00400374,
 -0.00992078,0.02753737,0.00023707,-0.00016375,-0.00007394,-0.00126088,
 0.00124667,-0.00001321,-0.00540966,0.00027794,0.00034832,-0.01016573,-
 0.02740927,0.00183119,-0.13249690,-0.12574752,0.00898621,0.01225299,0.
 01588539,-0.00103958,-0.00081340,0.00371987,0.00008297,-0.00006198,-0.
 00006680,0.00000568,-0.00000597,0.00002257,0.00000467,-0.00055732,-0.0
 0133820,0.00006142,0.00090604,0.00016545,-0.00014930,0.13630194,-0.000
 20140,0.00004755,-0.00012915,0.00127460,0.00020869,-0.00002655,0.00106
 651,0.00149392,0.00030413,0.00294620,0.00560634,-0.00014511,-0.1257535
 6,-0.27754177,0.01555796,-0.01447449,-0.01680517,0.00150850,0.00293452
 ,-0.00310267,0.00045073,0.00010433,0.00003053,0.00001819,0.00004841,0.
 00004066,0.00000014,0.00025995,0.00021966,-0.00002631,-0.00020816,0.00
 046112,-0.00022662,0.13277829,0.28943393,0.00009208,0.00016433,-0.0012
 1887,-0.00011444,-0.00019821,-0.00019250,0.00030376,0.00037118,0.00773
 083,0.00015409,0.00074179,0.00457138,0.00900351,0.01558804,-0.04344659
 ,0.00056630,0.00049987,0.00453388,0.00016764,0.00044147,0.00760309,0.0
 0008832,-0.00020710,-0.00000376,0.00006939,0.00021859,-0.00012066,-0.0
 0002549,-0.00001116,-0.00019554,-0.00012145,-0.00024311,-0.00411808,-0
 .00987973,-0.01710119,0.02911598,-0.00050301,0.00005806,-0.00003501,0.
 00116630,-0.00213407,0.00033362,0.00071909,0.00038249,-0.00007782,0.00
 016590,0.00242854,0.00011075,-0.00881089,-0.00241073,0.00054413,-0.352
 09621,0.00052242,0.00967200,-0.00909084,0.00189724,0.00029748,-0.00002
 808,0.00004816,0.00004046,-0.00003545,-0.00001324,-0.00004155,-0.00005
 792,0.00000075,-0.00002251,-0.00045005,-0.00023156,0.00001269,0.000588
 56,-0.00001455,-0.00014814,0.36789042,-0.00211165,-0.00050248,-0.00001
 010,-0.00162707,-0.00359060,0.00068070,-0.00004691,-0.00135236,-0.0000
 0684,0.00283499,-0.00462190,0.00050625,0.02779524,0.00521525,-0.000875
 19,0.00113654,-0.05904152,0.00077188,-0.02856585,0.00314484,0.00095162
 ,-0.00004480,0.00018772,0.00006623,-0.00002967,0.00000674,-0.00009998,
 0.00001940,0.00010431,-0.00004373,0.00132297,0.00017910,-0.00005659,-0
 .00039247,0.00077484,-0.00022329,-0.00046785,0.05895155,0.00016529,0.0
 0022363,0.00052952,0.00016496,0.00046872,0.00745121,-0.00008442,-0.000
 02215,-0.00134208,0.00008663,0.00053567,0.00746633,-0.00097808,0.00012
 043,0.00494446,0.00967745,0.00075951,-0.04097322,0.00181031,-0.0000329
 2,0.00385583,0.00008838,0.00000099,-0.00000334,-0.00000928,-0.00007598
 ,0.00005395,-0.00001602,-0.00004899,-0.00077685,-0.00005498,-0.0000172
 2,-0.00035647,-0.00011956,-0.00023950,-0.00405842,-0.01058376,-0.00149
 123,0.02754746,0.00216110,0.00093210,0.00020380,-0.01001041,0.02724737
 ,-0.00096167,-0.00531275,-0.00179928,0.00043644,-0.00042174,-0.0008468
 5,0.00001434,-0.00123547,-0.00344993,0.00043840,0.01313971,-0.01451409
 ,0.00050061,-0.13093378,0.12384869,-0.00331832,-0.00124230,-0.00080912
 ,-0.00032318,-0.00052333,-0.00007974,0.00012761,-0.00037408,0.00121429
 ,-0.00002156,0.00005731,0.00006733,-0.00003506,0.00049231,-0.00073176,
 0.00000192,0.00055949,0.00031020,-0.00016913,0.13352986,-0.00021654,0.
 00175684,-0.00032264,-0.00360381,0.00212613,0.00016714,-0.00108779,0.0
 0189458,0.00020091,-0.00106624,-0.00017221,-0.00005206,-0.00366573,-0.
 00308296,0.00064941,0.01559602,-0.01722172,0.00074718,0.12369640,-0.27
 152243,0.00746077,0.00066564,0.00031001,-0.00018075,0.00029273,0.00017
 569,0.00012984,-0.00012151,0.00028380,0.00007341,0.00008458,-0.0000078
 3,-0.00003875,0.00086185,-0.00082566,-0.00002796,0.00006132,0.00094263
 ,-0.00027512,-0.13151215,0.28529730,-0.00038448,0.00052211,-0.00372374
 ,0.00007005,-0.00119940,0.00290493,0.00031134,0.00036888,0.00571156,-0
 .00000876,-0.00005959,-0.00145894,0.00042556,0.00057923,0.00748195,-0.
 00096346,0.00142090,0.00428134,-0.00309463,0.00764303,-0.03548277,-0.0
 0008809,-0.00069673,0.00034658,0.00070672,0.00046958,-0.00017485,0.000
 07458,0.00001841,0.00094389,-0.00002697,-0.00004214,-0.00079730,-0.000
 05407,0.00003956,-0.00020519,-0.00015054,-0.00026979,-0.00425412,0.003
 31506,-0.00860794,0.02449418,-0.36161320,0.03909956,-0.11421617,-0.015
 98474,-0.00274950,-0.00242761,0.00379704,0.00211030,-0.00019245,-0.000
 95863,0.00018360,0.00069012,0.00043470,-0.00013080,0.00002280,-0.00053
 115,0.00097332,0.00030881,-0.00018667,-0.00243126,-0.00046733,-0.01299
 827,0.00037815,-0.00564664,0.00595180,-0.00020281,0.00101080,0.0000209
 9,-0.00023519,-0.00043972,0.00015285,0.00016964,-0.00004361,-0.0000070
 7,-0.00002888,-0.00015776,-0.00001730,-0.00013306,0.00002219,0.0001140
 8,0.00001524,-0.00013231,0.38182557,0.03185159,-0.06171964,0.00999142,
 -0.02929312,0.00715993,-0.01028647,-0.00198455,0.00206487,0.00024360,0
 .00007185,-0.00055623,0.00020042,0.00032082,0.00003341,-0.00021907,-0.
 00123011,0.00076936,0.00069269,-0.00088483,-0.00604371,-0.00032848,0.0
 2545244,-0.00123528,0.01242915,0.01083571,-0.00164489,0.00243268,0.001
 67986,-0.00107148,-0.00025079,0.00004269,0.00002272,0.00006204,0.00015
 998,-0.00004200,-0.00001322,-0.00012696,-0.00039812,0.00009415,0.00012
 294,0.00004583,-0.00018612,-0.03701832,0.06261523,-0.11288199,0.012646
 22,-0.10305613,0.00450440,-0.00291434,0.00107628,0.00024939,0.00060399
 ,-0.00010605,-0.00034352,-0.00011980,-0.00020974,0.00042257,-0.0001870
 9,0.00013264,0.00043561,0.00048329,0.00015146,0.00063814,0.00127554,0.
 00035804,0.02156552,-0.00019885,0.00977918,-0.03612959,0.00329934,-0.0
 0967399,-0.00000151,-0.00026800,0.00059868,0.00002425,0.00004983,-0.00
 002178,0.00000891,0.00001522,0.00000443,0.00004820,0.00010007,-0.00008
 426,-0.00020925,0.00007656,-0.00006754,0.12166888,-0.01486199,0.101118
 77\\-0.00000154,-0.00000248,-0.00000319,0.00003146,0.00005193,-0.00002
 907,-0.00006366,-0.00003049,0.00002489,0.00002234,0.00000831,-0.000003
 28,-0.00000832,-0.00001012,0.00000284,-0.00000564,0.00001668,0.0000003
 2,0.00001090,-0.00006404,0.00002931,-0.00001281,0.00000458,0.00000286,
 0.00000670,0.00001039,-0.00001053,0.00001010,0.00000306,-0.00000480,-0
 .00000521,0.00000517,-0.00000460,0.00000440,0.00000371,-0.00000206,0.0
 0000749,-0.00000138,-0.00000511,-0.00000454,0.00000874,-0.00000404,0.0
 0000832,-0.00000405,0.00000646\\\@


 TERENCE, THIS IS STUPID STUFF:
 YOU EAT YOUR VICTUALS FAST ENOUGH;
 THERE CAN'T BE MUCH AMISS, 'TIS CLEAR
 TO SEE THE RATE YOU DRINK YOUR BEER.
 BUT OH, GOOD LORD, THE VERSE YOU MAKE,
 IT GIVES A CHAP THE BELLY-ACHE.
 THE COW, THE OLD COW, SHE IS DEAD;
 IT SLEEPS WELL, THE HORNED HEAD:
 WE POOR LADS, 'TIS OUR TURN NOW
 TO HEAR SUCH TUNES AS KILLED THE COW.
 PRETTY FRIENDSHIP 'TIS TO RHYME
 YOUR FRIENDS TO DEATH BEFORE THEIR TIME.
 MOPING, MELANCHOLY MAD:
 COME PIPE A TUNE TO DANCE TO, LAD.

     -- A. E. HOUSMAN
 Job cpu time:       0 days  0 hours 22 minutes 30.3 seconds.
 Elapsed time:       0 days  0 hours  0 minutes 57.3 seconds.
 File lengths (MBytes):  RWF=     67 Int=      0 D2E=      0 Chk=      5 Scr=      1
 Normal termination of Gaussian 16 at Mon Oct 14 10:56:43 2019.
real 107.52
user 2471.09
sys 10.22
Machine:
brown-a394
brown-a394
brown-a394
brown-a394
brown-a394
brown-a394
brown-a394
brown-a394
brown-a394
brown-a394
brown-a394
brown-a394
brown-a394
brown-a394
brown-a394
brown-a394
brown-a394
brown-a394
brown-a394
brown-a394
brown-a394
brown-a394
brown-a394
brown-a394
