Title Card Required                                                     
Freq      RM062X                                                      6-311++G(d,p)       
Number of atoms                            I               18
Info1-9                                    I   N=           9
          46          46        1002           0           0         100
           6          18        -502
Full Title                                 C   N=           2
Title Card Required     
Route                                      C   N=           6
#p opt freq m062x/6-311++g(d,p) geom=connectivity temperatur
e=0.001     
Charge                                     I                1
Multiplicity                               I                1
Number of electrons                        I               50
Number of alpha electrons                  I               25
Number of beta electrons                   I               25
Number of basis functions                  I              216
Number of independent functions            I              216
Number of point charges in /Mol/           I                0
Number of translation vectors              I                0
Atomic numbers                             I   N=          18
           6           6           7           8           6           6
           1           1           1           1           1           1
           1           1           1           1           1           1
Nuclear charges                            R   N=          18
  6.00000000E+00  6.00000000E+00  7.00000000E+00  8.00000000E+00  6.00000000E+00
  6.00000000E+00  1.00000000E+00  1.00000000E+00  1.00000000E+00  1.00000000E+00
  1.00000000E+00  1.00000000E+00  1.00000000E+00  1.00000000E+00  1.00000000E+00
  1.00000000E+00  1.00000000E+00  1.00000000E+00
Current cartesian coordinates              R   N=          54
 -4.67242902E+00 -1.27265519E-01 -5.66393304E-01 -2.29720780E+00 -1.36047068E+00
  4.72592311E-01  2.62443980E-02 -2.16281651E-01 -5.28965967E-01  4.58665254E-02
  2.52547485E+00  4.38508043E-01  2.37026143E+00 -1.29929865E+00  4.98808593E-01
  4.71935520E+00 -4.38760274E-02 -5.59312831E-01 -6.31738787E+00 -1.23385211E+00
 -7.97418603E-03 -4.97521986E+00  1.77964320E+00  1.71567289E-01 -4.61165033E+00
 -5.57073794E-02 -2.62558326E+00 -2.25988437E+00 -1.41247652E+00  2.55121935E+00
 -2.16344342E+00 -3.31388541E+00 -1.86898159E-01 -7.75161996E-01  2.76627292E+00
  2.07935115E+00  2.32886401E+00 -1.30713608E+00  2.57332511E+00  2.25527456E+00
 -3.26591711E+00 -1.30314615E-01  6.38238501E+00 -1.08548599E+00  6.69065234E-02
  4.68147829E+00 -5.88361577E-02 -2.61927722E+00  4.91208097E+00  1.89777078E+00
  1.01419206E-01 -7.27856857E-01  3.58524789E+00 -8.53212373E-01
Number of symbols in /Mol/                 I                0
Force Field                                I                0
Atom Types                                 C   N=          18
                                                            
                                                            
                                                            
                                    
Int Atom Types                             I   N=          18
           0           0           0           0           0           0
           0           0           0           0           0           0
           0           0           0           0           0           0
MM charges                                 R   N=          18
  0.00000000E+00  0.00000000E+00  0.00000000E+00  0.00000000E+00  0.00000000E+00
  0.00000000E+00  0.00000000E+00  0.00000000E+00  0.00000000E+00  0.00000000E+00
  0.00000000E+00  0.00000000E+00  0.00000000E+00  0.00000000E+00  0.00000000E+00
  0.00000000E+00  0.00000000E+00  0.00000000E+00
Integer atomic weights                     I   N=          18
          12          12          14          16          12          12
           1           1           1           1           1           1
           1           1           1           1           1           1
Real atomic weights                        R   N=          18
  1.20000000E+01  1.20000000E+01  1.40030740E+01  1.59949146E+01  1.20000000E+01
  1.20000000E+01  1.00782504E+00  1.00782504E+00  1.00782504E+00  1.00782504E+00
  1.00782504E+00  1.00782504E+00  1.00782504E+00  1.00782504E+00  1.00782504E+00
  1.00782504E+00  1.00782504E+00  1.00782504E+00
Atom fragment info                         I   N=          18
           0           0           0           0           0           0
           0           0           0           0           0           0
           0           0           0           0           0           0
Atom residue num                           I   N=          18
           0           0           0           0           0           0
           0           0           0           0           0           0
           0           0           0           0           0           0
Nuclear spins                              I   N=          18
           0           0           2           0           0           0
           1           1           1           1           1           1
           1           1           1           1           1           1
Nuclear ZEff                               R   N=          18
 -3.60000000E+00 -3.60000000E+00 -4.55000000E+00 -5.60000000E+00 -3.60000000E+00
 -3.60000000E+00 -1.00000000E+00 -1.00000000E+00 -1.00000000E+00 -1.00000000E+00
 -1.00000000E+00 -1.00000000E+00 -1.00000000E+00 -1.00000000E+00 -1.00000000E+00
 -1.00000000E+00 -1.00000000E+00 -1.00000000E+00
Nuclear ZNuc                               R   N=          18
  6.00000000E+00  6.00000000E+00  7.00000000E+00  8.00000000E+00  6.00000000E+00
  6.00000000E+00  1.00000000E+00  1.00000000E+00  1.00000000E+00  1.00000000E+00
  1.00000000E+00  1.00000000E+00  1.00000000E+00  1.00000000E+00  1.00000000E+00
  1.00000000E+00  1.00000000E+00  1.00000000E+00
Nuclear QMom                               R   N=          18
  0.00000000E+00  0.00000000E+00  2.04400000E+00  0.00000000E+00  0.00000000E+00
  0.00000000E+00  0.00000000E+00  0.00000000E+00  0.00000000E+00  0.00000000E+00
  0.00000000E+00  0.00000000E+00  0.00000000E+00  0.00000000E+00  0.00000000E+00
  0.00000000E+00  0.00000000E+00  0.00000000E+00
Nuclear GFac                               R   N=          18
  0.00000000E+00  0.00000000E+00  4.03761000E-01  0.00000000E+00  0.00000000E+00
  0.00000000E+00  2.79284600E+00  2.79284600E+00  2.79284600E+00  2.79284600E+00
  2.79284600E+00  2.79284600E+00  2.79284600E+00  2.79284600E+00  2.79284600E+00
  2.79284600E+00  2.79284600E+00  2.79284600E+00
MicOpt                                     I   N=          18
          -1          -1          -1          -1          -1          -1
          -1          -1          -1          -1          -1          -1
          -1          -1          -1          -1          -1          -1
Number of residues                         I                0
Number of secondary structures             I                0
Redundant internal dimensions              I   N=           4
          81          17          30          34
Redundant internal coordinate indices      I   N=         324
           1           2           0           0           1           7
           0           0           1           8           0           0
           1           9           0           0           2           3
           0           0           2          10           0           0
           2          11           0           0           3           4
           0           0           3           5           0           0
           4          12           0           0           4          18
           0           0           5           6           0           0
           5          13           0           0           5          14
           0           0           6          15           0           0
           6          16           0           0           6          17
           0           0           2           1           7           0
           2           1           8           0           2           1
           9           0           7           1           8           0
           7           1           9           0           8           1
           9           0           1           2           3           0
           1           2          10           0           1           2
          11           0           3           2          10           0
           3           2          11           0          10           2
          11           0           2           3           4           0
           2           3           5           0           4           3
           5           0           3           4          12           0
           3           4          18           0          12           4
          18           0           3           5           6           0
           3           5          13           0           3           5
          14           0           6           5          13           0
           6           5          14           0          13           5
          14           0           5           6          15           0
           5           6          16           0           5           6
          17           0          15           6          16           0
          15           6          17           0          16           6
          17           0           7           1           2           3
           7           1           2          10           7           1
           2          11           8           1           2           3
           8           1           2          10           8           1
           2          11           9           1           2           3
           9           1           2          10           9           1
           2          11           1           2           3           4
           1           2           3           5          10           2
           3           4          10           2           3           5
          11           2           3           4          11           2
           3           5           2           3           4          12
           2           3           4          18           5           3
           4          12           5           3           4          18
           2           3           5           6           2           3
           5          13           2           3           5          14
           4           3           5           6           4           3
           5          13           4           3           5          14
           3           5           6          15           3           5
           6          16           3           5           6          17
          13           5           6          15          13           5
           6          16          13           5           6          17
          14           5           6          15          14           5
           6          16          14           5           6          17
Redundant internal coordinates             R   N=          81
  2.87088173E+00  2.05967362E+00  2.06701935E+00  2.06132916E+00  2.77681790E+00
  2.07961247E+00  2.06607108E+00  2.90751091E+00  2.77914775E+00  1.85052361E+00
  1.84127902E+00  2.86599868E+00  2.07494432E+00  2.06799569E+00  2.05979857E+00
  2.06036690E+00  2.06002485E+00  1.90906897E+00  1.96955264E+00  1.93055294E+00
  1.85652928E+00  1.88918650E+00  1.90597709E+00  1.96571886E+00  1.96852359E+00
  1.92216072E+00  1.93456837E+00  1.79289665E+00  1.86945987E+00  1.84854224E+00
  1.99518517E+00  1.81185347E+00  1.99847340E+00  1.88228900E+00  1.93982918E+00
  1.96500090E+00  1.93305240E+00  1.78358648E+00  1.96831247E+00  1.92817975E+00
  1.87491745E+00  1.90498693E+00  1.92930435E+00  1.95102587E+00  1.89139103E+00
  1.87924533E+00  1.90629568E+00  2.98268062E+00 -1.09465213E+00  9.92745399E-01
 -1.23763735E+00  9.68215211E-01  3.05561274E+00  9.03393667E-01  3.10924622E+00
 -1.08654156E+00  1.12273141E+00  3.10639439E+00 -1.10122179E+00  8.82441195E-01
 -3.09310210E+00 -1.10943912E+00  5.38640655E-01 -1.63043240E+00 -1.56851978E+00
  2.54559248E+00 -3.12921216E+00 -9.07348055E-01  1.08536604E+00 -1.12395761E+00
  1.09790650E+00  3.09062060E+00 -3.00826191E+00 -9.29573534E-01  1.19793408E+00
  1.07190501E+00 -3.13259193E+00 -1.00508432E+00 -1.02650276E+00  1.05218562E+00
 -3.10349208E+00
ZRed-IntVec                                I   N=          81
           0           0           0           0           0           0
           0           0           0           0           0           0
           0           0           0           0           0           0
           0           0           0           0           0           0
           0           0           0           0           0           0
           0           0           0           0           0           0
           0           0           0           0           0           0
           0           0           0           0           0           0
           0           0           0           0           0           0
           0           0           0           0           0           0
           0           0           0           0           0           0
           0           0           0           0           0           0
           0           0           0           0           0           0
           0           0           0
ZRed-FPVec                                 R   N=          81
  0.00000000E+00  0.00000000E+00  0.00000000E+00  0.00000000E+00  0.00000000E+00
  0.00000000E+00  0.00000000E+00  0.00000000E+00  0.00000000E+00  0.00000000E+00
  0.00000000E+00  0.00000000E+00  0.00000000E+00  0.00000000E+00  0.00000000E+00
  0.00000000E+00  0.00000000E+00  0.00000000E+00  0.00000000E+00  0.00000000E+00
  0.00000000E+00  0.00000000E+00  0.00000000E+00  0.00000000E+00  0.00000000E+00
  0.00000000E+00  0.00000000E+00  0.00000000E+00  0.00000000E+00  0.00000000E+00
  0.00000000E+00  0.00000000E+00  0.00000000E+00  0.00000000E+00  0.00000000E+00
  0.00000000E+00  0.00000000E+00  0.00000000E+00  0.00000000E+00  0.00000000E+00
  0.00000000E+00  0.00000000E+00  0.00000000E+00  0.00000000E+00  0.00000000E+00
  0.00000000E+00  0.00000000E+00  0.00000000E+00  0.00000000E+00  0.00000000E+00
  0.00000000E+00  0.00000000E+00  0.00000000E+00  0.00000000E+00  0.00000000E+00
  0.00000000E+00  0.00000000E+00  0.00000000E+00  0.00000000E+00  0.00000000E+00
  0.00000000E+00  0.00000000E+00  0.00000000E+00  0.00000000E+00  0.00000000E+00
  0.00000000E+00  0.00000000E+00  0.00000000E+00  0.00000000E+00  0.00000000E+00
  0.00000000E+00  0.00000000E+00  0.00000000E+00  0.00000000E+00  0.00000000E+00
  0.00000000E+00  0.00000000E+00  0.00000000E+00  0.00000000E+00  0.00000000E+00
  0.00000000E+00
ZRed-Constraint1                           R   N=          81
  2.87088173E+00  2.05967362E+00  2.06701935E+00  2.06132916E+00  2.77681790E+00
  2.07961247E+00  2.06607108E+00  2.90751091E+00  2.77914775E+00  1.85052361E+00
  1.84127902E+00  2.86599868E+00  2.07494432E+00  2.06799569E+00  2.05979857E+00
  2.06036690E+00  2.06002485E+00  1.90906897E+00  1.96955264E+00  1.93055294E+00
  1.85652928E+00  1.88918650E+00  1.90597709E+00  1.96571886E+00  1.96852359E+00
  1.92216072E+00  1.93456837E+00  1.79289665E+00  1.86945987E+00  1.84854224E+00
  1.99518517E+00  1.81185347E+00  1.99847340E+00  1.88228900E+00  1.93982918E+00
  1.96500090E+00  1.93305240E+00  1.78358648E+00  1.96831247E+00  1.92817975E+00
  1.87491745E+00  1.90498693E+00  1.92930435E+00  1.95102587E+00  1.89139103E+00
  1.87924533E+00  1.90629568E+00  2.98268062E+00 -1.09465213E+00  9.92745399E-01
 -1.23763735E+00  9.68215211E-01  3.05561274E+00  9.03393667E-01  3.10924622E+00
 -1.08654156E+00  1.12273141E+00  3.10639439E+00 -1.10122179E+00  8.82441195E-01
 -3.09310210E+00 -1.10943912E+00  5.38640655E-01 -1.63043240E+00 -1.56851978E+00
  2.54559248E+00 -3.12921216E+00 -9.07348055E-01  1.08536604E+00 -1.12395761E+00
  1.09790650E+00  3.09062060E+00 -3.00826191E+00 -9.29573534E-01  1.19793408E+00
  1.07190501E+00 -3.13259193E+00 -1.00508432E+00 -1.02650276E+00  1.05218562E+00
 -3.10349208E+00
ZRed-Constraint2                           R   N=          81
  2.91877829E+00  2.05969850E+00  2.05959930E+00  2.05978606E+00  2.81474204E+00
  2.05980610E+00  2.05991112E+00  2.57846401E+00  2.81857357E+00  1.81413707E+00
  1.81413708E+00  2.91686226E+00  2.05979504E+00  2.05978923E+00  2.05978200E+00
  2.05975281E+00  2.05973970E+00  1.91058063E+00  1.91065384E+00  1.91056018E+00
  1.91069856E+00  1.91062809E+00  1.91067810E+00  1.97372536E+00  1.86191276E+00
  1.86198640E+00  1.83802868E+00  1.83798387E+00  2.09439856E+00  1.91048924E+00
  1.96733842E+00  1.91795092E+00  2.09439510E+00  2.09439510E+00  2.09439511E+00
  1.97562480E+00  1.83826932E+00  1.83830593E+00  1.86089257E+00  1.86088509E+00
  2.09434748E+00  1.91064137E+00  1.91065791E+00  1.91060277E+00  1.91062959E+00
  1.91068916E+00  1.91057862E+00  3.06797960E+00 -1.20282047E+00  1.05560345E+00
 -1.12075020E+00  8.91635037E-01 -3.13312635E+00  9.73667731E-01  2.98605297E+00
 -1.03870842E+00  1.09257860E+00 -3.05035600E+00 -9.34027867E-01  1.20622284E+00
  3.11924632E+00 -1.02368828E+00  1.77784068E+00 -1.36375197E+00 -3.91555272E-01
  2.75003739E+00  3.04996156E+00 -1.20672047E+00  1.02344490E+00 -1.09716018E+00
  9.29343093E-01 -3.12367684E+00 -2.87972531E+00 -7.85314583E-01  1.30901008E+00
  1.39039748E+00 -2.79837710E+00 -7.04052435E-01 -8.66623038E-01  1.22778769E+00
 -2.96107296E+00
SymInf integers                            I   N=          26
           1           1           1           1           1           0
           0           0           0           0           0           0
           0           0           0           0           0           0
           0           0           0           0           0           0
           0           0
RotTr to input orientation                 R   N=          12
 -6.68122520E-03  8.78997930E-01  4.76778775E-01 -3.69189015E-01  4.40936484E-01
 -8.18091980E-01 -9.29330314E-01 -1.81487343E-01  3.21570384E-01  3.68164789E+00
 -1.22065241E+00 -2.22725881E+00
Number of contracted shells                I               96
Number of primitive shells                 I              162
Pure/Cartesian d shells                    I                0
Pure/Cartesian f shells                    I                0
Highest angular momentum                   I                2
Largest degree of contraction              I                6
Shell types                                I   N=          96
           0          -1          -1          -1          -1          -2
           0          -1          -1          -1          -1          -2
           0          -1          -1          -1          -1          -2
           0          -1          -1          -1          -1          -2
           0          -1          -1          -1          -1          -2
           0          -1          -1          -1          -1          -2
           0           0           0           0           1           0
           0           0           0           1           0           0
           0           0           1           0           0           0
           0           1           0           0           0           0
           1           0           0           0           0           1
           0           0           0           0           1           0
           0           0           0           1           0           0
           0           0           1           0           0           0
           0           1           0           0           0           0
           1           0           0           0           0           1
Number of primitives per shell             I   N=          96
           6           3           1           1           1           1
           6           3           1           1           1           1
           6           3           1           1           1           1
           6           3           1           1           1           1
           6           3           1           1           1           1
           6           3           1           1           1           1
           3           1           1           1           1           3
           1           1           1           1           3           1
           1           1           1           3           1           1
           1           1           3           1           1           1
           1           3           1           1           1           1
           3           1           1           1           1           3
           1           1           1           1           3           1
           1           1           1           3           1           1
           1           1           3           1           1           1
           1           3           1           1           1           1
Shell to atom map                          I   N=          96
           1           1           1           1           1           1
           2           2           2           2           2           2
           3           3           3           3           3           3
           4           4           4           4           4           4
           5           5           5           5           5           5
           6           6           6           6           6           6
           7           7           7           7           7           8
           8           8           8           8           9           9
           9           9           9          10          10          10
          10          10          11          11          11          11
          11          12          12          12          12          12
          13          13          13          13          13          14
          14          14          14          14          15          15
          15          15          15          16          16          16
          16          16          17          17          17          17
          17          18          18          18          18          18
Primitive exponents                        R   N=         162
  4.56324000E+03  6.82024000E+02  1.54973000E+02  4.44553000E+01  1.30290000E+01
  1.82773000E+00  2.09642000E+01  4.80331000E+00  1.45933000E+00  4.83456000E-01
  1.45585000E-01  4.38000000E-02  6.26000000E-01  4.56324000E+03  6.82024000E+02
  1.54973000E+02  4.44553000E+01  1.30290000E+01  1.82773000E+00  2.09642000E+01
  4.80331000E+00  1.45933000E+00  4.83456000E-01  1.45585000E-01  4.38000000E-02
  6.26000000E-01  6.29348000E+03  9.49044000E+02  2.18776000E+02  6.36916000E+01
  1.88282000E+01  2.72023000E+00  3.06331000E+01  7.02614000E+00  2.11205000E+00
  6.84009000E-01  2.00878000E-01  6.39000000E-02  9.13000000E-01  8.58850000E+03
  1.29723000E+03  2.99296000E+02  8.73771000E+01  2.56789000E+01  3.74004000E+00
  4.21175000E+01  9.62837000E+00  2.85332000E+00  9.05661000E-01  2.55611000E-01
  8.45000000E-02  1.29200000E+00  4.56324000E+03  6.82024000E+02  1.54973000E+02
  4.44553000E+01  1.30290000E+01  1.82773000E+00  2.09642000E+01  4.80331000E+00
  1.45933000E+00  4.83456000E-01  1.45585000E-01  4.38000000E-02  6.26000000E-01
  4.56324000E+03  6.82024000E+02  1.54973000E+02  4.44553000E+01  1.30290000E+01
  1.82773000E+00  2.09642000E+01  4.80331000E+00  1.45933000E+00  4.83456000E-01
  1.45585000E-01  4.38000000E-02  6.26000000E-01  3.38650000E+01  5.09479000E+00
  1.15879000E+00  3.25840000E-01  1.02741000E-01  3.60000000E-02  7.50000000E-01
  3.38650000E+01  5.09479000E+00  1.15879000E+00  3.25840000E-01  1.02741000E-01
  3.60000000E-02  7.50000000E-01  3.38650000E+01  5.09479000E+00  1.15879000E+00
  3.25840000E-01  1.02741000E-01  3.60000000E-02  7.50000000E-01  3.38650000E+01
  5.09479000E+00  1.15879000E+00  3.25840000E-01  1.02741000E-01  3.60000000E-02
  7.50000000E-01  3.38650000E+01  5.09479000E+00  1.15879000E+00  3.25840000E-01
  1.02741000E-01  3.60000000E-02  7.50000000E-01  3.38650000E+01  5.09479000E+00
  1.15879000E+00  3.25840000E-01  1.02741000E-01  3.60000000E-02  7.50000000E-01
  3.38650000E+01  5.09479000E+00  1.15879000E+00  3.25840000E-01  1.02741000E-01
  3.60000000E-02  7.50000000E-01  3.38650000E+01  5.09479000E+00  1.15879000E+00
  3.25840000E-01  1.02741000E-01  3.60000000E-02  7.50000000E-01  3.38650000E+01
  5.09479000E+00  1.15879000E+00  3.25840000E-01  1.02741000E-01  3.60000000E-02
  7.50000000E-01  3.38650000E+01  5.09479000E+00  1.15879000E+00  3.25840000E-01
  1.02741000E-01  3.60000000E-02  7.50000000E-01  3.38650000E+01  5.09479000E+00
  1.15879000E+00  3.25840000E-01  1.02741000E-01  3.60000000E-02  7.50000000E-01
  3.38650000E+01  5.09479000E+00  1.15879000E+00  3.25840000E-01  1.02741000E-01
  3.60000000E-02  7.50000000E-01
Contraction coefficients                   R   N=         162
  1.96665025E-03  1.52306019E-02  7.61269097E-02  2.60801033E-01  6.16462078E-01
  2.21006028E-01  1.14660081E-01  9.19999648E-01 -3.03068213E-03  1.00000000E+00
  1.00000000E+00  1.00000000E+00  1.00000000E+00  1.96665025E-03  1.52306019E-02
  7.61269097E-02  2.60801033E-01  6.16462078E-01  2.21006028E-01  1.14660081E-01
  9.19999648E-01 -3.03068213E-03  1.00000000E+00  1.00000000E+00  1.00000000E+00
  1.00000000E+00  1.96978815E-03  1.49612859E-02  7.35005308E-02  2.48936766E-01
  6.02459433E-01  2.56201759E-01  1.11906080E-01  9.21666655E-01 -2.56919183E-03
  1.00000000E+00  1.00000000E+00  1.00000000E+00  1.00000000E+00  1.89515008E-03
  1.43859006E-02  7.07320031E-02  2.40001011E-01  5.94797026E-01  2.80802012E-01
  1.13889012E-01  9.20811101E-01 -3.27447036E-03  1.00000000E+00  1.00000000E+00
  1.00000000E+00  1.00000000E+00  1.96665025E-03  1.52306019E-02  7.61269097E-02
  2.60801033E-01  6.16462078E-01  2.21006028E-01  1.14660081E-01  9.19999648E-01
 -3.03068213E-03  1.00000000E+00  1.00000000E+00  1.00000000E+00  1.00000000E+00
  1.96665025E-03  1.52306019E-02  7.61269097E-02  2.60801033E-01  6.16462078E-01
  2.21006028E-01  1.14660081E-01  9.19999648E-01 -3.03068213E-03  1.00000000E+00
  1.00000000E+00  1.00000000E+00  1.00000000E+00  2.54938145E-02  1.90373109E-01
  8.52161486E-01  1.00000000E+00  1.00000000E+00  1.00000000E+00  1.00000000E+00
  2.54938145E-02  1.90373109E-01  8.52161486E-01  1.00000000E+00  1.00000000E+00
  1.00000000E+00  1.00000000E+00  2.54938145E-02  1.90373109E-01  8.52161486E-01
  1.00000000E+00  1.00000000E+00  1.00000000E+00  1.00000000E+00  2.54938145E-02
  1.90373109E-01  8.52161486E-01  1.00000000E+00  1.00000000E+00  1.00000000E+00
  1.00000000E+00  2.54938145E-02  1.90373109E-01  8.52161486E-01  1.00000000E+00
  1.00000000E+00  1.00000000E+00  1.00000000E+00  2.54938145E-02  1.90373109E-01
  8.52161486E-01  1.00000000E+00  1.00000000E+00  1.00000000E+00  1.00000000E+00
  2.54938145E-02  1.90373109E-01  8.52161486E-01  1.00000000E+00  1.00000000E+00
  1.00000000E+00  1.00000000E+00  2.54938145E-02  1.90373109E-01  8.52161486E-01
  1.00000000E+00  1.00000000E+00  1.00000000E+00  1.00000000E+00  2.54938145E-02
  1.90373109E-01  8.52161486E-01  1.00000000E+00  1.00000000E+00  1.00000000E+00
  1.00000000E+00  2.54938145E-02  1.90373109E-01  8.52161486E-01  1.00000000E+00
  1.00000000E+00  1.00000000E+00  1.00000000E+00  2.54938145E-02  1.90373109E-01
  8.52161486E-01  1.00000000E+00  1.00000000E+00  1.00000000E+00  1.00000000E+00
  2.54938145E-02  1.90373109E-01  8.52161486E-01  1.00000000E+00  1.00000000E+00
  1.00000000E+00  1.00000000E+00
P(S=P) Contraction coefficients            R   N=         162
  0.00000000E+00  0.00000000E+00  0.00000000E+00  0.00000000E+00  0.00000000E+00
  0.00000000E+00  4.02486927E-02  2.37593957E-01  8.15853851E-01  1.00000000E+00
  1.00000000E+00  1.00000000E+00  0.00000000E+00  0.00000000E+00  0.00000000E+00
  0.00000000E+00  0.00000000E+00  0.00000000E+00  0.00000000E+00  4.02486927E-02
  2.37593957E-01  8.15853851E-01  1.00000000E+00  1.00000000E+00  1.00000000E+00
  0.00000000E+00  0.00000000E+00  0.00000000E+00  0.00000000E+00  0.00000000E+00
  0.00000000E+00  0.00000000E+00  3.83119186E-02  2.37403116E-01  8.17592398E-01
  1.00000000E+00  1.00000000E+00  1.00000000E+00  0.00000000E+00  0.00000000E+00
  0.00000000E+00  0.00000000E+00  0.00000000E+00  0.00000000E+00  0.00000000E+00
  3.65113974E-02  2.37152983E-01  8.19701941E-01  1.00000000E+00  1.00000000E+00
  1.00000000E+00  0.00000000E+00  0.00000000E+00  0.00000000E+00  0.00000000E+00
  0.00000000E+00  0.00000000E+00  0.00000000E+00  4.02486927E-02  2.37593957E-01
  8.15853851E-01  1.00000000E+00  1.00000000E+00  1.00000000E+00  0.00000000E+00
  0.00000000E+00  0.00000000E+00  0.00000000E+00  0.00000000E+00  0.00000000E+00
  0.00000000E+00  4.02486927E-02  2.37593957E-01  8.15853851E-01  1.00000000E+00
  1.00000000E+00  1.00000000E+00  0.00000000E+00  0.00000000E+00  0.00000000E+00
  0.00000000E+00  0.00000000E+00  0.00000000E+00  0.00000000E+00  0.00000000E+00
  0.00000000E+00  0.00000000E+00  0.00000000E+00  0.00000000E+00  0.00000000E+00
  0.00000000E+00  0.00000000E+00  0.00000000E+00  0.00000000E+00  0.00000000E+00
  0.00000000E+00  0.00000000E+00  0.00000000E+00  0.00000000E+00  0.00000000E+00
  0.00000000E+00  0.00000000E+00  0.00000000E+00  0.00000000E+00  0.00000000E+00
  0.00000000E+00  0.00000000E+00  0.00000000E+00  0.00000000E+00  0.00000000E+00
  0.00000000E+00  0.00000000E+00  0.00000000E+00  0.00000000E+00  0.00000000E+00
  0.00000000E+00  0.00000000E+00  0.00000000E+00  0.00000000E+00  0.00000000E+00
  0.00000000E+00  0.00000000E+00  0.00000000E+00  0.00000000E+00  0.00000000E+00
  0.00000000E+00  0.00000000E+00  0.00000000E+00  0.00000000E+00  0.00000000E+00