Title Card Required                                                     
Freq      RM062X                                                      6-311++G(d,p)       
Number of atoms                            I               15
Info1-9                                    I   N=           9
          40          40        1002           0           0         100
           6          18        -502
Full Title                                 C   N=           2
Title Card Required     
Route                                      C   N=           6
#P opt freq m062x/6-311++g(d,p) geom=connectivity temperatur
e=0.001     
Charge                                     I                0
Multiplicity                               I                1
Number of electrons                        I               42
Number of alpha electrons                  I               21
Number of beta electrons                   I               21
Number of basis functions                  I              180
Number of independent functions            I              180
Number of point charges in /Mol/           I                0
Number of translation vectors              I                0
Atomic numbers                             I   N=          15
           6           6           6           6           8           1
           1           1           1           1           1           1
           1           1           1
Nuclear charges                            R   N=          15
  6.00000000E+00  6.00000000E+00  6.00000000E+00  6.00000000E+00  8.00000000E+00
  1.00000000E+00  1.00000000E+00  1.00000000E+00  1.00000000E+00  1.00000000E+00
  1.00000000E+00  1.00000000E+00  1.00000000E+00  1.00000000E+00  1.00000000E+00
Current cartesian coordinates              R   N=          45
 -4.73067689E+00 -5.59175527E-01 -9.87518422E-05 -2.30662126E+00  1.00549258E+00
  1.32212961E-04  5.94276749E-02 -6.45403962E-01  7.55446445E-05  2.47205280E+00
  8.98857800E-01 -8.37254163E-05  4.54676061E+00 -8.01269137E-01  8.33489944E-05
 -6.40784094E+00  6.41728720E-01  2.95631693E-05 -4.81855051E+00 -1.77448179E+00
 -1.66755222E+00 -4.81859420E+00 -1.77491297E+00  1.66703288E+00 -2.28199627E+00
  2.24502136E+00 -1.65756544E+00 -2.28208335E+00  2.24472503E+00  1.65804465E+00
  6.62416102E-02 -1.87764129E+00  1.66180141E+00  6.61455016E-02 -1.87764919E+00
 -1.66165051E+00  2.52311600E+00  2.11824645E+00 -1.67799178E+00  2.52322927E+00
  2.11865622E+00  1.67751863E+00  6.09115402E+00  1.47835237E-01 -4.85655473E-04
Number of symbols in /Mol/                 I                0
Force Field                                I                0
Atom Types                                 C   N=          15
                                                            
                                                            
                                                            
Int Atom Types                             I   N=          15
           0           0           0           0           0           0
           0           0           0           0           0           0
           0           0           0
MM charges                                 R   N=          15
  0.00000000E+00  0.00000000E+00  0.00000000E+00  0.00000000E+00  0.00000000E+00
  0.00000000E+00  0.00000000E+00  0.00000000E+00  0.00000000E+00  0.00000000E+00
  0.00000000E+00  0.00000000E+00  0.00000000E+00  0.00000000E+00  0.00000000E+00
Integer atomic weights                     I   N=          15
          12          12          12          12          16           1
           1           1           1           1           1           1
           1           1           1
Real atomic weights                        R   N=          15
  1.20000000E+01  1.20000000E+01  1.20000000E+01  1.20000000E+01  1.59949146E+01
  1.00782504E+00  1.00782504E+00  1.00782504E+00  1.00782504E+00  1.00782504E+00
  1.00782504E+00  1.00782504E+00  1.00782504E+00  1.00782504E+00  1.00782504E+00
Atom fragment info                         I   N=          15
           0           0           0           0           0           0
           0           0           0           0           0           0
           0           0           0
Atom residue num                           I   N=          15
           0           0           0           0           0           0
           0           0           0           0           0           0
           0           0           0
Nuclear spins                              I   N=          15
           0           0           0           0           0           1
           1           1           1           1           1           1
           1           1           1
Nuclear ZEff                               R   N=          15
 -3.60000000E+00 -3.60000000E+00 -3.60000000E+00 -3.60000000E+00 -5.60000000E+00
 -1.00000000E+00 -1.00000000E+00 -1.00000000E+00 -1.00000000E+00 -1.00000000E+00
 -1.00000000E+00 -1.00000000E+00 -1.00000000E+00 -1.00000000E+00 -1.00000000E+00
Nuclear ZNuc                               R   N=          15
  6.00000000E+00  6.00000000E+00  6.00000000E+00  6.00000000E+00  8.00000000E+00
  1.00000000E+00  1.00000000E+00  1.00000000E+00  1.00000000E+00  1.00000000E+00
  1.00000000E+00  1.00000000E+00  1.00000000E+00  1.00000000E+00  1.00000000E+00
Nuclear QMom                               R   N=          15
  0.00000000E+00  0.00000000E+00  0.00000000E+00  0.00000000E+00  0.00000000E+00
  0.00000000E+00  0.00000000E+00  0.00000000E+00  0.00000000E+00  0.00000000E+00
  0.00000000E+00  0.00000000E+00  0.00000000E+00  0.00000000E+00  0.00000000E+00
Nuclear GFac                               R   N=          15
  0.00000000E+00  0.00000000E+00  0.00000000E+00  0.00000000E+00  0.00000000E+00
  2.79284600E+00  2.79284600E+00  2.79284600E+00  2.79284600E+00  2.79284600E+00
  2.79284600E+00  2.79284600E+00  2.79284600E+00  2.79284600E+00  2.79284600E+00
MicOpt                                     I   N=          15
          -1          -1          -1          -1          -1          -1
          -1          -1          -1          -1          -1          -1
          -1          -1          -1
Number of residues                         I                0
Number of secondary structures             I                0
Redundant internal dimensions              I   N=           4
          69          14          25          30
Redundant internal coordinate indices      I   N=         276
           1           2           0           0           1           6
           0           0           1           7           0           0
           1           8           0           0           2           3
           0           0           2           9           0           0
           2          10           0           0           3           4
           0           0           3          11           0           0
           3          12           0           0           4           5
           0           0           4          13           0           0
           4          14           0           0           5          15
           0           0           2           1           6           0
           2           1           7           0           2           1
           8           0           6           1           7           0
           6           1           8           0           7           1
           8           0           1           2           3           0
           1           2           9           0           1           2
          10           0           3           2           9           0
           3           2          10           0           9           2
          10           0           2           3           4           0
           2           3          11           0           2           3
          12           0           4           3          11           0
           4           3          12           0          11           3
          12           0           3           4           5           0
           3           4          13           0           3           4
          14           0           5           4          13           0
           5           4          14           0          13           4
          14           0           4           5          15           0
           6           1           2           3           6           1
           2           9           6           1           2          10
           7           1           2           3           7           1
           2           9           7           1           2          10
           8           1           2           3           8           1
           2           9           8           1           2          10
           1           2           3           4           1           2
           3          11           1           2           3          12
           9           2           3           4           9           2
           3          11           9           2           3          12
          10           2           3           4          10           2
           3          11          10           2           3          12
           2           3           4           5           2           3
           4          13           2           3           4          14
          11           3           4           5          11           3
           4          13          11           3           4          14
          12           3           4           5          12           3
           4          13          12           3           4          14
           3           4           5          15          13           4
           5          15          14           4           5          15
Redundant internal coordinates             R   N=          69
  2.88517453E+00  2.06277732E+00  2.06520995E+00  2.06520577E+00  2.88507312E+00
  2.07002404E+00  2.07001760E+00  2.86452516E+00  2.06876487E+00  2.06876942E+00
  2.68232067E+00  2.07482326E+00  2.07481972E+00  1.81271907E+00  1.94699950E+00
  1.93365335E+00  1.93365598E+00  1.88393602E+00  1.88394078E+00  1.87920751E+00
  1.95919451E+00  1.91204850E+00  1.91206578E+00  1.91014530E+00  1.91012947E+00
  1.85747305E+00  1.96301575E+00  1.92146092E+00  1.92145547E+00  1.89481516E+00
  1.89476364E+00  1.86544497E+00  1.88573515E+00  1.91516819E+00  1.91523524E+00
  1.93212682E+00  1.93210845E+00  1.88362681E+00  1.90405355E+00  3.14154813E+00
 -1.01578517E+00  1.01570412E+00 -1.04232355E+00  1.08352846E+00  3.11501775E+00
  1.04222667E+00 -3.11510663E+00 -1.08361733E+00  3.14144608E+00 -1.02622770E+00
  1.02600418E+00  1.01450863E+00  3.13002017E+00 -1.10093326E+00 -1.01479091E+00
  1.10072062E+00 -3.13023281E+00  3.14151077E+00 -1.03354886E+00  1.03336769E+00
  1.01083330E+00  3.11895897E+00 -1.09730978E+00 -1.01103994E+00  1.09708573E+00
 -3.11918302E+00  3.14131769E+00  1.04380177E+00 -1.04428058E+00
ZRed-IntVec                                I   N=          69
           0           0           0           0           0           0
           0           0           0           0           0           0
           0           0           0           0           0           0
           0           0           0           0           0           0
           0           0           0           0           0           0
           0           0           0           0           0           0
           0           0           0           0           0           0
           0           0           0           0           0           0
           0           0           0           0           0           0
           0           0           0           0           0           0
           0           0           0           0           0           0
           0           0           0
ZRed-FPVec                                 R   N=          69
  0.00000000E+00  0.00000000E+00  0.00000000E+00  0.00000000E+00  0.00000000E+00
  0.00000000E+00  0.00000000E+00  0.00000000E+00  0.00000000E+00  0.00000000E+00
  0.00000000E+00  0.00000000E+00  0.00000000E+00  0.00000000E+00  0.00000000E+00
  0.00000000E+00  0.00000000E+00  0.00000000E+00  0.00000000E+00  0.00000000E+00
  0.00000000E+00  0.00000000E+00  0.00000000E+00  0.00000000E+00  0.00000000E+00
  0.00000000E+00  0.00000000E+00  0.00000000E+00  0.00000000E+00  0.00000000E+00
  0.00000000E+00  0.00000000E+00  0.00000000E+00  0.00000000E+00  0.00000000E+00
  0.00000000E+00  0.00000000E+00  0.00000000E+00  0.00000000E+00  0.00000000E+00
  0.00000000E+00  0.00000000E+00  0.00000000E+00  0.00000000E+00  0.00000000E+00
  0.00000000E+00  0.00000000E+00  0.00000000E+00  0.00000000E+00  0.00000000E+00
  0.00000000E+00  0.00000000E+00  0.00000000E+00  0.00000000E+00  0.00000000E+00
  0.00000000E+00  0.00000000E+00  0.00000000E+00  0.00000000E+00  0.00000000E+00
  0.00000000E+00  0.00000000E+00  0.00000000E+00  0.00000000E+00  0.00000000E+00
  0.00000000E+00  0.00000000E+00  0.00000000E+00  0.00000000E+00
ZRed-Constraint1                           R   N=          69
  2.88517453E+00  2.06277732E+00  2.06520995E+00  2.06520577E+00  2.88507312E+00
  2.07002404E+00  2.07001760E+00  2.86452516E+00  2.06876487E+00  2.06876942E+00
  2.68232067E+00  2.07482326E+00  2.07481972E+00  1.81271907E+00  1.94699950E+00
  1.93365335E+00  1.93365598E+00  1.88393602E+00  1.88394078E+00  1.87920751E+00
  1.95919451E+00  1.91204850E+00  1.91206578E+00  1.91014530E+00  1.91012947E+00
  1.85747305E+00  1.96301575E+00  1.92146092E+00  1.92145547E+00  1.89481516E+00
  1.89476364E+00  1.86544497E+00  1.88573515E+00  1.91516819E+00  1.91523524E+00
  1.93212682E+00  1.93210845E+00  1.88362681E+00  1.90405355E+00  3.14154813E+00
 -1.01578517E+00  1.01570412E+00 -1.04232355E+00  1.08352846E+00  3.11501775E+00
  1.04222667E+00 -3.11510663E+00 -1.08361733E+00  3.14144608E+00 -1.02622770E+00
  1.02600418E+00  1.01450863E+00  3.13002017E+00 -1.10093326E+00 -1.01479091E+00
  1.10072062E+00 -3.13023281E+00  3.14151077E+00 -1.03354886E+00  1.03336769E+00
  1.01083330E+00  3.11895897E+00 -1.09730978E+00 -1.01103994E+00  1.09708573E+00
 -3.11918302E+00  3.14131769E+00  1.04380177E+00 -1.04428058E+00
ZRed-Constraint2                           R   N=          69
  2.91740384E+00  2.05988946E+00  2.05986643E+00  2.05978762E+00  2.93110459E+00
  2.05989528E+00  2.05971019E+00  2.92071774E+00  2.05979810E+00  2.05976004E+00
  2.68683975E+00  2.05963273E+00  2.05991525E+00  1.81410311E+00  1.91069397E+00
  1.91069429E+00  1.91072006E+00  1.91055067E+00  1.91058228E+00  1.91055813E+00
  1.96214300E+00  1.85105185E+00  1.85108978E+00  1.85403797E+00  1.85413400E+00
  2.09438232E+00  1.96796291E+00  1.85240579E+00  1.85247697E+00  1.85022089E+00
  1.85007726E+00  2.09447811E+00  1.92045860E+00  1.88656880E+00  1.88650400E+00
  1.83574272E+00  1.83552084E+00  2.09448561E+00  1.91065302E+00 -2.79148062E+00
 -7.72457088E-01  1.47254336E+00 -6.97112069E-01  1.32191147E+00 -2.71627339E+00
  1.39728161E+00 -2.86688016E+00 -6.21879708E-01  3.14154552E+00 -1.12336331E+00
  1.12339891E+00  1.12432356E+00 -3.14058527E+00 -8.93823053E-01 -1.12431499E+00
  8.93961491E-01  3.14072371E+00  3.14149595E+00 -1.14585807E+00  1.14596337E+00
  1.12191007E+00  3.11774136E+00 -8.73622507E-01 -1.12210457E+00  8.73726720E-01
 -3.11763715E+00  2.83028614E+00  8.02284933E-01 -1.42509342E+00
SymInf integers                            I   N=          26
           1           1           1           1           1           0
           0           0           0           0           0           0
           0           0           0           0           0           0
           0           0           0           0           0           0
           0           0
RotTr to input orientation                 R   N=          12
 -1.13949072E-01  8.53516294E-01  5.08454074E-01  3.62458686E-01 -4.40795629E-01
  8.21171672E-01  9.25007735E-01  2.77865345E-01 -2.59136141E-01  3.91228196E+00
  2.41706576E+00  5.24210531E-01
Number of contracted shells                I               80
Number of primitive shells                 I              135
Pure/Cartesian d shells                    I                0
Pure/Cartesian f shells                    I                0
Highest angular momentum                   I                2
Largest degree of contraction              I                6
Shell types                                I   N=          80
           0          -1          -1          -1          -1          -2
           0          -1          -1          -1          -1          -2
           0          -1          -1          -1          -1          -2
           0          -1          -1          -1          -1          -2
           0          -1          -1          -1          -1          -2
           0           0           0           0           1           0
           0           0           0           1           0           0
           0           0           1           0           0           0
           0           1           0           0           0           0
           1           0           0           0           0           1
           0           0           0           0           1           0
           0           0           0           1           0           0
           0           0           1           0           0           0
           0           1
Number of primitives per shell             I   N=          80
           6           3           1           1           1           1
           6           3           1           1           1           1
           6           3           1           1           1           1
           6           3           1           1           1           1
           6           3           1           1           1           1
           3           1           1           1           1           3
           1           1           1           1           3           1
           1           1           1           3           1           1
           1           1           3           1           1           1
           1           3           1           1           1           1
           3           1           1           1           1           3
           1           1           1           1           3           1
           1           1           1           3           1           1
           1           1
Shell to atom map                          I   N=          80
           1           1           1           1           1           1
           2           2           2           2           2           2
           3           3           3           3           3           3
           4           4           4           4           4           4
           5           5           5           5           5           5
           6           6           6           6           6           7
           7           7           7           7           8           8
           8           8           8           9           9           9
           9           9          10          10          10          10
          10          11          11          11          11          11
          12          12          12          12          12          13
          13          13          13          13          14          14
          14          14          14          15          15          15
          15          15
Primitive exponents                        R   N=         135
  4.56324000E+03  6.82024000E+02  1.54973000E+02  4.44553000E+01  1.30290000E+01
  1.82773000E+00  2.09642000E+01  4.80331000E+00  1.45933000E+00  4.83456000E-01
  1.45585000E-01  4.38000000E-02  6.26000000E-01  4.56324000E+03  6.82024000E+02
  1.54973000E+02  4.44553000E+01  1.30290000E+01  1.82773000E+00  2.09642000E+01
  4.80331000E+00  1.45933000E+00  4.83456000E-01  1.45585000E-01  4.38000000E-02
  6.26000000E-01  4.56324000E+03  6.82024000E+02  1.54973000E+02  4.44553000E+01
  1.30290000E+01  1.82773000E+00  2.09642000E+01  4.80331000E+00  1.45933000E+00
  4.83456000E-01  1.45585000E-01  4.38000000E-02  6.26000000E-01  4.56324000E+03
  6.82024000E+02  1.54973000E+02  4.44553000E+01  1.30290000E+01  1.82773000E+00
  2.09642000E+01  4.80331000E+00  1.45933000E+00  4.83456000E-01  1.45585000E-01
  4.38000000E-02  6.26000000E-01  8.58850000E+03  1.29723000E+03  2.99296000E+02
  8.73771000E+01  2.56789000E+01  3.74004000E+00  4.21175000E+01  9.62837000E+00
  2.85332000E+00  9.05661000E-01  2.55611000E-01  8.45000000E-02  1.29200000E+00
  3.38650000E+01  5.09479000E+00  1.15879000E+00  3.25840000E-01  1.02741000E-01
  3.60000000E-02  7.50000000E-01  3.38650000E+01  5.09479000E+00  1.15879000E+00
  3.25840000E-01  1.02741000E-01  3.60000000E-02  7.50000000E-01  3.38650000E+01
  5.09479000E+00  1.15879000E+00  3.25840000E-01  1.02741000E-01  3.60000000E-02
  7.50000000E-01  3.38650000E+01  5.09479000E+00  1.15879000E+00  3.25840000E-01
  1.02741000E-01  3.60000000E-02  7.50000000E-01  3.38650000E+01  5.09479000E+00
  1.15879000E+00  3.25840000E-01  1.02741000E-01  3.60000000E-02  7.50000000E-01
  3.38650000E+01  5.09479000E+00  1.15879000E+00  3.25840000E-01  1.02741000E-01
  3.60000000E-02  7.50000000E-01  3.38650000E+01  5.09479000E+00  1.15879000E+00
  3.25840000E-01  1.02741000E-01  3.60000000E-02  7.50000000E-01  3.38650000E+01
  5.09479000E+00  1.15879000E+00  3.25840000E-01  1.02741000E-01  3.60000000E-02
  7.50000000E-01  3.38650000E+01  5.09479000E+00  1.15879000E+00  3.25840000E-01
  1.02741000E-01  3.60000000E-02  7.50000000E-01  3.38650000E+01  5.09479000E+00
  1.15879000E+00  3.25840000E-01  1.02741000E-01  3.60000000E-02  7.50000000E-01
Contraction coefficients                   R   N=         135
  1.96665025E-03  1.52306019E-02  7.61269097E-02  2.60801033E-01  6.16462078E-01
  2.21006028E-01  1.14660081E-01  9.19999648E-01 -3.03068213E-03  1.00000000E+00
  1.00000000E+00  1.00000000E+00  1.00000000E+00  1.96665025E-03  1.52306019E-02
  7.61269097E-02  2.60801033E-01  6.16462078E-01  2.21006028E-01  1.14660081E-01
  9.19999648E-01 -3.03068213E-03  1.00000000E+00  1.00000000E+00  1.00000000E+00
  1.00000000E+00  1.96665025E-03  1.52306019E-02  7.61269097E-02  2.60801033E-01
  6.16462078E-01  2.21006028E-01  1.14660081E-01  9.19999648E-01 -3.03068213E-03
  1.00000000E+00  1.00000000E+00  1.00000000E+00  1.00000000E+00  1.96665025E-03
  1.52306019E-02  7.61269097E-02  2.60801033E-01  6.16462078E-01  2.21006028E-01
  1.14660081E-01  9.19999648E-01 -3.03068213E-03  1.00000000E+00  1.00000000E+00
  1.00000000E+00  1.00000000E+00  1.89515008E-03  1.43859006E-02  7.07320031E-02
  2.40001011E-01  5.94797026E-01  2.80802012E-01  1.13889012E-01  9.20811101E-01
 -3.27447036E-03  1.00000000E+00  1.00000000E+00  1.00000000E+00  1.00000000E+00
  2.54938145E-02  1.90373109E-01  8.52161486E-01  1.00000000E+00  1.00000000E+00
  1.00000000E+00  1.00000000E+00  2.54938145E-02  1.90373109E-01  8.52161486E-01
  1.00000000E+00  1.00000000E+00  1.00000000E+00  1.00000000E+00  2.54938145E-02
  1.90373109E-01  8.52161486E-01  1.00000000E+00  1.00000000E+00  1.00000000E+00
  1.00000000E+00  2.54938145E-02  1.90373109E-01  8.52161486E-01  1.00000000E+00
  1.00000000E+00  1.00000000E+00  1.00000000E+00  2.54938145E-02  1.90373109E-01
  8.52161486E-01  1.00000000E+00  1.00000000E+00  1.00000000E+00  1.00000000E+00
  2.54938145E-02  1.90373109E-01  8.52161486E-01  1.00000000E+00  1.00000000E+00
  1.00000000E+00  1.00000000E+00  2.54938145E-02  1.90373109E-01  8.52161486E-01
  1.00000000E+00  1.00000000E+00  1.00000000E+00  1.00000000E+00  2.54938145E-02
  1.90373109E-01  8.52161486E-01  1.00000000E+00  1.00000000E+00  1.00000000E+00
  1.00000000E+00  2.54938145E-02  1.90373109E-01  8.52161486E-01  1.00000000E+00
  1.00000000E+00  1.00000000E+00  1.00000000E+00  2.54938145E-02  1.90373109E-01
  8.52161486E-01  1.00000000E+00  1.00000000E+00  1.00000000E+00  1.00000000E+00
P(S=P) Contraction coefficients            R   N=         135
  0.00000000E+00  0.00000000E+00  0.00000000E+00  0.00000000E+00  0.00000000E+00
  0.00000000E+00  4.02486927E-02  2.37593957E-01  8.15853851E-01  1.00000000E+00
  1.00000000E+00  1.00000000E+00  0.00000000E+00  0.00000000E+00  0.00000000E+00
  0.00000000E+00  0.00000000E+00  0.00000000E+00  0.00000000E+00  4.02486927E-02
  2.37593957E-01  8.15853851E-01  1.00000000E+00  1.00000000E+00  1.00000000E+00
  0.00000000E+00  0.00000000E+00  0.00000000E+00  0.00000000E+00  0.00000000E+00
  0.00000000E+00  0.00000000E+00  4.02486927E-02  2.37593957E-01  8.15853851E-01
  1.00000000E+00  1.00000000E+00  1.00000000E+00  0.00000000E+00  0.00000000E+00
  0.00000000E+00  0.00000000E+00  0.00000000E+00  0.00000000E+00  0.00000000E+00
  4.02486927E-02  2.37593957E-01  8.15853851E-01  1.00000000E+00  1.00000000E+00
  1.00000000E+00  0.00000000E+00  0.00000000E+00  0.00000000E+00  0.00000000E+00
  0.00000000E+00  0.00000000E+00  0.00000000E+00  3.65113974E-02  2.37152983E-01
  8.19701941E-01  1.00000000E+00  1.00000000E+00  1.00000000E+00  0.00000000E+00
  0.00000000E+00  0.00000000E+00  0.00000000E+00  0.00000000E+00  0.00000000E+00
  0.00000000E+00  0.00000000E+00  0.00000000E+00  0.00000000E+00  0.00000000E+00
  0.00000000E+00  0.00000000E+00  0.00000000E+00  0.00000000E+00  0.00000000E+00
  0.00000000E+00  0.00000000E+00  0.00000000E+00  0.00000000E+00  0.00000000E+00
  0.00000000E+00  0.00000000E+00  0.00000000E+00  0.00000000E+00  0.00000000E+00
  0.00000000E+00  0.00000000E+00  0.00000000E+00  0.00000000E+00  0.00000000E+00
  0.00000000E+00  0.00000000E+00  0.00000000E+00  0.00000000E+00  0.00000000E+00
  0.00000000E+00  0.00000000E+00  0.00000000E+00  0.00000000E+00  0.00000000E+00
  0.00000000E+00  0.00000000E+00  0.00000000E+00  0.00000000E+00  0.00000000E+00
  0.00000000E+00  0.00000000E+00  0.00000000E+00  0.00000000E+00  0.00000000E+00
  0.00000000E+00  0.00000000E+00  0.00000000E+00  0.00000000E+00  0.00000000E+00
  0.00000000E+00  0.00000000E+00  0.00000000E+00  0.00000000E+00  0.00000000E+00
  0.00000000E+00  0.00000000E+00  0.00000000E+00  0.00000000E+00  0.00000000E+00
  0.00000000E+00  0.00000000E+00  0.00000000E+00  0.00000000E+00  0.00000000E+00
Coordinates of each shell                  R   N=         240
 -4.73067689E+00 -5.59175527E-01 -9.87518422E-05 -4.73067689E+00 -5.59175527E-01
 -9.87518422E-05 -4.73067689E+00 -5.59175527E-01 -9.87518422E-05 -4.73067689E+00
 -5.59175527E-01 -9.87518422E-05 -4.73067689E+00 -5.59175527E-01 -9.87518422E-05
 -4.73067689E+00 -5.59175527E-01 -9.87518422E-05 -2.30662126E+00  1.00549258E+00
  1.32212961E-04 -2.30662126E+00  1.00549258E+00  1.32212961E-04 -2.30662126E+00
  1.00549258E+00  1.32212961E-04 -2.30662126E+00  1.00549258E+00  1.32212961E-04
 -2.30662126E+00  1.00549258E+00  1.32212961E-04 -2.30662126E+00  1.00549258E+00
  1.32212961E-04  5.94276749E-02 -6.45403962E-01  7.55446445E-05  5.94276749E-02
 -6.45403962E-01  7.55446445E-05  5.94276749E-02 -6.45403962E-01  7.55446445E-05
  5.94276749E-02 -6.45403962E-01  7.55446445E-05  5.94276749E-02 -6.45403962E-01
  7.55446445E-05  5.94276749E-02 -6.45403962E-01  7.55446445E-05  2.47205280E+00
  8.98857800E-01 -8.37254163E-05  2.47205280E+00  8.98857800E-01 -8.37254163E-05
  2.47205280E+00  8.98857800E-01 -8.37254163E-05  2.47205280E+00  8.98857800E-01
 -8.37254163E-05  2.47205280E+00  8.98857800E-01 -8.37254163E-05  2.47205280E+00
  8.98857800E-01 -8.37254163E-05  4.54676061E+00 -8.01269137E-01  8.33489944E-05
  4.54676061E+00 -8.01269137E-01  8.33489944E-05  4.54676061E+00 -8.01269137E-01
  8.33489944E-05  4.54676061E+00 -8.01269137E-01  8.33489944E-05  4.54676061E+00
 -8.01269137E-01  8.33489944E-05  4.54676061E+00 -8.01269137E-01  8.33489944E-05
 -6.40784094E+00  6.41728720E-01  2.95631693E-05 -6.40784094E+00  6.41728720E-01
  2.95631693E-05 -6.40784094E+00  6.41728720E-01  2.95631693E-05 -6.40784094E+00
  6.41728720E-01  2.95631693E-05 -6.40784094E+00  6.41728720E-01  2.95631693E-05
 -4.81855051E+00 -1.77448179E+00 -1.66755222E+00 -4.81855051E+00 -1.77448179E+00
 -1.66755222E+00 -4.81855051E+00 -1.77448179E+00 -1.66755222E+00 -4.81855051E+00
 -1.77448179E+00 -1.66755222E+00 -4.81855051E+00 -1.77448179E+00 -1.66755222E+00
 -4.81859420E+00 -1.77491297E+00  1.66703288E+00 -4.81859420E+00 -1.77491297E+00
  1.66703288E+00 -4.81859420E+00 -1.77491297E+00  1.66703288E+00 -4.81859420E+00
 -1.77491297E+00  1.66703288E+00 -4.81859420E+00 -1.77491297E+00  1.66703288E+00
 -2.28199627E+00  2.24502136E+00 -1.65756544E+00 -2.28199627E+00  2.24502136E+00
 -1.65756544E+00 -2.28199627E+00  2.24502136E+00 -1.65756544E+00 -2.28199627E+00
  2.24502136E+00 -1.65756544E+00 -2.28199627E+00  2.24502136E+00 -1.65756544E+00
 -2.28208335E+00  2.24472503E+00  1.65804465E+00 -2.28208335E+00  2.24472503E+00
  1.65804465E+00 -2.28208335E+00  2.24472503E+00  1.65804465E+00 -2.28208335E+00
  2.24472503E+00  1.65804465E+00 -2.28208335E+00  2.24472503E+00  1.65804465E+00
  6.62416102E-02 -1.87764129E+00  1.66180141E+00  6.62416102E-02 -1.87764129E+00
  1.66180141E+00  6.62416102E-02 -1.87764129E+00  1.66180141E+00  6.62416102E-02
 -1.87764129E+00  1.66180141E+00  6.62416102E-02 -1.87764129E+00  1.66180141E+00
  6.61455016E-02 -1.87764919E+00 -1.66165051E+00  6.61455016E-02 -1.87764919E+00
 -1.66165051E+00  6.61455016E-02 -1.87764919E+00 -1.66165051E+00  6.61455016E-02
 -1.87764919E+00 -1.66165051E+00  6.61455016E-02 -1.87764919E+00 -1.66165051E+00
  2.52311600E+00  2.11824645E+00 -1.67799178E+00  2.52311600E+00  2.11824645E+00
 -1.67799178E+00  2.52311600E+00  2.11824645E+00 -1.67799178E+00  2.52311600E+00
  2.11824645E+00 -1.67799178E+00  2.52311600E+00  2.11824645E+00 -1.67799178E+00
  2.52322927E+00  2.11865622E+00  1.67751863E+00  2.52322927E+00  2.11865622E+00
  1.67751863E+00  2.52322927E+00  2.11865622E+00  1.67751863E+00  2.52322927E+00