 Entering Gaussian System, Link 0=/apps/cent7/gaussian/g16-A.03/g16-haswell/g16/g16
 Initial command:
 /apps/cent7/gaussian/g16-A.03/g16-haswell/g16/l1.exe "/scratch/brown/finej/gaussian/Gau-444563.inp" -scrdir="/scratch/brown/finej/gaussian/"
 Entering Link 1 = /apps/cent7/gaussian/g16-A.03/g16-haswell/g16/l1.exe PID=    444565.
  
 Copyright (c) 1988,1990,1992,1993,1995,1998,2003,2009,2016,
            Gaussian, Inc.  All Rights Reserved.
  
 This is part of the Gaussian(R) 16 program.  It is based on
 the Gaussian(R) 09 system (copyright 2009, Gaussian, Inc.),
 the Gaussian(R) 03 system (copyright 2003, Gaussian, Inc.),
 the Gaussian(R) 98 system (copyright 1998, Gaussian, Inc.),
 the Gaussian(R) 94 system (copyright 1995, Gaussian, Inc.),
 the Gaussian 92(TM) system (copyright 1992, Gaussian, Inc.),
 the Gaussian 90(TM) system (copyright 1990, Gaussian, Inc.),
 the Gaussian 88(TM) system (copyright 1988, Gaussian, Inc.),
 the Gaussian 86(TM) system (copyright 1986, Carnegie Mellon
 University), and the Gaussian 82(TM) system (copyright 1983,
 Carnegie Mellon University). Gaussian is a federally registered
 trademark of Gaussian, Inc.
  
 This software contains proprietary and confidential information,
 including trade secrets, belonging to Gaussian, Inc.
  
 This software is provided under written license and may be
 used, copied, transmitted, or stored only in accord with that
 written license.
  
 The following legend is applicable only to US Government
 contracts under FAR:
  
                    RESTRICTED RIGHTS LEGEND
  
 Use, reproduction and disclosure by the US Government is
 subject to restrictions as set forth in subparagraphs (a)
 and (c) of the Commercial Computer Software - Restricted
 Rights clause in FAR 52.227-19.
  
 Gaussian, Inc.
 340 Quinnipiac St., Bldg. 40, Wallingford CT 06492
  
  
 ---------------------------------------------------------------
 Warning -- This program may not be used in any manner that
 competes with the business of Gaussian, Inc. or will provide
 assistance to any competitor of Gaussian, Inc.  The licensee
 of this program is prohibited from giving any competitor of
 Gaussian, Inc. access to this program.  By using this program,
 the user acknowledges that Gaussian, Inc. is engaged in the
 business of creating and licensing software in the field of
 computational chemistry and represents and warrants to the
 licensee that it is not a competitor of Gaussian, Inc. and that
 it will not use this program in any manner prohibited above.
 ---------------------------------------------------------------
  

 Cite this work as:
 Gaussian 16, Revision A.03,
 M. J. Frisch, G. W. Trucks, H. B. Schlegel, G. E. Scuseria, 
 M. A. Robb, J. R. Cheeseman, G. Scalmani, V. Barone, 
 G. A. Petersson, H. Nakatsuji, X. Li, M. Caricato, A. V. Marenich, 
 J. Bloino, B. G. Janesko, R. Gomperts, B. Mennucci, H. P. Hratchian, 
 J. V. Ortiz, A. F. Izmaylov, J. L. Sonnenberg, D. Williams-Young, 
 F. Ding, F. Lipparini, F. Egidi, J. Goings, B. Peng, A. Petrone, 
 T. Henderson, D. Ranasinghe, V. G. Zakrzewski, J. Gao, N. Rega, 
 G. Zheng, W. Liang, M. Hada, M. Ehara, K. Toyota, R. Fukuda, 
 J. Hasegawa, M. Ishida, T. Nakajima, Y. Honda, O. Kitao, H. Nakai, 
 T. Vreven, K. Throssell, J. A. Montgomery, Jr., J. E. Peralta, 
 F. Ogliaro, M. J. Bearpark, J. J. Heyd, E. N. Brothers, K. N. Kudin, 
 V. N. Staroverov, T. A. Keith, R. Kobayashi, J. Normand, 
 K. Raghavachari, A. P. Rendell, J. C. Burant, S. S. Iyengar, 
 J. Tomasi, M. Cossi, J. M. Millam, M. Klene, C. Adamo, R. Cammi, 
 J. W. Ochterski, R. L. Martin, K. Morokuma, O. Farkas, 
 J. B. Foresman, and D. J. Fox, Gaussian, Inc., Wallingford CT, 2016.
 
 ******************************************
 Gaussian 16:  ES64L-G16RevA.03 25-Dec-2016
                13-Oct-2019 
 ******************************************
 %chk=20.chk
 %nprocshared=24
 Will use up to   24 processors via shared memory.
 %mem=80GB
 -------------------------------------------------------------------
 #P opt freq m062x/6-311++g(d,p) geom=connectivity temperature=0.001
 -------------------------------------------------------------------
 1/18=20,19=15,26=3,38=1,57=2,112=-1000/1,3;
 2/9=110,12=2,17=6,18=5,40=1/2;
 3/5=4,6=6,7=1111,11=2,25=1,30=1,71=1,74=-55/1,2,3;
 4//1;
 5/5=2,38=5/2;
 6/7=2,8=2,9=2,10=2,28=1/1;
 7//1,2,3,16;
 1/18=20,19=15,26=3/3(2);
 2/9=110/2;
 99//99;
 2/9=110/2;
 3/5=4,6=6,7=1111,11=2,25=1,30=1,71=1,74=-55/1,2,3;
 4/5=5,16=3,69=1/1;
 5/5=2,38=5/2;
 7//1,2,3,16;
 1/18=20,19=15,26=3/3(-5);
 2/9=110/2;
 6/7=2,8=2,9=2,10=2,19=2,28=1/1;
 99/9=1/99;
 Leave Link    1 at Sun Oct 13 21:36:55 2019, MaxMem= 10737418240 cpu:               1.8 elap:               0.1
 (Enter /apps/cent7/gaussian/g16-A.03/g16-haswell/g16/l101.exe)
 -------------------
 Title Card Required
 -------------------
 Symbolic Z-matrix:
 Charge =  0 Multiplicity = 1
 C                     2.246    -0.7624   -1.2558 
 C                     2.4467   -0.0101    0.0773 
 C                     1.9396    1.4543    0.0124 
 C                     2.1368    2.2148    1.3434 
 O                     1.654     3.5464    1.2197 
 H                     2.2733   -1.8369   -1.0744 
 H                     1.2814   -0.4908   -1.6847 
 H                     3.0415   -0.4908   -1.9497 
 H                     1.8174   -0.5183    0.808 
 H                     3.5241    0.0471    0.232 
 H                     2.5691    1.9607   -0.7193 
 H                     0.8624    1.3953   -0.1432 
 H                     1.501     1.7495    2.0965 
 H                     3.2077    2.315     1.5205 
 H                     1.5184    3.9201    2.0935 
 
 ITRead=  0  0  0  0  0  0  0  0  0  0  0  0  0  0  0
 MicOpt= -1 -1 -1 -1 -1 -1 -1 -1 -1 -1 -1 -1 -1 -1 -1
 NAtoms=     15 NQM=       15 NQMF=       0 NMMI=      0 NMMIF=      0
                NMic=       0 NMicF=      0.
                    Isotopes and Nuclear Properties:
 (Nuclear quadrupole moments (NQMom) in fm**2, nuclear magnetic moments (NMagM)
  in nuclear magnetons)

  Atom         1           2           3           4           5           6           7           8           9          10
 IAtWgt=          12          12          12          12          16           1           1           1           1           1
 AtmWgt=  12.0000000  12.0000000  12.0000000  12.0000000  15.9949146   1.0078250   1.0078250   1.0078250   1.0078250   1.0078250
 NucSpn=           0           0           0           0           0           1           1           1           1           1
 AtZEff=  -0.0000000  -0.0000000  -0.0000000  -0.0000000  -0.0000000  -0.0000000  -0.0000000  -0.0000000  -0.0000000  -0.0000000
 NQMom=    0.0000000   0.0000000   0.0000000   0.0000000   0.0000000   0.0000000   0.0000000   0.0000000   0.0000000   0.0000000
 NMagM=    0.0000000   0.0000000   0.0000000   0.0000000   0.0000000   2.7928460   2.7928460   2.7928460   2.7928460   2.7928460
 AtZNuc=   6.0000000   6.0000000   6.0000000   6.0000000   8.0000000   1.0000000   1.0000000   1.0000000   1.0000000   1.0000000

  Atom        11          12          13          14          15
 IAtWgt=           1           1           1           1           1
 AtmWgt=   1.0078250   1.0078250   1.0078250   1.0078250   1.0078250
 NucSpn=           1           1           1           1           1
 AtZEff=  -0.0000000  -0.0000000  -0.0000000  -0.0000000  -0.0000000
 NQMom=    0.0000000   0.0000000   0.0000000   0.0000000   0.0000000
 NMagM=    2.7928460   2.7928460   2.7928460   2.7928460   2.7928460
 AtZNuc=   1.0000000   1.0000000   1.0000000   1.0000000   1.0000000
 Leave Link  101 at Sun Oct 13 21:36:56 2019, MaxMem= 10737418240 cpu:               8.7 elap:               0.4
 (Enter /apps/cent7/gaussian/g16-A.03/g16-haswell/g16/l103.exe)

 GradGradGradGradGradGradGradGradGradGradGradGradGradGradGradGradGradGrad
 Berny optimization.
 Initialization pass.
                           ----------------------------
                           !    Initial Parameters    !
                           ! (Angstroms and Degrees)  !
 --------------------------                            --------------------------
 ! Name  Definition              Value          Derivative Info.                !
 --------------------------------------------------------------------------------
 ! R1    R(1,2)                  1.5438         estimate D2E/DX2                !
 ! R2    R(1,6)                  1.09           estimate D2E/DX2                !
 ! R3    R(1,7)                  1.09           estimate D2E/DX2                !
 ! R4    R(1,8)                  1.09           estimate D2E/DX2                !
 ! R5    R(2,3)                  1.5511         estimate D2E/DX2                !
 ! R6    R(2,9)                  1.09           estimate D2E/DX2                !
 ! R7    R(2,10)                 1.09           estimate D2E/DX2                !
 ! R8    R(3,4)                  1.5456         estimate D2E/DX2                !
 ! R9    R(3,11)                 1.09           estimate D2E/DX2                !
 ! R10   R(3,12)                 1.09           estimate D2E/DX2                !
 ! R11   R(4,5)                  1.4218         estimate D2E/DX2                !
 ! R12   R(4,13)                 1.0899         estimate D2E/DX2                !
 ! R13   R(4,14)                 1.0901         estimate D2E/DX2                !
 ! R14   R(5,15)                 0.96           estimate D2E/DX2                !
 ! A1    A(2,1,6)              109.4747         estimate D2E/DX2                !
 ! A2    A(2,1,7)              109.4747         estimate D2E/DX2                !
 ! A3    A(2,1,8)              109.4762         estimate D2E/DX2                !
 ! A4    A(6,1,7)              109.4665         estimate D2E/DX2                !
 ! A5    A(6,1,8)              109.4683         estimate D2E/DX2                !
 ! A6    A(7,1,8)              109.4669         estimate D2E/DX2                !
 ! A7    A(1,2,3)              112.4225         estimate D2E/DX2                !
 ! A8    A(1,2,9)              106.0575         estimate D2E/DX2                !
 ! A9    A(1,2,10)             106.0596         estimate D2E/DX2                !
 ! A10   A(3,2,9)              106.2286         estimate D2E/DX2                !
 ! A11   A(3,2,10)             106.2341         estimate D2E/DX2                !
 ! A12   A(9,2,10)             119.9993         estimate D2E/DX2                !
 ! A13   A(2,3,4)              112.756          estimate D2E/DX2                !
 ! A14   A(2,3,11)             106.135          estimate D2E/DX2                !
 ! A15   A(2,3,12)             106.1391         estimate D2E/DX2                !
 ! A16   A(4,3,11)             106.0098         estimate D2E/DX2                !
 ! A17   A(4,3,12)             106.0016         estimate D2E/DX2                !
 ! A18   A(11,3,12)            120.0048         estimate D2E/DX2                !
 ! A19   A(3,4,5)              110.0342         estimate D2E/DX2                !
 ! A20   A(3,4,13)             108.0924         estimate D2E/DX2                !
 ! A21   A(3,4,14)             108.0887         estimate D2E/DX2                !
 ! A22   A(5,4,13)             105.1803         estimate D2E/DX2                !
 ! A23   A(5,4,14)             105.1676         estimate D2E/DX2                !
 ! A24   A(13,4,14)            120.0052         estimate D2E/DX2                !
 ! A25   A(4,5,15)             109.4724         estimate D2E/DX2                !
 ! D1    D(6,1,2,3)           -159.9401         estimate D2E/DX2                !
 ! D2    D(6,1,2,9)            -44.2585         estimate D2E/DX2                !
 ! D3    D(6,1,2,10)            84.3705         estimate D2E/DX2                !
 ! D4    D(7,1,2,3)            -39.9416         estimate D2E/DX2                !
 ! D5    D(7,1,2,9)             75.7399         estimate D2E/DX2                !
 ! D6    D(7,1,2,10)          -155.631          estimate D2E/DX2                !
 ! D7    D(8,1,2,3)             80.0583         estimate D2E/DX2                !
 ! D8    D(8,1,2,9)           -164.2601         estimate D2E/DX2                !
 ! D9    D(8,1,2,10)           -35.6311         estimate D2E/DX2                !
 ! D10   D(1,2,3,4)            179.9973         estimate D2E/DX2                !
 ! D11   D(1,2,3,11)           -64.364          estimate D2E/DX2                !
 ! D12   D(1,2,3,12)            64.366          estimate D2E/DX2                !
 ! D13   D(9,2,3,4)             64.419          estimate D2E/DX2                !
 ! D14   D(9,2,3,11)          -179.9423         estimate D2E/DX2                !
 ! D15   D(9,2,3,12)           -51.2123         estimate D2E/DX2                !
 ! D16   D(10,2,3,4)           -64.4185         estimate D2E/DX2                !
 ! D17   D(10,2,3,11)           51.2202         estimate D2E/DX2                !
 ! D18   D(10,2,3,12)          179.9502         estimate D2E/DX2                !
 ! D19   D(2,3,4,5)            179.9945         estimate D2E/DX2                !
 ! D20   D(2,3,4,13)           -65.6528         estimate D2E/DX2                !
 ! D21   D(2,3,4,14)            65.6589         estimate D2E/DX2                !
 ! D22   D(11,3,4,5)            64.2807         estimate D2E/DX2                !
 ! D23   D(11,3,4,13)          178.6334         estimate D2E/DX2                !
 ! D24   D(11,3,4,14)          -50.0549         estimate D2E/DX2                !
 ! D25   D(12,3,4,5)           -64.2919         estimate D2E/DX2                !
 ! D26   D(12,3,4,13)           50.0609         estimate D2E/DX2                !
 ! D27   D(12,3,4,14)         -178.6275         estimate D2E/DX2                !
 ! D28   D(3,4,5,15)           162.1635         estimate D2E/DX2                !
 ! D29   D(13,4,5,15)           45.9675         estimate D2E/DX2                !
 ! D30   D(14,4,5,15)          -81.6518         estimate D2E/DX2                !
 --------------------------------------------------------------------------------
 Trust Radius=3.00D-01 FncErr=1.00D-07 GrdErr=1.00D-06 EigMax=2.50D+02 EigMin=1.00D-04
 Number of steps in this run=     79 maximum allowed number of steps=    100.
 GradGradGradGradGradGradGradGradGradGradGradGradGradGradGradGradGradGrad

 Leave Link  103 at Sun Oct 13 21:36:56 2019, MaxMem= 10737418240 cpu:               0.3 elap:               0.0
 (Enter /apps/cent7/gaussian/g16-A.03/g16-haswell/g16/l202.exe)
                          Input orientation:                          
 ---------------------------------------------------------------------
 Center     Atomic      Atomic             Coordinates (Angstroms)
 Number     Number       Type             X           Y           Z
 ---------------------------------------------------------------------
      1          6           0        2.246000   -0.762400   -1.255800
      2          6           0        2.446700   -0.010100    0.077300
      3          6           0        1.939600    1.454300    0.012400
      4          6           0        2.136800    2.214800    1.343400
      5          8           0        1.654000    3.546400    1.219700
      6          1           0        2.273300   -1.836900   -1.074400
      7          1           0        1.281400   -0.490800   -1.684700
      8          1           0        3.041500   -0.490800   -1.949700
      9          1           0        1.817400   -0.518300    0.808000
     10          1           0        3.524100    0.047100    0.232000
     11          1           0        2.569100    1.960700   -0.719300
     12          1           0        0.862400    1.395300   -0.143200
     13          1           0        1.501000    1.749500    2.096500
     14          1           0        3.207700    2.315000    1.520500
     15          1           0        1.518400    3.920100    2.093500
 ---------------------------------------------------------------------
                    Distance matrix (angstroms):
                    1          2          3          4          5
     1  C    0.000000
     2  C    1.543824   0.000000
     3  C    2.572153   1.551074   0.000000
     4  C    3.953667   2.578610   1.545577   0.000000
     5  O    5.004430   3.818657   2.432288   1.421814   0.000000
     6  H    1.090047   2.166490   3.482023   4.720240   5.884416
     7  H    1.090034   2.166481   2.663980   4.149864   4.987319
     8  H    1.089993   2.166469   2.974464   4.356978   5.316882
     9  H    2.121922   1.090050   2.130508   2.803303   4.088763
    10  H    2.121881   1.089952   2.130511   2.803343   4.088756
    11  H    2.794190   2.129227   1.089998   2.122777   2.666753
    12  H    2.794261   2.129267   1.089978   2.122653   2.666713
    13  H    4.254713   2.840371   2.150113   1.089911   2.005252
    14  H    4.254774   2.840429   2.150174   1.090060   2.005196
    15  H    5.802846   4.513676   3.254006   1.962936   0.959982
                    6          7          8          9         10
     6  H    0.000000
     7  H    1.779977   0.000000
     8  H    1.779963   1.779937   0.000000
     9  H    2.343071   2.549825   3.017298   0.000000
    10  H    2.611635   2.998796   2.298272   1.887930   0.000000
    11  H    3.825619   2.932579   2.783325   3.007181   2.340697
    12  H    3.647587   2.471671   3.401366   2.340656   3.007169
    13  H    4.849053   4.400527   4.874815   2.627405   3.235345
    14  H    4.984464   4.675088   4.465694   3.235457   2.627492
    15  H    6.614266   5.812659   6.174410   4.630476   4.742167
                   11         12         13         14         15
    11  H    0.000000
    12  H    1.887960   0.000000
    13  H    3.018969   2.355743   0.000000
    14  H    2.355853   3.018970   1.887960   0.000000
    15  H    3.585396   3.436245   2.170672   2.399669   0.000000
 Stoichiometry    C4H10O
 Framework group  C1[X(C4H10O)]
 Deg. of freedom    39
 Full point group                 C1      NOp   1
 Largest Abelian subgroup         C1      NOp   1
 Largest concise Abelian subgroup C1      NOp   1
                         Standard orientation:                         
 ---------------------------------------------------------------------
 Center     Atomic      Atomic             Coordinates (Angstroms)
 Number     Number       Type             X           Y           Z
 ---------------------------------------------------------------------
      1          6           0       -2.548489   -0.289419   -0.010459
      2          6           0       -1.246004    0.539315    0.000688
      3          6           0        0.022834   -0.352793    0.005488
      4          6           0        1.331605    0.469280    0.016584
      5          8           0        2.454560   -0.402793    0.020670
      6          1           0       -3.371084    0.331210   -0.365928
      7          1           0       -2.427970   -1.146909   -0.672548
      8          1           0       -2.766224   -0.637799    0.999148
      9          1           0       -1.229387    1.087541   -0.941321
     10          1           0       -1.241296    1.080887    0.946559
     11          1           0        0.004149   -0.900963    0.947431
     12          1           0        0.016109   -0.894229   -0.940479
     13          1           0        1.396947    1.014323   -0.924992
     14          1           0        1.385123    1.007626    0.962919
     15          1           0        3.237481    0.082353   -0.249949
 ---------------------------------------------------------------------
 Rotational constants (GHZ):          19.3487210           1.9168317           1.8333628
 Leave Link  202 at Sun Oct 13 21:36:56 2019, MaxMem= 10737418240 cpu:               0.4 elap:               0.0
 (Enter /apps/cent7/gaussian/g16-A.03/g16-haswell/g16/l301.exe)
 Standard basis: 6-311++G(d,p) (5D, 7F)
 Ernie: Thresh=  0.10000D-02 Tol=  0.10000D-05 Strict=F.
 There are   185 symmetry adapted cartesian basis functions of A   symmetry.
 There are   180 symmetry adapted basis functions of A   symmetry.
   180 basis functions,   270 primitive gaussians,   185 cartesian basis functions
    21 alpha electrons       21 beta electrons
       nuclear repulsion energy       184.0310460162 Hartrees.
 IExCor= 4336 DFT=T Ex+Corr=M062X ExCW=0 ScaHFX=  0.540000
 ScaDFX=  1.000000  1.000000  1.000000  1.000000 ScalE2=  1.000000  1.000000
 IRadAn=      5 IRanWt=     -1 IRanGd=            0 ICorTp=0 IEmpDi=  4
 NAtoms=   15 NActive=   15 NUniq=   15 SFac= 1.00D+00 NAtFMM=   60 NAOKFM=F Big=F
 Integral buffers will be    131072 words long.
 Raffenetti 2 integral format.
 Two-electron integral symmetry is turned on.
 Leave Link  301 at Sun Oct 13 21:36:56 2019, MaxMem= 10737418240 cpu:               1.3 elap:               0.1
 (Enter /apps/cent7/gaussian/g16-A.03/g16-haswell/g16/l302.exe)
 NPDir=0 NMtPBC=     1 NCelOv=     1 NCel=       1 NClECP=     1 NCelD=      1
         NCelK=      1 NCelE2=     1 NClLst=     1 CellRange=     0.0.
 One-electron integrals computed using PRISM.
 One-electron integral symmetry used in STVInt
 NBasis=   180 RedAO= T EigKep=  2.14D-05  NBF=   180
 NBsUse=   180 1.00D-06 EigRej= -1.00D+00 NBFU=   180
 Precomputing XC quadrature grid using
 IXCGrd= 4 IRadAn=           5 IRanWt=          -1 IRanGd=           0 AccXCQ= 0.00D+00.
 Generated NRdTot=       0 NPtTot=           0 NUsed=           0 NTot=          32
 NSgBfM=   185   185   185   185   185 MxSgAt=    15 MxSgA2=    15.
 Leave Link  302 at Sun Oct 13 21:36:56 2019, MaxMem= 10737418240 cpu:               3.5 elap:               0.2
 (Enter /apps/cent7/gaussian/g16-A.03/g16-haswell/g16/l303.exe)
 DipDrv:  MaxL=1.
 Leave Link  303 at Sun Oct 13 21:36:56 2019, MaxMem= 10737418240 cpu:               0.8 elap:               0.1
 (Enter /apps/cent7/gaussian/g16-A.03/g16-haswell/g16/l401.exe)
 ExpMin= 3.60D-02 ExpMax= 8.59D+03 ExpMxC= 1.30D+03 IAcc=3 IRadAn=         5 AccDes= 0.00D+00
 Harris functional with IExCor= 1009 and IRadAn=       5 diagonalized for initial guess.
 HarFok:  IExCor= 1009 AccDes= 0.00D+00 IRadAn=         5 IDoV= 1 UseB2=F ITyADJ=14
 ICtDFT=  3500011 ScaDFX=  1.000000  1.000000  1.000000  1.000000
 FoFCou: FMM=F IPFlag=           0 FMFlag=      100000 FMFlg1=           0
         NFxFlg=           0 DoJE=T BraDBF=F KetDBF=T FulRan=T
         wScrn=  0.000000 ICntrl=       500 IOpCl=  0 I1Cent=   200000004 NGrid=           0
         NMat0=    1 NMatS0=      1 NMatT0=    0 NMatD0=    1 NMtDS0=    0 NMtDT0=    0
 Petite list used in FoFCou.
 Harris En= -233.570003288795    
 JPrj=0 DoOrth=F DoCkMO=F.
 Leave Link  401 at Sun Oct 13 21:36:57 2019, MaxMem= 10737418240 cpu:               7.1 elap:               0.3
 (Enter /apps/cent7/gaussian/g16-A.03/g16-haswell/g16/l502.exe)
 Integral symmetry usage will be decided dynamically.
 Closed shell SCF:
 Using DIIS extrapolation, IDIIS=  1040.
 NGot= 10737418240 LenX= 10737343343 LenY= 10737308677
 Requested convergence on RMS density matrix=1.00D-08 within 128 cycles.
 Requested convergence on MAX density matrix=1.00D-06.
 Requested convergence on             energy=1.00D-06.
 No special actions if energy rises.
 Fock matrices will be formed incrementally for  20 cycles.

 Cycle   1  Pass 1  IDiag  1:
 FoFJK:  IHMeth= 1 ICntrl=       0 DoSepK=F KAlg= 0 I1Cent=           0 FoldK=F
 IRaf= 970000000 NMat=       1 IRICut=       1 DoRegI=T DoRafI=F ISym2E= 0 IDoP0=0 IntGTp=1.
 FoFCou: FMM=F IPFlag=           0 FMFlag=      100000 FMFlg1=           0
         NFxFlg=           0 DoJE=F BraDBF=F KetDBF=F FulRan=T
         wScrn=  0.000000 ICntrl=         0 IOpCl=  0 I1Cent=           0 NGrid=           0
         NMat0=    1 NMatS0=      1 NMatT0=    0 NMatD0=    1 NMtDS0=    0 NMtDT0=    0
 Symmetry not used in FoFCou.
 E= -233.389204574595    
 DIIS: error= 3.29D-02 at cycle   1 NSaved=   1.
 NSaved= 1 IEnMin= 1 EnMin= -233.389204574595     IErMin= 1 ErrMin= 3.29D-02
 ErrMax= 3.29D-02  0.00D+00 EMaxC= 1.00D-01 BMatC= 2.53D-01 BMatP= 2.53D-01
 IDIUse=3 WtCom= 6.71D-01 WtEn= 3.29D-01
 Coeff-Com:  0.100D+01
 Coeff-En:   0.100D+01
 Coeff:      0.100D+01
 Gap=     0.287 Goal=   None    Shift=    0.000
 GapD=    0.287 DampG=1.000 DampE=0.500 DampFc=0.5000 IDamp=-1.
 Damping current iteration by 5.00D-01
 RMSDP=1.40D-02 MaxDP=7.65D-01              OVMax= 1.62D-01

 Cycle   2  Pass 1  IDiag  1:
 RMSU=  6.92D-03    CP:  1.07D+00
 E= -233.496100544570     Delta-E=       -0.106895969976 Rises=F Damp=T
 DIIS: error= 7.42D-03 at cycle   2 NSaved=   2.
 NSaved= 2 IEnMin= 2 EnMin= -233.496100544570     IErMin= 2 ErrMin= 7.42D-03
 ErrMax= 7.42D-03  0.00D+00 EMaxC= 1.00D-01 BMatC= 1.32D-02 BMatP= 2.53D-01
 IDIUse=3 WtCom= 9.26D-01 WtEn= 7.42D-02
 Coeff-Com: -0.631D-01 0.106D+01
 Coeff-En:   0.000D+00 0.100D+01
 Coeff:     -0.584D-01 0.106D+01
 Gap=     0.363 Goal=   None    Shift=    0.000
 RMSDP=5.74D-03 MaxDP=4.38D-01 DE=-1.07D-01 OVMax= 8.05D-02

 Cycle   3  Pass 1  IDiag  1:
 RMSU=  3.18D-03    CP:  9.14D-01  4.13D-01
 E= -233.600910311245     Delta-E=       -0.104809766675 Rises=F Damp=F
 DIIS: error= 4.28D-03 at cycle   3 NSaved=   3.
 NSaved= 3 IEnMin= 3 EnMin= -233.600910311245     IErMin= 3 ErrMin= 4.28D-03
 ErrMax= 4.28D-03  0.00D+00 EMaxC= 1.00D-01 BMatC= 3.00D-03 BMatP= 1.32D-02
 IDIUse=3 WtCom= 9.57D-01 WtEn= 4.28D-02
 Coeff-Com: -0.639D-01 0.304D+00 0.760D+00
 Coeff-En:   0.000D+00 0.000D+00 0.100D+01
 Coeff:     -0.612D-01 0.291D+00 0.770D+00
 Gap=     0.343 Goal=   None    Shift=    0.000
 RMSDP=8.66D-04 MaxDP=5.38D-02 DE=-1.05D-01 OVMax= 1.34D-02

 Cycle   4  Pass 1  IDiag  1:
 RMSU=  3.59D-04    CP:  9.36D-01  5.13D-01  9.42D-01
 E= -233.602371414339     Delta-E=       -0.001461103094 Rises=F Damp=F
 DIIS: error= 1.66D-03 at cycle   4 NSaved=   4.
 NSaved= 4 IEnMin= 4 EnMin= -233.602371414339     IErMin= 4 ErrMin= 1.66D-03
 ErrMax= 1.66D-03  0.00D+00 EMaxC= 1.00D-01 BMatC= 7.89D-04 BMatP= 3.00D-03
 IDIUse=3 WtCom= 9.83D-01 WtEn= 1.66D-02
 Coeff-Com: -0.251D-01 0.679D-01 0.384D+00 0.573D+00
 Coeff-En:   0.000D+00 0.000D+00 0.175D+00 0.825D+00
 Coeff:     -0.246D-01 0.667D-01 0.381D+00 0.577D+00
 Gap=     0.345 Goal=   None    Shift=    0.000
 RMSDP=4.33D-04 MaxDP=2.75D-02 DE=-1.46D-03 OVMax= 4.58D-03

 Cycle   5  Pass 1  IDiag  1:
 RMSU=  1.10D-04    CP:  9.23D-01  4.68D-01  9.77D-01  5.53D-01
 E= -233.602955605935     Delta-E=       -0.000584191595 Rises=F Damp=F
 DIIS: error= 2.05D-04 at cycle   5 NSaved=   5.
 NSaved= 5 IEnMin= 5 EnMin= -233.602955605935     IErMin= 5 ErrMin= 2.05D-04
 ErrMax= 2.05D-04  0.00D+00 EMaxC= 1.00D-01 BMatC= 8.29D-06 BMatP= 7.89D-04
 IDIUse=3 WtCom= 9.98D-01 WtEn= 2.05D-03
 Coeff-Com: -0.310D-02 0.484D-02 0.588D-01 0.145D+00 0.795D+00
 Coeff-En:   0.000D+00 0.000D+00 0.000D+00 0.000D+00 0.100D+01
 Coeff:     -0.310D-02 0.483D-02 0.587D-01 0.144D+00 0.795D+00
 Gap=     0.344 Goal=   None    Shift=    0.000
 RMSDP=5.11D-05 MaxDP=2.69D-03 DE=-5.84D-04 OVMax= 7.94D-04

 Cycle   6  Pass 1  IDiag  1:
 RMSU=  3.02D-05    CP:  9.23D-01  4.64D-01  9.74D-01  6.05D-01  9.05D-01
 E= -233.602962564786     Delta-E=       -0.000006958851 Rises=F Damp=F
 DIIS: error= 6.15D-05 at cycle   6 NSaved=   6.
 NSaved= 6 IEnMin= 6 EnMin= -233.602962564786     IErMin= 6 ErrMin= 6.15D-05
 ErrMax= 6.15D-05  0.00D+00 EMaxC= 1.00D-01 BMatC= 7.73D-07 BMatP= 8.29D-06
 IDIUse=1 WtCom= 1.00D+00 WtEn= 0.00D+00
 Coeff-Com:  0.159D-03-0.151D-02 0.297D-02 0.255D-01 0.283D+00 0.690D+00
 Coeff:      0.159D-03-0.151D-02 0.297D-02 0.255D-01 0.283D+00 0.690D+00
 Gap=     0.344 Goal=   None    Shift=    0.000
 RMSDP=1.57D-05 MaxDP=7.38D-04 DE=-6.96D-06 OVMax= 2.05D-04

 Cycle   7  Pass 1  IDiag  1:
 RMSU=  5.62D-06    CP:  9.23D-01  4.62D-01  9.74D-01  6.06D-01  9.33D-01
                    CP:  1.08D+00
 E= -233.602963285565     Delta-E=       -0.000000720779 Rises=F Damp=F
 DIIS: error= 1.41D-05 at cycle   7 NSaved=   7.
 NSaved= 7 IEnMin= 7 EnMin= -233.602963285565     IErMin= 7 ErrMin= 1.41D-05
 ErrMax= 1.41D-05  0.00D+00 EMaxC= 1.00D-01 BMatC= 5.78D-08 BMatP= 7.73D-07
 IDIUse=1 WtCom= 1.00D+00 WtEn= 0.00D+00
 Coeff-Com:  0.548D-03-0.125D-02-0.800D-02-0.127D-01-0.213D-01 0.197D+00
 Coeff-Com:  0.846D+00
 Coeff:      0.548D-03-0.125D-02-0.800D-02-0.127D-01-0.213D-01 0.197D+00
 Coeff:      0.846D+00
 Gap=     0.344 Goal=   None    Shift=    0.000
 RMSDP=6.95D-06 MaxDP=2.83D-04 DE=-7.21D-07 OVMax= 6.99D-05

 Cycle   8  Pass 1  IDiag  1:
 RMSU=  1.93D-06    CP:  9.23D-01  4.61D-01  9.74D-01  6.09D-01  9.39D-01
                    CP:  1.18D+00  1.11D+00
 E= -233.602963348508     Delta-E=       -0.000000062943 Rises=F Damp=F
 DIIS: error= 2.52D-06 at cycle   8 NSaved=   8.
 NSaved= 8 IEnMin= 8 EnMin= -233.602963348508     IErMin= 8 ErrMin= 2.52D-06
 ErrMax= 2.52D-06  0.00D+00 EMaxC= 1.00D-01 BMatC= 1.07D-09 BMatP= 5.78D-08
 IDIUse=1 WtCom= 1.00D+00 WtEn= 0.00D+00
 Coeff-Com:  0.820D-04-0.169D-03-0.151D-02-0.301D-02-0.126D-01 0.139D-01
 Coeff-Com:  0.156D+00 0.847D+00
 Coeff:      0.820D-04-0.169D-03-0.151D-02-0.301D-02-0.126D-01 0.139D-01
 Coeff:      0.156D+00 0.847D+00
 Gap=     0.344 Goal=   None    Shift=    0.000
 RMSDP=1.15D-06 MaxDP=5.05D-05 DE=-6.29D-08 OVMax= 1.14D-05

 Cycle   9  Pass 1  IDiag  1:
 RMSU=  3.72D-07    CP:  9.23D-01  4.61D-01  9.74D-01  6.09D-01  9.38D-01
                    CP:  1.19D+00  1.16D+00  1.04D+00
 E= -233.602963349782     Delta-E=       -0.000000001274 Rises=F Damp=F
 DIIS: error= 4.86D-07 at cycle   9 NSaved=   9.
 NSaved= 9 IEnMin= 9 EnMin= -233.602963349782     IErMin= 9 ErrMin= 4.86D-07
 ErrMax= 4.86D-07  0.00D+00 EMaxC= 1.00D-01 BMatC= 4.07D-11 BMatP= 1.07D-09
 IDIUse=1 WtCom= 1.00D+00 WtEn= 0.00D+00
 Coeff-Com: -0.174D-04 0.377D-04 0.161D-03 0.221D-03-0.406D-03-0.600D-02
 Coeff-Com: -0.202D-01 0.982D-01 0.928D+00
 Coeff:     -0.174D-04 0.377D-04 0.161D-03 0.221D-03-0.406D-03-0.600D-02
 Coeff:     -0.202D-01 0.982D-01 0.928D+00
 Gap=     0.344 Goal=   None    Shift=    0.000
 RMSDP=1.95D-07 MaxDP=9.46D-06 DE=-1.27D-09 OVMax= 2.96D-06

 Cycle  10  Pass 1  IDiag  1:
 RMSU=  6.49D-08    CP:  9.23D-01  4.61D-01  9.74D-01  6.09D-01  9.37D-01
                    CP:  1.19D+00  1.17D+00  1.10D+00  1.04D+00
 E= -233.602963349839     Delta-E=       -0.000000000057 Rises=F Damp=F
 DIIS: error= 1.37D-07 at cycle  10 NSaved=  10.
 NSaved=10 IEnMin=10 EnMin= -233.602963349839     IErMin=10 ErrMin= 1.37D-07
 ErrMax= 1.37D-07  0.00D+00 EMaxC= 1.00D-01 BMatC= 4.76D-12 BMatP= 4.07D-11
 IDIUse=1 WtCom= 1.00D+00 WtEn= 0.00D+00
 Coeff-Com: -0.755D-05 0.167D-04 0.914D-04 0.143D-03 0.154D-03-0.236D-02
 Coeff-Com: -0.110D-01 0.840D-02 0.303D+00 0.701D+00
 Coeff:     -0.755D-05 0.167D-04 0.914D-04 0.143D-03 0.154D-03-0.236D-02
 Coeff:     -0.110D-01 0.840D-02 0.303D+00 0.701D+00
 Gap=     0.344 Goal=   None    Shift=    0.000
 RMSDP=4.16D-08 MaxDP=1.81D-06 DE=-5.65D-11 OVMax= 7.28D-07

 Cycle  11  Pass 1  IDiag  1:
 RMSU=  1.90D-08    CP:  9.23D-01  4.61D-01  9.74D-01  6.09D-01  9.37D-01
                    CP:  1.19D+00  1.18D+00  1.10D+00  1.07D+00  9.92D-01
 E= -233.602963349843     Delta-E=       -0.000000000004 Rises=F Damp=F
 DIIS: error= 6.30D-08 at cycle  11 NSaved=  11.
 NSaved=11 IEnMin=11 EnMin= -233.602963349843     IErMin=11 ErrMin= 6.30D-08
 ErrMax= 6.30D-08  0.00D+00 EMaxC= 1.00D-01 BMatC= 5.88D-13 BMatP= 4.76D-12
 IDIUse=1 WtCom= 1.00D+00 WtEn= 0.00D+00
 Coeff-Com:  0.652D-06-0.991D-06 0.160D-05 0.363D-05 0.808D-04 0.205D-03
 Coeff-Com: -0.267D-03-0.122D-01-0.420D-01 0.230D+00 0.825D+00
 Coeff:      0.652D-06-0.991D-06 0.160D-05 0.363D-05 0.808D-04 0.205D-03
 Coeff:     -0.267D-03-0.122D-01-0.420D-01 0.230D+00 0.825D+00
 Gap=     0.344 Goal=   None    Shift=    0.000
 RMSDP=1.33D-08 MaxDP=5.88D-07 DE=-3.92D-12 OVMax= 2.63D-07

 Cycle  12  Pass 1  IDiag  1:
 RMSU=  6.29D-09    CP:  9.23D-01  4.61D-01  9.74D-01  6.09D-01  9.37D-01
                    CP:  1.19D+00  1.18D+00  1.10D+00  1.08D+00  1.05D+00
                    CP:  1.05D+00
 E= -233.602963349844     Delta-E=       -0.000000000001 Rises=F Damp=F
 DIIS: error= 1.04D-08 at cycle  12 NSaved=  12.
 NSaved=12 IEnMin=12 EnMin= -233.602963349844     IErMin=12 ErrMin= 1.04D-08
 ErrMax= 1.04D-08  0.00D+00 EMaxC= 1.00D-01 BMatC= 8.54D-15 BMatP= 5.88D-13
 IDIUse=1 WtCom= 1.00D+00 WtEn= 0.00D+00
 Coeff-Com:  0.374D-06-0.757D-06-0.291D-05-0.434D-05 0.329D-05 0.112D-03
 Coeff-Com:  0.390D-03-0.146D-02-0.163D-01-0.106D-01 0.608D-01 0.967D+00
 Coeff:      0.374D-06-0.757D-06-0.291D-05-0.434D-05 0.329D-05 0.112D-03
 Coeff:      0.390D-03-0.146D-02-0.163D-01-0.106D-01 0.608D-01 0.967D+00
 Gap=     0.344 Goal=   None    Shift=    0.000
 RMSDP=4.49D-09 MaxDP=2.41D-07 DE=-1.25D-12 OVMax= 5.95D-08

 SCF Done:  E(RM062X) =  -233.602963350     A.U. after   12 cycles
            NFock= 12  Conv=0.45D-08     -V/T= 2.0041
 KE= 2.326542774722D+02 PE=-9.124446574900D+02 EE= 2.621563706516D+02
 Leave Link  502 at Sun Oct 13 21:37:02 2019, MaxMem= 10737418240 cpu:             133.4 elap:               5.6
 (Enter /apps/cent7/gaussian/g16-A.03/g16-haswell/g16/l601.exe)
 Copying SCF densities to generalized density rwf, IOpCl= 0 IROHF=0.

 **********************************************************************

            Population analysis using the SCF density.

 **********************************************************************

 Orbital symmetries:
       Occupied  (A) (A) (A) (A) (A) (A) (A) (A) (A) (A) (A) (A)
                 (A) (A) (A) (A) (A) (A) (A) (A) (A)
       Virtual   (A) (A) (A) (A) (A) (A) (A) (A) (A) (A) (A) (A)
                 (A) (A) (A) (A) (A) (A) (A) (A) (A) (A) (A) (A)
                 (A) (A) (A) (A) (A) (A) (A) (A) (A) (A) (A) (A)
                 (A) (A) (A) (A) (A) (A) (A) (A) (A) (A) (A) (A)
                 (A) (A) (A) (A) (A) (A) (A) (A) (A) (A) (A) (A)
                 (A) (A) (A) (A) (A) (A) (A) (A) (A) (A) (A) (A)
                 (A) (A) (A) (A) (A) (A) (A) (A) (A) (A) (A) (A)
                 (A) (A) (A) (A) (A) (A) (A) (A) (A) (A) (A) (A)
                 (A) (A) (A) (A) (A) (A) (A) (A) (A) (A) (A) (A)
                 (A) (A) (A) (A) (A) (A) (A) (A) (A) (A) (A) (A)
                 (A) (A) (A) (A) (A) (A) (A) (A) (A) (A) (A) (A)
                 (A) (A) (A) (A) (A) (A) (A) (A) (A) (A) (A) (A)
                 (A) (A) (A) (A) (A) (A) (A) (A) (A) (A) (A) (A)
                 (A) (A) (A)
 The electronic state is 1-A.
 Alpha  occ. eigenvalues --  -19.61390 -10.58079 -10.53419 -10.53003 -10.52327
 Alpha  occ. eigenvalues --   -1.14052  -0.89328  -0.81325  -0.71369  -0.65331
 Alpha  occ. eigenvalues --   -0.58438  -0.56981  -0.52217  -0.49697  -0.46320
 Alpha  occ. eigenvalues --   -0.44787  -0.41375  -0.40361  -0.38548  -0.36883
 Alpha  occ. eigenvalues --   -0.34661
 Alpha virt. eigenvalues --   -0.00246   0.00650   0.01595   0.01970   0.03038
 Alpha virt. eigenvalues --    0.04266   0.04670   0.05109   0.06534   0.06908
 Alpha virt. eigenvalues --    0.08143   0.08949   0.10853   0.11672   0.12060
 Alpha virt. eigenvalues --    0.13499   0.14285   0.14466   0.14556   0.15040
 Alpha virt. eigenvalues --    0.15962   0.16915   0.17617   0.18080   0.19201
 Alpha virt. eigenvalues --    0.19817   0.21132   0.22569   0.22925   0.24097
 Alpha virt. eigenvalues --    0.24808   0.25188   0.25395   0.27653   0.28444
 Alpha virt. eigenvalues --    0.29122   0.29913   0.31862   0.32973   0.34495
 Alpha virt. eigenvalues --    0.35192   0.35944   0.39337   0.41248   0.46909
 Alpha virt. eigenvalues --    0.48047   0.49607   0.51285   0.52233   0.53601
 Alpha virt. eigenvalues --    0.57533   0.60448   0.64203   0.66788   0.67864
 Alpha virt. eigenvalues --    0.70189   0.70570   0.71422   0.71859   0.73195
 Alpha virt. eigenvalues --    0.74104   0.74556   0.76560   0.77639   0.78681
 Alpha virt. eigenvalues --    0.80850   0.90247   0.93915   0.98647   1.00496
 Alpha virt. eigenvalues --    1.02314   1.12774   1.14087   1.19866   1.22741
 Alpha virt. eigenvalues --    1.30945   1.32858   1.33417   1.35164   1.41564
 Alpha virt. eigenvalues --    1.44981   1.49504   1.50760   1.53253   1.55461
 Alpha virt. eigenvalues --    1.57586   1.59165   1.60664   1.63141   1.64984
 Alpha virt. eigenvalues --    1.66042   1.69657   1.70691   1.72126   1.74574
 Alpha virt. eigenvalues --    1.76751   1.78847   1.81950   1.84005   1.84531
 Alpha virt. eigenvalues --    1.90970   1.94918   1.98346   2.04046   2.07149
 Alpha virt. eigenvalues --    2.09501   2.11182   2.13834   2.15909   2.20764
 Alpha virt. eigenvalues --    2.26566   2.28985   2.37601   2.42406   2.43335
 Alpha virt. eigenvalues --    2.48770   2.52667   2.54875   2.55707   2.56803
 Alpha virt. eigenvalues --    2.61150   2.61548   2.62403   2.63494   2.66485
 Alpha virt. eigenvalues --    2.69171   2.71135   2.74494   2.76880   2.83607
 Alpha virt. eigenvalues --    2.84942   2.92266   2.94766   2.96859   3.01435
 Alpha virt. eigenvalues --    3.03992   3.17779   3.19032   3.28019   3.32710
 Alpha virt. eigenvalues --    3.41688   3.78421   3.83347   3.88635   3.92048
 Alpha virt. eigenvalues --    3.97004   4.00343   4.04613   4.08878   4.20069
 Alpha virt. eigenvalues --    4.39109   5.19111   5.49767   5.77270  23.91680
 Alpha virt. eigenvalues --   23.95941  23.98025  24.05473  50.04235
          Condensed to atoms (all electrons):
               1          2          3          4          5          6
     1  C    5.515252  -0.125979   0.284881  -0.178793  -0.006090   0.394804
     2  C   -0.125979   5.672387  -0.438420   0.277284   0.061435  -0.035595
     3  C    0.284881  -0.438420   6.656734  -0.578230  -0.228160   0.006178
     4  C   -0.178793   0.277284  -0.578230   5.866015   0.275401  -0.001587
     5  O   -0.006090   0.061435  -0.228160   0.275401   8.072062   0.000342
     6  H    0.394804  -0.035595   0.006178  -0.001587   0.000342   0.560002
     7  H    0.384591  -0.010627  -0.037528   0.004208   0.000282  -0.039747
     8  H    0.391618   0.003217  -0.023821   0.005288  -0.000019  -0.028842
     9  H   -0.040312   0.418418   0.000026  -0.039130  -0.003540  -0.005749
    10  H   -0.076065   0.453358  -0.106694   0.034689  -0.002137  -0.003693
    11  H    0.030948  -0.051024   0.486761  -0.138364   0.010979   0.002978
    12  H   -0.047154  -0.003577   0.245370   0.084496   0.017335  -0.002947
    13  H    0.011556  -0.031329   0.112735   0.253947  -0.061227   0.002045
    14  H   -0.019934  -0.015119  -0.167504   0.532571  -0.095871  -0.001379
    15  H   -0.000993  -0.004327  -0.011320   0.020471   0.234779  -0.000096
               7          8          9         10         11         12
     1  C    0.384591   0.391618  -0.040312  -0.076065   0.030948  -0.047154
     2  C   -0.010627   0.003217   0.418418   0.453358  -0.051024  -0.003577
     3  C   -0.037528  -0.023821   0.000026  -0.106694   0.486761   0.245370
     4  C    0.004208   0.005288  -0.039130   0.034689  -0.138364   0.084496
     5  O    0.000282  -0.000019  -0.003540  -0.002137   0.010979   0.017335
     6  H   -0.039747  -0.028842  -0.005749  -0.003693   0.002978  -0.002947
     7  H    0.591516  -0.047429  -0.011306   0.016869  -0.003463   0.013066
     8  H   -0.047429   0.560507   0.009189  -0.024863   0.001168  -0.001243
     9  H   -0.011306   0.009189   0.608622  -0.056140   0.022689  -0.043079
    10  H    0.016869  -0.024863  -0.056140   0.622439  -0.036730   0.031203
    11  H   -0.003463   0.001168   0.022689  -0.036730   0.591693  -0.062348
    12  H    0.013066  -0.001243  -0.043079   0.031203  -0.062348   0.637116
    13  H   -0.001628   0.000559   0.023847  -0.016771   0.035463  -0.057150
    14  H    0.001543   0.000698  -0.015954   0.025999  -0.050575   0.042546
    15  H    0.000032   0.000061   0.000379   0.000401  -0.003842   0.003569
              13         14         15
     1  C    0.011556  -0.019934  -0.000993
     2  C   -0.031329  -0.015119  -0.004327
     3  C    0.112735  -0.167504  -0.011320
     4  C    0.253947   0.532571   0.020471
     5  O   -0.061227  -0.095871   0.234779
     6  H    0.002045  -0.001379  -0.000096
     7  H   -0.001628   0.001543   0.000032
     8  H    0.000559   0.000698   0.000061
     9  H    0.023847  -0.015954   0.000379
    10  H   -0.016771   0.025999   0.000401
    11  H    0.035463  -0.050575  -0.003842
    12  H   -0.057150   0.042546   0.003569
    13  H    0.705550  -0.100784  -0.021595
    14  H   -0.100784   0.695851   0.010924
    15  H   -0.021595   0.010924   0.513501
 Mulliken charges:
               1
     1  C   -0.518331
     2  C   -0.170103
     3  C   -0.201009
     4  C   -0.418268
     5  O   -0.275572
     6  H    0.153287
     7  H    0.139620
     8  H    0.153913
     9  H    0.132040
    10  H    0.138134
    11  H    0.163667
    12  H    0.142797
    13  H    0.144781
    14  H    0.156989
    15  H    0.258055
 Sum of Mulliken charges =  -0.00000
 Mulliken charges with hydrogens summed into heavy atoms:
               1
     1  C   -0.071511
     2  C    0.100072
     3  C    0.105455
     4  C   -0.116498
     5  O   -0.017517
 Electronic spatial extent (au):  <R**2>=            681.0984
 Charge=             -0.0000 electrons
 Dipole moment (field-independent basis, Debye):
    X=             -0.1702    Y=              1.6746    Z=             -0.4615  Tot=              1.7454
 Quadrupole moment (field-independent basis, Debye-Ang):
   XX=            -31.7289   YY=            -35.9500   ZZ=            -32.3619
   XY=              4.3397   XZ=             -1.7423   YZ=             -0.1084
 Traceless Quadrupole moment (field-independent basis, Debye-Ang):
   XX=              1.6180   YY=             -2.6031   ZZ=              0.9851
   XY=              4.3397   XZ=             -1.7423   YZ=             -0.1084
 Octapole moment (field-independent basis, Debye-Ang**2):
  XXX=             31.5096  YYY=             -1.2712  ZZZ=              0.3959  XYY=              1.6136
  XXY=             12.9229  XXZ=             -6.2307  XZZ=              2.7241  YZZ=              0.3937
  YYZ=             -0.3804  XYZ=              0.0824
 Hexadecapole moment (field-independent basis, Debye-Ang**3):
 XXXX=           -647.2251 YYYY=           -110.0612 ZZZZ=            -64.6014 XXXY=             20.4422
 XXXZ=            -19.3987 YYYX=             -0.2771 YYYZ=              0.3065 ZZZX=             -2.6332
 ZZZY=             -0.4090 XXYY=           -147.1184 XXZZ=           -132.5764 YYZZ=            -26.4018
 XXYZ=             -1.9546 YYXZ=              0.6794 ZZXY=              1.2355
 N-N= 1.840310460162D+02 E-N=-9.124446580165D+02  KE= 2.326542774722D+02
 No NMR shielding tensors so no spin-rotation constants.
 Leave Link  601 at Sun Oct 13 21:37:02 2019, MaxMem= 10737418240 cpu:               2.8 elap:               0.1
 (Enter /apps/cent7/gaussian/g16-A.03/g16-haswell/g16/l701.exe)
 ... and contract with generalized density number  0.
 Compute integral first derivatives.
 Leave Link  701 at Sun Oct 13 21:37:03 2019, MaxMem= 10737418240 cpu:               2.7 elap:               0.1
 (Enter /apps/cent7/gaussian/g16-A.03/g16-haswell/g16/l702.exe)
 L702 exits ... SP integral derivatives will be done elsewhere.
 Leave Link  702 at Sun Oct 13 21:37:03 2019, MaxMem= 10737418240 cpu:               0.4 elap:               0.0
 (Enter /apps/cent7/gaussian/g16-A.03/g16-haswell/g16/l703.exe)
 Integral derivatives from FoFJK, PRISM(SPDF).
 Compute integral first derivatives, UseDBF=F ICtDFT=           0.
 Calling FoFJK, ICntrl=      2127 FMM=F ISym2X=0 I1Cent= 0 IOpClX= 0 NMat=1 NMatS=1 NMatT=0.
 FoFJK:  IHMeth= 1 ICntrl=    2127 DoSepK=F KAlg= 0 I1Cent=           0 FoldK=F
 IRaf=         0 NMat=       1 IRICut=       1 DoRegI=T DoRafI=F ISym2E= 0 IDoP0=0 IntGTp=1.
 FoFCou: FMM=F IPFlag=           0 FMFlag=      100000 FMFlg1=         800
         NFxFlg=           0 DoJE=F BraDBF=F KetDBF=F FulRan=T
         wScrn=  0.000000 ICntrl=      2127 IOpCl=  0 I1Cent=           0 NGrid=           0
         NMat0=    1 NMatS0=      1 NMatT0=    0 NMatD0=    1 NMtDS0=    0 NMtDT0=    0
 Symmetry not used in FoFCou.
 Leave Link  703 at Sun Oct 13 21:37:04 2019, MaxMem= 10737418240 cpu:              21.5 elap:               0.9
 (Enter /apps/cent7/gaussian/g16-A.03/g16-haswell/g16/l716.exe)
 Dipole        =-6.69455851D-02 6.58848908D-01-1.81570611D-01
 ***** Axes restored to original set *****
 -------------------------------------------------------------------
 Center     Atomic                   Forces (Hartrees/Bohr)
 Number     Number              X              Y              Z
 -------------------------------------------------------------------
      1        6           0.000770271    0.009032748    0.008315471
      2        6          -0.011254854    0.014798483   -0.016399639
      3        6           0.010461370   -0.007924620    0.021158142
      4        6          -0.007842782    0.004527755   -0.016730967
      5        8          -0.006618099    0.007734626   -0.010775540
      6        1           0.000772403   -0.000750636   -0.003357501
      7        1          -0.001064504   -0.002652584   -0.003216491
      8        1          -0.001838691   -0.001287904   -0.003898969
      9        1           0.013747190   -0.003514544    0.011162104
     10        1          -0.000904747   -0.010040975    0.017218320
     11        1          -0.014024727    0.005731010   -0.010142856
     12        1           0.000620494    0.010150835   -0.014645548
     13        1           0.013660600   -0.010599699    0.008956896
     14        1           0.001938061   -0.013380844    0.013685833
     15        1           0.001578013   -0.001823653   -0.001329254
 -------------------------------------------------------------------
 Cartesian Forces:  Max     0.021158142 RMS     0.009603199
 Leave Link  716 at Sun Oct 13 21:37:04 2019, MaxMem= 10737418240 cpu:               0.6 elap:               0.0
 (Enter /apps/cent7/gaussian/g16-A.03/g16-haswell/g16/l103.exe)

 GradGradGradGradGradGradGradGradGradGradGradGradGradGradGradGradGradGrad
 Berny optimization.
 FormGI is forming the generalized inverse of G from B-inverse, IUseBI=4.
 Internal  Forces:  Max     0.019762862 RMS     0.006321601
 Search for a local minimum.
 Step number   1 out of a maximum of   79
 All quantities printed in internal units (Hartrees-Bohrs-Radians)
 RMS Force = .63216D-02 SwitMx=.10000D-02 MixMth= 1
 Mixed Optimization -- RFO/linear search
 Second derivative matrix not updated -- first step.
 ITU=  0
     Eigenvalues ---    0.00230   0.00230   0.00230   0.01403   0.03927
     Eigenvalues ---    0.03961   0.05134   0.05144   0.05519   0.05714
     Eigenvalues ---    0.05715   0.05727   0.07769   0.07821   0.11421
     Eigenvalues ---    0.11792   0.11833   0.13620   0.16000   0.16000
     Eigenvalues ---    0.16000   0.16000   0.22508   0.22516   0.22556
     Eigenvalues ---    0.27560   0.28031   0.28183   0.34806   0.34807
     Eigenvalues ---    0.34807   0.34809   0.34813   0.34813   0.34815
     Eigenvalues ---    0.34818   0.34823   0.42188   0.55477
 RFO step:  Lambda=-2.01544733D-02 EMin= 2.30000000D-03
 Linear search not attempted -- first point.
 Maximum step size (   0.300) exceeded in Quadratic search.
    -- Step size scaled by   0.984
 Iteration  1 RMS(Cart)=  0.06031195 RMS(Int)=  0.00161706
 Iteration  2 RMS(Cart)=  0.00166872 RMS(Int)=  0.00044021
 Iteration  3 RMS(Cart)=  0.00000058 RMS(Int)=  0.00044021
 ITry= 1 IFail=0 DXMaxC= 1.89D-01 DCOld= 1.00D+10 DXMaxT= 3.00D-01 DXLimC= 3.00D+00 Rises=F
 Variable       Old X    -DE/DX   Delta X   Delta X   Delta X     New X
                                 (Linear)    (Quad)   (Total)
    R1        2.91740  -0.00007   0.00000  -0.00024  -0.00024   2.91716
    R2        2.05989   0.00020   0.00000   0.00053   0.00053   2.06042
    R3        2.05987   0.00155   0.00000   0.00413   0.00413   2.06400
    R4        2.05979   0.00082   0.00000   0.00219   0.00219   2.06198
    R5        2.93110  -0.00479   0.00000  -0.01594  -0.01594   2.91517
    R6        2.05990   0.00118   0.00000   0.00316   0.00316   2.06306
    R7        2.05971   0.00102   0.00000   0.00273   0.00273   2.06244
    R8        2.92072  -0.01165   0.00000  -0.03814  -0.03814   2.88258
    R9        2.05980   0.00137   0.00000   0.00366   0.00366   2.06346
   R10        2.05976   0.00093   0.00000   0.00248   0.00248   2.06224
   R11        2.68684   0.00830   0.00000   0.01847   0.01847   2.70531
   R12        2.05963   0.00275   0.00000   0.00733   0.00733   2.06697
   R13        2.05992   0.00290   0.00000   0.00774   0.00774   2.06766
   R14        1.81410  -0.00214   0.00000  -0.00366  -0.00366   1.81044
    A1        1.91069   0.00306   0.00000   0.01670   0.01650   1.92719
    A2        1.91069   0.00411   0.00000   0.02241   0.02217   1.93286
    A3        1.91072   0.00457   0.00000   0.02501   0.02475   1.93547
    A4        1.91055  -0.00360   0.00000  -0.01970  -0.01988   1.89067
    A5        1.91058  -0.00382   0.00000  -0.02085  -0.02106   1.88952
    A6        1.91056  -0.00433   0.00000  -0.02360  -0.02388   1.88668
    A7        1.96214  -0.01369   0.00000  -0.03129  -0.03117   1.93097
    A8        1.85105   0.00638   0.00000   0.04425   0.04440   1.89546
    A9        1.85109   0.00628   0.00000   0.04194   0.04213   1.89322
   A10        1.85404   0.00595   0.00000   0.03967   0.03984   1.89388
   A11        1.85413   0.00569   0.00000   0.03617   0.03638   1.89052
   A12        2.09438  -0.01241   0.00000  -0.13456  -0.13420   1.96018
   A13        1.96796  -0.01555   0.00000  -0.04075  -0.04028   1.92768
   A14        1.85241   0.00735   0.00000   0.04968   0.04997   1.90238
   A15        1.85248   0.00715   0.00000   0.04853   0.04883   1.90131
   A16        1.85022   0.00538   0.00000   0.03060   0.03106   1.88128
   A17        1.85008   0.00563   0.00000   0.03266   0.03310   1.88318
   A18        2.09448  -0.01206   0.00000  -0.12646  -0.12641   1.96807
   A19        1.92046  -0.01976   0.00000  -0.05711  -0.05607   1.86439
   A20        1.88657   0.00405   0.00000   0.00695   0.00747   1.89404
   A21        1.88650   0.00499   0.00000   0.01118   0.01165   1.89816
   A22        1.83574   0.01168   0.00000   0.08853   0.08851   1.92425
   A23        1.83552   0.01052   0.00000   0.07850   0.07849   1.91401
   A24        2.09449  -0.01342   0.00000  -0.12648  -0.12856   1.96592
   A25        1.91065  -0.00272   0.00000  -0.01487  -0.01487   1.89578
    D1       -2.79148  -0.00088   0.00000  -0.03520  -0.03520  -2.82668
    D2       -0.77246   0.00296   0.00000   0.02256   0.02260  -0.74986
    D3        1.47254  -0.00436   0.00000  -0.08738  -0.08740   1.38515
    D4       -0.69711  -0.00089   0.00000  -0.03537  -0.03540  -0.73252
    D5        1.32191   0.00295   0.00000   0.02240   0.02240   1.34431
    D6       -2.71627  -0.00437   0.00000  -0.08755  -0.08760  -2.80387
    D7        1.39728  -0.00088   0.00000  -0.03522  -0.03521   1.36207
    D8       -2.86688   0.00296   0.00000   0.02254   0.02259  -2.84429
    D9       -0.62188  -0.00436   0.00000  -0.08740  -0.08740  -0.70928
   D10        3.14155   0.00026   0.00000   0.00717   0.00718  -3.13446
   D11       -1.12336   0.00306   0.00000   0.05274   0.05264  -1.07072
   D12        1.12340  -0.00271   0.00000  -0.04018  -0.04007   1.08333
   D13        1.12432  -0.00382   0.00000  -0.05334  -0.05338   1.07095
   D14       -3.14059  -0.00102   0.00000  -0.00778  -0.00792   3.13468
   D15       -0.89382  -0.00679   0.00000  -0.10069  -0.10064  -0.99446
   D16       -1.12431   0.00408   0.00000   0.06282   0.06286  -1.06146
   D17        0.89396   0.00687   0.00000   0.10838   0.10831   1.00228
   D18        3.14072   0.00110   0.00000   0.01547   0.01560  -3.12686
   D19        3.14150  -0.00031   0.00000  -0.00516  -0.00517   3.13633
   D20       -1.14586   0.00542   0.00000   0.07377   0.07346  -1.07240
   D21        1.14596  -0.00517   0.00000  -0.07451  -0.07419   1.07178
   D22        1.12191  -0.00430   0.00000  -0.06218  -0.06218   1.05973
   D23        3.11774   0.00143   0.00000   0.01675   0.01645   3.13419
   D24       -0.87362  -0.00917   0.00000  -0.13154  -0.13120  -1.00482
   D25       -1.12210   0.00360   0.00000   0.05173   0.05170  -1.07040
   D26        0.87373   0.00933   0.00000   0.13066   0.13033   1.00406
   D27       -3.11764  -0.00126   0.00000  -0.01762  -0.01732  -3.13496
   D28        2.83029   0.00033   0.00000   0.01428   0.01424   2.84453
   D29        0.80228  -0.00119   0.00000  -0.01413  -0.01247   0.78982
   D30       -1.42509   0.00232   0.00000   0.04221   0.04060  -1.38450
         Item               Value     Threshold  Converged?
 Maximum Force            0.019763     0.000450     NO 
 RMS     Force            0.006322     0.000300     NO 
 Maximum Displacement     0.188637     0.001800     NO 
 RMS     Displacement     0.060096     0.001200     NO 
 Predicted change in Energy=-1.210998D-02
 Lowest energy point so far.  Saving SCF results.
 GradGradGradGradGradGradGradGradGradGradGradGradGradGradGradGradGradGrad

 Leave Link  103 at Sun Oct 13 21:37:04 2019, MaxMem= 10737418240 cpu:               0.9 elap:               0.1
 (Enter /apps/cent7/gaussian/g16-A.03/g16-haswell/g16/l202.exe)
                          Input orientation:                          
 ---------------------------------------------------------------------
 Center     Atomic      Atomic             Coordinates (Angstroms)
 Number     Number       Type             X           Y           Z
 ---------------------------------------------------------------------
      1          6           0        2.242458   -0.726156   -1.238401
      2          6           0        2.441229    0.009362    0.104172
      3          6           0        1.932307    1.462496    0.008563
      4          6           0        2.139975    2.188174    1.334119
      5          8           0        1.650879    3.521953    1.157311
      6          1           0        2.296041   -1.805350   -1.092506
      7          1           0        1.268588   -0.485955   -1.670638
      8          1           0        3.012145   -0.439608   -1.956792
      9          1           0        1.866358   -0.509291    0.873836
     10          1           0        3.508656    0.033923    0.330318
     11          1           0        2.507162    1.990968   -0.754710
     12          1           0        0.861722    1.449627   -0.202614
     13          1           0        1.562489    1.672459    2.106730
     14          1           0        3.210973    2.215178    1.556409
     15          1           0        1.518418    3.916123    2.020404
 ---------------------------------------------------------------------
                    Distance matrix (angstroms):
                    1          2          3          4          5
     1  C    0.000000
     2  C    1.543696   0.000000
     3  C    2.537974   1.542641   0.000000
     4  C    3.888661   2.520069   1.525397   0.000000
     5  O    4.912823   3.751273   2.374908   1.431587   0.000000
     6  H    1.090328   2.178600   3.467488   4.675585   5.818769
     7  H    1.092221   2.184118   2.656444   4.115682   4.920037
     8  H    1.091153   2.185198   2.940522   4.300699   5.219641
     9  H    2.156392   1.091724   2.154296   2.750099   4.046939
    10  H    2.154497   1.091396   2.151563   2.742572   4.037524
    11  H    2.772506   2.160738   1.091937   2.130005   2.594794
    12  H    2.777287   2.159473   1.091289   2.130946   2.601288
    13  H    4.172003   2.747420   2.140831   1.093792   2.080826
    14  H    4.171382   2.750840   2.144142   1.094156   2.073845
    15  H    5.717937   4.448181   3.199859   1.960390   0.958043
                    6          7          8          9         10
     6  H    0.000000
     7  H    1.769378   0.000000
     8  H    1.767780   1.767491   0.000000
     9  H    2.393929   2.613851   3.054528   0.000000
    10  H    2.622554   3.048278   2.387808   1.813184   0.000000
    11  H    3.817160   2.916871   2.758208   3.051900   2.451592
    12  H    3.666614   2.463151   3.357182   2.450592   3.048687
    13  H    4.782088   4.360462   4.803597   2.524361   3.102903
    14  H    4.900867   4.634954   4.407947   3.113941   2.519878
    15  H    6.559738   5.750173   6.084547   4.584754   4.678559
                   11         12         13         14         15
    11  H    0.000000
    12  H    1.818058   0.000000
    13  H    3.030131   2.423592   0.000000
    14  H    2.426291   3.033020   1.820686   0.000000
    15  H    3.519246   3.384769   2.245757   2.444023   0.000000
 Stoichiometry    C4H10O
 Framework group  C1[X(C4H10O)]
 Deg. of freedom    39
 Full point group                 C1      NOp   1
 RotChk:  IX=0 Diff= 1.36D-02
 Largest Abelian subgroup         C1      NOp   1
 Largest concise Abelian subgroup C1      NOp   1
                         Standard orientation:                         
 ---------------------------------------------------------------------
 Center     Atomic      Atomic             Coordinates (Angstroms)
 Number     Number       Type             X           Y           Z
 ---------------------------------------------------------------------
      1          6           0       -2.503618   -0.301682   -0.006583
      2          6           0       -1.215557    0.549121   -0.000891
      3          6           0        0.033770   -0.355822   -0.000307
      4          6           0        1.303741    0.489019    0.015524
      5          8           0        2.407635   -0.422471    0.022290
      6          1           0       -3.355713    0.300236   -0.323515
      7          1           0       -2.406141   -1.146613   -0.691811
      8          1           0       -2.714438   -0.695261    0.989039
      9          1           0       -1.199104    1.162111   -0.904126
     10          1           0       -1.203104    1.151654    0.909024
     11          1           0        0.028949   -0.967856    0.903971
     12          1           0        0.039279   -0.952530   -0.913993
     13          1           0        1.324503    1.102080   -0.890073
     14          1           0        1.315899    1.088826    0.930544
     15          1           0        3.198763    0.053307   -0.233834
 ---------------------------------------------------------------------
 Rotational constants (GHZ):          18.4523091           1.9913288           1.8863326
 Leave Link  202 at Sun Oct 13 21:37:04 2019, MaxMem= 10737418240 cpu:               0.2 elap:               0.0
 (Enter /apps/cent7/gaussian/g16-A.03/g16-haswell/g16/l301.exe)
 Standard basis: 6-311++G(d,p) (5D, 7F)
 Ernie: Thresh=  0.10000D-02 Tol=  0.10000D-05 Strict=F.
 There are   185 symmetry adapted cartesian basis functions of A   symmetry.
 There are   180 symmetry adapted basis functions of A   symmetry.
   180 basis functions,   270 primitive gaussians,   185 cartesian basis functions
    21 alpha electrons       21 beta electrons
       nuclear repulsion energy       185.0250651563 Hartrees.
 IExCor= 4336 DFT=T Ex+Corr=M062X ExCW=0 ScaHFX=  0.540000
 ScaDFX=  1.000000  1.000000  1.000000  1.000000 ScalE2=  1.000000  1.000000
 IRadAn=      5 IRanWt=     -1 IRanGd=            0 ICorTp=0 IEmpDi=  4
 NAtoms=   15 NActive=   15 NUniq=   15 SFac= 1.00D+00 NAtFMM=   60 NAOKFM=F Big=F
 Integral buffers will be    131072 words long.
 Raffenetti 2 integral format.
 Two-electron integral symmetry is turned on.
 Leave Link  301 at Sun Oct 13 21:37:04 2019, MaxMem= 10737418240 cpu:               1.2 elap:               0.1
 (Enter /apps/cent7/gaussian/g16-A.03/g16-haswell/g16/l302.exe)
 NPDir=0 NMtPBC=     1 NCelOv=     1 NCel=       1 NClECP=     1 NCelD=      1
         NCelK=      1 NCelE2=     1 NClLst=     1 CellRange=     0.0.
 One-electron integrals computed using PRISM.
 One-electron integral symmetry used in STVInt
 NBasis=   180 RedAO= T EigKep=  2.00D-05  NBF=   180
 NBsUse=   180 1.00D-06 EigRej= -1.00D+00 NBFU=   180
 Precomputing XC quadrature grid using
 IXCGrd= 4 IRadAn=           5 IRanWt=          -1 IRanGd=           0 AccXCQ= 0.00D+00.
 Generated NRdTot=       0 NPtTot=           0 NUsed=           0 NTot=          32
 NSgBfM=   185   185   185   185   185 MxSgAt=    15 MxSgA2=    15.
 Leave Link  302 at Sun Oct 13 21:37:04 2019, MaxMem= 10737418240 cpu:               3.6 elap:               0.2
 (Enter /apps/cent7/gaussian/g16-A.03/g16-haswell/g16/l303.exe)
 DipDrv:  MaxL=1.
 Leave Link  303 at Sun Oct 13 21:37:04 2019, MaxMem= 10737418240 cpu:               0.6 elap:               0.0
 (Enter /apps/cent7/gaussian/g16-A.03/g16-haswell/g16/l401.exe)
 Initial guess from the checkpoint file:  "20.chk"
 B after Tr=     0.000000    0.000000    0.000000
         Rot=    0.999996   -0.002601   -0.000241   -0.000641 Ang=  -0.31 deg.
 Guess basis will be translated and rotated to current coordinates.
 JPrj=2 DoOrth=T DoCkMO=T.
 Generating alternative initial guess.
 ExpMin= 3.60D-02 ExpMax= 8.59D+03 ExpMxC= 1.30D+03 IAcc=3 IRadAn=         5 AccDes= 0.00D+00
 Harris functional with IExCor= 1009 and IRadAn=       5 diagonalized for initial guess.
 HarFok:  IExCor= 1009 AccDes= 0.00D+00 IRadAn=         5 IDoV= 1 UseB2=F ITyADJ=14
 ICtDFT=  3500011 ScaDFX=  1.000000  1.000000  1.000000  1.000000
 FoFCou: FMM=F IPFlag=           0 FMFlag=      100000 FMFlg1=           0
         NFxFlg=           0 DoJE=T BraDBF=F KetDBF=T FulRan=T
         wScrn=  0.000000 ICntrl=       500 IOpCl=  0 I1Cent=   200000004 NGrid=           0
         NMat0=    1 NMatS0=      1 NMatT0=    0 NMatD0=    1 NMtDS0=    0 NMtDT0=    0
 Petite list used in FoFCou.
 Harris En= -233.581619096388    
 Leave Link  401 at Sun Oct 13 21:37:04 2019, MaxMem= 10737418240 cpu:               8.3 elap:               0.4
 (Enter /apps/cent7/gaussian/g16-A.03/g16-haswell/g16/l502.exe)
 Integral symmetry usage will be decided dynamically.
 Closed shell SCF:
 Using DIIS extrapolation, IDIIS=  1040.
 NGot= 10737418240 LenX= 10737343343 LenY= 10737308677
 Requested convergence on RMS density matrix=1.00D-08 within 128 cycles.
 Requested convergence on MAX density matrix=1.00D-06.
 Requested convergence on             energy=1.00D-06.
 No special actions if energy rises.
 Fock matrices will be formed incrementally for  20 cycles.

 Cycle   1  Pass 1  IDiag  1:
 FoFJK:  IHMeth= 1 ICntrl=       0 DoSepK=F KAlg= 0 I1Cent=           0 FoldK=F
 IRaf= 980000000 NMat=       1 IRICut=       1 DoRegI=T DoRafI=F ISym2E= 0 IDoP0=0 IntGTp=1.
 FoFCou: FMM=F IPFlag=           0 FMFlag=      100000 FMFlg1=           0
         NFxFlg=           0 DoJE=F BraDBF=F KetDBF=F FulRan=T
         wScrn=  0.000000 ICntrl=         0 IOpCl=  0 I1Cent=           0 NGrid=           0
         NMat0=    1 NMatS0=      1 NMatT0=    0 NMatD0=    1 NMtDS0=    0 NMtDT0=    0
 Symmetry not used in FoFCou.
 E= -233.613394458597    
 DIIS: error= 2.24D-03 at cycle   1 NSaved=   1.
 NSaved= 1 IEnMin= 1 EnMin= -233.613394458597     IErMin= 1 ErrMin= 2.24D-03
 ErrMax= 2.24D-03  0.00D+00 EMaxC= 1.00D-01 BMatC= 1.59D-03 BMatP= 1.59D-03
 IDIUse=3 WtCom= 9.78D-01 WtEn= 2.24D-02
 Coeff-Com:  0.100D+01
 Coeff-En:   0.100D+01
 Coeff:      0.100D+01
 Gap=     0.505 Goal=   None    Shift=    0.000
 GapD=    0.505 DampG=2.000 DampE=1.000 DampFc=2.0000 IDamp=-1.
 RMSDP=1.42D-03 MaxDP=6.17D-02              OVMax= 1.12D-02

 Cycle   2  Pass 1  IDiag  1:
 RMSU=  1.34D-03    CP:  9.68D-01
 E= -233.615393945809     Delta-E=       -0.001999487212 Rises=F Damp=F
 DIIS: error= 6.68D-04 at cycle   2 NSaved=   2.
 NSaved= 2 IEnMin= 2 EnMin= -233.615393945809     IErMin= 2 ErrMin= 6.68D-04
 ErrMax= 6.68D-04  0.00D+00 EMaxC= 1.00D-01 BMatC= 5.42D-05 BMatP= 1.59D-03
 IDIUse=3 WtCom= 9.93D-01 WtEn= 6.68D-03
 Coeff-Com: -0.514D-01 0.105D+01
 Coeff-En:   0.000D+00 0.100D+01
 Coeff:     -0.511D-01 0.105D+01
 Gap=     0.346 Goal=   None    Shift=    0.000
 RMSDP=1.59D-04 MaxDP=6.47D-03 DE=-2.00D-03 OVMax= 3.03D-03

 Cycle   3  Pass 1  IDiag  1:
 RMSU=  1.34D-04    CP:  9.70D-01  1.06D+00
 E= -233.615455006641     Delta-E=       -0.000061060832 Rises=F Damp=F
 DIIS: error= 4.38D-04 at cycle   3 NSaved=   3.
 NSaved= 3 IEnMin= 3 EnMin= -233.615455006641     IErMin= 3 ErrMin= 4.38D-04
 ErrMax= 4.38D-04  0.00D+00 EMaxC= 1.00D-01 BMatC= 3.38D-05 BMatP= 5.42D-05
 IDIUse=3 WtCom= 9.96D-01 WtEn= 4.38D-03
 Coeff-Com: -0.511D-01 0.476D+00 0.575D+00
 Coeff-En:   0.000D+00 0.000D+00 0.100D+01
 Coeff:     -0.509D-01 0.474D+00 0.577D+00
 Gap=     0.347 Goal=   None    Shift=    0.000
 RMSDP=1.02D-04 MaxDP=5.10D-03 DE=-6.11D-05 OVMax= 1.26D-03

 Cycle   4  Pass 1  IDiag  1:
 RMSU=  6.78D-05    CP:  9.67D-01  1.09D+00  7.33D-01
 E= -233.615479288713     Delta-E=       -0.000024282072 Rises=F Damp=F
 DIIS: error= 1.06D-04 at cycle   4 NSaved=   4.
 NSaved= 4 IEnMin= 4 EnMin= -233.615479288713     IErMin= 4 ErrMin= 1.06D-04
 ErrMax= 1.06D-04  0.00D+00 EMaxC= 1.00D-01 BMatC= 1.79D-06 BMatP= 3.38D-05
 IDIUse=3 WtCom= 9.99D-01 WtEn= 1.06D-03
 Coeff-Com: -0.925D-02 0.200D-01 0.180D+00 0.809D+00
 Coeff-En:   0.000D+00 0.000D+00 0.000D+00 0.100D+01
 Coeff:     -0.924D-02 0.200D-01 0.180D+00 0.809D+00
 Gap=     0.347 Goal=   None    Shift=    0.000
 RMSDP=1.73D-05 MaxDP=1.11D-03 DE=-2.43D-05 OVMax= 4.02D-04

 Cycle   5  Pass 1  IDiag  1:
 RMSU=  7.57D-06    CP:  9.68D-01  1.09D+00  8.28D-01  9.85D-01
 E= -233.615480778735     Delta-E=       -0.000001490022 Rises=F Damp=F
 DIIS: error= 2.89D-05 at cycle   5 NSaved=   5.
 NSaved= 5 IEnMin= 5 EnMin= -233.615480778735     IErMin= 5 ErrMin= 2.89D-05
 ErrMax= 2.89D-05  0.00D+00 EMaxC= 1.00D-01 BMatC= 1.73D-07 BMatP= 1.79D-06
 IDIUse=1 WtCom= 1.00D+00 WtEn= 0.00D+00
 Coeff-Com:  0.106D-02-0.332D-01 0.119D-01 0.284D+00 0.737D+00
 Coeff:      0.106D-02-0.332D-01 0.119D-01 0.284D+00 0.737D+00
 Gap=     0.347 Goal=   None    Shift=    0.000
 RMSDP=5.80D-06 MaxDP=2.05D-04 DE=-1.49D-06 OVMax= 1.07D-04

 Cycle   6  Pass 1  IDiag  1:
 RMSU=  3.22D-06    CP:  9.68D-01  1.09D+00  8.25D-01  1.04D+00  8.64D-01
 E= -233.615480932605     Delta-E=       -0.000000153870 Rises=F Damp=F
 DIIS: error= 1.10D-05 at cycle   6 NSaved=   6.
 NSaved= 6 IEnMin= 6 EnMin= -233.615480932605     IErMin= 6 ErrMin= 1.10D-05
 ErrMax= 1.10D-05  0.00D+00 EMaxC= 1.00D-01 BMatC= 1.90D-08 BMatP= 1.73D-07
 IDIUse=1 WtCom= 1.00D+00 WtEn= 0.00D+00
 Coeff-Com:  0.121D-02-0.152D-01-0.118D-01 0.407D-01 0.300D+00 0.685D+00
 Coeff:      0.121D-02-0.152D-01-0.118D-01 0.407D-01 0.300D+00 0.685D+00
 Gap=     0.347 Goal=   None    Shift=    0.000
 RMSDP=1.25D-06 MaxDP=4.52D-05 DE=-1.54D-07 OVMax= 3.43D-05

 Cycle   7  Pass 1  IDiag  1:
 RMSU=  8.03D-07    CP:  9.68D-01  1.09D+00  8.27D-01  1.06D+00  9.15D-01
                    CP:  9.34D-01
 E= -233.615480951517     Delta-E=       -0.000000018912 Rises=F Damp=F
 DIIS: error= 1.13D-06 at cycle   7 NSaved=   7.
 NSaved= 7 IEnMin= 7 EnMin= -233.615480951517     IErMin= 7 ErrMin= 1.13D-06
 ErrMax= 1.13D-06  0.00D+00 EMaxC= 1.00D-01 BMatC= 2.78D-10 BMatP= 1.90D-08
 IDIUse=1 WtCom= 1.00D+00 WtEn= 0.00D+00
 Coeff-Com:  0.935D-04-0.177D-03-0.226D-02-0.108D-01-0.610D-03 0.880D-01
 Coeff-Com:  0.926D+00
 Coeff:      0.935D-04-0.177D-03-0.226D-02-0.108D-01-0.610D-03 0.880D-01
 Coeff:      0.926D+00
 Gap=     0.347 Goal=   None    Shift=    0.000
 RMSDP=3.07D-07 MaxDP=9.21D-06 DE=-1.89D-08 OVMax= 7.95D-06

 Cycle   8  Pass 1  IDiag  1:
 RMSU=  1.70D-07    CP:  9.68D-01  1.09D+00  8.27D-01  1.06D+00  9.30D-01
                    CP:  9.96D-01  1.01D+00
 E= -233.615480951925     Delta-E=       -0.000000000408 Rises=F Damp=F
 DIIS: error= 2.20D-07 at cycle   8 NSaved=   8.
 NSaved= 8 IEnMin= 8 EnMin= -233.615480951925     IErMin= 8 ErrMin= 2.20D-07
 ErrMax= 2.20D-07  0.00D+00 EMaxC= 1.00D-01 BMatC= 1.26D-11 BMatP= 2.78D-10
 IDIUse=1 WtCom= 1.00D+00 WtEn= 0.00D+00
 Coeff-Com: -0.559D-04 0.825D-03 0.396D-03-0.323D-02-0.167D-01-0.271D-01
 Coeff-Com:  0.105D+00 0.941D+00
 Coeff:     -0.559D-04 0.825D-03 0.396D-03-0.323D-02-0.167D-01-0.271D-01
 Coeff:      0.105D+00 0.941D+00
 Gap=     0.347 Goal=   None    Shift=    0.000
 RMSDP=1.14D-07 MaxDP=5.80D-06 DE=-4.08D-10 OVMax= 2.61D-06

 Cycle   9  Pass 1  IDiag  1:
 RMSU=  4.73D-08    CP:  9.68D-01  1.09D+00  8.26D-01  1.06D+00  9.31D-01
                    CP:  1.01D+00  1.05D+00  1.11D+00
 E= -233.615480951949     Delta-E=       -0.000000000024 Rises=F Damp=F
 DIIS: error= 7.92D-08 at cycle   9 NSaved=   9.
 NSaved= 9 IEnMin= 9 EnMin= -233.615480951949     IErMin= 9 ErrMin= 7.92D-08
 ErrMax= 7.92D-08  0.00D+00 EMaxC= 1.00D-01 BMatC= 1.35D-12 BMatP= 1.26D-11
 IDIUse=1 WtCom= 1.00D+00 WtEn= 0.00D+00
 Coeff-Com: -0.189D-04 0.226D-03 0.203D-03-0.378D-03-0.457D-02-0.111D-01
 Coeff-Com: -0.146D-01 0.228D+00 0.802D+00
 Coeff:     -0.189D-04 0.226D-03 0.203D-03-0.378D-03-0.457D-02-0.111D-01
 Coeff:     -0.146D-01 0.228D+00 0.802D+00
 Gap=     0.347 Goal=   None    Shift=    0.000
 RMSDP=1.73D-08 MaxDP=4.10D-07 DE=-2.39D-11 OVMax= 6.07D-07

 Cycle  10  Pass 1  IDiag  1:
 RMSU=  1.06D-08    CP:  9.68D-01  1.09D+00  8.26D-01  1.06D+00  9.31D-01
                    CP:  1.01D+00  1.05D+00  1.17D+00  1.06D+00
 E= -233.615480951950     Delta-E=       -0.000000000001 Rises=F Damp=F
 DIIS: error= 3.47D-08 at cycle  10 NSaved=  10.
 NSaved=10 IEnMin=10 EnMin= -233.615480951950     IErMin=10 ErrMin= 3.47D-08
 ErrMax= 3.47D-08  0.00D+00 EMaxC= 1.00D-01 BMatC= 2.54D-13 BMatP= 1.35D-12
 IDIUse=1 WtCom= 1.00D+00 WtEn= 0.00D+00
 Coeff-Com:  0.113D-06-0.228D-04 0.278D-04 0.307D-03 0.441D-03-0.590D-03
 Coeff-Com: -0.179D-01-0.359D-01 0.296D+00 0.758D+00
 Coeff:      0.113D-06-0.228D-04 0.278D-04 0.307D-03 0.441D-03-0.590D-03
 Coeff:     -0.179D-01-0.359D-01 0.296D+00 0.758D+00
 Gap=     0.347 Goal=   None    Shift=    0.000
 RMSDP=6.63D-09 MaxDP=2.15D-07 DE=-9.09D-13 OVMax= 2.55D-07

 SCF Done:  E(RM062X) =  -233.615480952     A.U. after   10 cycles
            NFock= 10  Conv=0.66D-08     -V/T= 2.0042
 KE= 2.326470963558D+02 PE=-9.144538584527D+02 EE= 2.631662159886D+02
 Leave Link  502 at Sun Oct 13 21:37:09 2019, MaxMem= 10737418240 cpu:             106.4 elap:               4.5
 (Enter /apps/cent7/gaussian/g16-A.03/g16-haswell/g16/l701.exe)
 ... and contract with generalized density number  0.
 Compute integral first derivatives.
 Leave Link  701 at Sun Oct 13 21:37:09 2019, MaxMem= 10737418240 cpu:               2.9 elap:               0.1
 (Enter /apps/cent7/gaussian/g16-A.03/g16-haswell/g16/l702.exe)
 L702 exits ... SP integral derivatives will be done elsewhere.
 Leave Link  702 at Sun Oct 13 21:37:09 2019, MaxMem= 10737418240 cpu:               0.4 elap:               0.0
 (Enter /apps/cent7/gaussian/g16-A.03/g16-haswell/g16/l703.exe)
 Integral derivatives from FoFJK, PRISM(SPDF).
 Compute integral first derivatives, UseDBF=F ICtDFT=           0.
 Calling FoFJK, ICntrl=      2127 FMM=F ISym2X=0 I1Cent= 0 IOpClX= 0 NMat=1 NMatS=1 NMatT=0.
 FoFJK:  IHMeth= 1 ICntrl=    2127 DoSepK=F KAlg= 0 I1Cent=           0 FoldK=F
 IRaf=         0 NMat=       1 IRICut=       1 DoRegI=T DoRafI=F ISym2E= 0 IDoP0=0 IntGTp=1.
 FoFCou: FMM=F IPFlag=           0 FMFlag=      100000 FMFlg1=         800
         NFxFlg=           0 DoJE=F BraDBF=F KetDBF=F FulRan=T
         wScrn=  0.000000 ICntrl=      2127 IOpCl=  0 I1Cent=           0 NGrid=           0
         NMat0=    1 NMatS0=      1 NMatT0=    0 NMatD0=    1 NMtDS0=    0 NMtDT0=    0
 Symmetry not used in FoFCou.
 Leave Link  703 at Sun Oct 13 21:37:10 2019, MaxMem= 10737418240 cpu:              21.8 elap:               0.9
 (Enter /apps/cent7/gaussian/g16-A.03/g16-haswell/g16/l716.exe)
 Dipole        =-3.32211427D-02 6.62496862D-01-1.71266759D-01
 ***** Axes restored to original set *****
 -------------------------------------------------------------------
 Center     Atomic                   Forces (Hartrees/Bohr)
 Number     Number              X              Y              Z
 -------------------------------------------------------------------
      1        6           0.001719873    0.001247968    0.007137624
      2        6          -0.008864288    0.008257400   -0.018629894
      3        6           0.009642101   -0.010186017    0.015180425
      4        6          -0.007279420    0.007943830   -0.015815920
      5        8           0.000922947   -0.004778312    0.002657194
      6        1           0.000760628   -0.001088885   -0.001985862
      7        1          -0.000381600   -0.000937679    0.000220184
      8        1          -0.000493919    0.000634751   -0.000914387
      9        1           0.005240175   -0.001009236    0.004134339
     10        1          -0.000593233   -0.004612571    0.007086768
     11        1          -0.006071173    0.001671521   -0.004111003
     12        1           0.000749744    0.003913662   -0.005968196
     13        1           0.004345389   -0.000437203    0.004045286
     14        1          -0.000442263   -0.002269031    0.006229296
     15        1           0.000745040    0.001649800    0.000734147
 -------------------------------------------------------------------
 Cartesian Forces:  Max     0.018629894 RMS     0.006129321
 Leave Link  716 at Sun Oct 13 21:37:10 2019, MaxMem= 10737418240 cpu:               0.5 elap:               0.0
 (Enter /apps/cent7/gaussian/g16-A.03/g16-haswell/g16/l103.exe)

 GradGradGradGradGradGradGradGradGradGradGradGradGradGradGradGradGradGrad
 Berny optimization.
 Using GEDIIS/GDIIS optimizer.
 FormGI is forming the generalized inverse of G from B-inverse, IUseBI=4.
 Internal  Forces:  Max     0.004645276 RMS     0.002044003
 Search for a local minimum.
 Step number   2 out of a maximum of   79
 All quantities printed in internal units (Hartrees-Bohrs-Radians)
 RMS Force = .20440D-02 SwitMx=.10000D-02 MixMth= 1
 Mixed Optimization -- RFO/linear search
 Update second derivatives using D2CorX and points    1    2
 DE= -1.25D-02 DEPred=-1.21D-02 R= 1.03D+00
 TightC=F SS=  1.41D+00  RLast= 4.53D-01 DXNew= 5.0454D-01 1.3587D+00
 Trust test= 1.03D+00 RLast= 4.53D-01 DXMaxT set to 5.05D-01
 ITU=  1  0
 Use linear search instead of GDIIS.
     Eigenvalues ---    0.00230   0.00230   0.00230   0.01399   0.03837
     Eigenvalues ---    0.03879   0.04010   0.04964   0.05473   0.05509
     Eigenvalues ---    0.05586   0.05892   0.07691   0.07734   0.10969
     Eigenvalues ---    0.11729   0.11765   0.13466   0.15850   0.16000
     Eigenvalues ---    0.16000   0.16146   0.22071   0.22121   0.25118
     Eigenvalues ---    0.27467   0.27938   0.28975   0.34756   0.34807
     Eigenvalues ---    0.34808   0.34811   0.34813   0.34815   0.34816
     Eigenvalues ---    0.34818   0.34835   0.43019   0.55542
 RFO step:  Lambda=-4.04112053D-03 EMin= 2.29978017D-03
 Quartic linear search produced a step of  0.35390.
 Iteration  1 RMS(Cart)=  0.05337286 RMS(Int)=  0.00222529
 Iteration  2 RMS(Cart)=  0.00239115 RMS(Int)=  0.00036573
 Iteration  3 RMS(Cart)=  0.00000402 RMS(Int)=  0.00036572
 Iteration  4 RMS(Cart)=  0.00000000 RMS(Int)=  0.00036572
 ITry= 1 IFail=0 DXMaxC= 2.07D-01 DCOld= 1.00D+10 DXMaxT= 5.05D-01 DXLimC= 3.00D+00 Rises=F
 Variable       Old X    -DE/DX   Delta X   Delta X   Delta X     New X
                                 (Linear)    (Quad)   (Total)
    R1        2.91716  -0.00401  -0.00009  -0.01857  -0.01866   2.89850
    R2        2.06042   0.00085   0.00019   0.00307   0.00326   2.06368
    R3        2.06400   0.00005   0.00146  -0.00085   0.00062   2.06461
    R4        2.06198   0.00042   0.00078   0.00104   0.00182   2.06380
    R5        2.91517  -0.00339  -0.00564  -0.01209  -0.01773   2.89744
    R6        2.06306   0.00063   0.00112   0.00161   0.00273   2.06579
    R7        2.06244   0.00078   0.00097   0.00228   0.00324   2.06568
    R8        2.88258  -0.00110  -0.01350   0.00448  -0.00901   2.87357
    R9        2.06346   0.00049   0.00130   0.00093   0.00222   2.06568
   R10        2.06224   0.00037   0.00088   0.00079   0.00167   2.06391
   R11        2.70531  -0.00390   0.00654  -0.01669  -0.01015   2.69516
   R12        2.06697   0.00077   0.00260   0.00108   0.00368   2.07065
   R13        2.06766   0.00078   0.00274   0.00101   0.00375   2.07140
   R14        1.81044   0.00124  -0.00130   0.00382   0.00253   1.81297
    A1        1.92719   0.00279   0.00584   0.02068   0.02636   1.95355
    A2        1.93286  -0.00016   0.00785  -0.00848  -0.00076   1.93211
    A3        1.93547   0.00005   0.00876  -0.00724   0.00138   1.93685
    A4        1.89067  -0.00118  -0.00704  -0.00205  -0.00921   1.88145
    A5        1.88952  -0.00127  -0.00745  -0.00207  -0.00969   1.87983
    A6        1.88668  -0.00035  -0.00845  -0.00104  -0.00959   1.87709
    A7        1.93097   0.00127  -0.01103   0.03445   0.02241   1.95338
    A8        1.89546   0.00081   0.01571   0.00694   0.02194   1.91740
    A9        1.89322   0.00060   0.01491   0.00255   0.01699   1.91021
   A10        1.89388   0.00068   0.01410   0.00664   0.01999   1.91387
   A11        1.89052   0.00063   0.01288   0.00429   0.01668   1.90719
   A12        1.96018  -0.00397  -0.04749  -0.05387  -0.10079   1.85939
   A13        1.92768   0.00200  -0.01426   0.04118   0.02599   1.95367
   A14        1.90238   0.00053   0.01769   0.00155   0.01872   1.92110
   A15        1.90131   0.00068   0.01728   0.00414   0.02086   1.92217
   A16        1.88128   0.00035   0.01099   0.00521   0.01563   1.89690
   A17        1.88318   0.00027   0.01171   0.00431   0.01537   1.89855
   A18        1.96807  -0.00374  -0.04473  -0.05455  -0.09883   1.86924
   A19        1.86439   0.00333  -0.01984   0.04741   0.02699   1.89138
   A20        1.89404   0.00218   0.00264   0.02327   0.02570   1.91974
   A21        1.89816   0.00185   0.00412   0.01886   0.02279   1.92095
   A22        1.92425  -0.00119   0.03132  -0.02351   0.00688   1.93113
   A23        1.91401  -0.00099   0.02778  -0.01889   0.00805   1.92206
   A24        1.96592  -0.00465  -0.04550  -0.04114  -0.08710   1.87882
   A25        1.89578   0.00152  -0.00526   0.01628   0.01101   1.90680
    D1       -2.82668  -0.00072  -0.01246  -0.10133  -0.11383  -2.94051
    D2       -0.74986   0.00137   0.00800  -0.06849  -0.06024  -0.81010
    D3        1.38515  -0.00260  -0.03093  -0.12833  -0.15944   1.22571
    D4       -0.73252  -0.00048  -0.01253  -0.09592  -0.10849  -0.84100
    D5        1.34431   0.00161   0.00793  -0.06308  -0.05490   1.28941
    D6       -2.80387  -0.00236  -0.03100  -0.12292  -0.15410  -2.95797
    D7        1.36207  -0.00099  -0.01246  -0.10759  -0.12011   1.24196
    D8       -2.84429   0.00110   0.00800  -0.07475  -0.06653  -2.91081
    D9       -0.70928  -0.00287  -0.03093  -0.13459  -0.16573  -0.87501
   D10       -3.13446   0.00020   0.00254   0.01844   0.02104  -3.11341
   D11       -1.07072   0.00213   0.01863   0.05008   0.06893  -1.00179
   D12        1.08333  -0.00172  -0.01418  -0.01366  -0.02802   1.05531
   D13        1.07095  -0.00197  -0.01889  -0.01452  -0.03361   1.03734
   D14        3.13468  -0.00003  -0.00280   0.01712   0.01428  -3.13422
   D15       -0.99446  -0.00388  -0.03561  -0.04663  -0.08267  -1.07713
   D16       -1.06146   0.00206   0.02224   0.04430   0.06675  -0.99471
   D17        1.00228   0.00399   0.03833   0.07594   0.11464   1.11692
   D18       -3.12686   0.00014   0.00552   0.01220   0.01769  -3.10917
   D19        3.13633  -0.00008  -0.00183  -0.00880  -0.01066   3.12567
   D20       -1.07240   0.00149   0.02600   0.00181   0.02802  -1.04438
   D21        1.07178  -0.00170  -0.02625  -0.02244  -0.04888   1.02290
   D22        1.05973  -0.00208  -0.02201  -0.03744  -0.05963   1.00009
   D23        3.13419  -0.00051   0.00582  -0.02683  -0.02096   3.11324
   D24       -1.00482  -0.00370  -0.04643  -0.05107  -0.09785  -1.10267
   D25       -1.07040   0.00205   0.01830   0.02252   0.04095  -1.02946
   D26        1.00406   0.00362   0.04612   0.03313   0.07962   1.08368
   D27       -3.13496   0.00043  -0.00613   0.00888   0.00273  -3.13223
   D28        2.84453   0.00083   0.00504   0.04603   0.05104   2.89557
   D29        0.78982  -0.00304  -0.00441   0.00357  -0.00033   0.78949
[...]
 ! D30   D(14,4,5,15)          -59.8329         -DE/DX =    0.0                 !
 --------------------------------------------------------------------------------
 GradGradGradGradGradGradGradGradGradGradGradGradGradGradGradGradGradGrad

 Leave Link  103 at Sun Oct 13 21:38:39 2019, MaxMem= 10737418240 cpu:               0.6 elap:               0.1
 (Enter /apps/cent7/gaussian/g16-A.03/g16-haswell/g16/l9999.exe)

 ----------------------------------------------------------------------

 Electric dipole moment (input orientation):
 (Debye = 10**-18 statcoulomb cm , SI units = C m)
                  (au)            (Debye)         (10**-30 SI)
   Tot        0.671350D+00      0.170640D+01      0.569195D+01
   x          0.243400D+00      0.618662D+00      0.206363D+01
   y         -0.298069D+00     -0.757616D+00     -0.252713D+01
   z          0.550111D+00      0.139824D+01      0.466404D+01

 Dipole polarizability, Alpha (input orientation).
 (esu units = cm**3 , SI units = C**2 m**2 J**-1)
 Alpha(0;0):
               (au)            (10**-24 esu)      (10**-40 SI)
   iso        0.539042D+02      0.798778D+01      0.888760D+01
   aniso      0.137982D+02      0.204468D+01      0.227501D+01
   xx         0.482414D+02      0.714864D+01      0.795394D+01
   yx        -0.184125D+01     -0.272844D+00     -0.303580D+00
   yy         0.589429D+02      0.873444D+01      0.971837D+01
   zx         0.261756D+00      0.387882D-01      0.431577D-01
   zy         0.557515D+01      0.826152D+00      0.919218D+00
   zz         0.545282D+02      0.808024D+01      0.899048D+01

 ----------------------------------------------------------------------

 Dipole orientation:
     6          4.66852346         -1.88846772          0.23280574
     6          4.14798356          0.48483381          1.78866886
     6          3.64103624          2.78978759          0.12919925
     6          3.12257662          5.15176733          1.66469777
     8          2.67837564          7.17203608         -0.04294500
     1          5.02794345         -3.52219487          1.43978674
     1          3.05929129         -2.33643530         -0.98160318
     1          6.31623639         -1.62105840         -0.98317502
     1          2.52305345          0.15771649          3.02866721
     1          5.76147465          0.86898049          3.02723686
     1          5.26315243          3.14850214         -1.10362313
     1          2.01711145          2.43537570         -1.10249366
     1          1.47224348          4.84606350          2.88446712
     1          4.74959257          5.56608619          2.88372848
     1          2.34605550          8.68376707          0.90055018

 Electric dipole moment (dipole orientation):
 (Debye = 10**-18 statcoulomb cm , SI units = C m)
                  (au)            (Debye)         (10**-30 SI)
   Tot        0.671350D+00      0.170640D+01      0.569195D+01
   x          0.000000D+00      0.000000D+00      0.000000D+00
   y          0.000000D+00      0.000000D+00      0.000000D+00
   z          0.671350D+00      0.170640D+01      0.569195D+01

 Dipole polarizability, Alpha (dipole orientation).
 (esu units = cm**3 , SI units = C**2 m**2 J**-1)
 Alpha(0;0):
               (au)            (10**-24 esu)      (10**-40 SI)
   iso        0.539042D+02      0.798778D+01      0.888760D+01
   aniso      0.137982D+02      0.204468D+01      0.227501D+01
   xx         0.483156D+02      0.715963D+01      0.796616D+01
   yx        -0.318919D+01     -0.472590D+00     -0.525827D+00
   yy         0.621332D+02      0.920718D+01      0.102444D+02
   zx        -0.122482D+00     -0.181500D-01     -0.201946D-01
   zy         0.563251D+00      0.834652D-01      0.928676D-01
   zz         0.512638D+02      0.759651D+01      0.845226D+01

 ----------------------------------------------------------------------
 1\1\GINC-BROWN-A145\Freq\RM062X\6-311++G(d,p)\C4H10O1\FINEJ\13-Oct-201
 9\0\\#P Geom=AllCheck Guess=TCheck SCRF=Check GenChk RM062X/6-311++G(d
 ,p) Freq\\Title Card Required\\0,1\C,2.2482458023,-0.7271896916,-1.238
 4201552\C,2.4023010887,0.0027236426,0.0936894035\C,1.9429523633,1.4564
 546936,0.0129223742\C,2.0935918481,2.1859078892,1.3331424448\O,1.64247
 76634,3.5195677471,1.1525629811\H,2.5797796396,-1.7648027634,-1.167852
 0433\H,1.2042360255,-0.7285800596,-1.5615131755\H,2.8364120684,-0.2381
 817922,-2.018980416\H,1.827132466,-0.5190333286,0.866264832\H,3.450048
 8565,-0.031476198,0.4114465367\H,2.5195955579,1.991302919,-0.748577943
 1\H,0.8927933436,1.502580955,-0.2928657945\H,1.5030731946,1.6778181706
 ,2.106851031\H,3.1456438619,2.1711680317,1.6469219833\H,1.73111622,3.9
 956397849,1.9806079413\\Version=ES64L-G16RevA.03\State=1-A\HF=-233.619
 3747\RMSD=2.646e-09\RMSF=3.473e-06\ZeroPoint=0.1379527\Thermal=0.13795
 27\Dipole=0.2434003,-0.2980691,0.5501114\DipoleDeriv=0.0821312,0.01327
 99,0.0000803,0.006394,0.0218524,-0.0460619,-0.0073032,-0.0214942,0.036
 9988,0.1340121,0.004173,-0.0159479,0.0101163,0.100898,-0.0055571,-0.00
 95674,-0.0267698,0.0768693,0.1025447,0.0043018,-0.0271708,0.0227389,0.
 0061341,-0.0317598,-0.0074117,-0.0975775,-0.019625,0.4261652,-0.118797
 6,-0.0254505,-0.135649,0.8473122,-0.0020355,-0.04352,0.0581906,0.30449
 29,-0.567213,0.1444573,0.0801296,0.1350083,-1.0714194,-0.0811737,0.069
 98,-0.0474099,-0.3469109,0.0576539,0.0694855,-0.00094,0.0585554,-0.154
 0611,-0.040705,-0.0126585,-0.0016971,0.03181,-0.1244441,-0.0160843,-0.
 0807278,0.0245308,0.0658824,-0.0033248,-0.0281278,-0.0264643,0.0188293
 ,0.0063737,-0.0519568,0.0838462,-0.068435,0.0153641,0.0831945,0.057121
 ,0.0202183,-0.0614672,0.0002358,-0.0501928,0.0951081,-0.0279755,-0.021
 6933,0.0439728,0.0675916,0.0662167,-0.0910965,-0.137784,0.0232027,-0.0
 822427,-0.0106597,0.0180061,-0.02578,-0.0672158,-0.0064719,0.0072275,0
 .0051259,-0.0505408,0.0757995,-0.0289386,-0.005467,0.0514663,0.0576938
 ,0.0510217,-0.0588632,-0.1122297,0.0178252,-0.0662654,-0.0032731,0.033
 373,-0.008272,-0.0476064,-0.0096369,0.0196305,-0.0267597,-0.0457948,0.
 1055557,-0.0303153,-0.0925421,0.0740358,0.0589895,0.0713689,-0.0905874
 ,-0.1785489,0.041844,-0.088955,0.0230105,-0.0365123,-0.0120826,-0.0459
 909,0.0025339,0.0051661,0.3327368,0.0147976,-0.0528193,0.0248921,0.272
 8728,0.0040831,-0.0419744,-0.0320285,0.1675258\Polar=48.2414472,-1.841
 2452,58.9429061,0.2617555,5.5751494,54.5281897\Quadrupole=-0.7180098,-
 1.510566,2.2285758,1.1253073,-0.1127698,2.775804\PG=C01 [X(C4H10O1)]\N
 Imag=0\\0.57273359,-0.00766390,0.56242046,-0.00854014,-0.03850258,0.50
 108953,-0.08025547,-0.00598115,-0.01188223,0.58632134,-0.00695996,-0.1
 0462465,-0.05259951,0.02301457,0.48845120,-0.01293210,-0.04910703,-0.1
 7750415,-0.00844175,-0.03273236,0.53037259,0.00089667,-0.00322365,0.00
 145859,-0.09194755,0.03546197,-0.00357358,0.59457610,0.00527423,-0.020
 75523,-0.00291564,0.03486237,-0.18684593,0.01017912,0.02053642,0.50621
 011,0.01056917,-0.03324115,0.00159946,-0.00421766,0.01232083,-0.082137
 10,-0.00767175,-0.03037944,0.54296002,-0.00163011,0.00191773,-0.000428
 95,-0.00040940,0.00456207,0.01025262,-0.08309057,-0.00745528,-0.014496
 41,0.58867959,0.00132794,-0.00418935,0.00124752,-0.00218567,-0.0191839
 2,-0.02632433,-0.01167467,-0.09362877,-0.05493932,0.02341065,0.4978589
 8,-0.00106347,0.00335693,-0.00112851,0.00301775,-0.00223819,0.00646114
 ,-0.01902449,-0.03987530,-0.19195895,-0.00432993,-0.02264595,0.5571651
 4,0.00046731,-0.00000391,-0.00021672,0.00033511,-0.00040620,-0.0002317
 2,0.00263150,0.00018967,0.00097210,-0.08481682,0.05003183,-0.02271723,
 0.08741649,0.00087275,-0.00141861,0.00102818,-0.00143259,-0.00036676,-
 0.00580554,0.01117061,-0.03404801,0.00077703,0.06071981,-0.22486287,0.
 04371659,-0.07322687,0.46034870,0.00072390,-0.00210187,0.00085646,-0.0
 0133356,-0.00214327,-0.00678093,0.01275331,-0.03844500,0.00672186,-0.0
 1123696,0.00549291,-0.09770322,0.07515870,0.18488425,0.51160421,-0.073
 08049,0.07897233,-0.00626395,0.00008891,-0.00485874,0.00059980,0.00018
 396,-0.00032404,-0.00056984,0.00063021,-0.00006587,-0.00009194,-0.0000
 0657,-0.00003192,-0.00006274,0.07438739,0.07858739,-0.29063658,0.01985
 532,0.00407396,-0.01259687,0.00268177,-0.00102458,-0.00011942,-0.00404
 943,0.00051957,-0.00025558,0.00089907,0.00003975,-0.00056804,-0.000469
 03,-0.08612073,0.31467881,-0.00667659,0.02122853,-0.04866173,0.0101754
 2,-0.02918882,0.00347656,-0.00132060,-0.00154849,-0.00612655,0.0005354
 7,-0.00119074,0.00127144,0.00001415,-0.00072424,-0.00072520,0.00752975
 ,-0.01967834,0.05217092,-0.29346283,0.00081614,-0.07230556,-0.00239486
 ,0.00020834,-0.00088338,0.00051629,0.00017551,0.00044816,0.00039550,0.
 00004351,0.00019855,0.00005392,-0.00021354,-0.00010250,-0.00841348,-0.
 00032843,-0.00173450,0.31694615,0.00146327,-0.04763115,0.00111922,-0.0
 1564548,-0.00103879,-0.00445118,-0.00148833,0.00110562,0.00024368,-0.0
 0001340,-0.00002778,-0.00018733,0.00011510,-0.00001130,0.00007341,0.03
 031945,0.00127084,0.00862628,-0.00095804,0.04777095,-0.07137573,0.0009
 3048,-0.06776404,-0.02997107,-0.00046407,-0.00963685,-0.00056894,0.001
 53772,0.00094980,0.00002416,0.00019933,-0.00007011,0.00018694,-0.00012
 202,0.00002973,-0.00209381,0.00017260,-0.00186512,0.08039310,0.0021369
 7,0.07485268,-0.12724408,-0.06606811,0.10269295,0.00238878,0.00227144,
 -0.00367100,-0.00010584,-0.00002511,0.00007618,0.00010852,0.00019047,-
 0.00018253,-0.00002170,0.00009497,0.00005329,0.00575302,0.00457895,-0.
 00868200,-0.01599954,-0.01476824,0.02256146,0.13352661,-0.06640373,-0.
 10312348,0.08671881,0.00989071,0.00682195,-0.01204343,0.00064765,0.001
 74310,-0.00051892,0.00002951,0.00005518,-0.00033785,-0.00005410,0.0000
 3736,0.00016124,-0.01794668,-0.01303518,0.02125993,0.00088946,-0.00053
 336,-0.00135982,0.07325196,0.10892242,0.10209732,0.08579641,-0.1784928
 9,0.01658906,0.01334955,-0.02228048,0.00003154,0.00172179,0.00093504,-
 0.00024218,0.00005397,0.00013385,-0.00004363,-0.00028417,0.00005658,0.
 00038430,0.00073460,-0.00172536,-0.00502278,-0.00525910,0.00719774,-0.
 11202114,-0.09192140,0.19712245,0.00216279,0.00225888,-0.00346594,-0.1
 2496870,-0.06599793,0.09635183,0.00593606,0.00553833,-0.00806169,0.000
 14946,-0.00012704,0.00000428,-0.00001310,0.00000677,-0.00024040,-0.000
 10710,0.00024365,0.00052741,0.00059192,0.00054010,0.00010890,0.0011539
 7,-0.00000432,-0.00123275,0.13052585,0.00978630,0.00785054,-0.01315500
 ,-0.06549041,-0.10508959,0.08628917,-0.01818429,-0.01769847,0.02236844
 ,-0.00101579,0.00022732,0.00223095,0.00039966,0.00056426,-0.00061203,0
 .00037294,0.00058539,0.00066586,-0.00012017,0.00037378,0.00088792,-0.0
 0042610,-0.00106356,-0.00359902,0.07093713,0.11871425,0.01614188,0.013
 06376,-0.02195017,0.09532764,0.08564771,-0.17225662,0.00066248,0.00147
 296,-0.00182891,-0.00020787,-0.00063734,0.00043602,-0.00015593,-0.0001
 3447,0.00005682,0.00023401,-0.00020352,0.00104357,-0.00046223,0.000653
 68,0.00091664,-0.00116802,-0.00336230,-0.00448783,-0.10548954,-0.09195
 280,0.19027588,-0.00177614,-0.00026313,-0.00047252,-0.28642619,0.00543
 941,-0.06806835,-0.01007210,0.00120417,-0.00229472,-0.00050557,-0.0005
 7851,-0.00071079,0.00062320,-0.00009053,0.00026246,0.00019245,-0.00051
 306,-0.00027174,0.00164806,-0.00021842,-0.00021278,0.00050272,0.000062
 71,-0.00039810,-0.01680909,0.00032635,-0.00445160,0.31030989,-0.016527
 66,-0.00045710,-0.00521280,0.00515950,-0.04783085,0.00350240,0.0330168
 6,-0.00217559,0.00840594,0.00153462,0.00091711,0.00124671,-0.00064773,
 0.00016250,-0.00011417,-0.00025030,0.00014392,0.00062566,0.00004237,-0
 .00103177,-0.00338246,0.00066439,0.00047401,0.00050820,-0.01490870,-0.
 00009163,-0.00495095,-0.00831174,0.05487298,-0.02944540,-0.00025641,-0
 .00970249,-0.06679932,0.00332915,-0.06806408,-0.00234774,0.00043638,-0
 .00134489,0.00081575,-0.00025787,0.00040086,0.00000166,-0.00000642,-0.
 00017808,0.00044189,0.00009631,0.00118596,-0.00045003,-0.00304465,-0.0
 0501365,0.00011020,0.00095189,0.00090513,0.02217250,-0.00122235,0.0068
 2471,0.07616790,-0.00003635,0.07433902,0.00018070,-0.00036408,-0.00038
 882,0.00564939,0.00605644,-0.00785401,-0.12653272,-0.06907719,0.097116
 49,0.00183682,0.00184764,-0.00338817,-0.00020118,0.00057668,0.00035022
 ,-0.00000531,-0.00003063,-0.00027532,-0.00008119,-0.00003098,0.0001476
 2,0.00008037,-0.00036257,-0.00001849,0.00058863,0.00261950,-0.00038476
 ,0.00073239,-0.00060641,-0.00036357,0.13197492,-0.00071660,0.00145519,
 0.00133489,-0.01748521,-0.01751660,0.02187986,-0.06891575,-0.10718749,
 0.08792230,0.00955636,0.00668178,-0.01290867,-0.00038278,0.00144706,0.
 00084793,0.00032320,0.00043698,-0.00015092,0.00000576,-0.00005404,-0.0
 0008712,0.00037952,-0.00014754,-0.00108846,0.00250351,-0.00556335,0.00
 004419,0.00021386,0.00131537,-0.00011281,0.07380635,0.11956056,-0.0004
 4908,-0.00060353,0.00097473,0.00003960,0.00069123,-0.00143540,0.095802
 71,0.08587380,-0.17132057,0.01766287,0.01532027,-0.02486207,-0.0008740
 3,0.00037191,0.00281923,-0.00015579,0.00000939,0.00007251,-0.00009881,
 0.00005151,0.00000309,0.00024911,0.00020200,0.00035405,-0.00031654,-0.
 00036757,0.00058276,-0.00007213,0.00025481,-0.00009271,-0.10551315,-0.
 09431091,0.18947953,0.00041074,-0.00066308,-0.00005056,-0.00917958,0.0
 0077314,-0.00238109,-0.29077518,0.00656787,-0.06694546,-0.00430940,0.0
 0062530,-0.00103503,0.00087754,-0.00068856,0.00039883,0.00041841,-0.00
 000159,0.00012451,0.00022929,0.00053938,0.00064104,-0.00007190,0.00005
 084,-0.00003642,0.00066647,0.00027759,-0.00010111,0.00115343,0.0017255
 5,-0.00031350,-0.01629358,0.00067001,-0.00470620,0.31431661,0.00056365
 ,0.00172962,0.00109720,0.03244663,-0.00276534,0.00828762,0.00722136,-0
 .04676595,0.00348439,-0.01654872,-0.00097315,-0.00540723,0.00019374,0.
 00114282,0.00079144,-0.00036733,0.00020016,0.00019846,-0.00068337,-0.0
 0020956,-0.00057988,-0.00008305,-0.00005694,-0.00011690,-0.00056689,0.
 00135180,0.00017930,0.00203275,-0.00602438,0.00024550,-0.01505791,0.00
 028460,-0.00479485,-0.00994911,0.05278058,0.00094615,-0.00008187,0.000
 47110,-0.00155252,0.00044435,-0.00135846,-0.06475697,0.00262611,-0.067
 49406,-0.03223859,0.00015399,-0.01106521,0.00154025,0.00154227,0.00204
 478,-0.00000781,0.00008130,-0.00011426,-0.00014163,-0.00015551,0.00026
 727,0.00010592,0.00009107,-0.00000344,-0.00041832,-0.00010241,-0.00006
 423,-0.00017568,-0.00002761,0.00047893,0.02178461,-0.00124208,0.006399
 79,0.07521947,-0.00120588,0.07391671,0.00005923,0.00030567,-0.00016548
 ,0.00000800,-0.00007560,0.00024624,0.00233810,0.00132760,-0.00337729,-
 0.13632389,-0.06216096,0.09992368,0.01131823,0.00977497,-0.01188236,-0
 .00003009,0.00004045,0.00008594,-0.00001273,-0.00002293,-0.00001375,-0
 .00002689,-0.00007025,-0.00009343,0.00018866,0.00046305,0.00012585,-0.
 00001558,-0.00014165,0.00004602,0.00136177,-0.00000167,-0.00105296,0.0
 0088051,0.00064623,0.00007330,0.13727764,0.00013149,0.00011535,-0.0002
 0316,0.00010935,0.00143453,-0.00021860,0.00939121,0.00738240,-0.011458
 18,-0.05997601,-0.09284661,0.07127260,-0.01004033,-0.03419835,0.025571
 82,-0.00002447,-0.00000851,0.00006962,-0.00000771,0.00002195,0.0000285
 2,-0.00007024,-0.00014220,0.00006030,-0.00027033,-0.00014456,0.0000582
 8,0.00008626,-0.00002905,0.00009130,-0.00035315,-0.00148943,-0.0033232
 9,-0.00015276,0.00041497,0.00080748,0.06409017,0.11644844,-0.00027642,
 -0.00044625,0.00021847,0.00004276,0.00167653,0.00025835,0.01823421,0.0
 1202909,-0.02230915,0.09648006,0.07379858,-0.17283724,-0.00102331,0.00
 628102,0.00151386,-0.00003583,-0.00013004,-0.00000602,-0.00000238,0.00
 005219,-0.00004815,-0.00009026,0.00012798,0.00033141,-0.00010300,-0.00
 115909,0.00047193,-0.00004618,-0.00013934,-0.00002358,-0.00101567,-0.0
 0314269,-0.00447794,-0.00038480,0.00060330,0.00115522,-0.10610539,-0.0
 8522242,0.18800004,0.00058114,-0.00024330,0.00009611,-0.00000278,0.000
 13135,0.00005052,-0.00327529,-0.00063358,-0.00085185,-0.28058167,-0.00
 923509,-0.06325098,-0.00650250,0.01269958,-0.00309212,-0.00001525,-0.0
 0009637,-0.00009084,-0.00001014,0.00017777,0.00020050,-0.00003728,0.00
 001529,-0.00001408,-0.00002959,0.00005647,-0.00009843,0.00049954,-0.00
 064704,-0.00004592,0.00075910,0.00006405,-0.00033149,0.00143549,0.0000
 7462,-0.00044763,-0.01730809,-0.00248942,-0.00493293,0.30463326,0.0000
 0781,-0.00013378,-0.00004583,-0.00096568,0.00117485,0.00002301,-0.0157
 5997,-0.00025441,-0.00412797,-0.01283131,-0.04977395,-0.00307047,0.040
 66068,-0.01648676,0.01251678,0.00003803,-0.00003217,0.00000028,0.00014
 579,-0.00000430,0.00008940,-0.00000765,0.00003574,0.00002637,-0.000043
 44,-0.00000718,0.00008344,0.00053823,-0.00026290,-0.00019373,0.0007877
 2,0.00053340,0.00041195,0.00029745,-0.00127750,-0.00331794,-0.01302063
 ,0.00228521,-0.00418803,-0.00029790,0.06267425,0.00029012,-0.00007857,
 -0.00005444,-0.00072547,0.00138687,0.00052977,-0.03003846,-0.00239228,
 -0.00905420,-0.06132461,-0.00055254,-0.07165482,-0.00521067,0.00270872
 ,0.00162388,0.00010542,-0.00004810,0.00000275,0.00016311,0.00013610,0.
 00017679,-0.00003387,0.00003003,-0.00003723,0.00013114,-0.00014303,-0.
 00003176,0.00066821,-0.00059049,0.00027930,0.00004640,0.00088567,0.001
 15725,-0.00062273,-0.00303939,-0.00476349,0.02227446,0.00103452,0.0072
 0848,0.07327843,0.00075868,0.07442003,-0.00004302,0.00020358,-0.000066
 78,0.00079299,0.00037971,0.00053598,-0.00127944,0.00183903,-0.00069541
 ,-0.00013265,0.00855049,0.01265030,-0.01216141,-0.02023213,-0.06175008
 ,0.00000396,0.00003167,0.00005895,-0.00000635,-0.00000925,-0.00002762,
 -0.00000676,0.00000351,0.00002077,-0.00003623,-0.00000222,0.00002762,-
 0.00005702,-0.00010205,0.00000957,-0.00005011,-0.00002060,-0.00018411,
 0.00024116,0.00007741,0.00006945,0.00028516,-0.00042407,-0.00074086,-0
 .00014593,0.00045086,0.00099851,0.01259566,0.00025704,-0.00060123,0.00
 023337,-0.00037092,-0.00002324,-0.00216047,0.00282515,-0.00696197,0.00
 319180,-0.00440980,-0.01999839,-0.03605187,-0.00686849,-0.15174202,-0.
 18645439,-0.00003587,-0.00006377,-0.00019306,-0.00001562,-0.00000110,0
 .00001243,0.00001681,0.00001252,0.00001786,-0.00010973,-0.00000900,0.0
 0003807,0.00007165,0.00001740,-0.00001995,0.00018859,0.00024349,0.0002
 1327,-0.00007202,0.00016826,0.00038675,-0.00115444,0.00075585,-0.00014
 082,0.00042356,0.00152951,-0.00009618,0.00925407,0.17667371,-0.0000096
 2,0.00004315,0.00004867,-0.00026864,0.00052003,0.00035565,0.00035967,-
 0.00032082,0.00040820,-0.00126543,0.01028153,0.00541168,-0.04740057,-0
 .23423312,-0.42193999,-0.00001344,0.00004810,0.00000053,0.00000089,0.0
 0000472,0.00000417,-0.00000028,0.00000078,-0.00000901,0.00003213,-0.00
 012904,0.00001118,0.00007602,-0.00008955,0.00000557,-0.00024337,0.0001
 2884,0.00034574,0.00019307,0.00025692,0.00012934,-0.00008484,0.0014312
 1,0.00054429,-0.00046929,0.00103406,0.00019771,0.04909372,0.22102319,0
 .41448626\\0.00000042,0.00000125,0.00000026,0.00000169,-0.00000231,0.0
 0000019,-0.00000018,0.00001310,0.00000182,0.00000396,-0.00000432,0.000
 00515,-0.00000198,-0.00000104,-0.00001387,-0.00000026,0.00000053,0.000
 00041,-0.00000054,-0.00000016,0.00000049,-0.00000043,-0.00000012,0.000
 00125,-0.00000050,-0.00000041,-0.00000019,-0.00000120,0.00000139,-0.00
 000040,-0.00000058,-0.00000249,-0.00000186,-0.00000076,-0.00000163,0.0
 0000027,-0.00000296,-0.00000517,0.00000006,0.00000278,-0.00000022,0.00
 000069,0.00000056,0.00000163,0.00000571\\\@


 A COMPLEXITY IS MERELY A DISARRANGEMENT OF SIMPLICITIES.

                                    -- G. O. ABELL IN "EXPLORATION OF THE UNIVERSE"
 Job cpu time:       0 days  0 hours 15 minutes 48.4 seconds.
 Elapsed time:       0 days  0 hours  0 minutes 40.1 seconds.
 File lengths (MBytes):  RWF=     49 Int=      0 D2E=      0 Chk=      4 Scr=      1
 Normal termination of Gaussian 16 at Sun Oct 13 21:38:39 2019.
real 103.89
user 2360.58
sys 13.63
Machine:
brown-a145
brown-a145
brown-a145
brown-a145
brown-a145
brown-a145
brown-a145
brown-a145
brown-a145
brown-a145
brown-a145
brown-a145
brown-a145
brown-a145
brown-a145
brown-a145
brown-a145
brown-a145
brown-a145
brown-a145
brown-a145
brown-a145
brown-a145
brown-a145
