 Entering Gaussian System, Link 0=/apps/cent7/gaussian/g16-A.03/g16-haswell/g16/g16
 Initial command:
 /apps/cent7/gaussian/g16-A.03/g16-haswell/g16/l1.exe "/scratch/brown/finej/gaussian/Gau-395524.inp" -scrdir="/scratch/brown/finej/gaussian/"
 Entering Link 1 = /apps/cent7/gaussian/g16-A.03/g16-haswell/g16/l1.exe PID=    395527.
  
 Copyright (c) 1988,1990,1992,1993,1995,1998,2003,2009,2016,
            Gaussian, Inc.  All Rights Reserved.
  
 This is part of the Gaussian(R) 16 program.  It is based on
 the Gaussian(R) 09 system (copyright 2009, Gaussian, Inc.),
 the Gaussian(R) 03 system (copyright 2003, Gaussian, Inc.),
 the Gaussian(R) 98 system (copyright 1998, Gaussian, Inc.),
 the Gaussian(R) 94 system (copyright 1995, Gaussian, Inc.),
 the Gaussian 92(TM) system (copyright 1992, Gaussian, Inc.),
 the Gaussian 90(TM) system (copyright 1990, Gaussian, Inc.),
 the Gaussian 88(TM) system (copyright 1988, Gaussian, Inc.),
 the Gaussian 86(TM) system (copyright 1986, Carnegie Mellon
 University), and the Gaussian 82(TM) system (copyright 1983,
 Carnegie Mellon University). Gaussian is a federally registered
 trademark of Gaussian, Inc.
  
 This software contains proprietary and confidential information,
 including trade secrets, belonging to Gaussian, Inc.
  
 This software is provided under written license and may be
 used, copied, transmitted, or stored only in accord with that
 written license.
  
 The following legend is applicable only to US Government
 contracts under FAR:
  
                    RESTRICTED RIGHTS LEGEND
  
 Use, reproduction and disclosure by the US Government is
 subject to restrictions as set forth in subparagraphs (a)
 and (c) of the Commercial Computer Software - Restricted
 Rights clause in FAR 52.227-19.
  
 Gaussian, Inc.
 340 Quinnipiac St., Bldg. 40, Wallingford CT 06492
  
  
 ---------------------------------------------------------------
 Warning -- This program may not be used in any manner that
 competes with the business of Gaussian, Inc. or will provide
 assistance to any competitor of Gaussian, Inc.  The licensee
 of this program is prohibited from giving any competitor of
 Gaussian, Inc. access to this program.  By using this program,
 the user acknowledges that Gaussian, Inc. is engaged in the
 business of creating and licensing software in the field of
 computational chemistry and represents and warrants to the
 licensee that it is not a competitor of Gaussian, Inc. and that
 it will not use this program in any manner prohibited above.
 ---------------------------------------------------------------
  

 Cite this work as:
 Gaussian 16, Revision A.03,
 M. J. Frisch, G. W. Trucks, H. B. Schlegel, G. E. Scuseria, 
 M. A. Robb, J. R. Cheeseman, G. Scalmani, V. Barone, 
 G. A. Petersson, H. Nakatsuji, X. Li, M. Caricato, A. V. Marenich, 
 J. Bloino, B. G. Janesko, R. Gomperts, B. Mennucci, H. P. Hratchian, 
 J. V. Ortiz, A. F. Izmaylov, J. L. Sonnenberg, D. Williams-Young, 
 F. Ding, F. Lipparini, F. Egidi, J. Goings, B. Peng, A. Petrone, 
 T. Henderson, D. Ranasinghe, V. G. Zakrzewski, J. Gao, N. Rega, 
 G. Zheng, W. Liang, M. Hada, M. Ehara, K. Toyota, R. Fukuda, 
 J. Hasegawa, M. Ishida, T. Nakajima, Y. Honda, O. Kitao, H. Nakai, 
 T. Vreven, K. Throssell, J. A. Montgomery, Jr., J. E. Peralta, 
 F. Ogliaro, M. J. Bearpark, J. J. Heyd, E. N. Brothers, K. N. Kudin, 
 V. N. Staroverov, T. A. Keith, R. Kobayashi, J. Normand, 
 K. Raghavachari, A. P. Rendell, J. C. Burant, S. S. Iyengar, 
 J. Tomasi, M. Cossi, J. M. Millam, M. Klene, C. Adamo, R. Cammi, 
 J. W. Ochterski, R. L. Martin, K. Morokuma, O. Farkas, 
 J. B. Foresman, and D. J. Fox, Gaussian, Inc., Wallingford CT, 2016.
 
 ******************************************
 Gaussian 16:  ES64L-G16RevA.03 25-Dec-2016
                13-Oct-2019 
 ******************************************
 %chk=20_p.chk
 %nprocshared=24
 Will use up to   24 processors via shared memory.
 %mem=80GB
 -------------------------------------------------------------------
 #P opt freq m062x/6-311++g(d,p) geom=connectivity temperature=0.001
 -------------------------------------------------------------------
 1/18=20,19=15,26=3,38=1,57=2,112=-1000/1,3;
 2/9=110,12=2,17=6,18=5,40=1/2;
 3/5=4,6=6,7=1111,11=2,25=1,30=1,71=1,74=-55/1,2,3;
 4//1;
 5/5=2,38=5/2;
 6/7=2,8=2,9=2,10=2,28=1/1;
 7//1,2,3,16;
 1/18=20,19=15,26=3/3(2);
 2/9=110/2;
 99//99;
 2/9=110/2;
 3/5=4,6=6,7=1111,11=2,25=1,30=1,71=1,74=-55/1,2,3;
 4/5=5,16=3,69=1/1;
 5/5=2,38=5/2;
 7//1,2,3,16;
 1/18=20,19=15,26=3/3(-5);
 2/9=110/2;
 6/7=2,8=2,9=2,10=2,19=2,28=1/1;
 99/9=1/99;
 Leave Link    1 at Sun Oct 13 21:37:02 2019, MaxMem= 10737418240 cpu:               1.2 elap:               0.1
 (Enter /apps/cent7/gaussian/g16-A.03/g16-haswell/g16/l101.exe)
 -------------------
 Title Card Required
 -------------------
 Symbolic Z-matrix:
 Charge =  1 Multiplicity = 1
 C                     2.246    -0.7624   -1.2558 
 C                     2.4467   -0.0101    0.0773 
 C                     1.9396    1.4543    0.0124 
 C                     2.1368    2.2148    1.3434 
 O                     1.654     3.5464    1.2197 
 H                     2.2733   -1.8369   -1.0744 
 H                     1.2814   -0.4908   -1.6847 
 H                     3.0415   -0.4908   -1.9497 
 H                     1.8174   -0.5183    0.808 
 H                     3.5241    0.0471    0.232 
 H                     2.5691    1.9607   -0.7193 
 H                     0.8624    1.3953   -0.1432 
 H                     1.501     1.7495    2.0965 
 H                     3.2077    2.315     1.5205 
 H                     1.77265   4.00849   2.05276 
 H                     2.14218   4.00094   0.52928 
 
 ITRead=  0  0  0  0  0  0  0  0  0  0  0  0  0  0  0  0
 MicOpt= -1 -1 -1 -1 -1 -1 -1 -1 -1 -1 -1 -1 -1 -1 -1 -1
 NAtoms=     16 NQM=       16 NQMF=       0 NMMI=      0 NMMIF=      0
                NMic=       0 NMicF=      0.
                    Isotopes and Nuclear Properties:
 (Nuclear quadrupole moments (NQMom) in fm**2, nuclear magnetic moments (NMagM)
  in nuclear magnetons)

  Atom         1           2           3           4           5           6           7           8           9          10
 IAtWgt=          12          12          12          12          16           1           1           1           1           1
 AtmWgt=  12.0000000  12.0000000  12.0000000  12.0000000  15.9949146   1.0078250   1.0078250   1.0078250   1.0078250   1.0078250
 NucSpn=           0           0           0           0           0           1           1           1           1           1
 AtZEff=  -0.0000000  -0.0000000  -0.0000000  -0.0000000  -0.0000000  -0.0000000  -0.0000000  -0.0000000  -0.0000000  -0.0000000
 NQMom=    0.0000000   0.0000000   0.0000000   0.0000000   0.0000000   0.0000000   0.0000000   0.0000000   0.0000000   0.0000000
 NMagM=    0.0000000   0.0000000   0.0000000   0.0000000   0.0000000   2.7928460   2.7928460   2.7928460   2.7928460   2.7928460
 AtZNuc=   6.0000000   6.0000000   6.0000000   6.0000000   8.0000000   1.0000000   1.0000000   1.0000000   1.0000000   1.0000000

  Atom        11          12          13          14          15          16
 IAtWgt=           1           1           1           1           1           1
 AtmWgt=   1.0078250   1.0078250   1.0078250   1.0078250   1.0078250   1.0078250
 NucSpn=           1           1           1           1           1           1
 AtZEff=  -0.0000000  -0.0000000  -0.0000000  -0.0000000  -0.0000000  -0.0000000
 NQMom=    0.0000000   0.0000000   0.0000000   0.0000000   0.0000000   0.0000000
 NMagM=    2.7928460   2.7928460   2.7928460   2.7928460   2.7928460   2.7928460
 AtZNuc=   1.0000000   1.0000000   1.0000000   1.0000000   1.0000000   1.0000000
 Leave Link  101 at Sun Oct 13 21:37:03 2019, MaxMem= 10737418240 cpu:               8.3 elap:               0.4
 (Enter /apps/cent7/gaussian/g16-A.03/g16-haswell/g16/l103.exe)

 GradGradGradGradGradGradGradGradGradGradGradGradGradGradGradGradGradGrad
 Berny optimization.
 Initialization pass.
                           ----------------------------
                           !    Initial Parameters    !
                           ! (Angstroms and Degrees)  !
 --------------------------                            --------------------------
 ! Name  Definition              Value          Derivative Info.                !
 --------------------------------------------------------------------------------
 ! R1    R(1,2)                  1.5438         estimate D2E/DX2                !
 ! R2    R(1,6)                  1.09           estimate D2E/DX2                !
 ! R3    R(1,7)                  1.09           estimate D2E/DX2                !
 ! R4    R(1,8)                  1.09           estimate D2E/DX2                !
 ! R5    R(2,3)                  1.5511         estimate D2E/DX2                !
 ! R6    R(2,9)                  1.09           estimate D2E/DX2                !
 ! R7    R(2,10)                 1.09           estimate D2E/DX2                !
 ! R8    R(3,4)                  1.5456         estimate D2E/DX2                !
 ! R9    R(3,11)                 1.09           estimate D2E/DX2                !
 ! R10   R(3,12)                 1.09           estimate D2E/DX2                !
 ! R11   R(4,5)                  1.4218         estimate D2E/DX2                !
 ! R12   R(4,13)                 1.0899         estimate D2E/DX2                !
 ! R13   R(4,14)                 1.0901         estimate D2E/DX2                !
 ! R14   R(5,15)                 0.96           estimate D2E/DX2                !
 ! R15   R(5,16)                 0.96           estimate D2E/DX2                !
 ! A1    A(2,1,6)              109.4747         estimate D2E/DX2                !
 ! A2    A(2,1,7)              109.4747         estimate D2E/DX2                !
 ! A3    A(2,1,8)              109.4762         estimate D2E/DX2                !
 ! A4    A(6,1,7)              109.4665         estimate D2E/DX2                !
 ! A5    A(6,1,8)              109.4683         estimate D2E/DX2                !
 ! A6    A(7,1,8)              109.4669         estimate D2E/DX2                !
 ! A7    A(1,2,3)              112.4225         estimate D2E/DX2                !
 ! A8    A(1,2,9)              106.0575         estimate D2E/DX2                !
 ! A9    A(1,2,10)             106.0596         estimate D2E/DX2                !
 ! A10   A(3,2,9)              106.2286         estimate D2E/DX2                !
 ! A11   A(3,2,10)             106.2341         estimate D2E/DX2                !
 ! A12   A(9,2,10)             119.9993         estimate D2E/DX2                !
 ! A13   A(2,3,4)              112.756          estimate D2E/DX2                !
 ! A14   A(2,3,11)             106.135          estimate D2E/DX2                !
 ! A15   A(2,3,12)             106.1391         estimate D2E/DX2                !
 ! A16   A(4,3,11)             106.0098         estimate D2E/DX2                !
 ! A17   A(4,3,12)             106.0016         estimate D2E/DX2                !
 ! A18   A(11,3,12)            120.0048         estimate D2E/DX2                !
 ! A19   A(3,4,5)              110.0342         estimate D2E/DX2                !
 ! A20   A(3,4,13)             108.0924         estimate D2E/DX2                !
 ! A21   A(3,4,14)             108.0887         estimate D2E/DX2                !
 ! A22   A(5,4,13)             105.1803         estimate D2E/DX2                !
 ! A23   A(5,4,14)             105.1676         estimate D2E/DX2                !
 ! A24   A(13,4,14)            120.0052         estimate D2E/DX2                !
 ! A25   A(4,5,15)             109.4712         estimate D2E/DX2                !
 ! A26   A(4,5,16)             109.4712         estimate D2E/DX2                !
 ! A27   A(15,5,16)            109.4712         estimate D2E/DX2                !
 ! D1    D(6,1,2,3)           -159.9401         estimate D2E/DX2                !
 ! D2    D(6,1,2,9)            -44.2585         estimate D2E/DX2                !
 ! D3    D(6,1,2,10)            84.3705         estimate D2E/DX2                !
 ! D4    D(7,1,2,3)            -39.9416         estimate D2E/DX2                !
 ! D5    D(7,1,2,9)             75.7399         estimate D2E/DX2                !
 ! D6    D(7,1,2,10)          -155.631          estimate D2E/DX2                !
 ! D7    D(8,1,2,3)             80.0583         estimate D2E/DX2                !
 ! D8    D(8,1,2,9)           -164.2601         estimate D2E/DX2                !
 ! D9    D(8,1,2,10)           -35.6311         estimate D2E/DX2                !
 ! D10   D(1,2,3,4)            179.9973         estimate D2E/DX2                !
 ! D11   D(1,2,3,11)           -64.364          estimate D2E/DX2                !
 ! D12   D(1,2,3,12)            64.366          estimate D2E/DX2                !
 ! D13   D(9,2,3,4)             64.419          estimate D2E/DX2                !
 ! D14   D(9,2,3,11)          -179.9423         estimate D2E/DX2                !
 ! D15   D(9,2,3,12)           -51.2123         estimate D2E/DX2                !
 ! D16   D(10,2,3,4)           -64.4185         estimate D2E/DX2                !
 ! D17   D(10,2,3,11)           51.2202         estimate D2E/DX2                !
 ! D18   D(10,2,3,12)          179.9502         estimate D2E/DX2                !
 ! D19   D(2,3,4,5)            179.9945         estimate D2E/DX2                !
 ! D20   D(2,3,4,13)           -65.6528         estimate D2E/DX2                !
 ! D21   D(2,3,4,14)            65.6589         estimate D2E/DX2                !
 ! D22   D(11,3,4,5)            64.2807         estimate D2E/DX2                !
 ! D23   D(11,3,4,13)          178.6334         estimate D2E/DX2                !
 ! D24   D(11,3,4,14)          -50.0549         estimate D2E/DX2                !
 ! D25   D(12,3,4,5)           -64.2919         estimate D2E/DX2                !
 ! D26   D(12,3,4,13)           50.0609         estimate D2E/DX2                !
 ! D27   D(12,3,4,14)         -178.6275         estimate D2E/DX2                !
 ! D28   D(3,4,5,15)           179.4632         estimate D2E/DX2                !
 ! D29   D(3,4,5,16)           -60.5368         estimate D2E/DX2                !
 ! D30   D(13,4,5,15)           63.2673         estimate D2E/DX2                !
 ! D31   D(13,4,5,16)         -176.7327         estimate D2E/DX2                !
 ! D32   D(14,4,5,15)          -64.3521         estimate D2E/DX2                !
 ! D33   D(14,4,5,16)           55.6479         estimate D2E/DX2                !
 --------------------------------------------------------------------------------
 Trust Radius=3.00D-01 FncErr=1.00D-07 GrdErr=1.00D-06 EigMax=2.50D+02 EigMin=1.00D-04
 Number of steps in this run=     85 maximum allowed number of steps=    100.
 GradGradGradGradGradGradGradGradGradGradGradGradGradGradGradGradGradGrad

 Leave Link  103 at Sun Oct 13 21:37:03 2019, MaxMem= 10737418240 cpu:               0.3 elap:               0.0
 (Enter /apps/cent7/gaussian/g16-A.03/g16-haswell/g16/l202.exe)
                          Input orientation:                          
 ---------------------------------------------------------------------
 Center     Atomic      Atomic             Coordinates (Angstroms)
 Number     Number       Type             X           Y           Z
 ---------------------------------------------------------------------
      1          6           0        2.246000   -0.762400   -1.255800
      2          6           0        2.446700   -0.010100    0.077300
      3          6           0        1.939600    1.454300    0.012400
      4          6           0        2.136800    2.214800    1.343400
      5          8           0        1.654000    3.546400    1.219700
      6          1           0        2.273300   -1.836900   -1.074400
      7          1           0        1.281400   -0.490800   -1.684700
      8          1           0        3.041500   -0.490800   -1.949700
      9          1           0        1.817400   -0.518300    0.808000
     10          1           0        3.524100    0.047100    0.232000
     11          1           0        2.569100    1.960700   -0.719300
     12          1           0        0.862400    1.395300   -0.143200
     13          1           0        1.501000    1.749500    2.096500
     14          1           0        3.207700    2.315000    1.520500
     15          1           0        1.772652    4.008488    2.052765
     16          1           0        2.142177    4.000942    0.529284
 ---------------------------------------------------------------------
                    Distance matrix (angstroms):
                    1          2          3          4          5
     1  C    0.000000
     2  C    1.543824   0.000000
     3  C    2.572153   1.551074   0.000000
     4  C    3.953667   2.578610   1.545577   0.000000
     5  O    5.004430   3.818657   2.432288   1.421814   0.000000
     6  H    1.090047   2.166490   3.482023   4.720240   5.884416
     7  H    1.090034   2.166481   2.663980   4.149864   4.987319
     8  H    1.089993   2.166469   2.974464   4.356978   5.316882
     9  H    2.121922   1.090050   2.130508   2.803303   4.088763
    10  H    2.121881   1.089952   2.130511   2.803343   4.088756
    11  H    2.794190   2.129227   1.089998   2.122777   2.666753
    12  H    2.794261   2.129267   1.089978   2.122653   2.666713
    13  H    4.254713   2.840371   2.150113   1.089911   2.005252
    14  H    4.254774   2.840429   2.150174   1.090060   2.005196
    15  H    5.825120   4.528338   3.273352   1.962936   0.960000
    16  H    5.087900   4.047898   2.606452   1.962936   0.960000
                    6          7          8          9         10
     6  H    0.000000
     7  H    1.779977   0.000000
     8  H    1.779963   1.779937   0.000000
     9  H    2.343071   2.549825   3.017298   0.000000
    10  H    2.611635   2.998796   2.298272   1.887930   0.000000
    11  H    3.825619   2.932579   2.783325   3.007181   2.340697
    12  H    3.647587   2.471671   3.401366   2.340656   3.007169
    13  H    4.849053   4.400527   4.874815   2.627405   3.235345
    14  H    4.984464   4.675088   4.465694   3.235457   2.627492
    15  H    6.648185   5.869715   6.154128   4.695024   4.698441
    16  H    6.055526   5.081182   5.208636   4.539462   4.198923
                   11         12         13         14         15
    11  H    0.000000
    12  H    1.887960   0.000000
    13  H    3.018969   2.355743   0.000000
    14  H    2.355853   3.018970   1.887960   0.000000
    15  H    3.537246   3.532643   2.275683   2.282667   0.000000
    16  H    2.429776   2.979838   2.817138   2.227161   1.567673
                   16
    16  H    0.000000
 Stoichiometry    C4H11O(1+)
 Framework group  C1[X(C4H11O)]
 Deg. of freedom    42
 Full point group                 C1      NOp   1
 Largest Abelian subgroup         C1      NOp   1
 Largest concise Abelian subgroup C1      NOp   1
                         Standard orientation:                         
 ---------------------------------------------------------------------
 Center     Atomic      Atomic             Coordinates (Angstroms)
 Number     Number       Type             X           Y           Z
 ---------------------------------------------------------------------
      1          6           0       -2.601351   -0.307814   -0.016966
      2          6           0       -1.311759    0.537981    0.053565
      3          6           0       -0.029513   -0.328403   -0.051565
      4          6           0        1.266465    0.510877    0.018148
      5          8           0        2.402550   -0.338002   -0.083206
      6          1           0       -3.439910    0.330617   -0.295218
      7          1           0       -2.480152   -1.093764   -0.762465
      8          1           0       -2.794697   -0.757576    0.956901
      9          1           0       -1.321268    1.176490   -0.829852
     10          1           0       -1.297583    0.983801    1.048069
     11          1           0       -0.022072   -0.966885    0.831827
     12          1           0       -0.045708   -0.774112   -1.046117
     13          1           0        1.305724    1.147010   -0.865989
     14          1           0        1.329495    0.954276    1.011957
     15          1           0        3.202210    0.191968   -0.047474
     16          1           0        2.400501   -0.963657    0.644909
 ---------------------------------------------------------------------
 Rotational constants (GHZ):          18.4101458           1.8719157           1.7900305
 Leave Link  202 at Sun Oct 13 21:37:03 2019, MaxMem= 10737418240 cpu:               0.5 elap:               0.0
 (Enter /apps/cent7/gaussian/g16-A.03/g16-haswell/g16/l301.exe)
 Standard basis: 6-311++G(d,p) (5D, 7F)
 Ernie: Thresh=  0.10000D-02 Tol=  0.10000D-05 Strict=F.
 There are   192 symmetry adapted cartesian basis functions of A   symmetry.
 There are   187 symmetry adapted basis functions of A   symmetry.
   187 basis functions,   279 primitive gaussians,   192 cartesian basis functions
    21 alpha electrons       21 beta electrons
       nuclear repulsion energy       194.3651334122 Hartrees.
 IExCor= 4336 DFT=T Ex+Corr=M062X ExCW=0 ScaHFX=  0.540000
 ScaDFX=  1.000000  1.000000  1.000000  1.000000 ScalE2=  1.000000  1.000000
 IRadAn=      5 IRanWt=     -1 IRanGd=            0 ICorTp=0 IEmpDi=  4
 NAtoms=   16 NActive=   16 NUniq=   16 SFac= 1.00D+00 NAtFMM=   60 NAOKFM=F Big=F
 Integral buffers will be    131072 words long.
 Raffenetti 2 integral format.
 Two-electron integral symmetry is turned on.
 Leave Link  301 at Sun Oct 13 21:37:03 2019, MaxMem= 10737418240 cpu:               1.3 elap:               0.1
 (Enter /apps/cent7/gaussian/g16-A.03/g16-haswell/g16/l302.exe)
 NPDir=0 NMtPBC=     1 NCelOv=     1 NCel=       1 NClECP=     1 NCelD=      1
         NCelK=      1 NCelE2=     1 NClLst=     1 CellRange=     0.0.
 One-electron integrals computed using PRISM.
 One-electron integral symmetry used in STVInt
 NBasis=   187 RedAO= T EigKep=  1.66D-05  NBF=   187
 NBsUse=   187 1.00D-06 EigRej= -1.00D+00 NBFU=   187
 Precomputing XC quadrature grid using
 IXCGrd= 4 IRadAn=           5 IRanWt=          -1 IRanGd=           0 AccXCQ= 0.00D+00.
 Generated NRdTot=       0 NPtTot=           0 NUsed=           0 NTot=          32
 NSgBfM=   192   192   192   192   192 MxSgAt=    16 MxSgA2=    16.
 Leave Link  302 at Sun Oct 13 21:37:03 2019, MaxMem= 10737418240 cpu:               3.6 elap:               0.2
 (Enter /apps/cent7/gaussian/g16-A.03/g16-haswell/g16/l303.exe)
 DipDrv:  MaxL=1.
 Leave Link  303 at Sun Oct 13 21:37:03 2019, MaxMem= 10737418240 cpu:               0.8 elap:               0.1
 (Enter /apps/cent7/gaussian/g16-A.03/g16-haswell/g16/l401.exe)
 ExpMin= 3.60D-02 ExpMax= 8.59D+03 ExpMxC= 1.30D+03 IAcc=3 IRadAn=         5 AccDes= 0.00D+00
 Harris functional with IExCor= 1009 and IRadAn=       5 diagonalized for initial guess.
 HarFok:  IExCor= 1009 AccDes= 0.00D+00 IRadAn=         5 IDoV= 1 UseB2=F ITyADJ=14
 ICtDFT=  3500011 ScaDFX=  1.000000  1.000000  1.000000  1.000000
 FoFCou: FMM=F IPFlag=           0 FMFlag=      100000 FMFlg1=           0
         NFxFlg=           0 DoJE=T BraDBF=F KetDBF=T FulRan=T
         wScrn=  0.000000 ICntrl=       500 IOpCl=  0 I1Cent=   200000004 NGrid=           0
         NMat0=    1 NMatS0=      1 NMatT0=    0 NMatD0=    1 NMtDS0=    0 NMtDT0=    0
 Petite list used in FoFCou.
 Harris En= -233.921049062098    
 JPrj=0 DoOrth=F DoCkMO=F.
 Leave Link  401 at Sun Oct 13 21:37:04 2019, MaxMem= 10737418240 cpu:               7.6 elap:               0.3
 (Enter /apps/cent7/gaussian/g16-A.03/g16-haswell/g16/l502.exe)
 Integral symmetry usage will be decided dynamically.
 Closed shell SCF:
 Using DIIS extrapolation, IDIIS=  1040.
 NGot= 10737418240 LenX= 10737337812 LenY= 10737300507
 Requested convergence on RMS density matrix=1.00D-08 within 128 cycles.
 Requested convergence on MAX density matrix=1.00D-06.
 Requested convergence on             energy=1.00D-06.
 No special actions if energy rises.
 Fock matrices will be formed incrementally for  20 cycles.

 Cycle   1  Pass 1  IDiag  1:
 FoFJK:  IHMeth= 1 ICntrl=       0 DoSepK=F KAlg= 0 I1Cent=           0 FoldK=F
 IRaf= 970000000 NMat=       1 IRICut=       1 DoRegI=T DoRafI=F ISym2E= 0 IDoP0=0 IntGTp=1.
 FoFCou: FMM=F IPFlag=           0 FMFlag=      100000 FMFlg1=           0
         NFxFlg=           0 DoJE=F BraDBF=F KetDBF=F FulRan=T
         wScrn=  0.000000 ICntrl=         0 IOpCl=  0 I1Cent=           0 NGrid=           0
         NMat0=    1 NMatS0=      1 NMatT0=    0 NMatD0=    1 NMtDS0=    0 NMtDT0=    0
 Symmetry not used in FoFCou.
 E= -233.730592113549    
 DIIS: error= 3.93D-02 at cycle   1 NSaved=   1.
 NSaved= 1 IEnMin= 1 EnMin= -233.730592113549     IErMin= 1 ErrMin= 3.93D-02
 ErrMax= 3.93D-02  0.00D+00 EMaxC= 1.00D-01 BMatC= 2.02D-01 BMatP= 2.02D-01
 IDIUse=3 WtCom= 6.07D-01 WtEn= 3.93D-01
 Coeff-Com:  0.100D+01
 Coeff-En:   0.100D+01
 Coeff:      0.100D+01
 Gap=     0.394 Goal=   None    Shift=    0.000
 GapD=    0.394 DampG=1.000 DampE=0.500 DampFc=0.5000 IDamp=-1.
 Damping current iteration by 5.00D-01
 RMSDP=7.44D-03 MaxDP=1.88D-01              OVMax= 1.59D-01

 Cycle   2  Pass 1  IDiag  1:
 RMSU=  3.49D-03    CP:  9.11D-01
 E= -233.820595683453     Delta-E=       -0.090003569904 Rises=F Damp=T
 DIIS: error= 7.04D-03 at cycle   2 NSaved=   2.
 NSaved= 2 IEnMin= 2 EnMin= -233.820595683453     IErMin= 2 ErrMin= 7.04D-03
 ErrMax= 7.04D-03  0.00D+00 EMaxC= 1.00D-01 BMatC= 1.41D-02 BMatP= 2.02D-01
 IDIUse=3 WtCom= 9.30D-01 WtEn= 7.04D-02
 Coeff-Com: -0.143D+00 0.114D+01
 Coeff-En:   0.000D+00 0.100D+01
 Coeff:     -0.133D+00 0.113D+01
 Gap=     0.351 Goal=   None    Shift=    0.000
 RMSDP=2.28D-03 MaxDP=5.90D-02 DE=-9.00D-02 OVMax= 8.77D-02

 Cycle   3  Pass 1  IDiag  1:
 RMSU=  2.27D-03    CP:  9.03D-01  1.04D+00
 E= -233.904755345396     Delta-E=       -0.084159661943 Rises=F Damp=F
 DIIS: error= 4.58D-03 at cycle   3 NSaved=   3.
 NSaved= 3 IEnMin= 3 EnMin= -233.904755345396     IErMin= 3 ErrMin= 4.58D-03
 ErrMax= 4.58D-03  0.00D+00 EMaxC= 1.00D-01 BMatC= 1.77D-03 BMatP= 1.41D-02
 IDIUse=3 WtCom= 9.54D-01 WtEn= 4.58D-02
 Coeff-Com: -0.862D-01 0.269D+00 0.817D+00
 Coeff-En:   0.000D+00 0.000D+00 0.100D+01
 Coeff:     -0.823D-01 0.257D+00 0.826D+00
 Gap=     0.328 Goal=   None    Shift=    0.000
 RMSDP=3.10D-04 MaxDP=9.65D-03 DE=-8.42D-02 OVMax= 1.12D-02

 Cycle   4  Pass 1  IDiag  1:
 RMSU=  2.50D-04    CP:  8.95D-01  1.08D+00  9.76D-01
 E= -233.906304174803     Delta-E=       -0.001548829407 Rises=F Damp=F
 DIIS: error= 8.32D-04 at cycle   4 NSaved=   4.
 NSaved= 4 IEnMin= 4 EnMin= -233.906304174803     IErMin= 4 ErrMin= 8.32D-04
 ErrMax= 8.32D-04  0.00D+00 EMaxC= 1.00D-01 BMatC= 2.09D-04 BMatP= 1.77D-03
 IDIUse=3 WtCom= 9.92D-01 WtEn= 8.32D-03
 Coeff-Com: -0.288D-01 0.639D-01 0.331D+00 0.634D+00
 Coeff-En:   0.000D+00 0.000D+00 0.000D+00 0.100D+01
 Coeff:     -0.286D-01 0.633D-01 0.328D+00 0.637D+00
 Gap=     0.330 Goal=   None    Shift=    0.000
 RMSDP=1.24D-04 MaxDP=4.73D-03 DE=-1.55D-03 OVMax= 3.02D-03

 Cycle   5  Pass 1  IDiag  1:
 RMSU=  7.54D-05    CP:  8.98D-01  1.06D+00  9.92D-01  8.14D-01
 E= -233.906486587993     Delta-E=       -0.000182413190 Rises=F Damp=F
 DIIS: error= 1.67D-04 at cycle   5 NSaved=   5.
 NSaved= 5 IEnMin= 5 EnMin= -233.906486587993     IErMin= 5 ErrMin= 1.67D-04
 ErrMax= 1.67D-04  0.00D+00 EMaxC= 1.00D-01 BMatC= 8.56D-06 BMatP= 2.09D-04
 IDIUse=3 WtCom= 9.98D-01 WtEn= 1.67D-03
 Coeff-Com: -0.219D-02 0.156D-02 0.322D-01 0.187D+00 0.782D+00
 Coeff-En:   0.000D+00 0.000D+00 0.000D+00 0.000D+00 0.100D+01
 Coeff:     -0.219D-02 0.155D-02 0.321D-01 0.186D+00 0.782D+00
 Gap=     0.330 Goal=   None    Shift=    0.000
 RMSDP=3.38D-05 MaxDP=1.93D-03 DE=-1.82D-04 OVMax= 6.15D-04

 Cycle   6  Pass 1  IDiag  1:
 RMSU=  2.44D-05    CP:  8.99D-01  1.06D+00  9.95D-01  8.29D-01  1.12D+00
 E= -233.906494159012     Delta-E=       -0.000007571019 Rises=F Damp=F
 DIIS: error= 5.68D-05 at cycle   6 NSaved=   6.
 NSaved= 6 IEnMin= 6 EnMin= -233.906494159012     IErMin= 6 ErrMin= 5.68D-05
 ErrMax= 5.68D-05  0.00D+00 EMaxC= 1.00D-01 BMatC= 5.92D-07 BMatP= 8.56D-06
 IDIUse=1 WtCom= 1.00D+00 WtEn= 0.00D+00
 Coeff-Com:  0.112D-02-0.364D-02-0.122D-01 0.137D-01 0.217D+00 0.784D+00
 Coeff:      0.112D-02-0.364D-02-0.122D-01 0.137D-01 0.217D+00 0.784D+00
 Gap=     0.330 Goal=   None    Shift=    0.000
 RMSDP=1.17D-05 MaxDP=4.73D-04 DE=-7.57D-06 OVMax= 1.95D-04

 Cycle   7  Pass 1  IDiag  1:
 RMSU=  4.88D-06    CP:  8.99D-01  1.05D+00  9.96D-01  8.37D-01  1.18D+00
                    CP:  1.07D+00
 E= -233.906494621747     Delta-E=       -0.000000462736 Rises=F Damp=F
 DIIS: error= 2.14D-05 at cycle   7 NSaved=   7.
 NSaved= 7 IEnMin= 7 EnMin= -233.906494621747     IErMin= 7 ErrMin= 2.14D-05
 ErrMax= 2.14D-05  0.00D+00 EMaxC= 1.00D-01 BMatC= 1.18D-07 BMatP= 5.92D-07
 IDIUse=1 WtCom= 1.00D+00 WtEn= 0.00D+00
 Coeff-Com:  0.808D-03-0.174D-02-0.100D-01-0.186D-01-0.555D-02 0.331D+00
 Coeff-Com:  0.704D+00
 Coeff:      0.808D-03-0.174D-02-0.100D-01-0.186D-01-0.555D-02 0.331D+00
 Coeff:      0.704D+00
 Gap=     0.330 Goal=   None    Shift=    0.000
 RMSDP=3.45D-06 MaxDP=1.49D-04 DE=-4.63D-07 OVMax= 8.67D-05

 Cycle   8  Pass 1  IDiag  1:
 RMSU=  1.42D-06    CP:  8.99D-01  1.05D+00  9.96D-01  8.38D-01  1.21D+00
                    CP:  1.12D+00  9.42D-01
 E= -233.906494711880     Delta-E=       -0.000000090132 Rises=F Damp=F
 DIIS: error= 2.54D-06 at cycle   8 NSaved=   8.
 NSaved= 8 IEnMin= 8 EnMin= -233.906494711880     IErMin= 8 ErrMin= 2.54D-06
 ErrMax= 2.54D-06  0.00D+00 EMaxC= 1.00D-01 BMatC= 1.99D-09 BMatP= 1.18D-07
 IDIUse=1 WtCom= 1.00D+00 WtEn= 0.00D+00
 Coeff-Com:  0.121D-03-0.247D-03-0.168D-02-0.449D-02-0.831D-02 0.429D-01
 Coeff-Com:  0.168D+00 0.803D+00
 Coeff:      0.121D-03-0.247D-03-0.168D-02-0.449D-02-0.831D-02 0.429D-01
 Coeff:      0.168D+00 0.803D+00
 Gap=     0.330 Goal=   None    Shift=    0.000
 RMSDP=4.60D-07 MaxDP=6.58D-06 DE=-9.01D-08 OVMax= 9.98D-06

 Cycle   9  Pass 1  IDiag  1:
 RMSU=  4.23D-07    CP:  8.99D-01  1.05D+00  9.97D-01  8.38D-01  1.20D+00
                    CP:  1.13D+00  9.32D-01  9.95D-01
 E= -233.906494713598     Delta-E=       -0.000000001718 Rises=F Damp=F
 DIIS: error= 9.14D-07 at cycle   9 NSaved=   9.
 NSaved= 9 IEnMin= 9 EnMin= -233.906494713598     IErMin= 9 ErrMin= 9.14D-07
 ErrMax= 9.14D-07  0.00D+00 EMaxC= 1.00D-01 BMatC= 1.08D-10 BMatP= 1.99D-09
 IDIUse=1 WtCom= 1.00D+00 WtEn= 0.00D+00
 Coeff-Com: -0.178D-04 0.411D-04 0.158D-03 0.181D-04-0.124D-02-0.813D-02
 Coeff-Com:  0.899D-03 0.177D+00 0.832D+00
 Coeff:     -0.178D-04 0.411D-04 0.158D-03 0.181D-04-0.124D-02-0.813D-02
 Coeff:      0.899D-03 0.177D+00 0.832D+00
 Gap=     0.330 Goal=   None    Shift=    0.000
 RMSDP=1.24D-07 MaxDP=2.81D-06 DE=-1.72D-09 OVMax= 4.02D-06

 Cycle  10  Pass 1  IDiag  1:
 RMSU=  7.64D-08    CP:  8.99D-01  1.05D+00  9.97D-01  8.38D-01  1.20D+00
                    CP:  1.12D+00  9.48D-01  1.04D+00  1.01D+00
 E= -233.906494713706     Delta-E=       -0.000000000109 Rises=F Damp=F
 DIIS: error= 2.70D-07 at cycle  10 NSaved=  10.
 NSaved=10 IEnMin=10 EnMin= -233.906494713706     IErMin=10 ErrMin= 2.70D-07
 ErrMax= 2.70D-07  0.00D+00 EMaxC= 1.00D-01 BMatC= 1.92D-11 BMatP= 1.08D-10
 IDIUse=1 WtCom= 1.00D+00 WtEn= 0.00D+00
 Coeff-Com: -0.147D-04 0.312D-04 0.174D-03 0.316D-03 0.308D-04-0.610D-02
 Coeff-Com: -0.116D-01 0.127D-01 0.328D+00 0.677D+00
 Coeff:     -0.147D-04 0.312D-04 0.174D-03 0.316D-03 0.308D-04-0.610D-02
 Coeff:     -0.116D-01 0.127D-01 0.328D+00 0.677D+00
 Gap=     0.330 Goal=   None    Shift=    0.000
 RMSDP=3.06D-08 MaxDP=1.27D-06 DE=-1.09D-10 OVMax= 9.31D-07

 Cycle  11  Pass 1  IDiag  1:
 RMSU=  1.87D-08    CP:  8.99D-01  1.05D+00  9.97D-01  8.38D-01  1.20D+00
                    CP:  1.12D+00  9.47D-01  1.04D+00  1.05D+00  9.22D-01
 E= -233.906494713725     Delta-E=       -0.000000000019 Rises=F Damp=F
 DIIS: error= 3.49D-08 at cycle  11 NSaved=  11.
 NSaved=11 IEnMin=11 EnMin= -233.906494713725     IErMin=11 ErrMin= 3.49D-08
 ErrMax= 3.49D-08  0.00D+00 EMaxC= 1.00D-01 BMatC= 3.34D-13 BMatP= 1.92D-11
 IDIUse=1 WtCom= 1.00D+00 WtEn= 0.00D+00
 Coeff-Com:  0.597D-06-0.992D-06-0.467D-08 0.163D-04 0.294D-04 0.209D-03
 Coeff-Com: -0.944D-03-0.111D-01-0.299D-01 0.488D-01 0.993D+00
 Coeff:      0.597D-06-0.992D-06-0.467D-08 0.163D-04 0.294D-04 0.209D-03
 Coeff:     -0.944D-03-0.111D-01-0.299D-01 0.488D-01 0.993D+00
 Gap=     0.330 Goal=   None    Shift=    0.000
 RMSDP=9.58D-09 MaxDP=1.84D-07 DE=-1.90D-11 OVMax= 2.90D-07

 SCF Done:  E(RM062X) =  -233.906494714     A.U. after   11 cycles
            NFock= 11  Conv=0.96D-08     -V/T= 2.0033
 KE= 2.331361355477D+02 PE=-9.246186364993D+02 EE= 2.632108728257D+02
 Leave Link  502 at Sun Oct 13 21:37:09 2019, MaxMem= 10737418240 cpu:             134.5 elap:               5.7
 (Enter /apps/cent7/gaussian/g16-A.03/g16-haswell/g16/l601.exe)
 Copying SCF densities to generalized density rwf, IOpCl= 0 IROHF=0.

 **********************************************************************

            Population analysis using the SCF density.

 **********************************************************************

 Orbital symmetries:
       Occupied  (A) (A) (A) (A) (A) (A) (A) (A) (A) (A) (A) (A)
                 (A) (A) (A) (A) (A) (A) (A) (A) (A)
       Virtual   (A) (A) (A) (A) (A) (A) (A) (A) (A) (A) (A) (A)
                 (A) (A) (A) (A) (A) (A) (A) (A) (A) (A) (A) (A)
                 (A) (A) (A) (A) (A) (A) (A) (A) (A) (A) (A) (A)
                 (A) (A) (A) (A) (A) (A) (A) (A) (A) (A) (A) (A)
                 (A) (A) (A) (A) (A) (A) (A) (A) (A) (A) (A) (A)
                 (A) (A) (A) (A) (A) (A) (A) (A) (A) (A) (A) (A)
                 (A) (A) (A) (A) (A) (A) (A) (A) (A) (A) (A) (A)
                 (A) (A) (A) (A) (A) (A) (A) (A) (A) (A) (A) (A)
                 (A) (A) (A) (A) (A) (A) (A) (A) (A) (A) (A) (A)
                 (A) (A) (A) (A) (A) (A) (A) (A) (A) (A) (A) (A)
                 (A) (A) (A) (A) (A) (A) (A) (A) (A) (A) (A) (A)
                 (A) (A) (A) (A) (A) (A) (A) (A) (A) (A) (A) (A)
                 (A) (A) (A) (A) (A) (A) (A) (A) (A) (A) (A) (A)
                 (A) (A) (A) (A) (A) (A) (A) (A) (A) (A)
 The electronic state is 1-A.
 Alpha  occ. eigenvalues --  -19.99855 -10.81691 -10.71864 -10.68549 -10.64894
 Alpha  occ. eigenvalues --   -1.54058  -1.09946  -1.01634  -0.98857  -0.91620
 Alpha  occ. eigenvalues --   -0.85817  -0.81083  -0.79385  -0.73038  -0.66906
 Alpha  occ. eigenvalues --   -0.64617  -0.60859  -0.60020  -0.55132  -0.54324
 Alpha  occ. eigenvalues --   -0.52811
 Alpha virt. eigenvalues --   -0.19780  -0.14340  -0.12487  -0.11471  -0.09006
 Alpha virt. eigenvalues --   -0.08251  -0.08076  -0.07329  -0.06938  -0.05954
 Alpha virt. eigenvalues --   -0.04818  -0.03323  -0.03283  -0.02342  -0.01898
 Alpha virt. eigenvalues --   -0.01676  -0.00581   0.00725   0.01339   0.01554
 Alpha virt. eigenvalues --    0.02590   0.03256   0.03747   0.04272   0.04997
 Alpha virt. eigenvalues --    0.05205   0.06021   0.06559   0.06966   0.07323
 Alpha virt. eigenvalues --    0.07573   0.08521   0.09255   0.09707   0.10038
 Alpha virt. eigenvalues --    0.11396   0.12748   0.13496   0.15406   0.15988
 Alpha virt. eigenvalues --    0.17473   0.18316   0.18835   0.20903   0.22278
 Alpha virt. eigenvalues --    0.24019   0.30727   0.31438   0.33243   0.35220
 Alpha virt. eigenvalues --    0.35944   0.36912   0.38710   0.40164   0.41274
 Alpha virt. eigenvalues --    0.48412   0.48945   0.50870   0.51923   0.53840
 Alpha virt. eigenvalues --    0.55066   0.56454   0.58819   0.59414   0.60331
 Alpha virt. eigenvalues --    0.61451   0.61816   0.64213   0.66823   0.72718
 Alpha virt. eigenvalues --    0.75327   0.78091   0.81034   0.82631   0.85453
 Alpha virt. eigenvalues --    0.89569   0.91871   1.00884   1.03309   1.11782
 Alpha virt. eigenvalues --    1.16276   1.17734   1.20775   1.23362   1.27010
 Alpha virt. eigenvalues --    1.31425   1.35801   1.37146   1.37985   1.39666
 Alpha virt. eigenvalues --    1.43974   1.44222   1.47336   1.49224   1.50530
 Alpha virt. eigenvalues --    1.51604   1.52156   1.53891   1.55240   1.59850
 Alpha virt. eigenvalues --    1.62358   1.62564   1.66656   1.68731   1.68977
 Alpha virt. eigenvalues --    1.73467   1.75698   1.81567   1.83066   1.88435
 Alpha virt. eigenvalues --    1.90012   1.93104   1.95658   1.98083   2.03065
 Alpha virt. eigenvalues --    2.04922   2.09781   2.15710   2.19950   2.26745
 Alpha virt. eigenvalues --    2.27786   2.30302   2.36412   2.38401   2.39503
 Alpha virt. eigenvalues --    2.41018   2.42654   2.45651   2.46484   2.47550
 Alpha virt. eigenvalues --    2.49912   2.52850   2.55179   2.56276   2.60146
 Alpha virt. eigenvalues --    2.62323   2.68521   2.70742   2.74211   2.78180
 Alpha virt. eigenvalues --    2.80126   2.83919   2.86856   3.00708   3.08309
 Alpha virt. eigenvalues --    3.09671   3.20602   3.42441   3.62438   3.64786
 Alpha virt. eigenvalues --    3.68072   3.70126   3.73338   3.79894   3.86723
 Alpha virt. eigenvalues --    3.92817   4.01490   4.21522   4.98645   5.41440
 Alpha virt. eigenvalues --    5.45597  23.69253  23.78680  23.81624  23.92717
 Alpha virt. eigenvalues --   49.69633
          Condensed to atoms (all electrons):
               1          2          3          4          5          6
     1  C    5.384658   0.024183   0.120744  -0.091998  -0.001277   0.404057
     2  C    0.024183   5.648640  -0.373051   0.225404  -0.027425  -0.047510
     3  C    0.120744  -0.373051   5.958704  -0.148267  -0.053052   0.017089
     4  C   -0.091998   0.225404  -0.148267   5.886620   0.033319  -0.002359
     5  O   -0.001277  -0.027425  -0.053052   0.033319   7.492284  -0.000088
     6  H    0.404057  -0.047510   0.017089  -0.002359  -0.000088   0.491594
     7  H    0.364190  -0.003039  -0.035747   0.009257  -0.000022  -0.034217
     8  H    0.393793   0.030985  -0.045425   0.001252   0.000330  -0.015552
     9  H   -0.056113   0.485824  -0.081597  -0.002101   0.000036  -0.003179
    10  H   -0.055603   0.365598   0.037646  -0.033438   0.000854   0.000133
    11  H    0.000736   0.022174   0.319731  -0.001781  -0.021908  -0.000960
    12  H    0.012483  -0.125598   0.532206  -0.083950   0.005408  -0.000714
    13  H   -0.004390   0.000060  -0.027836   0.392228  -0.042033   0.000204
    14  H    0.006228  -0.040946   0.030143   0.361913  -0.060341   0.000002
    15  H   -0.001037   0.000340  -0.024644   0.022494   0.329581  -0.000036
    16  H    0.000646   0.002437   0.030614  -0.040806   0.329255   0.000254
               7          8          9         10         11         12
     1  C    0.364190   0.393793  -0.056113  -0.055603   0.000736   0.012483
     2  C   -0.003039   0.030985   0.485824   0.365598   0.022174  -0.125598
     3  C   -0.035747  -0.045425  -0.081597   0.037646   0.319731   0.532206
     4  C    0.009257   0.001252  -0.002101  -0.033438  -0.001781  -0.083950
     5  O   -0.000022   0.000330   0.000036   0.000854  -0.021908   0.005408
     6  H   -0.034217  -0.015552  -0.003179   0.000133  -0.000960  -0.000714
     7  H    0.588414  -0.048921  -0.016774   0.019718  -0.005333   0.014790
     8  H   -0.048921   0.522359   0.011465  -0.031391   0.011216  -0.006179
     9  H   -0.016774   0.011465   0.560452  -0.052775   0.020095  -0.034327
    10  H    0.019718  -0.031391  -0.052775   0.594838  -0.038906   0.020630
    11  H   -0.005333   0.011216   0.020095  -0.038906   0.619933  -0.058331
    12  H    0.014790  -0.006179  -0.034327   0.020630  -0.058331   0.517918
    13  H   -0.000593   0.001643   0.009246  -0.005050   0.016873  -0.021948
    14  H    0.001320  -0.000316  -0.005921   0.010321  -0.037534   0.013158
    15  H    0.000103  -0.000002   0.000565  -0.000007   0.003864   0.000373
    16  H    0.000050  -0.000177  -0.000987   0.001828   0.006075  -0.001010
              13         14         15         16
     1  C   -0.004390   0.006228  -0.001037   0.000646
     2  C    0.000060  -0.040946   0.000340   0.002437
     3  C   -0.027836   0.030143  -0.024644   0.030614
     4  C    0.392228   0.361913   0.022494  -0.040806
     5  O   -0.042033  -0.060341   0.329581   0.329255
     6  H    0.000204   0.000002  -0.000036   0.000254
     7  H   -0.000593   0.001320   0.000103   0.000050
     8  H    0.001643  -0.000316  -0.000002  -0.000177
     9  H    0.009246  -0.005921   0.000565  -0.000987
    10  H   -0.005050   0.010321  -0.000007   0.001828
    11  H    0.016873  -0.037534   0.003864   0.006075
    12  H   -0.021948   0.013158   0.000373  -0.001010
    13  H    0.450836  -0.025229  -0.006200   0.007834
    14  H   -0.025229   0.506783  -0.000467  -0.009986
    15  H   -0.006200  -0.000467   0.323804  -0.026534
    16  H    0.007834  -0.009986  -0.026534   0.328033
 Mulliken charges:
               1
     1  C   -0.501301
     2  C   -0.188078
     3  C   -0.257260
     4  C   -0.527787
     5  O    0.015078
     6  H    0.191281
     7  H    0.146804
     8  H    0.174920
     9  H    0.166091
    10  H    0.165603
    11  H    0.144059
    12  H    0.215091
    13  H    0.254353
    14  H    0.250870
    15  H    0.377801
    16  H    0.372475
 Sum of Mulliken charges =   1.00000
 Mulliken charges with hydrogens summed into heavy atoms:
               1
     1  C    0.011704
     2  C    0.143616
     3  C    0.101889
     4  C   -0.022563
     5  O    0.765354
 Electronic spatial extent (au):  <R**2>=            678.0469
 Charge=              1.0000 electrons
 Dipole moment (field-independent basis, Debye):
    X=              8.2316    Y=             -0.0559    Z=              1.2142  Tot=              8.3209
 Quadrupole moment (field-independent basis, Debye-Ang):
   XX=             -1.5355   YY=            -30.0135   ZZ=            -28.9341
   XY=             -0.8934   XZ=              3.3438   YZ=             -2.1215
 Traceless Quadrupole moment (field-independent basis, Debye-Ang):
   XX=             18.6256   YY=             -9.8525   ZZ=             -8.7731
   XY=             -0.8934   XZ=              3.3438   YZ=             -2.1215
 Octapole moment (field-independent basis, Debye-Ang**2):
  XXX=             89.6149  YYY=             -3.2076  ZZZ=              1.4655  XYY=             11.3168
  XXY=             -0.5987  XXZ=              7.5389  XZZ=              8.0443  YZZ=             -0.5208
  YYZ=              0.9005  XYZ=             -4.1230
 Hexadecapole moment (field-independent basis, Debye-Ang**3):
 XXXX=           -404.5193 YYYY=            -97.4177 ZZZZ=            -57.3538 XXXY=            -12.0772
 XXXZ=             20.7089 YYYX=             -8.9365 YYYZ=             -3.8266 ZZZX=              1.2188
 ZZZY=             -1.6381 XXYY=           -118.1528 XXZZ=           -116.9568 YYZZ=            -21.2948
 XXYZ=            -13.2625 YYXZ=              4.9163 ZZXY=             -1.5586
 N-N= 1.943651334122D+02 E-N=-9.246186398163D+02  KE= 2.331361355477D+02
 No NMR shielding tensors so no spin-rotation constants.
 Leave Link  601 at Sun Oct 13 21:37:09 2019, MaxMem= 10737418240 cpu:               2.4 elap:               0.1
 (Enter /apps/cent7/gaussian/g16-A.03/g16-haswell/g16/l701.exe)
 ... and contract with generalized density number  0.
 Compute integral first derivatives.
 Leave Link  701 at Sun Oct 13 21:37:10 2019, MaxMem= 10737418240 cpu:               2.9 elap:               0.2
 (Enter /apps/cent7/gaussian/g16-A.03/g16-haswell/g16/l702.exe)
 L702 exits ... SP integral derivatives will be done elsewhere.
 Leave Link  702 at Sun Oct 13 21:37:10 2019, MaxMem= 10737418240 cpu:               0.4 elap:               0.0
 (Enter /apps/cent7/gaussian/g16-A.03/g16-haswell/g16/l703.exe)
 Integral derivatives from FoFJK, PRISM(SPDF).
 Compute integral first derivatives, UseDBF=F ICtDFT=           0.
 Calling FoFJK, ICntrl=      2127 FMM=F ISym2X=0 I1Cent= 0 IOpClX= 0 NMat=1 NMatS=1 NMatT=0.
 FoFJK:  IHMeth= 1 ICntrl=    2127 DoSepK=F KAlg= 0 I1Cent=           0 FoldK=F
 IRaf=         0 NMat=       1 IRICut=       1 DoRegI=T DoRafI=F ISym2E= 0 IDoP0=0 IntGTp=1.
 FoFCou: FMM=F IPFlag=           0 FMFlag=      100000 FMFlg1=         800
         NFxFlg=           0 DoJE=F BraDBF=F KetDBF=F FulRan=T
         wScrn=  0.000000 ICntrl=      2127 IOpCl=  0 I1Cent=           0 NGrid=           0
         NMat0=    1 NMatS0=      1 NMatT0=    0 NMatD0=    1 NMtDS0=    0 NMtDT0=    0
 Symmetry not used in FoFCou.
 Leave Link  703 at Sun Oct 13 21:37:11 2019, MaxMem= 10737418240 cpu:              23.7 elap:               1.0
 (Enter /apps/cent7/gaussian/g16-A.03/g16-haswell/g16/l716.exe)
 Dipole        = 3.23857478D+00-2.19848559D-02 4.77686737D-01
 ***** Axes restored to original set *****
 -------------------------------------------------------------------
 Center     Atomic                   Forces (Hartrees/Bohr)
 Number     Number              X              Y              Z
 -------------------------------------------------------------------
      1        6          -0.000244790    0.011710676    0.005618149
      2        6          -0.007292071    0.010548981   -0.011869963
      3        6           0.004130246   -0.001758347    0.018172492
      4        6           0.015547234   -0.064880826   -0.018607669
      5        8          -0.019831728    0.026845435   -0.005274220
      6        1           0.000739813    0.000972344   -0.002035300
      7        1          -0.000912705   -0.003541173   -0.003238552
      8        1          -0.002047763   -0.001741333   -0.003311287
      9        1           0.013605041   -0.002823515    0.010591540
     10        1          -0.001257304   -0.010151251    0.016926371
     11        1          -0.011693931    0.004308133   -0.012195538
     12        1           0.000574393    0.009331895   -0.014805973
     13        1           0.010538393    0.002316792    0.007421269
     14        1          -0.001610903   -0.008287821    0.014595161
     15        1          -0.002846918    0.014051384    0.012389400
     16        1           0.002602993    0.013098625   -0.014375878
 -------------------------------------------------------------------
 Cartesian Forces:  Max     0.064880826 RMS     0.013933158
 Leave Link  716 at Sun Oct 13 21:37:11 2019, MaxMem= 10737418240 cpu:               0.6 elap:               0.0
 (Enter /apps/cent7/gaussian/g16-A.03/g16-haswell/g16/l103.exe)

 GradGradGradGradGradGradGradGradGradGradGradGradGradGradGradGradGradGrad
 Berny optimization.
 FormGI is forming the generalized inverse of G from B-inverse, IUseBI=4.
 GSVD:  received Info=                   1 from GESDD.
 Internal  Forces:  Max     0.058019444 RMS     0.009599495
 Search for a local minimum.
 Step number   1 out of a maximum of   85
 All quantities printed in internal units (Hartrees-Bohrs-Radians)
 RMS Force = .95995D-02 SwitMx=.10000D-02 MixMth= 1
 Mixed Optimization -- RFO/linear search
 Second derivative matrix not updated -- first step.
 ITU=  0
     Eigenvalues ---    0.00230   0.00230   0.00230   0.01403   0.03927
     Eigenvalues ---    0.03961   0.04740   0.05039   0.05134   0.05144
     Eigenvalues ---    0.05602   0.05714   0.05715   0.07769   0.07821
     Eigenvalues ---    0.09152   0.11792   0.11833   0.12387   0.16000
     Eigenvalues ---    0.16000   0.16000   0.16000   0.16000   0.22486
     Eigenvalues ---    0.22508   0.22516   0.27560   0.28031   0.28183
     Eigenvalues ---    0.34806   0.34807   0.34807   0.34809   0.34813
     Eigenvalues ---    0.34813   0.34815   0.34818   0.34823   0.42188
     Eigenvalues ---    0.55473   0.55473
 RFO step:  Lambda=-2.72637068D-02 EMin= 2.30000000D-03
 Linear search not attempted -- first point.
 Maximum step size (   0.300) exceeded in Quadratic search.
    -- Step size scaled by   0.950
 Iteration  1 RMS(Cart)=  0.05773633 RMS(Int)=  0.00196400
 Iteration  2 RMS(Cart)=  0.00183737 RMS(Int)=  0.00088661
 Iteration  3 RMS(Cart)=  0.00000272 RMS(Int)=  0.00088661
 Iteration  4 RMS(Cart)=  0.00000000 RMS(Int)=  0.00088661
 ITry= 1 IFail=0 DXMaxC= 1.95D-01 DCOld= 1.00D+10 DXMaxT= 3.00D-01 DXLimC= 3.00D+00 Rises=F
 Variable       Old X    -DE/DX   Delta X   Delta X   Delta X     New X
                                 (Linear)    (Quad)   (Total)
    R1        2.91740  -0.00072   0.00000  -0.00223  -0.00223   2.91518
    R2        2.05989  -0.00128   0.00000  -0.00324  -0.00324   2.05665
    R3        2.05987   0.00120   0.00000   0.00303   0.00303   2.06290
    R4        2.05979   0.00018   0.00000   0.00046   0.00046   2.06024
    R5        2.93110  -0.00332   0.00000  -0.01041  -0.01041   2.92070
    R6        2.05990   0.00056   0.00000   0.00142   0.00142   2.06132
    R7        2.05971   0.00063   0.00000   0.00159   0.00159   2.06130
    R8        2.92072  -0.01105   0.00000  -0.03414  -0.03414   2.88658
    R9        2.05980   0.00343   0.00000   0.00869   0.00869   2.06849
   R10        2.05976   0.00104   0.00000   0.00263   0.00263   2.06239
   R11        2.68684   0.05802   0.00000   0.12273   0.12273   2.80957
   R12        2.05963  -0.00201   0.00000  -0.00508  -0.00508   2.05455
   R13        2.05992   0.00003   0.00000   0.00007   0.00007   2.05998
   R14        1.81414   0.01716   0.00000   0.02802   0.02802   1.84215
   R15        1.81414   0.01786   0.00000   0.02916   0.02916   1.84330
    A1        1.91069   0.00036   0.00000  -0.00014  -0.00014   1.91055
    A2        1.91069   0.00544   0.00000   0.02859   0.02831   1.93900
    A3        1.91072   0.00487   0.00000   0.02568   0.02540   1.93612
    A4        1.91055  -0.00330   0.00000  -0.01876  -0.01876   1.89179
    A5        1.91058  -0.00302   0.00000  -0.01729  -0.01728   1.89330
    A6        1.91056  -0.00435   0.00000  -0.01809  -0.01862   1.89194
    A7        1.96214  -0.01742   0.00000  -0.04662  -0.04600   1.91614
    A8        1.85105   0.00743   0.00000   0.04287   0.04331   1.89437
    A9        1.85109   0.00706   0.00000   0.04068   0.04114   1.89223
   A10        1.85404   0.00644   0.00000   0.03492   0.03546   1.88949
   A11        1.85413   0.00687   0.00000   0.03799   0.03851   1.89265
   A12        2.09438  -0.01270   0.00000  -0.11578  -0.11576   1.97862
   A13        1.96796  -0.02023   0.00000  -0.05945  -0.05851   1.90945
   A14        1.85241   0.00674   0.00000   0.03392   0.03464   1.88705
   A15        1.85248   0.00802   0.00000   0.04379   0.04447   1.89695
   A16        1.85022   0.00797   0.00000   0.04219   0.04280   1.89302
   A17        1.85008   0.00709   0.00000   0.03801   0.03874   1.88882
   A18        2.09448  -0.01231   0.00000  -0.10659  -0.10681   1.98767
   A19        1.92046  -0.01557   0.00000  -0.04589  -0.04540   1.87506
   A20        1.88657   0.00874   0.00000   0.04239   0.04231   1.92887
   A21        1.88650   0.00650   0.00000   0.04091   0.04124   1.92775
   A22        1.83574   0.00171   0.00000  -0.00395  -0.00329   1.83246
   A23        1.83552   0.00804   0.00000   0.05265   0.05314   1.88866
   A24        2.09449  -0.01146   0.00000  -0.09052  -0.09053   2.00396
   A25        1.91063   0.01135   0.00000   0.07093   0.06792   1.97855
   A26        1.91063   0.01010   0.00000   0.06459   0.06157   1.97221
   A27        1.91063  -0.00550   0.00000  -0.00123  -0.00624   1.90439
    D1       -2.79148  -0.00065   0.00000  -0.02328  -0.02327  -2.81475
    D2       -0.77246   0.00249   0.00000   0.02002   0.01990  -0.75256
    D3        1.47254  -0.00408   0.00000  -0.06896  -0.06886   1.40368
    D4       -0.69711  -0.00114   0.00000  -0.02883  -0.02896  -0.72607
    D5        1.32191   0.00199   0.00000   0.01447   0.01422   1.33613
    D6       -2.71627  -0.00458   0.00000  -0.07451  -0.07455  -2.79082
    D7        1.39728  -0.00016   0.00000  -0.01775  -0.01760   1.37968
    D8       -2.86688   0.00298   0.00000   0.02555   0.02557  -2.84131
    D9       -0.62188  -0.00359   0.00000  -0.06343  -0.06319  -0.68507
   D10        3.14155   0.00009   0.00000   0.00442   0.00438  -3.13726
   D11       -1.12336   0.00318   0.00000   0.04464   0.04452  -1.07884
   D12        1.12340  -0.00272   0.00000  -0.03674  -0.03655   1.08685
   D13        1.12432  -0.00362   0.00000  -0.04363  -0.04361   1.08071
   D14       -3.14059  -0.00052   0.00000  -0.00340  -0.00347   3.13913
   D15       -0.89382  -0.00643   0.00000  -0.08479  -0.08454  -0.97836
   D16       -1.12431   0.00360   0.00000   0.05167   0.05155  -1.07277
   D17        0.89396   0.00670   0.00000   0.09189   0.09169   0.98565
   D18        3.14072   0.00079   0.00000   0.01051   0.01062  -3.13184
   D19        3.14150   0.00187   0.00000   0.02262   0.02271  -3.11898
   D20       -1.14586   0.00054   0.00000   0.01714   0.01685  -1.12900
   D21        1.14596  -0.00308   0.00000  -0.03822  -0.03814   1.10782
   D22        1.12191  -0.00052   0.00000  -0.01270  -0.01238   1.10953
   D23        3.11774  -0.00185   0.00000  -0.01819  -0.01824   3.09950
   D24       -0.87362  -0.00547   0.00000  -0.07355  -0.07323  -0.94686
   D25       -1.12210   0.00527   0.00000   0.06731   0.06727  -1.05483
   D26        0.87373   0.00394   0.00000   0.06182   0.06142   0.93514
   D27       -3.11764   0.00032   0.00000   0.00646   0.00642  -3.11121
   D28        3.13222  -0.00291   0.00000  -0.03762  -0.03858   3.09364
   D29       -1.05657   0.00349   0.00000   0.04386   0.04534  -1.01122
   D30        1.10422  -0.00655   0.00000  -0.06290  -0.06432   1.03990
   D31       -3.08457  -0.00015   0.00000   0.01858   0.01961  -3.06496
   D32       -1.12316   0.00152   0.00000   0.01649   0.01520  -1.10795
   D33        0.97124   0.00792   0.00000   0.09797   0.09913   1.07037
         Item               Value     Threshold  Converged?
 Maximum Force            0.058019     0.000450     NO 
 RMS     Force            0.009599     0.000300     NO 
 Maximum Displacement     0.194741     0.001800     NO 
 RMS     Displacement     0.057573     0.001200     NO 
 Predicted change in Energy=-1.586584D-02
 Lowest energy point so far.  Saving SCF results.
 GradGradGradGradGradGradGradGradGradGradGradGradGradGradGradGradGradGrad

 Leave Link  103 at Sun Oct 13 21:37:11 2019, MaxMem= 10737418240 cpu:               1.1 elap:               0.1
 (Enter /apps/cent7/gaussian/g16-A.03/g16-haswell/g16/l202.exe)
                          Input orientation:                          
 ---------------------------------------------------------------------
 Center     Atomic      Atomic             Coordinates (Angstroms)
 Number     Number       Type             X           Y           Z
 ---------------------------------------------------------------------
      1          6           0        2.235230   -0.727280   -1.246925
      2          6           0        2.449224   -0.008978    0.101408
      3          6           0        1.952556    1.451163    0.000975
      4          6           0        2.174121    2.155656    1.338095
      5          8           0        1.653985    3.541872    1.202766
      6          1           0        2.265612   -1.804243   -1.092977
      7          1           0        1.267481   -0.468531   -1.680730
      8          1           0        3.014953   -0.457994   -1.959755
      9          1           0        1.858866   -0.519134    0.863686
     10          1           0        3.518015    0.004310    0.318975
     11          1           0        2.548048    1.961545   -0.762598
     12          1           0        0.881184    1.442575   -0.206826
     13          1           0        1.563650    1.700720    2.114246
     14          1           0        3.238376    2.211947    1.567224
     15          1           0        1.714257    4.059520    2.026594
     16          1           0        2.080271    4.040081    0.480592
 ---------------------------------------------------------------------
                    Distance matrix (angstroms):
                    1          2          3          4          5
     1  C    0.000000
     2  C    1.542645   0.000000
     3  C    2.526415   1.545567   0.000000
     4  C    3.872646   2.508131   1.527512   0.000000
     5  O    4.956258   3.801833   2.429920   1.486758   0.000000
     6  H    1.088334   2.164080   3.448536   4.647503   5.850254
     7  H    1.091640   2.187172   2.642476   4.101422   4.954520
     8  H    1.090234   2.184046   2.935648   4.291151   5.277566
     9  H    2.153985   1.090802   2.152932   2.734767   4.080285
    10  H    2.152395   1.090791   2.155266   2.733670   4.095124
    11  H    2.749948   2.153889   1.094598   2.142525   2.675713
    12  H    2.761073   2.158881   1.091372   2.137043   2.644092
    13  H    4.200438   2.785467   2.163202   1.087222   2.056404
    14  H    4.191038   2.775588   2.164547   1.090095   2.100434
    15  H    5.822439   4.560614   3.311110   2.076103   0.974825
    16  H    5.073072   4.083477   2.636065   2.072481   0.975432
                    6          7          8          9         10
     6  H    0.000000
     7  H    1.768006   0.000000
     8  H    1.767825   1.769640   0.000000
     9  H    2.376021   2.612728   3.051572   0.000000
    10  H    2.613998   3.047507   2.378950   1.823041   0.000000
    11  H    3.790789   2.896220   2.739590   3.045249   2.437500
    12  H    3.639194   2.444166   3.352297   2.439295   3.049255
    13  H    4.802478   4.381234   4.833612   2.564918   3.149659
    14  H    4.914542   4.649580   4.429231   3.139557   2.551468
    15  H    6.664791   5.869166   6.163661   4.726240   4.755443
    16  H    6.055294   5.065523   5.202076   4.580635   4.287269
                   11         12         13         14         15
    11  H    0.000000
    12  H    1.832117   0.000000
    13  H    3.051770   2.433059   0.000000
    14  H    2.442811   3.048859   1.834473   0.000000
    15  H    3.588356   3.539856   2.365228   2.438746   0.000000
    16  H    2.466708   2.942344   2.899712   2.421580   1.588858
                   16
    16  H    0.000000
 Stoichiometry    C4H11O(1+)
 Framework group  C1[X(C4H11O)]
 Deg. of freedom    42
 Full point group                 C1      NOp   1
 RotChk:  IX=0 Diff= 3.08D-02
 Largest Abelian subgroup         C1      NOp   1
 Largest concise Abelian subgroup C1      NOp   1
                         Standard orientation:                         
 ---------------------------------------------------------------------
 Center     Atomic      Atomic             Coordinates (Angstroms)
 Number     Number       Type             X           Y           Z
 ---------------------------------------------------------------------
      1          6           0       -2.560458   -0.329720   -0.015159
      2          6           0       -1.296459    0.553137    0.036059
      3          6           0       -0.034122   -0.335881   -0.034152
      4          6           0        1.211630    0.546209    0.023404
      5          8           0        2.395358   -0.347528   -0.078926
      6          1           0       -3.417107    0.279378   -0.297333
      7          1           0       -2.450806   -1.130729   -0.748669
      8          1           0       -2.761387   -0.779053    0.957640
      9          1           0       -1.298698    1.212758   -0.832702
     10          1           0       -1.288671    1.089021    0.986108
     11          1           0       -0.032861   -0.994950    0.839788
     12          1           0       -0.032758   -0.866543   -0.987823
     13          1           0        1.266001    1.186499   -0.853593
     14          1           0        1.262721    1.071422    0.977264
     15          1           0        3.242977    0.133732   -0.093626
     16          1           0        2.424171   -1.023784    0.623438
 ---------------------------------------------------------------------
 Rotational constants (GHZ):          17.3886401           1.9148313           1.8135070
 Leave Link  202 at Sun Oct 13 21:37:11 2019, MaxMem= 10737418240 cpu:               0.2 elap:               0.0
 (Enter /apps/cent7/gaussian/g16-A.03/g16-haswell/g16/l301.exe)
 Standard basis: 6-311++G(d,p) (5D, 7F)
 Ernie: Thresh=  0.10000D-02 Tol=  0.10000D-05 Strict=F.
 There are   192 symmetry adapted cartesian basis functions of A   symmetry.
 There are   187 symmetry adapted basis functions of A   symmetry.
   187 basis functions,   279 primitive gaussians,   192 cartesian basis functions
    21 alpha electrons       21 beta electrons
       nuclear repulsion energy       193.8205605833 Hartrees.
 IExCor= 4336 DFT=T Ex+Corr=M062X ExCW=0 ScaHFX=  0.540000
 ScaDFX=  1.000000  1.000000  1.000000  1.000000 ScalE2=  1.000000  1.000000
 IRadAn=      5 IRanWt=     -1 IRanGd=            0 ICorTp=0 IEmpDi=  4
 NAtoms=   16 NActive=   16 NUniq=   16 SFac= 1.00D+00 NAtFMM=   60 NAOKFM=F Big=F
 Integral buffers will be    131072 words long.
 Raffenetti 2 integral format.
 Two-electron integral symmetry is turned on.
 Leave Link  301 at Sun Oct 13 21:37:11 2019, MaxMem= 10737418240 cpu:               1.6 elap:               0.1
 (Enter /apps/cent7/gaussian/g16-A.03/g16-haswell/g16/l302.exe)
 NPDir=0 NMtPBC=     1 NCelOv=     1 NCel=       1 NClECP=     1 NCelD=      1
         NCelK=      1 NCelE2=     1 NClLst=     1 CellRange=     0.0.
 One-electron integrals computed using PRISM.
 One-electron integral symmetry used in STVInt
 NBasis=   187 RedAO= T EigKep=  1.63D-05  NBF=   187
 NBsUse=   187 1.00D-06 EigRej= -1.00D+00 NBFU=   187
 Precomputing XC quadrature grid using
 IXCGrd= 4 IRadAn=           5 IRanWt=          -1 IRanGd=           0 AccXCQ= 0.00D+00.
 Generated NRdTot=       0 NPtTot=           0 NUsed=           0 NTot=          32
 NSgBfM=   192   192   192   192   192 MxSgAt=    16 MxSgA2=    16.
 Leave Link  302 at Sun Oct 13 21:37:11 2019, MaxMem= 10737418240 cpu:               3.2 elap:               0.2
 (Enter /apps/cent7/gaussian/g16-A.03/g16-haswell/g16/l303.exe)
 DipDrv:  MaxL=1.
 Leave Link  303 at Sun Oct 13 21:37:11 2019, MaxMem= 10737418240 cpu:               0.6 elap:               0.0
 (Enter /apps/cent7/gaussian/g16-A.03/g16-haswell/g16/l401.exe)
 Initial guess from the checkpoint file:  "20_p.chk"
 B after Tr=     0.000000   -0.000000    0.000000
         Rot=    0.999942    0.010605    0.000310   -0.001888 Ang=   1.23 deg.
 Guess basis will be translated and rotated to current coordinates.
 JPrj=2 DoOrth=T DoCkMO=T.
 Generating alternative initial guess.
 ExpMin= 3.60D-02 ExpMax= 8.59D+03 ExpMxC= 1.30D+03 IAcc=3 IRadAn=         5 AccDes= 0.00D+00
 Harris functional with IExCor= 1009 and IRadAn=       5 diagonalized for initial guess.
 HarFok:  IExCor= 1009 AccDes= 0.00D+00 IRadAn=         5 IDoV= 1 UseB2=F ITyADJ=14
 ICtDFT=  3500011 ScaDFX=  1.000000  1.000000  1.000000  1.000000
 FoFCou: FMM=F IPFlag=           0 FMFlag=      100000 FMFlg1=           0
         NFxFlg=           0 DoJE=T BraDBF=F KetDBF=T FulRan=T
         wScrn=  0.000000 ICntrl=       500 IOpCl=  0 I1Cent=   200000004 NGrid=           0
         NMat0=    1 NMatS0=      1 NMatT0=    0 NMatD0=    1 NMtDS0=    0 NMtDT0=    0
 Petite list used in FoFCou.
 Harris En= -233.934308518395    
 Leave Link  401 at Sun Oct 13 21:37:12 2019, MaxMem= 10737418240 cpu:               9.0 elap:               0.4
 (Enter /apps/cent7/gaussian/g16-A.03/g16-haswell/g16/l502.exe)
 Integral symmetry usage will be decided dynamically.
 Closed shell SCF:
 Using DIIS extrapolation, IDIIS=  1040.
 NGot= 10737418240 LenX= 10737337812 LenY= 10737300507
 Requested convergence on RMS density matrix=1.00D-08 within 128 cycles.
 Requested convergence on MAX density matrix=1.00D-06.
 Requested convergence on             energy=1.00D-06.
 No special actions if energy rises.
 Fock matrices will be formed incrementally for  20 cycles.

 Cycle   1  Pass 1  IDiag  1:
 FoFJK:  IHMeth= 1 ICntrl=       0 DoSepK=F KAlg= 0 I1Cent=           0 FoldK=F
 IRaf= 970000000 NMat=       1 IRICut=       1 DoRegI=T DoRafI=F ISym2E= 0 IDoP0=0 IntGTp=1.
 FoFCou: FMM=F IPFlag=           0 FMFlag=      100000 FMFlg1=           0
         NFxFlg=           0 DoJE=F BraDBF=F KetDBF=F FulRan=T
         wScrn=  0.000000 ICntrl=         0 IOpCl=  0 I1Cent=           0 NGrid=           0
         NMat0=    1 NMatS0=      1 NMatT0=    0 NMatD0=    1 NMtDS0=    0 NMtDT0=    0
 Symmetry not used in FoFCou.
 E= -233.918514208175    
 DIIS: error= 3.15D-03 at cycle   1 NSaved=   1.
 NSaved= 1 IEnMin= 1 EnMin= -233.918514208175     IErMin= 1 ErrMin= 3.15D-03
 ErrMax= 3.15D-03  0.00D+00 EMaxC= 1.00D-01 BMatC= 3.93D-03 BMatP= 3.93D-03
 IDIUse=3 WtCom= 9.68D-01 WtEn= 3.15D-02
 Coeff-Com:  0.100D+01
 Coeff-En:   0.100D+01
 Coeff:      0.100D+01
 Gap=     0.528 Goal=   None    Shift=    0.000
 GapD=    0.528 DampG=2.000 DampE=1.000 DampFc=2.0000 IDamp=-1.
 RMSDP=1.20D-03 MaxDP=2.74D-02              OVMax= 1.42D-02

 Cycle   2  Pass 1  IDiag  1:
 RMSU=  1.18D-03    CP:  9.84D-01
 E= -233.922797617751     Delta-E=       -0.004283409577 Rises=F Damp=F
 DIIS: error= 9.46D-04 at cycle   2 NSaved=   2.
 NSaved= 2 IEnMin= 2 EnMin= -233.922797617751     IErMin= 2 ErrMin= 9.46D-04
 ErrMax= 9.46D-04  0.00D+00 EMaxC= 1.00D-01 BMatC= 1.85D-04 BMatP= 3.93D-03
 IDIUse=3 WtCom= 9.91D-01 WtEn= 9.46D-03
 Coeff-Com:  0.180D-02 0.998D+00
 Coeff-En:   0.000D+00 0.100D+01
 Coeff:      0.178D-02 0.998D+00
 Gap=     0.341 Goal=   None    Shift=    0.000
 RMSDP=1.81D-04 MaxDP=8.39D-03 DE=-4.28D-03 OVMax= 4.50D-03

 Cycle   3  Pass 1  IDiag  1:
 RMSU=  1.56D-04    CP:  9.87D-01  1.07D+00
 E= -233.922936863323     Delta-E=       -0.000139245571 Rises=F Damp=F
 DIIS: error= 8.94D-04 at cycle   3 NSaved=   3.
 NSaved= 3 IEnMin= 3 EnMin= -233.922936863323     IErMin= 3 ErrMin= 8.94D-04
 ErrMax= 8.94D-04  0.00D+00 EMaxC= 1.00D-01 BMatC= 1.32D-04 BMatP= 1.85D-04
 IDIUse=3 WtCom= 9.91D-01 WtEn= 8.94D-03
 Coeff-Com: -0.530D-01 0.469D+00 0.584D+00
 Coeff-En:   0.000D+00 0.421D-01 0.958D+00
 Coeff:     -0.525D-01 0.465D+00 0.587D+00
 Gap=     0.343 Goal=   None    Shift=    0.000
 RMSDP=5.73D-05 MaxDP=1.90D-03 DE=-1.39D-04 OVMax= 2.22D-03

 Cycle   4  Pass 1  IDiag  1:
 RMSU=  5.46D-05    CP:  9.87D-01  1.08D+00  9.98D-01
 E= -233.923031301254     Delta-E=       -0.000094437932 Rises=F Damp=F
 DIIS: error= 1.46D-04 at cycle   4 NSaved=   4.
 NSaved= 4 IEnMin= 4 EnMin= -233.923031301254     IErMin= 4 ErrMin= 1.46D-04
 ErrMax= 1.46D-04  0.00D+00 EMaxC= 1.00D-01 BMatC= 3.70D-06 BMatP= 1.32D-04
 IDIUse=3 WtCom= 9.99D-01 WtEn= 1.46D-03
 Coeff-Com: -0.136D-01 0.513D-01 0.159D+00 0.803D+00
 Coeff-En:   0.000D+00 0.000D+00 0.000D+00 0.100D+01
 Coeff:     -0.136D-01 0.512D-01 0.159D+00 0.803D+00
 Gap=     0.343 Goal=   None    Shift=    0.000
 RMSDP=1.84D-05 MaxDP=4.97D-04 DE=-9.44D-05 OVMax= 5.00D-04

 Cycle   5  Pass 1  IDiag  1:
 RMSU=  1.61D-05    CP:  9.87D-01  1.08D+00  1.05D+00  1.06D+00
 E= -233.923034595377     Delta-E=       -0.000003294122 Rises=F Damp=F
 DIIS: error= 3.52D-05 at cycle   5 NSaved=   5.
 NSaved= 5 IEnMin= 5 EnMin= -233.923034595377     IErMin= 5 ErrMin= 3.52D-05
 ErrMax= 3.52D-05  0.00D+00 EMaxC= 1.00D-01 BMatC= 4.35D-07 BMatP= 3.70D-06
 IDIUse=1 WtCom= 1.00D+00 WtEn= 0.00D+00
 Coeff-Com:  0.112D-02-0.326D-01-0.135D-01 0.253D+00 0.791D+00
 Coeff:      0.112D-02-0.326D-01-0.135D-01 0.253D+00 0.791D+00
 Gap=     0.343 Goal=   None    Shift=    0.000
 RMSDP=5.67D-06 MaxDP=1.94D-04 DE=-3.29D-06 OVMax= 2.17D-04

 Cycle   6  Pass 1  IDiag  1:
 RMSU=  3.50D-06    CP:  9.87D-01  1.08D+00  1.08D+00  1.09D+00  9.66D-01
 E= -233.923035036993     Delta-E=       -0.000000441616 Rises=F Damp=F
 DIIS: error= 1.27D-05 at cycle   6 NSaved=   6.
 NSaved= 6 IEnMin= 6 EnMin= -233.923035036993     IErMin= 6 ErrMin= 1.27D-05
 ErrMax= 1.27D-05  0.00D+00 EMaxC= 1.00D-01 BMatC= 3.44D-08 BMatP= 4.35D-07
 IDIUse=1 WtCom= 1.00D+00 WtEn= 0.00D+00
 Coeff-Com:  0.137D-02-0.137D-01-0.180D-01 0.160D-01 0.254D+00 0.761D+00
 Coeff:      0.137D-02-0.137D-01-0.180D-01 0.160D-01 0.254D+00 0.761D+00
 Gap=     0.343 Goal=   None    Shift=    0.000
 RMSDP=1.58D-06 MaxDP=3.14D-05 DE=-4.42D-07 OVMax= 5.73D-05

 Cycle   7  Pass 1  IDiag  1:
 RMSU=  1.26D-06    CP:  9.87D-01  1.08D+00  1.08D+00  1.10D+00  1.00D+00
                    CP:  1.09D+00
 E= -233.923035073804     Delta-E=       -0.000000036812 Rises=F Damp=F
 DIIS: error= 2.42D-06 at cycle   7 NSaved=   7.
 NSaved= 7 IEnMin= 7 EnMin= -233.923035073804     IErMin= 7 ErrMin= 2.42D-06
 ErrMax= 2.42D-06  0.00D+00 EMaxC= 1.00D-01 BMatC= 1.14D-09 BMatP= 3.44D-08
 IDIUse=1 WtCom= 1.00D+00 WtEn= 0.00D+00
 Coeff-Com:  0.134D-03-0.318D-03-0.247D-02-0.987D-02-0.493D-02 0.124D+00
 Coeff-Com:  0.893D+00
 Coeff:      0.134D-03-0.318D-03-0.247D-02-0.987D-02-0.493D-02 0.124D+00
 Coeff:      0.893D+00
 Gap=     0.343 Goal=   None    Shift=    0.000
 RMSDP=4.89D-07 MaxDP=2.71D-05 DE=-3.68D-08 OVMax= 1.55D-05

 Cycle   8  Pass 1  IDiag  1:
 RMSU=  3.20D-07    CP:  9.87D-01  1.08D+00  1.08D+00  1.10D+00  1.01D+00
                    CP:  1.15D+00  1.01D+00
 E= -233.923035075167     Delta-E=       -0.000000001362 Rises=F Damp=F
 DIIS: error= 1.20D-06 at cycle   8 NSaved=   8.
 NSaved= 8 IEnMin= 8 EnMin= -233.923035075167     IErMin= 8 ErrMin= 1.20D-06
 ErrMax= 1.20D-06  0.00D+00 EMaxC= 1.00D-01 BMatC= 1.73D-10 BMatP= 1.14D-09
 IDIUse=1 WtCom= 1.00D+00 WtEn= 0.00D+00
 Coeff-Com: -0.513D-04 0.866D-03 0.467D-03-0.432D-02-0.208D-01-0.161D-01
 Coeff-Com:  0.315D+00 0.725D+00
 Coeff:     -0.513D-04 0.866D-03 0.467D-03-0.432D-02-0.208D-01-0.161D-01
 Coeff:      0.315D+00 0.725D+00
 Gap=     0.343 Goal=   None    Shift=    0.000
 RMSDP=1.03D-07 MaxDP=2.60D-06 DE=-1.36D-09 OVMax= 4.12D-06

 Cycle   9  Pass 1  IDiag  1:
 RMSU=  7.40D-08    CP:  9.87D-01  1.08D+00  1.08D+00  1.10D+00  1.01D+00
                    CP:  1.17D+00  1.03D+00  8.68D-01
 E= -233.923035075360     Delta-E=       -0.000000000193 Rises=F Damp=F
 DIIS: error= 2.41D-07 at cycle   9 NSaved=   9.
 NSaved= 9 IEnMin= 9 EnMin= -233.923035075360     IErMin= 9 ErrMin= 2.41D-07
 ErrMax= 2.41D-07  0.00D+00 EMaxC= 1.00D-01 BMatC= 8.89D-12 BMatP= 1.73D-10
 IDIUse=1 WtCom= 1.00D+00 WtEn= 0.00D+00
 Coeff-Com: -0.225D-04 0.249D-03 0.342D-03-0.484D-03-0.545D-02-0.152D-01
 Coeff-Com:  0.265D-01 0.196D+00 0.798D+00
 Coeff:     -0.225D-04 0.249D-03 0.342D-03-0.484D-03-0.545D-02-0.152D-01
 Coeff:      0.265D-01 0.196D+00 0.798D+00
 Gap=     0.343 Goal=   None    Shift=    0.000
 RMSDP=4.23D-08 MaxDP=1.88D-06 DE=-1.93D-10 OVMax= 1.06D-06

 Cycle  10  Pass 1  IDiag  1:
 RMSU=  2.45D-08    CP:  9.87D-01  1.08D+00  1.08D+00  1.10D+00  1.01D+00
                    CP:  1.17D+00  1.05D+00  8.98D-01  9.86D-01
 E= -233.923035075369     Delta-E=       -0.000000000010 Rises=F Damp=F
 DIIS: error= 4.71D-08 at cycle  10 NSaved=  10.
 NSaved=10 IEnMin=10 EnMin= -233.923035075369     IErMin=10 ErrMin= 4.71D-08
 ErrMax= 4.71D-08  0.00D+00 EMaxC= 1.00D-01 BMatC= 5.04D-13 BMatP= 8.89D-12
 IDIUse=1 WtCom= 1.00D+00 WtEn= 0.00D+00
 Coeff-Com:  0.269D-06-0.293D-04 0.435D-04 0.325D-03 0.751D-03-0.245D-02
 Coeff-Com: -0.222D-01-0.220D-01 0.162D+00 0.884D+00
 Coeff:      0.269D-06-0.293D-04 0.435D-04 0.325D-03 0.751D-03-0.245D-02
 Coeff:     -0.222D-01-0.220D-01 0.162D+00 0.884D+00
 Gap=     0.343 Goal=   None    Shift=    0.000
 RMSDP=9.05D-09 MaxDP=1.55D-07 DE=-9.55D-12 OVMax= 2.52D-07

 SCF Done:  E(RM062X) =  -233.923035075     A.U. after   10 cycles
            NFock= 10  Conv=0.90D-08     -V/T= 2.0040
 KE= 2.329900835641D+02 PE=-9.236053841911D+02 EE= 2.628717049683D+02
 Leave Link  502 at Sun Oct 13 21:37:17 2019, MaxMem= 10737418240 cpu:             118.7 elap:               5.0
 (Enter /apps/cent7/gaussian/g16-A.03/g16-haswell/g16/l701.exe)
 ... and contract with generalized density number  0.
 Compute integral first derivatives.
 Leave Link  701 at Sun Oct 13 21:37:17 2019, MaxMem= 10737418240 cpu:               2.7 elap:               0.1
 (Enter /apps/cent7/gaussian/g16-A.03/g16-haswell/g16/l702.exe)
 L702 exits ... SP integral derivatives will be done elsewhere.
 Leave Link  702 at Sun Oct 13 21:37:17 2019, MaxMem= 10737418240 cpu:               0.5 elap:               0.0
 (Enter /apps/cent7/gaussian/g16-A.03/g16-haswell/g16/l703.exe)
 Integral derivatives from FoFJK, PRISM(SPDF).
 Compute integral first derivatives, UseDBF=F ICtDFT=           0.
 Calling FoFJK, ICntrl=      2127 FMM=F ISym2X=0 I1Cent= 0 IOpClX= 0 NMat=1 NMatS=1 NMatT=0.
 FoFJK:  IHMeth= 1 ICntrl=    2127 DoSepK=F KAlg= 0 I1Cent=           0 FoldK=F
 IRaf=         0 NMat=       1 IRICut=       1 DoRegI=T DoRafI=F ISym2E= 0 IDoP0=0 IntGTp=1.
 FoFCou: FMM=F IPFlag=           0 FMFlag=      100000 FMFlg1=         800
         NFxFlg=           0 DoJE=F BraDBF=F KetDBF=F FulRan=T
         wScrn=  0.000000 ICntrl=      2127 IOpCl=  0 I1Cent=           0 NGrid=           0
         NMat0=    1 NMatS0=      1 NMatT0=    0 NMatD0=    1 NMtDS0=    0 NMtDT0=    0
 Symmetry not used in FoFCou.
 Leave Link  703 at Sun Oct 13 21:37:18 2019, MaxMem= 10737418240 cpu:              23.4 elap:               1.0
 (Enter /apps/cent7/gaussian/g16-A.03/g16-haswell/g16/l716.exe)
 Dipole        = 3.21462412D+00-3.03627819D-02 4.46537350D-01
 ***** Axes restored to original set *****
 -------------------------------------------------------------------
 Center     Atomic                   Forces (Hartrees/Bohr)
 Number     Number              X              Y              Z
 -------------------------------------------------------------------
      1        6           0.001296730    0.002494726    0.005758052
      2        6          -0.007299556    0.006869952   -0.015537058
      3        6           0.005859500   -0.001412876    0.015763564
      4        6           0.004172252   -0.026915350   -0.018520829
      5        8          -0.000368541    0.015293535    0.004712228
      6        1           0.000764616   -0.000937338   -0.001955110
      7        1          -0.000437073   -0.001397740    0.000311462
      8        1          -0.000422584    0.000269565   -0.000808315
      9        1           0.005940138   -0.001046035    0.004495279
     10        1          -0.001017412   -0.004960643    0.007741994
     11        1          -0.006053623    0.000942257   -0.004491364
     12        1           0.001256794    0.003748484   -0.006467244
     13        1           0.002552847    0.003779978    0.004159227
     14        1          -0.002271588    0.002317815    0.006608454
     15        1          -0.002194100    0.001639194    0.000356849
     16        1          -0.001778397   -0.000685524   -0.002127187
 -------------------------------------------------------------------
 Cartesian Forces:  Max     0.026915350 RMS     0.007045559
 Leave Link  716 at Sun Oct 13 21:37:18 2019, MaxMem= 10737418240 cpu:               0.5 elap:               0.0
 (Enter /apps/cent7/gaussian/g16-A.03/g16-haswell/g16/l103.exe)

 GradGradGradGradGradGradGradGradGradGradGradGradGradGradGradGradGradGrad
 Berny optimization.
 Using GEDIIS/GDIIS optimizer.
 FormGI is forming the generalized inverse of G from B-inverse, IUseBI=4.
 GSVD:  received Info=                   1 from GESDD.
 Internal  Forces:  Max     0.016398532 RMS     0.002914723
 Search for a local minimum.
 Step number   2 out of a maximum of   85
 All quantities printed in internal units (Hartrees-Bohrs-Radians)
 RMS Force = .29147D-02 SwitMx=.10000D-02 MixMth= 1
 Mixed Optimization -- RFO/linear search
 Update second derivatives using D2CorX and points    1    2
 DE= -1.65D-02 DEPred=-1.59D-02 R= 1.04D+00
 TightC=F SS=  1.41D+00  RLast= 4.05D-01 DXNew= 5.0454D-01 1.2154D+00
 Trust test= 1.04D+00 RLast= 4.05D-01 DXMaxT set to 5.05D-01
 ITU=  1  0
 Use linear search instead of GDIIS.
     Eigenvalues ---    0.00230   0.00230   0.00230   0.01403   0.03958
     Eigenvalues ---    0.03979   0.04027   0.04554   0.05027   0.05116
     Eigenvalues ---    0.05435   0.05611   0.05630   0.07488   0.07564
     Eigenvalues ---    0.08517   0.11567   0.11630   0.12275   0.15818
     Eigenvalues ---    0.16000   0.16000   0.16000   0.16405   0.21803
     Eigenvalues ---    0.22136   0.23896   0.27481   0.27723   0.28272
     Eigenvalues ---    0.34787   0.34806   0.34807   0.34809   0.34813
     Eigenvalues ---    0.34815   0.34817   0.34821   0.34867   0.38864
     Eigenvalues ---    0.55470   0.56164
 RFO step:  Lambda=-5.15911725D-03 EMin= 2.29906211D-03
 Quartic linear search produced a step of  0.49293.
 Iteration  1 RMS(Cart)=  0.05311345 RMS(Int)=  0.00245869
 Iteration  2 RMS(Cart)=  0.00244387 RMS(Int)=  0.00090788
 Iteration  3 RMS(Cart)=  0.00000397 RMS(Int)=  0.00090787
 Iteration  4 RMS(Cart)=  0.00000000 RMS(Int)=  0.00090787
 ITry= 1 IFail=0 DXMaxC= 1.97D-01 DCOld= 1.00D+10 DXMaxT= 5.05D-01 DXLimC= 3.00D+00 Rises=F
 Variable       Old X    -DE/DX   Delta X   Delta X   Delta X     New X
                                 (Linear)    (Quad)   (Total)
    R1        2.91518  -0.00326  -0.00110  -0.01575  -0.01685   2.89832
    R2        2.05665   0.00067  -0.00160   0.00417   0.00257   2.05922
    R3        2.06290  -0.00007   0.00150  -0.00156  -0.00006   2.06284
    R4        2.06024   0.00029   0.00022   0.00103   0.00125   2.06150
    R5        2.92070  -0.00160  -0.00513  -0.00396  -0.00909   2.91161
    R6        2.06132   0.00042   0.00070   0.00114   0.00184   2.06316
    R7        2.06130   0.00049   0.00078   0.00135   0.00214   2.06343
    R8        2.88658  -0.00630  -0.01683  -0.01801  -0.03484   2.85174
    R9        2.06849   0.00028   0.00428  -0.00250   0.00179   2.07028
   R10        2.06239  -0.00003   0.00130  -0.00125   0.00005   2.06245
   R11        2.80957   0.01640   0.06050   0.00503   0.06553   2.87509
   R12        2.05455  -0.00005  -0.00250   0.00195  -0.00055   2.05400
   R13        2.05998  -0.00071   0.00003  -0.00298  -0.00295   2.05703
   R14        1.84215   0.00104   0.01381  -0.00896   0.00485   1.84700
   R15        1.84330   0.00045   0.01437  -0.01099   0.00339   1.84669
    A1        1.91055   0.00253  -0.00007   0.02356   0.02342   1.93398
    A2        1.93900   0.00016   0.01395  -0.01130   0.00248   1.94149
    A3        1.93612   0.00029   0.01252  -0.00879   0.00356   1.93968
    A4        1.89179  -0.00136  -0.00925  -0.00314  -0.01245   1.87934
    A5        1.89330  -0.00140  -0.00852  -0.00399  -0.01258   1.88072
    A6        1.89194  -0.00033  -0.00918   0.00366  -0.00577   1.88617
    A7        1.91614  -0.00052  -0.02268   0.03978   0.01623   1.93237
    A8        1.89437   0.00155   0.02135   0.00939   0.03015   1.92451
    A9        1.89223   0.00125   0.02028   0.00315   0.02311   1.91534
   A10        1.88949   0.00125   0.01748   0.00838   0.02518   1.91468
   A11        1.89265   0.00119   0.01898   0.00267   0.02129   1.91394
   A12        1.97862  -0.00469  -0.05706  -0.06049  -0.11692   1.86170
   A13        1.90945  -0.00327  -0.02884   0.02356  -0.00528   1.90417
   A14        1.88705   0.00150   0.01708   0.00204   0.01920   1.90625
   A15        1.89695   0.00193   0.02192   0.00462   0.02653   1.92348
   A16        1.89302   0.00233   0.02110   0.01162   0.03287   1.92589
   A17        1.88882   0.00208   0.01910   0.01207   0.03125   1.92007
   A18        1.98767  -0.00469  -0.05265  -0.05139  -0.10374   1.88394
   A19        1.87506   0.00132  -0.02238   0.03357   0.01163   1.88670
   A20        1.92887   0.00354   0.02085   0.03585   0.05630   1.98517
   A21        1.92775   0.00399   0.02033   0.04582   0.06581   1.99356
   A22        1.83246  -0.00294  -0.00162  -0.04426  -0.04626   1.78620
   A23        1.88866  -0.00273   0.02619  -0.06036  -0.03507   1.85359
   A24        2.00396  -0.00345  -0.04462  -0.01493  -0.06332   1.94063
   A25        1.97855   0.00360   0.03348   0.01481   0.04565   2.02420
   A26        1.97221  -0.00012   0.03035  -0.01555   0.01210   1.98431
   A27        1.90439  -0.00020  -0.00308   0.02392   0.01682   1.92121
[...]
     6          3.69177883          1.12877619          2.58908914
     6          3.95603934         -0.60171090          4.82192888
     8          2.99869730          0.83380999          7.16395192
     1          4.90978829          0.43323796         -3.82858454
     1          2.36450009          2.05641244         -2.41558614
     1          5.50142723          3.11702436         -1.94310527
     1          3.37659775         -1.95319861         -0.07280932
     1          6.49504353         -0.89631326          0.40155610
     1          4.87220275          2.81188789          2.84443569
     1          1.72381304          1.72721912          2.39459408
     1          2.70429813         -2.23147667          4.76554009
     1          5.89598338         -1.13602929          5.25410651
     1          3.18881889         -0.03080650          8.77709825
     1          3.61171128          2.56602760          7.27131708

 Electric dipole moment (dipole orientation):
 (Debye = 10**-18 statcoulomb cm , SI units = C m)
                  (au)            (Debye)         (10**-30 SI)
   Tot        0.312772D+01      0.794987D+01      0.265179D+02
   x          0.000000D+00      0.000000D+00      0.000000D+00
   y          0.000000D+00      0.000000D+00      0.000000D+00
   z          0.312772D+01      0.794987D+01      0.265179D+02

 Dipole polarizability, Alpha (dipole orientation).
 (esu units = cm**3 , SI units = C**2 m**2 J**-1)
 Alpha(0;0):
               (au)            (10**-24 esu)      (10**-40 SI)
   iso        0.514535D+02      0.762463D+01      0.848354D+01
   aniso      0.170266D+02      0.252308D+01      0.280730D+01
   xx         0.441657D+02      0.654469D+01      0.728195D+01
   yx        -0.485041D+00     -0.718756D-01     -0.799724D-01
   yy         0.479239D+02      0.710158D+01      0.790158D+01
   zx        -0.188033D+01     -0.278636D+00     -0.310024D+00
   zy        -0.125295D+01     -0.185667D+00     -0.206583D+00
   zz         0.622710D+02      0.922761D+01      0.102671D+02

 ----------------------------------------------------------------------
 1\1\GINC-BROWN-A509\Freq\RM062X\6-311++G(d,p)\C4H11O1(1+)\FINEJ\13-Oct
 -2019\0\\#P Geom=AllCheck Guess=TCheck SCRF=Check GenChk RM062X/6-311+
 +G(d,p) Freq\\Title Card Required\\1,1\C,2.231799817,-0.7225907049,-1.
 2509557889\C,2.4062663429,-0.021171373,0.0937971555\C,1.9829436029,1.4
 554759891,0.0055062502\C,2.1764971558,2.1108549823,1.3423842891\O,1.69
 37210329,3.5674580587,1.2202413525\H,2.5298678097,-1.767951466,-1.1754
 678209\H,1.1903448253,-0.6929764543,-1.5769080784\H,2.8461756151,-0.25
 33929845,-2.0219645176\H,1.8042585148,-0.5234666751,0.85623801\H,3.450
 3841602,-0.0836679883,0.4136903732\H,2.5942802882,1.9566227817,-0.7540
 019072\H,0.9329992568,1.5223120325,-0.2920673027\H,1.5301368666,1.7173
 778012,2.1239486441\H,3.214833713,2.1721578461,1.6651903955\H,1.829227
 5792,4.1307117437,2.0028942424\H,2.0020925597,4.0154759808,0.412223333
 2\\Version=ES64L-G16RevA.03\State=1-A\HF=-233.9281129\RMSD=1.991e-09\R
 MSF=9.249e-06\ZeroPoint=0.1505801\Thermal=0.1505801\Dipole=0.0960071,2
 .8082274,1.3737813\DipoleDeriv=0.0579371,0.0440599,0.0100805,0.022565,
 -0.0407632,-0.0196306,-0.0087335,0.0548402,0.0924115,0.1236215,-0.0749
 205,-0.0412538,-0.0286537,0.2693574,0.0423306,-0.0065386,-0.089074,-0.
 0096753,0.0653603,0.0875432,-0.0308362,0.0789723,-0.2554359,-0.0625368
 ,-0.0142137,-0.1148243,-0.0033423,0.3301173,-0.2242084,-0.0115888,-0.2
 181609,1.2080747,0.175176,0.0021073,0.1451499,0.3123432,-0.3651597,0.2
 147823,0.0382142,0.1856186,-1.1099023,-0.1798222,0.0074303,-0.0988307,
 -0.4379938,0.0843676,0.0383005,-0.0106806,0.0361906,-0.0583529,-0.0203
 514,-0.0129262,-0.0136438,0.0368743,-0.0830182,0.0066664,-0.0548733,0.
 0382356,0.077471,-0.002657,-0.0126658,-0.028779,0.0299264,0.02157,-0.0
 600787,0.062533,-0.0700412,0.021682,0.0657439,0.0405637,0.01083,-0.025
 087,0.0170583,-0.0142294,0.0870822,-0.0046247,0.0019743,0.0118014,0.05
 99477,0.0372662,-0.0501762,-0.0761888,0.003783,-0.0723565,-0.0228059,0
 .0124641,-0.031476,-0.0579081,-0.0057425,0.0292502,0.030593,-0.0921445
 ,0.0350104,-0.04172,-0.0058263,0.0430086,0.0300601,0.0425176,-0.006812
 2,-0.0293393,0.0406077,-0.0224266,0.0086164,0.0744209,0.0008293,-0.015
 8115,-0.0172409,0.0348684,0.0569568,0.0296263,0.0518203,0.0292971,0.03
 02508,-0.0169262,0.0128097,-0.0013676,0.059404,0.0205508,-0.0019996,-0
 .0356195,-0.0247659,-0.0122267,-0.0269181,-0.0066677,0.000635,0.076728
 3,0.3909553,-0.007508,-0.0189898,-0.0017975,0.3632275,0.0824181,-0.029
 2041,0.16905,0.4529651,0.354618,0.0097198,0.0138846,0.0130744,0.423584
 6,-0.0609896,0.0117505,-0.0907861,0.4083154\Polar=44.0888489,-1.427492
 6,58.571366,-0.0348707,6.4895603,51.7003704\Quadrupole=-8.259846,10.38
 20536,-2.1222076,-0.110927,-0.3537574,7.1852585\PG=C01 [X(C4H11O1)]\NI
 mag=0\\0.58166692,-0.00793571,0.56818197,-0.00952823,-0.04208716,0.503
 65497,-0.08101031,-0.00726710,-0.01300580,0.59526631,-0.00847964,-0.09
 865528,-0.05069206,0.02854987,0.46034455,-0.01429043,-0.04599782,-0.17
 821479,-0.01128917,-0.03743225,0.52744472,0.00091158,-0.00256800,0.001
 16156,-0.08592686,0.02877875,-0.00334821,0.60480941,0.00582833,-0.0244
 5681,-0.00233634,0.02590363,-0.16233320,0.01091727,0.02691691,0.455619
 77,0.00944090,-0.03292716,0.00172726,-0.00527117,0.01790095,-0.0757993
 2,-0.00440476,-0.03619616,0.54599120,-0.00153658,0.00143466,0.00021685
 ,-0.00117855,0.00329788,0.00668638,-0.09069759,-0.01302761,-0.01868602
 ,0.62741637,0.00032599,-0.00360103,-0.00126553,0.00094451,-0.02485783,
 -0.01787497,-0.01713764,-0.07245919,-0.05264344,0.08971113,0.30893472,
 -0.00110682,0.00342445,-0.00207483,0.00525908,-0.01133079,0.00619323,-
 0.02664999,-0.02385526,-0.20669743,-0.02026612,-0.02905269,0.59247648,
 0.00028677,0.00037700,-0.00080971,0.00108505,-0.00140516,0.00139643,0.
 00066918,0.00304539,0.00240647,-0.06540126,0.00666465,-0.00449056,0.14
 124017,0.00175566,-0.00291748,0.00339844,-0.00446484,0.00408534,-0.012
 90069,0.01091344,-0.04147467,0.00369267,0.03286427,-0.06725039,0.01900
 158,0.06782684,0.51878355,0.00089504,-0.00266444,0.00145838,-0.0025040
 7,0.00112347,-0.00726699,0.01459620,-0.03881085,0.00591877,-0.00127730
 ,0.01169181,-0.09762064,-0.07377116,0.02580741,0.79394186,-0.06827801,
 0.07434765,-0.00613901,-0.00007273,-0.00498537,0.00060622,0.00010512,-
 0.00086989,-0.00095625,0.00057152,0.00014703,0.00018682,0.00006094,-0.
 00030618,-0.00018016,0.06946795,0.07366479,-0.30276575,0.02091188,0.00
 322409,-0.01218753,0.00140488,-0.00075623,0.00015178,-0.00275079,0.000
 29366,-0.00014237,0.00037838,0.00004551,-0.00046154,-0.00032117,-0.079
 79242,0.32536648,-0.00679828,0.02344031,-0.04879730,0.00868940,-0.0291
 0452,0.00203468,-0.00086612,-0.00328871,-0.00615803,0.00025464,-0.0001
 4927,0.00160534,0.00024736,-0.00161948,-0.00092490,0.00743408,-0.02079
 864,0.05326688,-0.29748705,0.00835380,-0.07459015,-0.00149220,0.000508
 97,-0.00050037,0.00056661,-0.00022019,0.00039336,0.00041331,0.00017601
 ,0.00024100,0.00003869,-0.00022451,-0.00009346,-0.00750271,-0.00036629
 ,-0.00151910,0.31930129,0.00892804,-0.04784978,0.00328167,-0.01534356,
 -0.00145623,-0.00500970,-0.00142499,0.00117337,0.00016116,-0.00007550,
 0.00020657,-0.00008260,0.00012294,-0.00004453,0.00011500,0.03042601,0.
 00087812,0.00897597,-0.00924739,0.04823813,-0.07277397,0.00286461,-0.0
 6968162,-0.02964239,0.00038898,-0.01037916,-0.00049985,0.00124061,0.00
 089701,-0.00004460,0.00057053,0.00007814,0.00018756,-0.00021591,0.0000
 3669,-0.00201755,0.00025984,-0.00158318,0.08221967,0.00010609,0.076520
 14,-0.13618921,-0.06786383,0.10763838,0.00298353,0.00278235,-0.0045110
 4,-0.00009162,0.00019335,0.00005566,0.00017388,0.00014242,-0.00023324,
 -0.00004032,0.00009436,0.00003763,0.00529100,0.00387505,-0.00771913,-0
 .01583956,-0.01399942,0.02217106,0.14224380,-0.06790791,-0.09982023,0.
 08362141,0.01048172,0.00567772,-0.01266402,0.00061566,0.00189466,-0.00
 053897,0.00003297,0.00023926,-0.00026422,-0.00006322,0.00002579,0.0002
 0246,-0.01899398,-0.01198849,0.02150346,0.00162294,-0.00018947,-0.0020
 6268,0.07450781,0.10513832,0.10635783,0.08223801,-0.17816399,0.0165535
 4,0.01244880,-0.02204450,0.00018898,0.00129692,0.00078831,-0.00032509,
 0.00046804,0.00031802,-0.00001059,-0.00034931,0.00008116,0.00060695,0.
 00072937,-0.00158659,-0.00541810,-0.00520318,0.00776341,-0.11659336,-0
 .08765486,0.19593513,0.00278268,0.00245047,-0.00353477,-0.13497152,-0.
 06811558,0.10258909,0.00564269,0.00577841,-0.00809790,0.00027144,-0.00
 001551,0.00010558,0.00004490,-0.00016715,-0.00025630,-0.00003871,0.000
 15225,0.00054695,0.00051961,0.00053520,0.00002236,0.00103000,-0.000142
 25,-0.00121652,0.13991704,0.00980095,0.00800081,-0.01234710,-0.0663826
 6,-0.10276665,0.08450358,-0.01745840,-0.01864032,0.02055177,-0.0011183
 1,-0.00095339,0.00249062,0.00038915,0.00071684,-0.00079942,0.00035537,
 0.00048298,0.00042514,-0.00018515,0.00025240,0.00075603,-0.00060835,-0
 .00105157,-0.00340288,0.07231539,0.11723179,0.01698384,0.01256670,-0.0
 2182882,0.10173179,0.08458331,-0.17265738,-0.00046083,0.00048646,-0.00
 097756,-0.00021114,-0.00104814,0.00047994,-0.00014464,0.00022215,0.000
 19899,0.00020849,-0.00004103,0.00112308,-0.00042802,0.00070449,0.00097
 137,-0.00149550,-0.00340390,-0.00426413,-0.11117360,-0.08880715,0.1894
 1405,-0.00209676,-0.00054371,-0.00092219,-0.29205445,0.01241211,-0.070
 29295,-0.00672476,0.00174214,-0.00105946,-0.00065713,-0.00023059,-0.00
 081587,0.00043017,-0.00000940,0.00036214,0.00015171,-0.00031242,-0.000
 13463,0.00158904,-0.00027088,-0.00028042,0.00051783,0.00008857,-0.0001
 9629,-0.01649038,0.00093676,-0.00495128,0.31363479,-0.01611410,0.00069
 190,-0.00499962,0.01094222,-0.04930505,0.00624762,0.03254690,-0.005072
 35,0.00823351,0.00233500,-0.00001687,0.00119340,-0.00070592,0.00065357
 ,-0.00020023,-0.00030369,0.00017454,0.00046469,0.00011930,-0.00094023,
 -0.00329660,0.00068113,0.00036739,0.00046251,-0.01447992,0.00102266,-0
 .00533184,-0.01578073,0.05737773,-0.02968681,0.00057800,-0.00965884,-0
 .06931736,0.00580135,-0.06848148,-0.00128933,0.00048328,-0.00168887,0.
 00095829,-0.00077779,0.00043636,-0.00005776,0.00028515,-0.00009670,0.0
 0041111,0.00015774,0.00126123,-0.00004795,-0.00297569,-0.00495857,0.00
 015062,0.00098989,0.00089200,0.02165609,-0.00236561,0.00690508,0.07797
 012,-0.00207238,0.07474391,0.00016065,-0.00025675,-0.00034543,0.004976
 56,0.00513023,-0.00599100,-0.13603658,-0.06987558,0.09986775,0.0030231
 0,0.00386638,-0.00428501,0.00010278,0.00038554,-0.00042867,-0.00002114
 ,0.00000537,-0.00024106,-0.00012308,-0.00005950,0.00015604,0.00005449,
 -0.00027441,0.00005316,0.00052127,0.00194473,-0.00014881,0.00059792,-0
 .00036196,-0.00046209,0.13999302,-0.00070746,0.00190923,0.00141502,-0.
 01845267,-0.01865929,0.02281842,-0.06864607,-0.09546773,0.08062320,0.0
 1112285,0.00385892,-0.01505044,0.00006568,0.00296708,-0.00021857,0.000
 32488,0.00033655,0.00001466,0.00003237,-0.00001459,-0.00009541,0.00040
 334,-0.00011690,-0.00108035,0.00279796,-0.00570550,-0.00038457,0.00020
 801,0.00145278,-0.00015565,0.07237224,0.11024685,-0.00055391,-0.000958
 18,0.00120136,0.00039302,0.00239815,-0.00103122,0.09856550,0.07771910,
 -0.17160707,0.01795704,0.01480569,-0.02418158,-0.00050171,0.00035080,0
 .00245141,-0.00018710,-0.00003094,-0.00009357,-0.00010047,0.00006015,-
 0.00002381,0.00039601,0.00017169,0.00019185,-0.00036494,-0.00042157,0.
 00053509,0.00000372,0.00008303,-0.00012639,-0.11006804,-0.08480581,0.1
 8881843,0.00062074,-0.00084241,0.00007681,-0.00840150,0.00190730,-0.00
 218393,-0.29789150,0.01057162,-0.06717745,-0.00243981,0.00045018,-0.00
 091425,0.00037766,-0.00061219,0.00045796,0.00030134,-0.00004670,-0.000
 01684,0.00011107,0.00038930,0.00048317,-0.00008986,0.00005163,-0.00005
 072,0.00069225,-0.00003431,-0.00000009,0.00121345,0.00143504,-0.000256
 10,-0.01486017,0.00124236,-0.00469748,0.31869024,0.00047431,0.00204193
 ,0.00116351,0.03265799,-0.00416490,0.00846490,0.01245230,-0.04400812,0
 .00573948,-0.01666907,-0.00300102,-0.00717850,-0.00024753,0.00170376,0
 .00107468,-0.00029936,0.00014846,0.00026423,-0.00071521,-0.00026311,-0
 .00065381,-0.00013918,-0.00004505,-0.00010356,-0.00053347,0.00132413,0
 .00019324,0.00108791,-0.00618417,0.00005612,-0.01372374,0.00000611,-0.
 00469108,-0.01453272,0.05302401,0.00116894,-0.00018285,0.00056546,-0.0
 0145558,0.00148547,-0.00038992,-0.06348750,0.00300414,-0.07050764,-0.0
 3287866,0.00182338,-0.01107727,0.00088026,0.00044363,0.00208722,-0.000
 01285,0.00005020,-0.00021092,-0.00027334,-0.00019353,0.00024439,0.0001
 0808,0.00007765,-0.00002372,-0.00044843,-0.00008962,-0.00013340,0.0000
 0243,-0.00022684,0.00043536,0.02143181,-0.00179321,0.00726109,0.074818
 33,-0.00175136,0.07524425,-0.00005689,0.00020866,-0.00014823,0.0003282
 9,0.00001055,0.00027202,0.00456858,0.00304220,-0.00386631,-0.16308188,
 -0.06931794,0.12785094,0.00692100,0.01194446,-0.01342344,-0.00003456,0
 .00000612,0.00009180,-0.00001050,-0.00003260,-0.00004589,-0.00003929,-
 0.00003058,-0.00001469,0.00015145,0.00013284,0.00013307,-0.00009397,-0
 .00011863,0.00008527,0.00119394,-0.00049992,-0.00156345,0.00071441,0.0
 0075730,-0.00004953,0.16269092,0.00017100,-0.00015985,-0.00008508,-0.0
 0023363,0.00221926,-0.00027523,0.01078466,0.00840372,-0.01153231,-0.05
 736077,-0.07874155,0.06396050,-0.01239318,-0.02726404,0.02757906,0.000
 01036,-0.00003339,-0.00001751,0.00000155,0.00006485,0.00002329,-0.0000
 8570,-0.00010963,0.00012927,-0.00038142,-0.00044764,0.00018088,0.00003
 176,-0.00007540,0.00011920,-0.00126625,-0.00147460,-0.00319151,-0.0004
 2299,0.00013520,0.00061370,0.06253970,0.09934159,-0.00026639,-0.000229
 43,0.00000258,-0.00005964,0.00120960,0.00074773,0.01749947,0.01007077,
 -0.01912893,0.12185944,0.07505390,-0.19649251,0.00044452,-0.00055245,0
 .00054619,-0.00004315,-0.00003448,0.00005929,0.00000207,0.00001645,-0.
 00004120,-0.00006585,0.00009543,0.00023873,0.00000386,-0.00088263,0.00
 035191,-0.00009636,-0.00009193,0.00002250,-0.00142467,-0.00296177,-0.0
 0343805,-0.00026314,0.00058958,0.00112655,-0.13079286,-0.07688138,0.20
 618555,0.00030760,-0.00009814,0.00006613,0.00039227,-0.00036633,-0.000
 02096,0.00011371,-0.00097621,-0.00049749,-0.31225166,-0.01907920,-0.07
 474500,-0.00169271,0.00299169,-0.00084633,-0.00001315,-0.00001766,-0.0
 0003894,-0.00005170,0.00009810,0.00009558,-0.00000835,-0.00000072,0.00
 000157,-0.00008633,0.00006424,-0.00007357,0.00009492,-0.00032014,-0.00
 003113,0.00066924,0.00001165,-0.00010399,0.00136227,0.00028977,0.00023
 213,-0.01285404,-0.00162751,-0.00640161,0.32532288,-0.00000880,-0.0002
 4880,-0.00003220,-0.00068977,0.00199301,0.00009602,-0.01562188,0.00141
 429,-0.00338883,-0.03261207,-0.04954285,-0.00696213,0.03643983,-0.0213
 7648,0.01132778,-0.00001603,-0.00004568,-0.00001541,0.00015283,-0.0000
 0880,0.00009115,-0.00001898,0.00006053,0.00004515,-0.00000566,-0.00003
 572,0.00006784,0.00061397,-0.00030894,-0.00013274,0.00100909,0.0003034
 2,0.00001794,0.00087153,-0.00073426,-0.00328554,-0.01086049,0.00375810
 ,-0.00502992,0.01815983,0.06264928,0.00022281,-0.00008894,-0.00016499,
 -0.00034894,0.00116874,0.00060074,-0.02883810,-0.00175686,-0.00602726,
 -0.07446442,-0.00467410,-0.07856661,-0.00110772,0.00046468,0.00016339,
 0.00010084,-0.00000371,0.00002805,0.00013977,0.00012475,0.00016235,-0.
 00002416,0.00000729,-0.00004335,0.00018303,-0.00004159,0.00001035,0.00
 055012,-0.00062878,0.00026821,0.00017694,0.00108333,0.00114637,0.00013
 119,-0.00291750,-0.00443783,0.02121207,0.00031014,0.00935120,0.0826281
 0,0.00700364,0.07748224,-0.00010121,0.00021681,-0.00013474,0.00070746,
 0.00013532,0.00074195,-0.00159232,0.00231427,-0.00073732,0.00147755,0.
 00268674,0.00952908,-0.02158355,-0.05165463,-0.07233795,0.00002104,0.0
 0002022,0.00007981,-0.00000181,-0.00000905,-0.00002228,-0.00000474,-0.
 00000056,0.00001872,0.00000060,0.00002218,0.00000571,-0.00005450,-0.00
 009681,-0.00000785,0.00004578,-0.00006881,-0.00015941,0.00024719,-0.00
 004875,-0.00010787,0.00026624,-0.00121819,-0.00009783,-0.00088848,0.00
 084166,0.00072785,0.02067782,0.00028828,-0.00066826,0.00036761,-0.0005
 9017,0.00070287,-0.00212739,0.00227655,-0.00656048,0.00264461,-0.00755
 148,-0.00550944,-0.01950091,-0.03593483,-0.20993851,-0.20231885,-0.000
 06445,-0.00000298,-0.00023673,-0.00002730,-0.00000083,0.00001837,0.000
 02921,0.00000670,0.00000184,-0.00010929,0.00001031,0.00003890,0.000114
 80,-0.00000396,-0.00000333,0.00027775,0.00038313,0.00011657,-0.0001122
 0,0.00026556,0.00038432,-0.00094333,-0.00056407,0.00018724,0.00067307,
 0.00155599,-0.00024385,0.03778862,0.20264075,-0.00015081,0.00033141,-0
 .00030015,0.00010592,0.00042752,0.00141636,-0.00079401,0.00206850,-0.0
 0141355,0.00376373,-0.00866163,0.01050471,-0.04423817,-0.18109208,-0.3
 4683691,0.00000579,0.00012029,0.00013976,0.00000732,-0.00002766,0.0000
 1572,0.00001388,-0.00003214,0.00000110,0.00003912,-0.00007044,-0.00001
 983,0.00001331,-0.00007086,-0.00001102,-0.00009608,-0.00008527,-0.0000
 0306,0.00001236,-0.00008826,-0.00012259,0.00028683,0.00111913,0.000160
 00,-0.00030884,0.00152147,0.00046514,0.05041758,0.20487770,0.35475725,
 0.00001907,-0.00001339,-0.00000147,-0.00063133,-0.00016125,0.00013596,
 0.00157434,-0.00036677,-0.00140999,0.00389730,0.00066584,-0.00966563,-
 0.06253948,-0.07133736,0.14876988,-0.00000961,0.00000466,-0.00000994,-
 0.00003101,-0.00003669,-0.00000848,0.00000842,0.00001232,0.00004461,0.
 00001301,-0.00017444,0.00002458,-0.00005786,0.00022232,-0.00007512,-0.
 00029778,-0.00020642,0.00098520,-0.00064778,-0.00081054,0.00007177,-0.
 00066370,0.00145061,-0.00029787,-0.00041647,0.00174494,-0.00128937,0.0
 0078295,0.00388477,-0.00907793,0.05899994,-0.00008374,0.00031742,-0.00
 031444,0.00072036,-0.00063679,-0.00017062,-0.00167196,0.00181529,0.000
 43030,-0.01267760,-0.00716354,0.02282862,-0.06422715,-0.15820830,0.166
 41186,0.00002008,0.00008882,0.00014180,0.00001825,-0.00004586,0.000004
 93,0.00000646,-0.00008904,-0.00002577,-0.00007942,0.00055888,-0.000027
 35,-0.00008831,0.00016640,0.00001244,0.00082687,-0.00002544,-0.0016240
 2,-0.00031544,-0.00024853,-0.00035954,0.00316168,-0.00505254,-0.000558
 97,0.00019754,0.00056692,0.00019275,0.00907099,0.01768326,-0.02033767,
 0.06512140,0.15027305,0.00008631,-0.00030752,0.00027532,0.00016138,-0.
 00037671,-0.00217269,-0.00137300,-0.00104286,0.00468310,-0.00354303,0.
 01173421,0.00461864,0.11956943,0.14306342,-0.35413791,-0.00002422,-0.0
 0003182,-0.00016382,-0.00003224,-0.00005336,-0.00002168,0.00007096,-0.
 00004849,-0.00008345,-0.00005361,0.00050084,-0.00010875,-0.00015240,0.
 00023434,0.00005721,0.00180516,0.00067642,-0.00110084,-0.00041982,-0.0
 0016167,-0.00006104,-0.00002760,-0.00205215,0.00030847,0.00004433,-0.0
 0132423,-0.00043800,0.01208457,0.01579389,-0.01875294,-0.12819619,-0.1
 6660432,0.36709837\\0.00000384,0.00000028,0.00000918,-0.00000123,0.000
 00040,-0.00001354,0.00000771,0.00000571,0.00001222,0.00000534,-0.00001
 474,-0.00002083,-0.00004355,0.00000666,-0.00000770,-0.00000203,-0.0000
 0087,0.00000072,-0.00000305,-0.00000114,-0.00000098,-0.00000099,-0.000
 00023,0.00000043,-0.00000229,0.00000318,0.00000314,0.00000604,-0.00000
 565,0.00000165,-0.00000458,0.00000015,0.00000236,-0.00000397,0.0000011
 8,0.00000102,0.00000148,-0.00000095,0.00000528,0.00000223,0.00000739,0
 .00000316,0.00001906,-0.00000314,0.00000121,0.00001600,0.00000178,0.00
 000270\\\@


 DO YOU KNOW THAT THE LETTERS IN "EPISCOPAL", WHEN
 REARRANGED, SPELL "PEPSI COLA"?
 Job cpu time:       0 days  0 hours 18 minutes  0.1 seconds.
 Elapsed time:       0 days  0 hours  0 minutes 45.6 seconds.
 File lengths (MBytes):  RWF=     54 Int=      0 D2E=      0 Chk=      4 Scr=      1
 Normal termination of Gaussian 16 at Sun Oct 13 21:39:00 2019.
real 117.95
user 2689.79
sys 14.82
Machine:
brown-a509
brown-a509
brown-a509
brown-a509
brown-a509
brown-a509
brown-a509
brown-a509
brown-a509
brown-a509
brown-a509
brown-a509
brown-a509
brown-a509
brown-a509
brown-a509
brown-a509
brown-a509
brown-a509
brown-a509
brown-a509
brown-a509
brown-a509
brown-a509
