Title Card Required                                                     
Freq      RM062X                                                      6-311++G(d,p)       
Number of atoms                            I               16
Info1-9                                    I   N=           9
          42          42        1002           0           0         100
           6          18        -502
Full Title                                 C   N=           2
Title Card Required     
Route                                      C   N=           6
#P opt freq m062x/6-311++g(d,p) geom=connectivity temperatur
e=0.001     
Charge                                     I                1
Multiplicity                               I                1
Number of electrons                        I               42
Number of alpha electrons                  I               21
Number of beta electrons                   I               21
Number of basis functions                  I              187
Number of independent functions            I              187
Number of point charges in /Mol/           I                0
Number of translation vectors              I                0
Atomic numbers                             I   N=          16
           6           6           6           6           8           1
           1           1           1           1           1           1
           1           1           1           1
Nuclear charges                            R   N=          16
  6.00000000E+00  6.00000000E+00  6.00000000E+00  6.00000000E+00  8.00000000E+00
  1.00000000E+00  1.00000000E+00  1.00000000E+00  1.00000000E+00  1.00000000E+00
  1.00000000E+00  1.00000000E+00  1.00000000E+00  1.00000000E+00  1.00000000E+00
  1.00000000E+00
Current cartesian coordinates              R   N=          48
 -4.83523516E+00 -6.28142631E-01 -2.11717479E-02 -2.46444751E+00  1.01456676E+00
  4.41529398E-02 -6.03722157E-02 -6.18684115E-01 -4.16109220E-02  2.22446683E+00
  1.06138403E+00  4.12990646E-02  4.57485126E+00 -6.42419053E-01 -1.45901441E-01
 -6.52472111E+00  5.47818487E-01  3.13333142E-02 -4.90458187E+00 -1.76229604E+00
 -1.74300362E+00 -4.90033016E+00 -1.90409202E+00  1.59890056E+00 -2.46361361E+00
  2.31198201E+00 -1.56451540E+00 -2.45492269E+00  2.16849003E+00  1.75904711E+00
 -6.20146879E-02 -1.90517020E+00  1.58209421E+00 -4.09025723E-02 -1.74409340E+00
 -1.77421778E+00  2.42878455E+00  2.27174420E+00 -1.60777787E+00  2.43985277E+00
  2.11163252E+00  1.79806983E+00  6.20163610E+00  2.01388134E-01  1.99583837E-02
  4.49553150E+00 -2.13279554E+00  9.31306791E-01
Number of symbols in /Mol/                 I                0
Force Field                                I                0
Atom Types                                 C   N=          16
                                                            
                                                            
                                                            
            
Int Atom Types                             I   N=          16
           0           0           0           0           0           0
           0           0           0           0           0           0
           0           0           0           0
MM charges                                 R   N=          16
  0.00000000E+00  0.00000000E+00  0.00000000E+00  0.00000000E+00  0.00000000E+00
  0.00000000E+00  0.00000000E+00  0.00000000E+00  0.00000000E+00  0.00000000E+00
  0.00000000E+00  0.00000000E+00  0.00000000E+00  0.00000000E+00  0.00000000E+00
  0.00000000E+00
Integer atomic weights                     I   N=          16
          12          12          12          12          16           1
           1           1           1           1           1           1
           1           1           1           1
Real atomic weights                        R   N=          16
  1.20000000E+01  1.20000000E+01  1.20000000E+01  1.20000000E+01  1.59949146E+01
  1.00782504E+00  1.00782504E+00  1.00782504E+00  1.00782504E+00  1.00782504E+00
  1.00782504E+00  1.00782504E+00  1.00782504E+00  1.00782504E+00  1.00782504E+00
  1.00782504E+00
Atom fragment info                         I   N=          16
           0           0           0           0           0           0
           0           0           0           0           0           0
           0           0           0           0
Atom residue num                           I   N=          16
           0           0           0           0           0           0
           0           0           0           0           0           0
           0           0           0           0
Nuclear spins                              I   N=          16
           0           0           0           0           0           1
           1           1           1           1           1           1
           1           1           1           1
Nuclear ZEff                               R   N=          16
 -3.60000000E+00 -3.60000000E+00 -3.60000000E+00 -3.60000000E+00 -5.60000000E+00
 -1.00000000E+00 -1.00000000E+00 -1.00000000E+00 -1.00000000E+00 -1.00000000E+00
 -1.00000000E+00 -1.00000000E+00 -1.00000000E+00 -1.00000000E+00 -1.00000000E+00
 -1.00000000E+00
Nuclear ZNuc                               R   N=          16
  6.00000000E+00  6.00000000E+00  6.00000000E+00  6.00000000E+00  8.00000000E+00
  1.00000000E+00  1.00000000E+00  1.00000000E+00  1.00000000E+00  1.00000000E+00
  1.00000000E+00  1.00000000E+00  1.00000000E+00  1.00000000E+00  1.00000000E+00
  1.00000000E+00
Nuclear QMom                               R   N=          16
  0.00000000E+00  0.00000000E+00  0.00000000E+00  0.00000000E+00  0.00000000E+00
  0.00000000E+00  0.00000000E+00  0.00000000E+00  0.00000000E+00  0.00000000E+00
  0.00000000E+00  0.00000000E+00  0.00000000E+00  0.00000000E+00  0.00000000E+00
  0.00000000E+00
Nuclear GFac                               R   N=          16
  0.00000000E+00  0.00000000E+00  0.00000000E+00  0.00000000E+00  0.00000000E+00
  2.79284600E+00  2.79284600E+00  2.79284600E+00  2.79284600E+00  2.79284600E+00
  2.79284600E+00  2.79284600E+00  2.79284600E+00  2.79284600E+00  2.79284600E+00
  2.79284600E+00
MicOpt                                     I   N=          16
          -1          -1          -1          -1          -1          -1
          -1          -1          -1          -1          -1          -1
          -1          -1          -1          -1
Number of residues                         I                0
Number of secondary structures             I                0
Redundant internal dimensions              I   N=           4
          75          15          27          33
Redundant internal coordinate indices      I   N=         300
           1           2           0           0           1           6
           0           0           1           7           0           0
           1           8           0           0           2           3
           0           0           2           9           0           0
           2          10           0           0           3           4
           0           0           3          11           0           0
           3          12           0           0           4           5
           0           0           4          13           0           0
           4          14           0           0           5          15
           0           0           5          16           0           0
           2           1           6           0           2           1
           7           0           2           1           8           0
           6           1           7           0           6           1
           8           0           7           1           8           0
           1           2           3           0           1           2
           9           0           1           2          10           0
           3           2           9           0           3           2
          10           0           9           2          10           0
           2           3           4           0           2           3
          11           0           2           3          12           0
           4           3          11           0           4           3
          12           0          11           3          12           0
           3           4           5           0           3           4
          13           0           3           4          14           0
           5           4          13           0           5           4
          14           0          13           4          14           0
           4           5          15           0           4           5
          16           0          15           5          16           0
           6           1           2           3           6           1
           2           9           6           1           2          10
           7           1           2           3           7           1
           2           9           7           1           2          10
           8           1           2           3           8           1
           2           9           8           1           2          10
           1           2           3           4           1           2
           3          11           1           2           3          12
           9           2           3           4           9           2
           3          11           9           2           3          12
          10           2           3           4          10           2
           3          11          10           2           3          12
           2           3           4           5           2           3
           4          13           2           3           4          14
          11           3           4           5          11           3
           4          13          11           3           4          14
          12           3           4           5          12           3
           4          13          12           3           4          14
           3           4           5          15           3           4
           5          16          13           4           5          15
          13           4           5          16          14           4
           5          15          14           4           5          16
Redundant internal coordinates             R   N=          75
  2.88502955E+00  2.05912703E+00  2.06296339E+00  2.06323011E+00  2.90765230E+00
  2.06666418E+00  2.06700064E+00  2.83725087E+00  2.07158574E+00  2.06611995E+00
  2.90900256E+00  2.05576561E+00  2.05807107E+00  1.84009483E+00  1.84062252E+00
  1.92674980E+00  1.93858759E+00  1.93935541E+00  1.88354267E+00  1.88312064E+00
  1.89053511E+00  1.93792399E+00  1.91788369E+00  1.91818137E+00  1.90639796E+00
  1.91159533E+00  1.87059253E+00  1.90959570E+00  1.90186583E+00  1.91610428E+00
  1.92353197E+00  1.91713563E+00  1.89549148E+00  1.87754124E+00  1.98802700E+00
  1.99478434E+00  1.78535408E+00  1.84342148E+00  1.95398798E+00  2.02630962E+00
  1.98424414E+00  1.93548100E+00 -3.13690107E+00 -1.02587339E+00  1.02853040E+00
 -1.04823027E+00  1.06279741E+00  3.11720120E+00  1.05764466E+00 -3.11451297E+00
 -1.06010918E+00 -3.13581092E+00 -1.03163775E+00  1.04225889E+00  1.02959503E+00
  3.13376819E+00 -1.07552047E+00 -1.01419803E+00  1.08997514E+00 -3.11931353E+00
 -3.10632616E+00 -1.14065219E+00  1.13610439E+00  1.08594474E+00  3.05161871E+00
 -9.54810022E-01 -1.00183910E+00  9.63834873E-01 -3.04259386E+00 -3.06019975E+00
 -7.83636613E-01  1.12388533E+00 -2.88273684E+00 -9.22943401E-01  1.35361973E+00
ZRed-IntVec                                I   N=          75
           0           0           0           0           0           0
           0           0           0           0           0           0
           0           0           0           0           0           0
           0           0           0           0           0           0
           0           0           0           0           0           0
           0           0           0           0           0           0
           0           0           0           0           0           0
           0           0           0           0           0           0
           0           0           0           0           0           0
           0           0           0           0           0           0
           0           0           0           0           0           0
           0           0           0           0           0           0
           0           0           0
ZRed-FPVec                                 R   N=          75
  0.00000000E+00  0.00000000E+00  0.00000000E+00  0.00000000E+00  0.00000000E+00
  0.00000000E+00  0.00000000E+00  0.00000000E+00  0.00000000E+00  0.00000000E+00
  0.00000000E+00  0.00000000E+00  0.00000000E+00  0.00000000E+00  0.00000000E+00
  0.00000000E+00  0.00000000E+00  0.00000000E+00  0.00000000E+00  0.00000000E+00
  0.00000000E+00  0.00000000E+00  0.00000000E+00  0.00000000E+00  0.00000000E+00
  0.00000000E+00  0.00000000E+00  0.00000000E+00  0.00000000E+00  0.00000000E+00
  0.00000000E+00  0.00000000E+00  0.00000000E+00  0.00000000E+00  0.00000000E+00
  0.00000000E+00  0.00000000E+00  0.00000000E+00  0.00000000E+00  0.00000000E+00
  0.00000000E+00  0.00000000E+00  0.00000000E+00  0.00000000E+00  0.00000000E+00
  0.00000000E+00  0.00000000E+00  0.00000000E+00  0.00000000E+00  0.00000000E+00
  0.00000000E+00  0.00000000E+00  0.00000000E+00  0.00000000E+00  0.00000000E+00
  0.00000000E+00  0.00000000E+00  0.00000000E+00  0.00000000E+00  0.00000000E+00
  0.00000000E+00  0.00000000E+00  0.00000000E+00  0.00000000E+00  0.00000000E+00
  0.00000000E+00  0.00000000E+00  0.00000000E+00  0.00000000E+00  0.00000000E+00
  0.00000000E+00  0.00000000E+00  0.00000000E+00  0.00000000E+00  0.00000000E+00
ZRed-Constraint1                           R   N=          75
  2.88502955E+00  2.05912703E+00  2.06296339E+00  2.06323011E+00  2.90765230E+00
  2.06666418E+00  2.06700064E+00  2.83725087E+00  2.07158574E+00  2.06611995E+00
  2.90900256E+00  2.05576561E+00  2.05807107E+00  1.84009483E+00  1.84062252E+00
  1.92674980E+00  1.93858759E+00  1.93935541E+00  1.88354267E+00  1.88312064E+00
  1.89053511E+00  1.93792399E+00  1.91788369E+00  1.91818137E+00  1.90639796E+00
  1.91159533E+00  1.87059253E+00  1.90959570E+00  1.90186583E+00  1.91610428E+00
  1.92353197E+00  1.91713563E+00  1.89549148E+00  1.87754124E+00  1.98802700E+00
  1.99478434E+00  1.78535408E+00  1.84342148E+00  1.95398798E+00  2.02630962E+00
  1.98424414E+00  1.93548100E+00 -3.13690107E+00 -1.02587339E+00  1.02853040E+00
 -1.04823027E+00  1.06279741E+00  3.11720120E+00  1.05764466E+00 -3.11451297E+00
 -1.06010918E+00 -3.13581092E+00 -1.03163775E+00  1.04225889E+00  1.02959503E+00
  3.13376819E+00 -1.07552047E+00 -1.01419803E+00  1.08997514E+00 -3.11931353E+00
 -3.10632616E+00 -1.14065219E+00  1.13610439E+00  1.08594474E+00  3.05161871E+00
 -9.54810022E-01 -1.00183910E+00  9.63834873E-01 -3.04259386E+00 -3.06019975E+00
 -7.83636613E-01  1.12388533E+00 -2.88273684E+00 -9.22943401E-01  1.35361973E+00
ZRed-Constraint2                           R   N=          75
  2.91740384E+00  2.05988946E+00  2.05986643E+00  2.05978762E+00  2.93110459E+00
  2.05989528E+00  2.05971019E+00  2.92071774E+00  2.05979810E+00  2.05976004E+00
  2.68683975E+00  2.05963273E+00  2.05991525E+00  1.81413709E+00  1.81413708E+00
  1.91069397E+00  1.91069429E+00  1.91072006E+00  1.91055067E+00  1.91058228E+00
  1.91055813E+00  1.96214300E+00  1.85105185E+00  1.85108978E+00  1.85403797E+00
  1.85413400E+00  2.09438232E+00  1.96796291E+00  1.85240579E+00  1.85247697E+00
  1.85022089E+00  1.85007726E+00  2.09447811E+00  1.92045860E+00  1.88656880E+00
  1.88650400E+00  1.83574272E+00  1.83552084E+00  2.09448561E+00  1.91063324E+00
  1.91063323E+00  1.91063324E+00 -2.79148062E+00 -7.72457088E-01  1.47254336E+00
 -6.97112069E-01  1.32191147E+00 -2.71627339E+00  1.39728161E+00 -2.86688016E+00
 -6.21879708E-01  3.14154552E+00 -1.12336331E+00  1.12339891E+00  1.12432356E+00
 -3.14058527E+00 -8.93823053E-01 -1.12431499E+00  8.93961491E-01  3.14072371E+00
  3.14149595E+00 -1.14585807E+00  1.14596337E+00  1.12191007E+00  3.11774136E+00
 -8.73622507E-01 -1.12210457E+00  8.73726720E-01 -3.11763715E+00  3.13222335E+00
 -1.05656686E+00  1.10422214E+00 -3.08456807E+00 -1.12315622E+00  9.71238884E-01
SymInf integers                            I   N=          26
           1           1           1           1           1           0
           0           0           0           0           0           0
           0           0           0           0           0           0
           0           0           0           0           0           0
           0           0
RotTr to input orientation                 R   N=          12
 -9.50201795E-02  8.63870789E-01  4.94670016E-01  3.00091201E-01 -4.48944461E-01
  8.41661536E-01  9.49166180E-01  2.28420950E-01 -2.16581240E-01  3.96664109E+00
  2.53435479E+00  5.51980107E-01
Number of contracted shells                I               85
Number of primitive shells                 I              142
Pure/Cartesian d shells                    I                0
Pure/Cartesian f shells                    I                0
Highest angular momentum                   I                2
Largest degree of contraction              I                6
Shell types                                I   N=          85
           0          -1          -1          -1          -1          -2
           0          -1          -1          -1          -1          -2
           0          -1          -1          -1          -1          -2
           0          -1          -1          -1          -1          -2
           0          -1          -1          -1          -1          -2
           0           0           0           0           1           0
           0           0           0           1           0           0
           0           0           1           0           0           0
           0           1           0           0           0           0
           1           0           0           0           0           1
           0           0           0           0           1           0
           0           0           0           1           0           0
           0           0           1           0           0           0
           0           1           0           0           0           0
           1
Number of primitives per shell             I   N=          85
           6           3           1           1           1           1
           6           3           1           1           1           1
           6           3           1           1           1           1
           6           3           1           1           1           1
           6           3           1           1           1           1
           3           1           1           1           1           3
           1           1           1           1           3           1
           1           1           1           3           1           1
           1           1           3           1           1           1
           1           3           1           1           1           1
           3           1           1           1           1           3
           1           1           1           1           3           1
           1           1           1           3           1           1
           1           1           3           1           1           1
           1
Shell to atom map                          I   N=          85
           1           1           1           1           1           1
           2           2           2           2           2           2
           3           3           3           3           3           3
           4           4           4           4           4           4
           5           5           5           5           5           5
           6           6           6           6           6           7
           7           7           7           7           8           8
           8           8           8           9           9           9
           9           9          10          10          10          10
          10          11          11          11          11          11
          12          12          12          12          12          13
          13          13          13          13          14          14
          14          14          14          15          15          15
          15          15          16          16          16          16
          16
Primitive exponents                        R   N=         142
  4.56324000E+03  6.82024000E+02  1.54973000E+02  4.44553000E+01  1.30290000E+01
  1.82773000E+00  2.09642000E+01  4.80331000E+00  1.45933000E+00  4.83456000E-01
  1.45585000E-01  4.38000000E-02  6.26000000E-01  4.56324000E+03  6.82024000E+02
  1.54973000E+02  4.44553000E+01  1.30290000E+01  1.82773000E+00  2.09642000E+01
  4.80331000E+00  1.45933000E+00  4.83456000E-01  1.45585000E-01  4.38000000E-02
  6.26000000E-01  4.56324000E+03  6.82024000E+02  1.54973000E+02  4.44553000E+01
  1.30290000E+01  1.82773000E+00  2.09642000E+01  4.80331000E+00  1.45933000E+00
  4.83456000E-01  1.45585000E-01  4.38000000E-02  6.26000000E-01  4.56324000E+03
  6.82024000E+02  1.54973000E+02  4.44553000E+01  1.30290000E+01  1.82773000E+00
  2.09642000E+01  4.80331000E+00  1.45933000E+00  4.83456000E-01  1.45585000E-01
  4.38000000E-02  6.26000000E-01  8.58850000E+03  1.29723000E+03  2.99296000E+02
  8.73771000E+01  2.56789000E+01  3.74004000E+00  4.21175000E+01  9.62837000E+00
  2.85332000E+00  9.05661000E-01  2.55611000E-01  8.45000000E-02  1.29200000E+00
  3.38650000E+01  5.09479000E+00  1.15879000E+00  3.25840000E-01  1.02741000E-01
  3.60000000E-02  7.50000000E-01  3.38650000E+01  5.09479000E+00  1.15879000E+00
  3.25840000E-01  1.02741000E-01  3.60000000E-02  7.50000000E-01  3.38650000E+01
  5.09479000E+00  1.15879000E+00  3.25840000E-01  1.02741000E-01  3.60000000E-02
  7.50000000E-01  3.38650000E+01  5.09479000E+00  1.15879000E+00  3.25840000E-01
  1.02741000E-01  3.60000000E-02  7.50000000E-01  3.38650000E+01  5.09479000E+00
  1.15879000E+00  3.25840000E-01  1.02741000E-01  3.60000000E-02  7.50000000E-01
  3.38650000E+01  5.09479000E+00  1.15879000E+00  3.25840000E-01  1.02741000E-01
  3.60000000E-02  7.50000000E-01  3.38650000E+01  5.09479000E+00  1.15879000E+00
  3.25840000E-01  1.02741000E-01  3.60000000E-02  7.50000000E-01  3.38650000E+01
  5.09479000E+00  1.15879000E+00  3.25840000E-01  1.02741000E-01  3.60000000E-02
  7.50000000E-01  3.38650000E+01  5.09479000E+00  1.15879000E+00  3.25840000E-01
  1.02741000E-01  3.60000000E-02  7.50000000E-01  3.38650000E+01  5.09479000E+00
  1.15879000E+00  3.25840000E-01  1.02741000E-01  3.60000000E-02  7.50000000E-01
  3.38650000E+01  5.09479000E+00  1.15879000E+00  3.25840000E-01  1.02741000E-01
  3.60000000E-02  7.50000000E-01
Contraction coefficients                   R   N=         142
  1.96665025E-03  1.52306019E-02  7.61269097E-02  2.60801033E-01  6.16462078E-01
  2.21006028E-01  1.14660081E-01  9.19999648E-01 -3.03068213E-03  1.00000000E+00
  1.00000000E+00  1.00000000E+00  1.00000000E+00  1.96665025E-03  1.52306019E-02
  7.61269097E-02  2.60801033E-01  6.16462078E-01  2.21006028E-01  1.14660081E-01
  9.19999648E-01 -3.03068213E-03  1.00000000E+00  1.00000000E+00  1.00000000E+00
  1.00000000E+00  1.96665025E-03  1.52306019E-02  7.61269097E-02  2.60801033E-01
  6.16462078E-01  2.21006028E-01  1.14660081E-01  9.19999648E-01 -3.03068213E-03
  1.00000000E+00  1.00000000E+00  1.00000000E+00  1.00000000E+00  1.96665025E-03
  1.52306019E-02  7.61269097E-02  2.60801033E-01  6.16462078E-01  2.21006028E-01
  1.14660081E-01  9.19999648E-01 -3.03068213E-03  1.00000000E+00  1.00000000E+00
  1.00000000E+00  1.00000000E+00  1.89515008E-03  1.43859006E-02  7.07320031E-02
  2.40001011E-01  5.94797026E-01  2.80802012E-01  1.13889012E-01  9.20811101E-01
 -3.27447036E-03  1.00000000E+00  1.00000000E+00  1.00000000E+00  1.00000000E+00
  2.54938145E-02  1.90373109E-01  8.52161486E-01  1.00000000E+00  1.00000000E+00
  1.00000000E+00  1.00000000E+00  2.54938145E-02  1.90373109E-01  8.52161486E-01
  1.00000000E+00  1.00000000E+00  1.00000000E+00  1.00000000E+00  2.54938145E-02
  1.90373109E-01  8.52161486E-01  1.00000000E+00  1.00000000E+00  1.00000000E+00
  1.00000000E+00  2.54938145E-02  1.90373109E-01  8.52161486E-01  1.00000000E+00
  1.00000000E+00  1.00000000E+00  1.00000000E+00  2.54938145E-02  1.90373109E-01
  8.52161486E-01  1.00000000E+00  1.00000000E+00  1.00000000E+00  1.00000000E+00
  2.54938145E-02  1.90373109E-01  8.52161486E-01  1.00000000E+00  1.00000000E+00
  1.00000000E+00  1.00000000E+00  2.54938145E-02  1.90373109E-01  8.52161486E-01
  1.00000000E+00  1.00000000E+00  1.00000000E+00  1.00000000E+00  2.54938145E-02
  1.90373109E-01  8.52161486E-01  1.00000000E+00  1.00000000E+00  1.00000000E+00
  1.00000000E+00  2.54938145E-02  1.90373109E-01  8.52161486E-01  1.00000000E+00
  1.00000000E+00  1.00000000E+00  1.00000000E+00  2.54938145E-02  1.90373109E-01
  8.52161486E-01  1.00000000E+00  1.00000000E+00  1.00000000E+00  1.00000000E+00
  2.54938145E-02  1.90373109E-01  8.52161486E-01  1.00000000E+00  1.00000000E+00
  1.00000000E+00  1.00000000E+00
P(S=P) Contraction coefficients            R   N=         142
  0.00000000E+00  0.00000000E+00  0.00000000E+00  0.00000000E+00  0.00000000E+00
  0.00000000E+00  4.02486927E-02  2.37593957E-01  8.15853851E-01  1.00000000E+00
  1.00000000E+00  1.00000000E+00  0.00000000E+00  0.00000000E+00  0.00000000E+00
  0.00000000E+00  0.00000000E+00  0.00000000E+00  0.00000000E+00  4.02486927E-02
  2.37593957E-01  8.15853851E-01  1.00000000E+00  1.00000000E+00  1.00000000E+00
  0.00000000E+00  0.00000000E+00  0.00000000E+00  0.00000000E+00  0.00000000E+00
  0.00000000E+00  0.00000000E+00  4.02486927E-02  2.37593957E-01  8.15853851E-01
  1.00000000E+00  1.00000000E+00  1.00000000E+00  0.00000000E+00  0.00000000E+00
  0.00000000E+00  0.00000000E+00  0.00000000E+00  0.00000000E+00  0.00000000E+00
  4.02486927E-02  2.37593957E-01  8.15853851E-01  1.00000000E+00  1.00000000E+00
  1.00000000E+00  0.00000000E+00  0.00000000E+00  0.00000000E+00  0.00000000E+00
  0.00000000E+00  0.00000000E+00  0.00000000E+00  3.65113974E-02  2.37152983E-01
  8.19701941E-01  1.00000000E+00  1.00000000E+00  1.00000000E+00  0.00000000E+00
  0.00000000E+00  0.00000000E+00  0.00000000E+00  0.00000000E+00  0.00000000E+00
  0.00000000E+00  0.00000000E+00  0.00000000E+00  0.00000000E+00  0.00000000E+00
  0.00000000E+00  0.00000000E+00  0.00000000E+00  0.00000000E+00  0.00000000E+00
  0.00000000E+00  0.00000000E+00  0.00000000E+00  0.00000000E+00  0.00000000E+00
  0.00000000E+00  0.00000000E+00  0.00000000E+00  0.00000000E+00  0.00000000E+00
  0.00000000E+00  0.00000000E+00  0.00000000E+00  0.00000000E+00  0.00000000E+00
  0.00000000E+00  0.00000000E+00  0.00000000E+00  0.00000000E+00  0.00000000E+00
  0.00000000E+00  0.00000000E+00  0.00000000E+00  0.00000000E+00  0.00000000E+00
  0.00000000E+00  0.00000000E+00  0.00000000E+00  0.00000000E+00  0.00000000E+00
  0.00000000E+00  0.00000000E+00  0.00000000E+00  0.00000000E+00  0.00000000E+00
  0.00000000E+00  0.00000000E+00  0.00000000E+00  0.00000000E+00  0.00000000E+00
  0.00000000E+00  0.00000000E+00  0.00000000E+00  0.00000000E+00  0.00000000E+00
  0.00000000E+00  0.00000000E+00  0.00000000E+00  0.00000000E+00  0.00000000E+00
  0.00000000E+00  0.00000000E+00  0.00000000E+00  0.00000000E+00  0.00000000E+00
  0.00000000E+00  0.00000000E+00  0.00000000E+00  0.00000000E+00  0.00000000E+00
  0.00000000E+00  0.00000000E+00
Coordinates of each shell                  R   N=         255
 -4.83523516E+00 -6.28142631E-01 -2.11717479E-02 -4.83523516E+00 -6.28142631E-01
 -2.11717479E-02 -4.83523516E+00 -6.28142631E-01 -2.11717479E-02 -4.83523516E+00
 -6.28142631E-01 -2.11717479E-02 -4.83523516E+00 -6.28142631E-01 -2.11717479E-02
 -4.83523516E+00 -6.28142631E-01 -2.11717479E-02 -2.46444751E+00  1.01456676E+00
  4.41529398E-02 -2.46444751E+00  1.01456676E+00  4.41529398E-02 -2.46444751E+00
  1.01456676E+00  4.41529398E-02 -2.46444751E+00  1.01456676E+00  4.41529398E-02
 -2.46444751E+00  1.01456676E+00  4.41529398E-02 -2.46444751E+00  1.01456676E+00
  4.41529398E-02 -6.03722157E-02 -6.18684115E-01 -4.16109220E-02 -6.03722157E-02
 -6.18684115E-01 -4.16109220E-02 -6.03722157E-02 -6.18684115E-01 -4.16109220E-02
 -6.03722157E-02 -6.18684115E-01 -4.16109220E-02 -6.03722157E-02 -6.18684115E-01
 -4.16109220E-02 -6.03722157E-02 -6.18684115E-01 -4.16109220E-02  2.22446683E+00
  1.06138403E+00  4.12990646E-02  2.22446683E+00  1.06138403E+00  4.12990646E-02
  2.22446683E+00  1.06138403E+00  4.12990646E-02  2.22446683E+00  1.06138403E+00
  4.12990646E-02  2.22446683E+00  1.06138403E+00  4.12990646E-02  2.22446683E+00
  1.06138403E+00  4.12990646E-02  4.57485126E+00 -6.42419053E-01 -1.45901441E-01
  4.57485126E+00 -6.42419053E-01 -1.45901441E-01  4.57485126E+00 -6.42419053E-01
 -1.45901441E-01  4.57485126E+00 -6.42419053E-01 -1.45901441E-01  4.57485126E+00
 -6.42419053E-01 -1.45901441E-01  4.57485126E+00 -6.42419053E-01 -1.45901441E-01
 -6.52472111E+00  5.47818487E-01  3.13333142E-02 -6.52472111E+00  5.47818487E-01
  3.13333142E-02 -6.52472111E+00  5.47818487E-01  3.13333142E-02 -6.52472111E+00
  5.47818487E-01  3.13333142E-02 -6.52472111E+00  5.47818487E-01  3.13333142E-02
 -4.90458187E+00 -1.76229604E+00 -1.74300362E+00 -4.90458187E+00 -1.76229604E+00
 -1.74300362E+00 -4.90458187E+00 -1.76229604E+00 -1.74300362E+00 -4.90458187E+00
 -1.76229604E+00 -1.74300362E+00 -4.90458187E+00 -1.76229604E+00 -1.74300362E+00
 -4.90033016E+00 -1.90409202E+00  1.59890056E+00 -4.90033016E+00 -1.90409202E+00