Title Card Required                                                     
Freq      RM062X                                                      6-311++G(d,p)       
Number of atoms                            I               13
Info1-9                                    I   N=           9
          36          36        1002           0           0         100
           6          18        -502
Full Title                                 C   N=           2
Title Card Required     
Route                                      C   N=           6
#p opt freq m062x/6-311++g(d,p) geom=connectivity temperatur
e=0.001     
Charge                                     I                0
Multiplicity                               I                1
Number of electrons                        I               50
Number of alpha electrons                  I               25
Number of beta electrons                   I               25
Number of basis functions                  I              196
Number of independent functions            I              196
Number of point charges in /Mol/           I                0
Number of translation vectors              I                0
Atomic numbers                             I   N=          13
           8           6           6           6           6           6
           6           1           1           1           1           1
           1
Nuclear charges                            R   N=          13
  8.00000000E+00  6.00000000E+00  6.00000000E+00  6.00000000E+00  6.00000000E+00
  6.00000000E+00  6.00000000E+00  1.00000000E+00  1.00000000E+00  1.00000000E+00
  1.00000000E+00  1.00000000E+00  1.00000000E+00
Current cartesian coordinates              R   N=          39
 -4.33881673E+00 -2.08353302E-01 -4.79037049E-04 -1.76913110E+00 -4.57123376E-02
 -2.22664513E-04 -4.17820277E-01 -2.30388316E+00  1.13465994E-04  2.20462123E+00
 -2.24162677E+00  1.69702742E-05  3.49669459E+00  5.17678924E-02 -3.70044465E-06
  2.13070000E+00  2.29554596E+00  2.62523300E-05 -4.97757505E-01  2.25859821E+00
 -1.79184348E-04 -5.06029653E+00  1.45750617E+00  3.92079002E-03 -1.44974193E+00
 -4.07091868E+00  8.05929414E-04  3.24756828E+00 -4.00411136E+00  2.11264118E-04
  5.54207464E+00  8.75746405E-02  3.92525635E-05  3.10773096E+00  4.09519029E+00
  1.97981500E-04 -1.56064319E+00  4.01344662E+00  1.50243024E-04
Number of symbols in /Mol/                 I                0
Force Field                                I                0
Atom Types                                 C   N=          13
                                                            
                                                            
                                    
Int Atom Types                             I   N=          13
           0           0           0           0           0           0
           0           0           0           0           0           0
           0
MM charges                                 R   N=          13
  0.00000000E+00  0.00000000E+00  0.00000000E+00  0.00000000E+00  0.00000000E+00
  0.00000000E+00  0.00000000E+00  0.00000000E+00  0.00000000E+00  0.00000000E+00
  0.00000000E+00  0.00000000E+00  0.00000000E+00
Integer atomic weights                     I   N=          13
          16          12          12          12          12          12
          12           1           1           1           1           1
           1
Real atomic weights                        R   N=          13
  1.59949146E+01  1.20000000E+01  1.20000000E+01  1.20000000E+01  1.20000000E+01
  1.20000000E+01  1.20000000E+01  1.00782504E+00  1.00782504E+00  1.00782504E+00
  1.00782504E+00  1.00782504E+00  1.00782504E+00
Atom fragment info                         I   N=          13
           0           0           0           0           0           0
           0           0           0           0           0           0
           0
Atom residue num                           I   N=          13
           0           0           0           0           0           0
           0           0           0           0           0           0
           0
Nuclear spins                              I   N=          13
           0           0           0           0           0           0
           0           1           1           1           1           1
           1
Nuclear ZEff                               R   N=          13
 -5.60000000E+00 -3.60000000E+00 -3.60000000E+00 -3.60000000E+00 -3.60000000E+00
 -3.60000000E+00 -3.60000000E+00 -1.00000000E+00 -1.00000000E+00 -1.00000000E+00
 -1.00000000E+00 -1.00000000E+00 -1.00000000E+00
Nuclear ZNuc                               R   N=          13
  8.00000000E+00  6.00000000E+00  6.00000000E+00  6.00000000E+00  6.00000000E+00
  6.00000000E+00  6.00000000E+00  1.00000000E+00  1.00000000E+00  1.00000000E+00
  1.00000000E+00  1.00000000E+00  1.00000000E+00
Nuclear QMom                               R   N=          13
  0.00000000E+00  0.00000000E+00  0.00000000E+00  0.00000000E+00  0.00000000E+00
  0.00000000E+00  0.00000000E+00  0.00000000E+00  0.00000000E+00  0.00000000E+00
  0.00000000E+00  0.00000000E+00  0.00000000E+00
Nuclear GFac                               R   N=          13
  0.00000000E+00  0.00000000E+00  0.00000000E+00  0.00000000E+00  0.00000000E+00
  0.00000000E+00  0.00000000E+00  2.79284600E+00  2.79284600E+00  2.79284600E+00
  2.79284600E+00  2.79284600E+00  2.79284600E+00
MicOpt                                     I   N=          13
          -1          -1          -1          -1          -1          -1
          -1          -1          -1          -1          -1          -1
          -1
Number of residues                         I                0
Number of secondary structures             I                0
Redundant internal dimensions              I   N=           4
          58          13          19          26
Redundant internal coordinate indices      I   N=         232
           1           2           0           0           1           8
           0           0           2           3           0           0
           2           7           0           0           3           4
           0           0           3           9           0           0
           4           5           0           0           4          10
           0           0           5           6           0           0
           5          11           0           0           6           7
           0           0           6          12           0           0
           7          13           0           0           2           1
           8           0           1           2           3           0
           1           2           7           0           3           2
           7           0           2           3           4           0
           2           3           9           0           4           3
           9           0           3           4           5           0
           3           4          10           0           5           4
          10           0           4           5           6           0
           4           5          11           0           6           5
          11           0           5           6           7           0
           5           6          12           0           7           6
          12           0           2           7           6           0
           2           7          13           0           6           7
          13           0           8           1           2           3
           8           1           2           7           1           2
           3           4           1           2           3           9
           7           2           3           4           7           2
           3           9           1           2           7           6
           1           2           7          13           3           2
           7           6           3           2           7          13
           2           3           4           5           2           3
           4          10           9           3           4           5
           9           3           4          10           3           4
           5           6           3           4           5          11
          10           4           5           6          10           4
           5          11           4           5           6           7
           4           5           6          12          11           5
           6           7          11           5           6          12
           5           6           7           2           5           6
           7          13          12           6           7           2
          12           6           7          13
Redundant internal coordinates             R   N=          58
  2.57482744E+00  1.81538983E+00  2.63161101E+00  2.63177467E+00  2.62318038E+00
  2.04628378E+00  2.63232077E+00  2.04794788E+00  2.62687670E+00  2.04569345E+00
  2.62871718E+00  2.04775713E+00  2.05163814E+00  1.91629654E+00  2.04683766E+00
  2.13818007E+00  2.09816757E+00  2.08631010E+00  2.07378321E+00  2.12309199E+00
  2.10759626E+00  2.08139081E+00  2.09419822E+00  2.08166883E+00  2.10136523E+00
  2.10015124E+00  2.10359972E+00  2.09735581E+00  2.08222978E+00  2.08902811E+00
  2.09282746E+00  2.10132971E+00  3.13888860E+00 -2.65554720E-03  3.14143183E+00
 -3.62131810E-04 -2.08160397E-04  3.14118318E+00 -3.14156566E+00  2.83276821E-04
  7.68896727E-05 -3.14125948E+00  1.80403583E-04 -3.14155435E+00 -3.14120507E+00
  2.45482702E-04 -2.06606467E-05  3.14152557E+00 -3.14147018E+00  7.60545764E-05
 -1.12843960E-04  3.14148689E+00  3.14152620E+00 -5.93762791E-05  8.48665492E-05
  3.14141997E+00 -3.14151480E+00 -1.79698003E-04
ZRed-IntVec                                I   N=          58
           0           0           0           0           0           0
           0           0           0           0           0           0
           0           0           0           0           0           0
           0           0           0           0           0           0
           0           0           0           0           0           0
           0           0           0           0           0           0
           0           0           0           0           0           0
           0           0           0           0           0           0
           0           0           0           0           0           0
           0           0           0           0
ZRed-FPVec                                 R   N=          58
  0.00000000E+00  0.00000000E+00  0.00000000E+00  0.00000000E+00  0.00000000E+00
  0.00000000E+00  0.00000000E+00  0.00000000E+00  0.00000000E+00  0.00000000E+00
  0.00000000E+00  0.00000000E+00  0.00000000E+00  0.00000000E+00  0.00000000E+00
  0.00000000E+00  0.00000000E+00  0.00000000E+00  0.00000000E+00  0.00000000E+00
  0.00000000E+00  0.00000000E+00  0.00000000E+00  0.00000000E+00  0.00000000E+00
  0.00000000E+00  0.00000000E+00  0.00000000E+00  0.00000000E+00  0.00000000E+00
  0.00000000E+00  0.00000000E+00  0.00000000E+00  0.00000000E+00  0.00000000E+00
  0.00000000E+00  0.00000000E+00  0.00000000E+00  0.00000000E+00  0.00000000E+00
  0.00000000E+00  0.00000000E+00  0.00000000E+00  0.00000000E+00  0.00000000E+00
  0.00000000E+00  0.00000000E+00  0.00000000E+00  0.00000000E+00  0.00000000E+00
  0.00000000E+00  0.00000000E+00  0.00000000E+00  0.00000000E+00  0.00000000E+00
  0.00000000E+00  0.00000000E+00  0.00000000E+00
ZRed-Constraint1                           R   N=          58
  2.57482744E+00  1.81538983E+00  2.63161101E+00  2.63177467E+00  2.62318038E+00
  2.04628378E+00  2.63232077E+00  2.04794788E+00  2.62687670E+00  2.04569345E+00
  2.62871718E+00  2.04775713E+00  2.05163814E+00  1.91629654E+00  2.04683766E+00
  2.13818007E+00  2.09816757E+00  2.08631010E+00  2.07378321E+00  2.12309199E+00
  2.10759626E+00  2.08139081E+00  2.09419822E+00  2.08166883E+00  2.10136523E+00
  2.10015124E+00  2.10359972E+00  2.09735581E+00  2.08222978E+00  2.08902811E+00
  2.09282746E+00  2.10132971E+00  3.13888860E+00 -2.65554720E-03  3.14143183E+00
 -3.62131810E-04 -2.08160397E-04  3.14118318E+00 -3.14156566E+00  2.83276821E-04
  7.68896727E-05 -3.14125948E+00  1.80403583E-04 -3.14155435E+00 -3.14120507E+00
  2.45482701E-04 -2.06606467E-05  3.14152557E+00 -3.14147018E+00  7.60545764E-05
 -1.12843960E-04  3.14148689E+00  3.14152620E+00 -5.93762791E-05  8.48665492E-05
  3.14141997E+00 -3.14151480E+00 -1.79698003E-04
ZRed-Constraint2                           R   N=          58
  2.56221533E+00  1.81418800E+00  2.66231850E+00  2.66225591E+00  2.66295153E+00
  2.05980752E+00  2.65979052E+00  2.05987466E+00  2.66003880E+00  2.05969292E+00
  2.66288918E+00  2.05980337E+00  2.05982342E+00  1.91053508E+00  2.09704595E+00
  2.09706723E+00  2.08897944E+00  2.09742754E+00  2.09268515E+00  2.09307262E+00
  2.09457708E+00  2.09526167E+00  2.09334656E+00  2.09339184E+00  2.09492393E+00
  2.09486954E+00  2.09454718E+00  2.09324631E+00  2.09539181E+00  2.09744422E+00
  2.09275183E+00  2.09298926E+00  3.12691711E+00  0.00000000E+00 -3.12427860E+00
  1.73914258E-02  2.70665826E-03 -3.13880862E+00  3.12427834E+00 -1.73916595E-02
 -2.70673641E-03  3.13880857E+00 -1.64649373E-03  3.13996298E+00  3.13986877E+00
 -1.70706034E-03  5.73206047E-04 -3.14107525E+00 -3.14103625E+00  5.00603885E-04
 -5.73247945E-04  3.14103645E+00  3.14107520E+00 -5.00402460E-04  1.64661102E-03
 -3.13986869E+00 -3.13996311E+00  1.70689830E-03
SymInf integers                            I   N=          26
           1           1           1           1           1           0
           0           0           0           0           0           0
           0           0           0           0           0           0
           0           0           0           0           0           0
           0           0
RotTr to input orientation                 R   N=          12
  4.79304495E-01  8.77645733E-01  2.27346740E-03  8.77648417E-01 -4.79304741E-01
 -4.70474814E-04  6.76773491E-04  2.22080576E-03 -9.99997305E-01  9.16886675E-01
  1.52113240E+00 -2.63346488E-03
Number of contracted shells                I               72
Number of primitive shells                 I              133
Pure/Cartesian d shells                    I                0
Pure/Cartesian f shells                    I                0
Highest angular momentum                   I                2
Largest degree of contraction              I                6
Shell types                                I   N=          72
           0          -1          -1          -1          -1          -2
           0          -1          -1          -1          -1          -2
           0          -1          -1          -1          -1          -2
           0          -1          -1          -1          -1          -2
           0          -1          -1          -1          -1          -2
           0          -1          -1          -1          -1          -2
           0          -1          -1          -1          -1          -2
           0           0           0           0           1           0
           0           0           0           1           0           0
           0           0           1           0           0           0
           0           1           0           0           0           0
           1           0           0           0           0           1
Number of primitives per shell             I   N=          72
           6           3           1           1           1           1
           6           3           1           1           1           1
           6           3           1           1           1           1
           6           3           1           1           1           1
           6           3           1           1           1           1
           6           3           1           1           1           1
           6           3           1           1           1           1
           3           1           1           1           1           3
           1           1           1           1           3           1
           1           1           1           3           1           1
           1           1           3           1           1           1
           1           3           1           1           1           1
Shell to atom map                          I   N=          72
           1           1           1           1           1           1
           2           2           2           2           2           2
           3           3           3           3           3           3
           4           4           4           4           4           4
           5           5           5           5           5           5
           6           6           6           6           6           6
           7           7           7           7           7           7
           8           8           8           8           8           9
           9           9           9           9          10          10
          10          10          10          11          11          11
          11          11          12          12          12          12
          12          13          13          13          13          13
Primitive exponents                        R   N=         133
  8.58850000E+03  1.29723000E+03  2.99296000E+02  8.73771000E+01  2.56789000E+01
  3.74004000E+00  4.21175000E+01  9.62837000E+00  2.85332000E+00  9.05661000E-01
  2.55611000E-01  8.45000000E-02  1.29200000E+00  4.56324000E+03  6.82024000E+02
  1.54973000E+02  4.44553000E+01  1.30290000E+01  1.82773000E+00  2.09642000E+01
  4.80331000E+00  1.45933000E+00  4.83456000E-01  1.45585000E-01  4.38000000E-02
  6.26000000E-01  4.56324000E+03  6.82024000E+02  1.54973000E+02  4.44553000E+01
  1.30290000E+01  1.82773000E+00  2.09642000E+01  4.80331000E+00  1.45933000E+00
  4.83456000E-01  1.45585000E-01  4.38000000E-02  6.26000000E-01  4.56324000E+03
  6.82024000E+02  1.54973000E+02  4.44553000E+01  1.30290000E+01  1.82773000E+00
  2.09642000E+01  4.80331000E+00  1.45933000E+00  4.83456000E-01  1.45585000E-01
  4.38000000E-02  6.26000000E-01  4.56324000E+03  6.82024000E+02  1.54973000E+02
  4.44553000E+01  1.30290000E+01  1.82773000E+00  2.09642000E+01  4.80331000E+00
  1.45933000E+00  4.83456000E-01  1.45585000E-01  4.38000000E-02  6.26000000E-01
  4.56324000E+03  6.82024000E+02  1.54973000E+02  4.44553000E+01  1.30290000E+01
  1.82773000E+00  2.09642000E+01  4.80331000E+00  1.45933000E+00  4.83456000E-01
  1.45585000E-01  4.38000000E-02  6.26000000E-01  4.56324000E+03  6.82024000E+02
  1.54973000E+02  4.44553000E+01  1.30290000E+01  1.82773000E+00  2.09642000E+01
  4.80331000E+00  1.45933000E+00  4.83456000E-01  1.45585000E-01  4.38000000E-02
  6.26000000E-01  3.38650000E+01  5.09479000E+00  1.15879000E+00  3.25840000E-01
  1.02741000E-01  3.60000000E-02  7.50000000E-01  3.38650000E+01  5.09479000E+00
  1.15879000E+00  3.25840000E-01  1.02741000E-01  3.60000000E-02  7.50000000E-01
  3.38650000E+01  5.09479000E+00  1.15879000E+00  3.25840000E-01  1.02741000E-01
  3.60000000E-02  7.50000000E-01  3.38650000E+01  5.09479000E+00  1.15879000E+00
  3.25840000E-01  1.02741000E-01  3.60000000E-02  7.50000000E-01  3.38650000E+01
  5.09479000E+00  1.15879000E+00  3.25840000E-01  1.02741000E-01  3.60000000E-02
  7.50000000E-01  3.38650000E+01  5.09479000E+00  1.15879000E+00  3.25840000E-01
  1.02741000E-01  3.60000000E-02  7.50000000E-01
Contraction coefficients                   R   N=         133
  1.89515008E-03  1.43859006E-02  7.07320031E-02  2.40001011E-01  5.94797026E-01
  2.80802012E-01  1.13889012E-01  9.20811101E-01 -3.27447036E-03  1.00000000E+00
  1.00000000E+00  1.00000000E+00  1.00000000E+00  1.96665025E-03  1.52306019E-02
  7.61269097E-02  2.60801033E-01  6.16462078E-01  2.21006028E-01  1.14660081E-01
  9.19999648E-01 -3.03068213E-03  1.00000000E+00  1.00000000E+00  1.00000000E+00
  1.00000000E+00  1.96665025E-03  1.52306019E-02  7.61269097E-02  2.60801033E-01
  6.16462078E-01  2.21006028E-01  1.14660081E-01  9.19999648E-01 -3.03068213E-03
  1.00000000E+00  1.00000000E+00  1.00000000E+00  1.00000000E+00  1.96665025E-03
  1.52306019E-02  7.61269097E-02  2.60801033E-01  6.16462078E-01  2.21006028E-01
  1.14660081E-01  9.19999648E-01 -3.03068213E-03  1.00000000E+00  1.00000000E+00
  1.00000000E+00  1.00000000E+00  1.96665025E-03  1.52306019E-02  7.61269097E-02
  2.60801033E-01  6.16462078E-01  2.21006028E-01  1.14660081E-01  9.19999648E-01
 -3.03068213E-03  1.00000000E+00  1.00000000E+00  1.00000000E+00  1.00000000E+00
  1.96665025E-03  1.52306019E-02  7.61269097E-02  2.60801033E-01  6.16462078E-01
  2.21006028E-01  1.14660081E-01  9.19999648E-01 -3.03068213E-03  1.00000000E+00
  1.00000000E+00  1.00000000E+00  1.00000000E+00  1.96665025E-03  1.52306019E-02
  7.61269097E-02  2.60801033E-01  6.16462078E-01  2.21006028E-01  1.14660081E-01
  9.19999648E-01 -3.03068213E-03  1.00000000E+00  1.00000000E+00  1.00000000E+00
  1.00000000E+00  2.54938145E-02  1.90373109E-01  8.52161486E-01  1.00000000E+00
  1.00000000E+00  1.00000000E+00  1.00000000E+00  2.54938145E-02  1.90373109E-01
  8.52161486E-01  1.00000000E+00  1.00000000E+00  1.00000000E+00  1.00000000E+00
  2.54938145E-02  1.90373109E-01  8.52161486E-01  1.00000000E+00  1.00000000E+00
  1.00000000E+00  1.00000000E+00  2.54938145E-02  1.90373109E-01  8.52161486E-01
  1.00000000E+00  1.00000000E+00  1.00000000E+00  1.00000000E+00  2.54938145E-02
  1.90373109E-01  8.52161486E-01  1.00000000E+00  1.00000000E+00  1.00000000E+00
  1.00000000E+00  2.54938145E-02  1.90373109E-01  8.52161486E-01  1.00000000E+00
  1.00000000E+00  1.00000000E+00  1.00000000E+00
P(S=P) Contraction coefficients            R   N=         133
  0.00000000E+00  0.00000000E+00  0.00000000E+00  0.00000000E+00  0.00000000E+00
  0.00000000E+00  3.65113974E-02  2.37152983E-01  8.19701941E-01  1.00000000E+00
  1.00000000E+00  1.00000000E+00  0.00000000E+00  0.00000000E+00  0.00000000E+00
  0.00000000E+00  0.00000000E+00  0.00000000E+00  0.00000000E+00  4.02486927E-02
  2.37593957E-01  8.15853851E-01  1.00000000E+00  1.00000000E+00  1.00000000E+00
  0.00000000E+00  0.00000000E+00  0.00000000E+00  0.00000000E+00  0.00000000E+00
  0.00000000E+00  0.00000000E+00  4.02486927E-02  2.37593957E-01  8.15853851E-01
  1.00000000E+00  1.00000000E+00  1.00000000E+00  0.00000000E+00  0.00000000E+00
  0.00000000E+00  0.00000000E+00  0.00000000E+00  0.00000000E+00  0.00000000E+00
  4.02486927E-02  2.37593957E-01  8.15853851E-01  1.00000000E+00  1.00000000E+00
  1.00000000E+00  0.00000000E+00  0.00000000E+00  0.00000000E+00  0.00000000E+00
  0.00000000E+00  0.00000000E+00  0.00000000E+00  4.02486927E-02  2.37593957E-01
  8.15853851E-01  1.00000000E+00  1.00000000E+00  1.00000000E+00  0.00000000E+00
  0.00000000E+00  0.00000000E+00  0.00000000E+00  0.00000000E+00  0.00000000E+00
  0.00000000E+00  4.02486927E-02  2.37593957E-01  8.15853851E-01  1.00000000E+00
  1.00000000E+00  1.00000000E+00  0.00000000E+00  0.00000000E+00  0.00000000E+00
  0.00000000E+00  0.00000000E+00  0.00000000E+00  0.00000000E+00  4.02486927E-02
  2.37593957E-01  8.15853851E-01  1.00000000E+00  1.00000000E+00  1.00000000E+00
  0.00000000E+00  0.00000000E+00  0.00000000E+00  0.00000000E+00  0.00000000E+00
  0.00000000E+00  0.00000000E+00  0.00000000E+00  0.00000000E+00  0.00000000E+00
  0.00000000E+00  0.00000000E+00  0.00000000E+00  0.00000000E+00  0.00000000E+00
  0.00000000E+00  0.00000000E+00  0.00000000E+00  0.00000000E+00  0.00000000E+00
  0.00000000E+00  0.00000000E+00  0.00000000E+00  0.00000000E+00  0.00000000E+00
  0.00000000E+00  0.00000000E+00  0.00000000E+00  0.00000000E+00  0.00000000E+00
  0.00000000E+00  0.00000000E+00  0.00000000E+00  0.00000000E+00  0.00000000E+00
  0.00000000E+00  0.00000000E+00  0.00000000E+00  0.00000000E+00  0.00000000E+00
  0.00000000E+00  0.00000000E+00  0.00000000E+00
Coordinates of each shell                  R   N=         216
 -4.33881673E+00 -2.08353302E-01 -4.79037049E-04 -4.33881673E+00 -2.08353302E-01
 -4.79037049E-04 -4.33881673E+00 -2.08353302E-01 -4.79037049E-04 -4.33881673E+00
 -2.08353302E-01 -4.79037049E-04 -4.33881673E+00 -2.08353302E-01 -4.79037049E-04
 -4.33881673E+00 -2.08353302E-01 -4.79037049E-04 -1.76913110E+00 -4.57123376E-02
 -2.22664513E-04 -1.76913110E+00 -4.57123376E-02 -2.22664513E-04 -1.76913110E+00
 -4.57123376E-02 -2.22664513E-04 -1.76913110E+00 -4.57123376E-02 -2.22664513E-04
 -1.76913110E+00 -4.57123376E-02 -2.22664513E-04 -1.76913110E+00 -4.57123376E-02
 -2.22664513E-04 -4.17820277E-01 -2.30388316E+00  1.13465994E-04 -4.17820277E-01
 -2.30388316E+00  1.13465994E-04 -4.17820277E-01 -2.30388316E+00  1.13465994E-04
 -4.17820277E-01 -2.30388316E+00  1.13465994E-04 -4.17820277E-01 -2.30388316E+00
  1.13465994E-04 -4.17820277E-01 -2.30388316E+00  1.13465994E-04  2.20462123E+00
 -2.24162677E+00  1.69702742E-05  2.20462123E+00 -2.24162677E+00  1.69702742E-05
  2.20462123E+00 -2.24162677E+00  1.69702742E-05  2.20462123E+00 -2.24162677E+00
  1.69702742E-05  2.20462123E+00 -2.24162677E+00  1.69702742E-05  2.20462123E+00
 -2.24162677E+00  1.69702742E-05  3.49669459E+00  5.17678924E-02 -3.70044465E-06
  3.49669459E+00  5.17678924E-02 -3.70044465E-06  3.49669459E+00  5.17678924E-02
 -3.70044465E-06  3.49669459E+00  5.17678924E-02 -3.70044465E-06  3.49669459E+00
  5.17678924E-02 -3.70044465E-06  3.49669459E+00  5.17678924E-02 -3.70044465E-06
  2.13070000E+00  2.29554596E+00  2.62523300E-05  2.13070000E+00  2.29554596E+00
  2.62523300E-05  2.13070000E+00  2.29554596E+00  2.62523300E-05  2.13070000E+00
  2.29554596E+00  2.62523300E-05  2.13070000E+00  2.29554596E+00  2.62523300E-05
  2.13070000E+00  2.29554596E+00  2.62523300E-05 -4.97757505E-01  2.25859821E+00
 -1.79184348E-04 -4.97757505E-01  2.25859821E+00 -1.79184348E-04 -4.97757505E-01
  2.25859821E+00 -1.79184348E-04 -4.97757505E-01  2.25859821E+00 -1.79184348E-04
 -4.97757505E-01  2.25859821E+00 -1.79184348E-04 -4.97757505E-01  2.25859821E+00
 -1.79184348E-04 -5.06029653E+00  1.45750617E+00  3.92079002E-03 -5.06029653E+00
  1.45750617E+00  3.92079002E-03 -5.06029653E+00  1.45750617E+00  3.92079002E-03
 -5.06029653E+00  1.45750617E+00  3.92079002E-03 -5.06029653E+00  1.45750617E+00
  3.92079002E-03 -1.44974193E+00 -4.07091868E+00  8.05929414E-04 -1.44974193E+00
 -4.07091868E+00  8.05929414E-04 -1.44974193E+00 -4.07091868E+00  8.05929414E-04
 -1.44974193E+00 -4.07091868E+00  8.05929414E-04 -1.44974193E+00 -4.07091868E+00
  8.05929414E-04  3.24756828E+00 -4.00411136E+00  2.11264118E-04  3.24756828E+00
 -4.00411136E+00  2.11264118E-04  3.24756828E+00 -4.00411136E+00  2.11264118E-04
  3.24756828E+00 -4.00411136E+00  2.11264118E-04  3.24756828E+00 -4.00411136E+00
  2.11264118E-04  5.54207464E+00  8.75746405E-02  3.92525635E-05  5.54207464E+00
  8.75746405E-02  3.92525635E-05  5.54207464E+00  8.75746405E-02  3.92525635E-05
  5.54207464E+00  8.75746405E-02  3.92525635E-05  5.54207464E+00  8.75746405E-02
  3.92525635E-05  3.10773096E+00  4.09519029E+00  1.97981500E-04  3.10773096E+00
  4.09519029E+00  1.97981500E-04  3.10773096E+00  4.09519029E+00  1.97981500E-04
  3.10773096E+00  4.09519029E+00  1.97981500E-04  3.10773096E+00  4.09519029E+00
  1.97981500E-04 -1.56064319E+00  4.01344662E+00  1.50243024E-04 -1.56064319E+00
  4.01344662E+00  1.50243024E-04 -1.56064319E+00  4.01344662E+00  1.50243024E-04
 -1.56064319E+00  4.01344662E+00  1.50243024E-04 -1.56064319E+00  4.01344662E+00
  1.50243024E-04
Num ILSW                                   I              100
ILSW                                       I   N=         100
           0           0           0           0           2           0
           0           0           0           0        4336          -1
           5           0           0           0           2           0
           0           0           0           0           1           0
           1           0           0           0           0           0
           0           0      100000           0          -1           0
           0           0           0           0           0           0
           0           0           0           1           0           0
           0 -2000000000           1           0           0           0
           0           0           4          52           0           0
           0           0          55           0           0           0
           0           0           0          13           0           1
           0           0           0           0           0           0
           0           0           0           0           0           0
           0           0           0           0           0           0
           0           0           0           0           0           0
           0           0           0           0
Num RLSW                                   I               52
RLSW                                       R   N=          52
  1.00000000E+00  1.00000000E+00  1.00000000E+00  1.00000000E+00  5.40000000E-01
  0.00000000E+00  0.00000000E+00  1.00000000E+00  0.00000000E+00  0.00000000E+00
  0.00000000E+00  0.00000000E+00  1.00000000E+00  0.00000000E+00  0.00000000E+00
  0.00000000E+00  0.00000000E+00  1.00000000E+00  0.00000000E+00  0.00000000E+00
  0.00000000E+00  0.00000000E+00  1.00000000E+00  0.00000000E+00  0.00000000E+00
  0.00000000E+00  0.00000000E+00  1.00000000E+00  0.00000000E+00  0.00000000E+00
  0.00000000E+00  0.00000000E+00  1.00000000E+00  0.00000000E+00  0.00000000E+00
  0.00000000E+00  0.00000000E+00  0.00000000E+00  1.00000000E+00  1.00000000E+00
  0.00000000E+00  1.00000000E+00  0.00000000E+00  0.00000000E+00  0.00000000E+00
  0.00000000E+00  0.00000000E+00  0.00000000E+00  0.00000000E+00  0.00000000E+00
  0.00000000E+00  0.00000000E+00
MxBond                                     I                3