 Entering Gaussian System, Link 0=/apps/cent7/gaussian/g16-A.03/g16-haswell/g16/g16
 Initial command:
 /apps/cent7/gaussian/g16-A.03/g16-haswell/g16/l1.exe "/scratch/brown/finej/gaussian/Gau-138831.inp" -scrdir="/scratch/brown/finej/gaussian/"
 Entering Link 1 = /apps/cent7/gaussian/g16-A.03/g16-haswell/g16/l1.exe PID=    138833.
  
 Copyright (c) 1988,1990,1992,1993,1995,1998,2003,2009,2016,
            Gaussian, Inc.  All Rights Reserved.
  
 This is part of the Gaussian(R) 16 program.  It is based on
 the Gaussian(R) 09 system (copyright 2009, Gaussian, Inc.),
 the Gaussian(R) 03 system (copyright 2003, Gaussian, Inc.),
 the Gaussian(R) 98 system (copyright 1998, Gaussian, Inc.),
 the Gaussian(R) 94 system (copyright 1995, Gaussian, Inc.),
 the Gaussian 92(TM) system (copyright 1992, Gaussian, Inc.),
 the Gaussian 90(TM) system (copyright 1990, Gaussian, Inc.),
 the Gaussian 88(TM) system (copyright 1988, Gaussian, Inc.),
 the Gaussian 86(TM) system (copyright 1986, Carnegie Mellon
 University), and the Gaussian 82(TM) system (copyright 1983,
 Carnegie Mellon University). Gaussian is a federally registered
 trademark of Gaussian, Inc.
  
 This software contains proprietary and confidential information,
 including trade secrets, belonging to Gaussian, Inc.
  
 This software is provided under written license and may be
 used, copied, transmitted, or stored only in accord with that
 written license.
  
 The following legend is applicable only to US Government
 contracts under FAR:
  
                    RESTRICTED RIGHTS LEGEND
  
 Use, reproduction and disclosure by the US Government is
 subject to restrictions as set forth in subparagraphs (a)
 and (c) of the Commercial Computer Software - Restricted
 Rights clause in FAR 52.227-19.
  
 Gaussian, Inc.
 340 Quinnipiac St., Bldg. 40, Wallingford CT 06492
  
  
 ---------------------------------------------------------------
 Warning -- This program may not be used in any manner that
 competes with the business of Gaussian, Inc. or will provide
 assistance to any competitor of Gaussian, Inc.  The licensee
 of this program is prohibited from giving any competitor of
 Gaussian, Inc. access to this program.  By using this program,
 the user acknowledges that Gaussian, Inc. is engaged in the
 business of creating and licensing software in the field of
 computational chemistry and represents and warrants to the
 licensee that it is not a competitor of Gaussian, Inc. and that
 it will not use this program in any manner prohibited above.
 ---------------------------------------------------------------
  

 Cite this work as:
 Gaussian 16, Revision A.03,
 M. J. Frisch, G. W. Trucks, H. B. Schlegel, G. E. Scuseria, 
 M. A. Robb, J. R. Cheeseman, G. Scalmani, V. Barone, 
 G. A. Petersson, H. Nakatsuji, X. Li, M. Caricato, A. V. Marenich, 
 J. Bloino, B. G. Janesko, R. Gomperts, B. Mennucci, H. P. Hratchian, 
 J. V. Ortiz, A. F. Izmaylov, J. L. Sonnenberg, D. Williams-Young, 
 F. Ding, F. Lipparini, F. Egidi, J. Goings, B. Peng, A. Petrone, 
 T. Henderson, D. Ranasinghe, V. G. Zakrzewski, J. Gao, N. Rega, 
 G. Zheng, W. Liang, M. Hada, M. Ehara, K. Toyota, R. Fukuda, 
 J. Hasegawa, M. Ishida, T. Nakajima, Y. Honda, O. Kitao, H. Nakai, 
 T. Vreven, K. Throssell, J. A. Montgomery, Jr., J. E. Peralta, 
 F. Ogliaro, M. J. Bearpark, J. J. Heyd, E. N. Brothers, K. N. Kudin, 
 V. N. Staroverov, T. A. Keith, R. Kobayashi, J. Normand, 
 K. Raghavachari, A. P. Rendell, J. C. Burant, S. S. Iyengar, 
 J. Tomasi, M. Cossi, J. M. Millam, M. Klene, C. Adamo, R. Cammi, 
 J. W. Ochterski, R. L. Martin, K. Morokuma, O. Farkas, 
 J. B. Foresman, and D. J. Fox, Gaussian, Inc., Wallingford CT, 2016.
 
 ******************************************
 Gaussian 16:  ES64L-G16RevA.03 25-Dec-2016
                14-Oct-2019 
 ******************************************
 %chk=21.chk
 %nprocshared=24
 Will use up to   24 processors via shared memory.
 %mem=80GB
 -------------------------------------------------------------------
 #p opt freq m062x/6-311++g(d,p) geom=connectivity temperature=0.001
 -------------------------------------------------------------------
 1/18=20,19=15,26=3,38=1,57=2,112=-1000/1,3;
 2/9=110,12=2,17=6,18=5,40=1/2;
 3/5=4,6=6,7=1111,11=2,25=1,30=1,71=1,74=-55/1,2,3;
 4//1;
 5/5=2,38=5/2;
 6/7=2,8=2,9=2,10=2,28=1/1;
 7//1,2,3,16;
 1/18=20,19=15,26=3/3(2);
 2/9=110/2;
 99//99;
 2/9=110/2;
 3/5=4,6=6,7=1111,11=2,25=1,30=1,71=1,74=-55/1,2,3;
 4/5=5,16=3,69=1/1;
 5/5=2,38=5/2;
 7//1,2,3,16;
 1/18=20,19=15,26=3/3(-5);
 2/9=110/2;
 6/7=2,8=2,9=2,10=2,19=2,28=1/1;
 99/9=1/99;
 Leave Link    1 at Mon Oct 14 10:36:32 2019, MaxMem= 10737418240 cpu:               2.2 elap:               0.1
 (Enter /apps/cent7/gaussian/g16-A.03/g16-haswell/g16/l101.exe)
 -------------------
 Title Card Required
 -------------------
 Symbolic Z-matrix:
 Charge =  0 Multiplicity = 1
 O                    -0.6901   -1.1952   -0.0142 
 C                    -0.0122   -0.0211    0.0035 
 C                    -0.7133    1.2009    0.0038 
 C                    -0.0091    2.4215    0.0011 
 C                     1.3984    2.4222    0.0001 
 C                     2.1016    1.2028    0.0011 
 C                     1.3966   -0.0173    0.0038 
 H                    -0.06615  -1.92474  -0.02502 
 H                    -1.8033    1.202     0.0062 
 H                    -0.5536    3.3658   -0.0002 
 H                     1.9434    3.3661   -0.0015 
 H                     3.1916    1.2035   -0.0002 
 H                     1.9426   -0.9607    0.0062 
 
 ITRead=  0  0  0  0  0  0  0  0  0  0  0  0  0
 MicOpt= -1 -1 -1 -1 -1 -1 -1 -1 -1 -1 -1 -1 -1
 NAtoms=     13 NQM=       13 NQMF=       0 NMMI=      0 NMMIF=      0
                NMic=       0 NMicF=      0.
                    Isotopes and Nuclear Properties:
 (Nuclear quadrupole moments (NQMom) in fm**2, nuclear magnetic moments (NMagM)
  in nuclear magnetons)

  Atom         1           2           3           4           5           6           7           8           9          10
 IAtWgt=          16          12          12          12          12          12          12           1           1           1
 AtmWgt=  15.9949146  12.0000000  12.0000000  12.0000000  12.0000000  12.0000000  12.0000000   1.0078250   1.0078250   1.0078250
 NucSpn=           0           0           0           0           0           0           0           1           1           1
 AtZEff=  -0.0000000  -0.0000000  -0.0000000  -0.0000000  -0.0000000  -0.0000000  -0.0000000  -0.0000000  -0.0000000  -0.0000000
 NQMom=    0.0000000   0.0000000   0.0000000   0.0000000   0.0000000   0.0000000   0.0000000   0.0000000   0.0000000   0.0000000
 NMagM=    0.0000000   0.0000000   0.0000000   0.0000000   0.0000000   0.0000000   0.0000000   2.7928460   2.7928460   2.7928460
 AtZNuc=   8.0000000   6.0000000   6.0000000   6.0000000   6.0000000   6.0000000   6.0000000   1.0000000   1.0000000   1.0000000

  Atom        11          12          13
 IAtWgt=           1           1           1
 AtmWgt=   1.0078250   1.0078250   1.0078250
 NucSpn=           1           1           1
 AtZEff=  -0.0000000  -0.0000000  -0.0000000
 NQMom=    0.0000000   0.0000000   0.0000000
 NMagM=    2.7928460   2.7928460   2.7928460
 AtZNuc=   1.0000000   1.0000000   1.0000000
 Leave Link  101 at Mon Oct 14 10:36:32 2019, MaxMem= 10737418240 cpu:              12.7 elap:               0.6
 (Enter /apps/cent7/gaussian/g16-A.03/g16-haswell/g16/l103.exe)

 GradGradGradGradGradGradGradGradGradGradGradGradGradGradGradGradGradGrad
 Berny optimization.
 Initialization pass.
                           ----------------------------
                           !    Initial Parameters    !
                           ! (Angstroms and Degrees)  !
 --------------------------                            --------------------------
 ! Name  Definition              Value          Derivative Info.                !
 --------------------------------------------------------------------------------
 ! R1    R(1,2)                  1.3559         estimate D2E/DX2                !
 ! R2    R(1,8)                  0.96           estimate D2E/DX2                !
 ! R3    R(2,3)                  1.4088         estimate D2E/DX2                !
 ! R4    R(2,7)                  1.4088         estimate D2E/DX2                !
 ! R5    R(3,4)                  1.4092         estimate D2E/DX2                !
 ! R6    R(3,9)                  1.09           estimate D2E/DX2                !
 ! R7    R(4,5)                  1.4075         estimate D2E/DX2                !
 ! R8    R(4,10)                 1.09           estimate D2E/DX2                !
 ! R9    R(5,6)                  1.4076         estimate D2E/DX2                !
 ! R10   R(5,11)                 1.0899         estimate D2E/DX2                !
 ! R11   R(6,7)                  1.4091         estimate D2E/DX2                !
 ! R12   R(6,12)                 1.09           estimate D2E/DX2                !
 ! R13   R(7,13)                 1.09           estimate D2E/DX2                !
 ! A1    A(2,1,8)              109.4656         estimate D2E/DX2                !
 ! A2    A(1,2,3)              120.1519         estimate D2E/DX2                !
 ! A3    A(1,2,7)              120.1531         estimate D2E/DX2                !
 ! A4    A(3,2,7)              119.6897         estimate D2E/DX2                !
 ! A5    A(2,3,4)              120.1737         estimate D2E/DX2                !
 ! A6    A(2,3,9)              119.902          estimate D2E/DX2                !
 ! A7    A(4,3,9)              119.9242         estimate D2E/DX2                !
 ! A8    A(3,4,5)              120.0104         estimate D2E/DX2                !
 ! A9    A(3,4,10)             120.0497         estimate D2E/DX2                !
 ! A10   A(5,4,10)             119.9399         estimate D2E/DX2                !
 ! A11   A(4,5,6)              119.9425         estimate D2E/DX2                !
 ! A12   A(4,5,11)             120.0303         estimate D2E/DX2                !
 ! A13   A(6,5,11)             120.0272         estimate D2E/DX2                !
 ! A14   A(5,6,7)              120.0087         estimate D2E/DX2                !
 ! A15   A(5,6,12)             119.9342         estimate D2E/DX2                !
 ! A16   A(7,6,12)             120.0571         estimate D2E/DX2                !
 ! A17   A(2,7,6)              120.1747         estimate D2E/DX2                !
 ! A18   A(2,7,13)             119.9058         estimate D2E/DX2                !
 ! A19   A(6,7,13)             119.9195         estimate D2E/DX2                !
 ! D1    D(8,1,2,3)            179.1592         estimate D2E/DX2                !
 ! D2    D(8,1,2,7)              0.0            estimate D2E/DX2                !
 ! D3    D(1,2,3,4)           -179.008          estimate D2E/DX2                !
 ! D4    D(1,2,3,9)              0.9965         estimate D2E/DX2                !
 ! D5    D(7,2,3,4)              0.1551         estimate D2E/DX2                !
 ! D6    D(7,2,3,9)           -179.8405         estimate D2E/DX2                !
 ! D7    D(1,2,7,6)            179.008          estimate D2E/DX2                !
 ! D8    D(1,2,7,13)            -0.9965         estimate D2E/DX2                !
 ! D9    D(3,2,7,6)             -0.1551         estimate D2E/DX2                !
 ! D10   D(3,2,7,13)           179.8405         estimate D2E/DX2                !
 ! D11   D(2,3,4,5)             -0.0943         estimate D2E/DX2                !
 ! D12   D(2,3,4,10)           179.9066         estimate D2E/DX2                !
 ! D13   D(9,3,4,5)            179.9012         estimate D2E/DX2                !
 ! D14   D(9,3,4,10)            -0.0978         estimate D2E/DX2                !
 ! D15   D(3,4,5,6)              0.0328         estimate D2E/DX2                !
 ! D16   D(3,4,5,11)          -179.9704         estimate D2E/DX2                !
 ! D17   D(10,4,5,6)          -179.9681         estimate D2E/DX2                !
 ! D18   D(10,4,5,11)            0.0287         estimate D2E/DX2                !
 ! D19   D(4,5,6,7)             -0.0328         estimate D2E/DX2                !
 ! D20   D(4,5,6,12)           179.9681         estimate D2E/DX2                !
 ! D21   D(11,5,6,7)           179.9704         estimate D2E/DX2                !
 ! D22   D(11,5,6,12)           -0.0287         estimate D2E/DX2                !
 ! D23   D(5,6,7,2)              0.0943         estimate D2E/DX2                !
 ! D24   D(5,6,7,13)          -179.9012         estimate D2E/DX2                !
 ! D25   D(12,6,7,2)          -179.9066         estimate D2E/DX2                !
 ! D26   D(12,6,7,13)            0.0978         estimate D2E/DX2                !
 --------------------------------------------------------------------------------
 Trust Radius=3.00D-01 FncErr=1.00D-07 GrdErr=1.00D-06 EigMax=2.50D+02 EigMin=1.00D-04
 Number of steps in this run=     68 maximum allowed number of steps=    100.
 GradGradGradGradGradGradGradGradGradGradGradGradGradGradGradGradGradGrad

 Leave Link  103 at Mon Oct 14 10:36:33 2019, MaxMem= 10737418240 cpu:               0.3 elap:               0.0
 (Enter /apps/cent7/gaussian/g16-A.03/g16-haswell/g16/l202.exe)
                          Input orientation:                          
 ---------------------------------------------------------------------
 Center     Atomic      Atomic             Coordinates (Angstroms)
 Number     Number       Type             X           Y           Z
 ---------------------------------------------------------------------
      1          8           0       -0.690100   -1.195200   -0.014200
      2          6           0       -0.012200   -0.021100    0.003500
      3          6           0       -0.713300    1.200900    0.003800
      4          6           0       -0.009100    2.421500    0.001100
      5          6           0        1.398400    2.422200    0.000100
      6          6           0        2.101600    1.202800    0.001100
      7          6           0        1.396600   -0.017300    0.003800
      8          1           0       -0.066154   -1.924738   -0.025018
      9          1           0       -1.803300    1.202000    0.006200
     10          1           0       -0.553600    3.365800   -0.000200
     11          1           0        1.943400    3.366100   -0.001500
     12          1           0        3.191600    1.203500   -0.000200
     13          1           0        1.942600   -0.960700    0.006200
 ---------------------------------------------------------------------
                    Distance matrix (angstroms):
                    1          2          3          4          5
     1  O    0.000000
     2  C    1.355866   0.000000
     3  C    2.396280   1.408838   0.000000
     4  C    3.680287   2.442603   1.409173   0.000000
     5  C    4.177035   2.821262   2.439439   1.407501   0.000000
     6  C    3.680248   2.442558   2.814902   2.437270   1.407632
     7  C    2.396266   1.408805   2.436327   2.814915   2.439503
     8  H    0.960027   1.904616   3.192059   4.346691   4.587093
     9  H    2.643142   2.168875   1.090003   2.169415   3.426340
    10  H    4.563064   3.429901   2.170786   1.090039   2.168106
    11  H    5.266967   3.911204   3.427269   2.168993   1.089943
    12  H    4.563064   3.429868   3.904903   3.424618   2.168132
    13  H    2.643202   2.168893   3.424372   3.904925   3.426398
                    6          7          8          9         10
     6  C    0.000000
     7  C    1.409140   0.000000
     8  H    3.805435   2.403913   0.000000
     9  H    3.904903   3.424333   3.577030   0.000000
    10  H    3.424713   3.904953   5.313004   2.498764   0.000000
    11  H    2.169078   3.427304   5.659667   4.326794   2.497000
    12  H    1.090001   2.170805   4.516575   4.994904   4.324588
    13  H    2.169341   1.090012   2.228326   4.325395   4.994963
                   11         12         13
    11  H    0.000000
    12  H    2.496967   0.000000
    13  H    4.326807   2.498760   0.000000
 Stoichiometry    C6H6O
 Framework group  C1[X(C6H6O)]
 Deg. of freedom    33
 Full point group                 C1      NOp   1
 Largest Abelian subgroup         C1      NOp   1
 Largest concise Abelian subgroup C1      NOp   1
                         Standard orientation:                         
 ---------------------------------------------------------------------
 Center     Atomic      Atomic             Coordinates (Angstroms)
 Number     Number       Type             X           Y           Z
 ---------------------------------------------------------------------
      1          8           0       -2.309990   -0.120613    0.006914
      2          6           0       -0.955529   -0.060504   -0.007072
      3          6           0       -0.194507   -1.246112   -0.005096
      4          6           0        1.213286   -1.184104    0.001465
      5          6           0        1.862941    0.064495    0.004057
      6          6           0        1.105198    1.250767    0.000790
      7          6           0       -0.302521    1.187819   -0.005770
      8          1           0       -2.669642    0.769447    0.016605
      9          1           0       -0.696153   -2.213813   -0.008725
     10          1           0        1.800105   -2.102701    0.004520
     11          1           0        2.951801    0.112833    0.008643
     12          1           0        1.608444    2.217638    0.003324
     13          1           0       -0.887846    2.107332   -0.009922
 ---------------------------------------------------------------------
 Rotational constants (GHZ):           5.5613863           2.5923260           1.7681781
 Leave Link  202 at Mon Oct 14 10:36:33 2019, MaxMem= 10737418240 cpu:               0.4 elap:               0.0
 (Enter /apps/cent7/gaussian/g16-A.03/g16-haswell/g16/l301.exe)
 Standard basis: 6-311++G(d,p) (5D, 7F)
 Ernie: Thresh=  0.10000D-02 Tol=  0.10000D-05 Strict=F.
 There are   203 symmetry adapted cartesian basis functions of A   symmetry.
 There are   196 symmetry adapted basis functions of A   symmetry.
   196 basis functions,   306 primitive gaussians,   203 cartesian basis functions
    25 alpha electrons       25 beta electrons
       nuclear repulsion energy       269.3973264770 Hartrees.
 IExCor= 4336 DFT=T Ex+Corr=M062X ExCW=0 ScaHFX=  0.540000
 ScaDFX=  1.000000  1.000000  1.000000  1.000000 ScalE2=  1.000000  1.000000
 IRadAn=      5 IRanWt=     -1 IRanGd=            0 ICorTp=0 IEmpDi=  4
 NAtoms=   13 NActive=   13 NUniq=   13 SFac= 1.00D+00 NAtFMM=   60 NAOKFM=F Big=F
 Integral buffers will be    131072 words long.
 Raffenetti 2 integral format.
 Two-electron integral symmetry is turned on.
 Leave Link  301 at Mon Oct 14 10:36:33 2019, MaxMem= 10737418240 cpu:               1.4 elap:               0.1
 (Enter /apps/cent7/gaussian/g16-A.03/g16-haswell/g16/l302.exe)
 NPDir=0 NMtPBC=     1 NCelOv=     1 NCel=       1 NClECP=     1 NCelD=      1
         NCelK=      1 NCelE2=     1 NClLst=     1 CellRange=     0.0.
 One-electron integrals computed using PRISM.
 One-electron integral symmetry used in STVInt
 NBasis=   196 RedAO= T EigKep=  1.23D-06  NBF=   196
 NBsUse=   196 1.00D-06 EigRej= -1.00D+00 NBFU=   196
 Precomputing XC quadrature grid using
 IXCGrd= 4 IRadAn=           5 IRanWt=          -1 IRanGd=           0 AccXCQ= 0.00D+00.
 Generated NRdTot=       0 NPtTot=           0 NUsed=           0 NTot=          32
 NSgBfM=   203   203   203   203   203 MxSgAt=    13 MxSgA2=    13.
 Leave Link  302 at Mon Oct 14 10:36:33 2019, MaxMem= 10737418240 cpu:               3.5 elap:               0.2
 (Enter /apps/cent7/gaussian/g16-A.03/g16-haswell/g16/l303.exe)
 DipDrv:  MaxL=1.
 Leave Link  303 at Mon Oct 14 10:36:33 2019, MaxMem= 10737418240 cpu:               1.1 elap:               0.1
 (Enter /apps/cent7/gaussian/g16-A.03/g16-haswell/g16/l401.exe)
 ExpMin= 3.60D-02 ExpMax= 8.59D+03 ExpMxC= 1.30D+03 IAcc=3 IRadAn=         5 AccDes= 0.00D+00
 Harris functional with IExCor= 1009 and IRadAn=       5 diagonalized for initial guess.
 HarFok:  IExCor= 1009 AccDes= 0.00D+00 IRadAn=         5 IDoV= 1 UseB2=F ITyADJ=14
 ICtDFT=  3500011 ScaDFX=  1.000000  1.000000  1.000000  1.000000
 FoFCou: FMM=F IPFlag=           0 FMFlag=      100000 FMFlg1=           0
         NFxFlg=           0 DoJE=T BraDBF=F KetDBF=T FulRan=T
         wScrn=  0.000000 ICntrl=       500 IOpCl=  0 I1Cent=   200000004 NGrid=           0
         NMat0=    1 NMatS0=      1 NMatT0=    0 NMatD0=    1 NMtDS0=    0 NMtDT0=    0
 Petite list used in FoFCou.
 Harris En= -307.293803660610    
 JPrj=0 DoOrth=F DoCkMO=F.
 Leave Link  401 at Mon Oct 14 10:36:33 2019, MaxMem= 10737418240 cpu:               7.0 elap:               0.3
 (Enter /apps/cent7/gaussian/g16-A.03/g16-haswell/g16/l502.exe)
 Integral symmetry usage will be decided dynamically.
 Closed shell SCF:
 Using DIIS extrapolation, IDIIS=  1040.
 NGot= 10737418240 LenX= 10737328915 LenY= 10737287265
 Requested convergence on RMS density matrix=1.00D-08 within 128 cycles.
 Requested convergence on MAX density matrix=1.00D-06.
 Requested convergence on             energy=1.00D-06.
 No special actions if energy rises.
 Fock matrices will be formed incrementally for  20 cycles.

 Cycle   1  Pass 1  IDiag  1:
 FoFJK:  IHMeth= 1 ICntrl=       0 DoSepK=F KAlg= 0 I1Cent=           0 FoldK=F
 IRaf= 980000000 NMat=       1 IRICut=       1 DoRegI=T DoRafI=F ISym2E= 0 IDoP0=0 IntGTp=1.
 FoFCou: FMM=F IPFlag=           0 FMFlag=      100000 FMFlg1=           0
         NFxFlg=           0 DoJE=F BraDBF=F KetDBF=F FulRan=T
         wScrn=  0.000000 ICntrl=         0 IOpCl=  0 I1Cent=           0 NGrid=           0
         NMat0=    1 NMatS0=      1 NMatT0=    0 NMatD0=    1 NMtDS0=    0 NMtDT0=    0
 Symmetry not used in FoFCou.
 E= -307.237735584047    
 DIIS: error= 4.90D-02 at cycle   1 NSaved=   1.
 NSaved= 1 IEnMin= 1 EnMin= -307.237735584047     IErMin= 1 ErrMin= 4.90D-02
 ErrMax= 4.90D-02  0.00D+00 EMaxC= 1.00D-01 BMatC= 2.25D-01 BMatP= 2.25D-01
 IDIUse=3 WtCom= 5.10D-01 WtEn= 4.90D-01
 Coeff-Com:  0.100D+01
 Coeff-En:   0.100D+01
 Coeff:      0.100D+01
 Gap=     0.313 Goal=   None    Shift=    0.000
 GapD=    0.313 DampG=1.000 DampE=0.500 DampFc=0.5000 IDamp=-1.
 Damping current iteration by 5.00D-01
 RMSDP=1.08D-02 MaxDP=4.83D-01              OVMax= 1.66D-01

 Cycle   2  Pass 1  IDiag  1:
 RMSU=  5.03D-03    CP:  9.62D-01
 E= -307.331535723537     Delta-E=       -0.093800139490 Rises=F Damp=T
 DIIS: error= 9.13D-03 at cycle   2 NSaved=   2.
 NSaved= 2 IEnMin= 2 EnMin= -307.331535723537     IErMin= 2 ErrMin= 9.13D-03
 ErrMax= 9.13D-03  0.00D+00 EMaxC= 1.00D-01 BMatC= 1.64D-02 BMatP= 2.25D-01
 IDIUse=3 WtCom= 9.09D-01 WtEn= 9.13D-02
 Coeff-Com: -0.146D+00 0.115D+01
 Coeff-En:   0.000D+00 0.100D+01
 Coeff:     -0.133D+00 0.113D+01
 Gap=     0.283 Goal=   None    Shift=    0.000
 RMSDP=5.45D-03 MaxDP=4.03D-01 DE=-9.38D-02 OVMax= 8.56D-02

 Cycle   3  Pass 1  IDiag  1:
 RMSU=  5.03D-03    CP:  9.28D-01  1.21D+00
 E= -307.417765059581     Delta-E=       -0.086229336044 Rises=F Damp=F
 DIIS: error= 5.50D-03 at cycle   3 NSaved=   3.
 NSaved= 3 IEnMin= 3 EnMin= -307.417765059581     IErMin= 3 ErrMin= 5.50D-03
 ErrMax= 5.50D-03  0.00D+00 EMaxC= 1.00D-01 BMatC= 2.93D-03 BMatP= 1.64D-02
 IDIUse=3 WtCom= 9.45D-01 WtEn= 5.50D-02
 Coeff-Com: -0.956D-01 0.330D+00 0.766D+00
 Coeff-En:   0.000D+00 0.000D+00 0.100D+01
 Coeff:     -0.903D-01 0.312D+00 0.779D+00
 Gap=     0.279 Goal=   None    Shift=    0.000
 RMSDP=1.78D-03 MaxDP=8.50D-02 DE=-8.62D-02 OVMax= 2.71D-02

 Cycle   4  Pass 1  IDiag  1:
 RMSU=  7.53D-04    CP:  9.02D-01  1.30D+00  8.54D-01
 E= -307.419666447636     Delta-E=       -0.001901388055 Rises=F Damp=F
 DIIS: error= 4.34D-03 at cycle   4 NSaved=   4.
 NSaved= 4 IEnMin= 4 EnMin= -307.419666447636     IErMin= 4 ErrMin= 4.34D-03
 ErrMax= 4.34D-03  0.00D+00 EMaxC= 1.00D-01 BMatC= 8.26D-04 BMatP= 2.93D-03
 IDIUse=3 WtCom= 9.57D-01 WtEn= 4.34D-02
 Coeff-Com: -0.412D-01 0.109D+00 0.416D+00 0.516D+00
 Coeff-En:   0.000D+00 0.000D+00 0.209D+00 0.791D+00
 Coeff:     -0.394D-01 0.105D+00 0.407D+00 0.528D+00
 Gap=     0.277 Goal=   None    Shift=    0.000
 RMSDP=4.57D-04 MaxDP=3.05D-02 DE=-1.90D-03 OVMax= 1.31D-02

 Cycle   5  Pass 1  IDiag  1:
 RMSU=  2.99D-04    CP:  8.96D-01  1.31D+00  8.62D-01  8.53D-01
 E= -307.420523564506     Delta-E=       -0.000857116870 Rises=F Damp=F
 DIIS: error= 7.24D-04 at cycle   5 NSaved=   5.
 NSaved= 5 IEnMin= 5 EnMin= -307.420523564506     IErMin= 5 ErrMin= 7.24D-04
 ErrMax= 7.24D-04  0.00D+00 EMaxC= 1.00D-01 BMatC= 2.52D-05 BMatP= 8.26D-04
 IDIUse=3 WtCom= 9.93D-01 WtEn= 7.24D-03
 Coeff-Com: -0.653D-02 0.124D-01 0.810D-01 0.198D+00 0.716D+00
 Coeff-En:   0.000D+00 0.000D+00 0.000D+00 0.000D+00 0.100D+01
 Coeff:     -0.648D-02 0.123D-01 0.804D-01 0.196D+00 0.718D+00
 Gap=     0.277 Goal=   None    Shift=    0.000
 RMSDP=8.28D-05 MaxDP=3.51D-03 DE=-8.57D-04 OVMax= 2.38D-03

 Cycle   6  Pass 1  IDiag  1:
 RMSU=  6.00D-05    CP:  8.96D-01  1.30D+00  8.65D-01  8.61D-01  8.49D-01
 E= -307.420550729221     Delta-E=       -0.000027164716 Rises=F Damp=F
 DIIS: error= 8.20D-05 at cycle   6 NSaved=   6.
 NSaved= 6 IEnMin= 6 EnMin= -307.420550729221     IErMin= 6 ErrMin= 8.20D-05
 ErrMax= 8.20D-05  0.00D+00 EMaxC= 1.00D-01 BMatC= 8.72D-07 BMatP= 2.52D-05
 IDIUse=1 WtCom= 1.00D+00 WtEn= 0.00D+00
 Coeff-Com: -0.926D-03 0.991D-03 0.141D-01 0.453D-01 0.233D+00 0.708D+00
 Coeff:     -0.926D-03 0.991D-03 0.141D-01 0.453D-01 0.233D+00 0.708D+00
 Gap=     0.277 Goal=   None    Shift=    0.000
 RMSDP=3.39D-05 MaxDP=1.60D-03 DE=-2.72D-05 OVMax= 2.88D-04

 Cycle   7  Pass 1  IDiag  1:
 RMSU=  2.15D-05    CP:  8.97D-01  1.30D+00  8.67D-01  8.57D-01  8.29D-01
                    CP:  1.04D+00
 E= -307.420551510810     Delta-E=       -0.000000781588 Rises=F Damp=F
 DIIS: error= 5.85D-05 at cycle   7 NSaved=   7.
 NSaved= 7 IEnMin= 7 EnMin= -307.420551510810     IErMin= 7 ErrMin= 5.85D-05
 ErrMax= 5.85D-05  0.00D+00 EMaxC= 1.00D-01 BMatC= 1.94D-07 BMatP= 8.72D-07
 IDIUse=1 WtCom= 1.00D+00 WtEn= 0.00D+00
 Coeff-Com:  0.104D-02-0.242D-02-0.103D-01-0.193D-01-0.316D-01 0.314D+00
 Coeff-Com:  0.749D+00
 Coeff:      0.104D-02-0.242D-02-0.103D-01-0.193D-01-0.316D-01 0.314D+00
 Coeff:      0.749D+00
 Gap=     0.277 Goal=   None    Shift=    0.000
 RMSDP=1.92D-05 MaxDP=1.58D-03 DE=-7.82D-07 OVMax= 2.22D-04

 Cycle   8  Pass 1  IDiag  1:
 RMSU=  4.69D-06    CP:  8.96D-01  1.30D+00  8.67D-01  8.61D-01  8.44D-01
                    CP:  1.14D+00  1.05D+00
 E= -307.420551715184     Delta-E=       -0.000000204375 Rises=F Damp=F
 DIIS: error= 7.65D-06 at cycle   8 NSaved=   8.
 NSaved= 8 IEnMin= 8 EnMin= -307.420551715184     IErMin= 8 ErrMin= 7.65D-06
 ErrMax= 7.65D-06  0.00D+00 EMaxC= 1.00D-01 BMatC= 9.71D-09 BMatP= 1.94D-07
 IDIUse=1 WtCom= 1.00D+00 WtEn= 0.00D+00
 Coeff-Com:  0.311D-03-0.665D-03-0.344D-02-0.788D-02-0.233D-01 0.234D-01
 Coeff-Com:  0.201D+00 0.810D+00
 Coeff:      0.311D-03-0.665D-03-0.344D-02-0.788D-02-0.233D-01 0.234D-01
 Coeff:      0.201D+00 0.810D+00
 Gap=     0.277 Goal=   None    Shift=    0.000
 RMSDP=2.94D-06 MaxDP=1.27D-04 DE=-2.04D-07 OVMax= 5.49D-05

 Cycle   9  Pass 1  IDiag  1:
 RMSU=  1.36D-06    CP:  8.96D-01  1.30D+00  8.68D-01  8.61D-01  8.44D-01
                    CP:  1.16D+00  1.15D+00  1.06D+00
 E= -307.420551725949     Delta-E=       -0.000000010764 Rises=F Damp=F
 DIIS: error= 4.85D-06 at cycle   9 NSaved=   9.
 NSaved= 9 IEnMin= 9 EnMin= -307.420551725949     IErMin= 9 ErrMin= 4.85D-06
 ErrMax= 4.85D-06  0.00D+00 EMaxC= 1.00D-01 BMatC= 2.06D-09 BMatP= 9.71D-09
 IDIUse=1 WtCom= 1.00D+00 WtEn= 0.00D+00
 Coeff-Com: -0.196D-05 0.266D-04-0.563D-04-0.795D-03-0.478D-02-0.254D-01
 Coeff-Com:  0.350D-02 0.342D+00 0.685D+00
 Coeff:     -0.196D-05 0.266D-04-0.563D-04-0.795D-03-0.478D-02-0.254D-01
 Coeff:      0.350D-02 0.342D+00 0.685D+00
 Gap=     0.277 Goal=   None    Shift=    0.000
 RMSDP=7.26D-07 MaxDP=2.78D-05 DE=-1.08D-08 OVMax= 2.91D-05

 Cycle  10  Pass 1  IDiag  1:
 RMSU=  4.68D-07    CP:  8.96D-01  1.30D+00  8.68D-01  8.60D-01  8.44D-01
                    CP:  1.16D+00  1.16D+00  1.09D+00  1.02D+00
 E= -307.420551728622     Delta-E=       -0.000000002673 Rises=F Damp=F
 DIIS: error= 1.58D-06 at cycle  10 NSaved=  10.
 NSaved=10 IEnMin=10 EnMin= -307.420551728622     IErMin=10 ErrMin= 1.58D-06
 ErrMax= 1.58D-06  0.00D+00 EMaxC= 1.00D-01 BMatC= 2.39D-10 BMatP= 2.06D-09
 IDIUse=1 WtCom= 1.00D+00 WtEn= 0.00D+00
 Coeff-Com: -0.397D-04 0.898D-04 0.468D-03 0.800D-03 0.188D-02-0.102D-01
 Coeff-Com: -0.279D-01-0.532D-01 0.208D+00 0.881D+00
 Coeff:     -0.397D-04 0.898D-04 0.468D-03 0.800D-03 0.188D-02-0.102D-01
 Coeff:     -0.279D-01-0.532D-01 0.208D+00 0.881D+00
 Gap=     0.277 Goal=   None    Shift=    0.000
 RMSDP=4.83D-07 MaxDP=1.62D-05 DE=-2.67D-09 OVMax= 1.41D-05

 Cycle  11  Pass 1  IDiag  1:
 RMSU=  1.72D-07    CP:  8.96D-01  1.30D+00  8.68D-01  8.60D-01  8.43D-01
                    CP:  1.16D+00  1.17D+00  1.12D+00  1.15D+00  1.05D+00
 E= -307.420551728997     Delta-E=       -0.000000000376 Rises=F Damp=F
 DIIS: error= 9.09D-07 at cycle  11 NSaved=  11.
 NSaved=11 IEnMin=11 EnMin= -307.420551728997     IErMin=11 ErrMin= 9.09D-07
 ErrMax= 9.09D-07  0.00D+00 EMaxC= 1.00D-01 BMatC= 2.64D-11 BMatP= 2.39D-10
 IDIUse=1 WtCom= 1.00D+00 WtEn= 0.00D+00
 Coeff-Com: -0.163D-04 0.361D-04 0.211D-03 0.405D-03 0.113D-02-0.281D-02
 Coeff-Com: -0.134D-01-0.526D-01 0.439D-01 0.375D+00 0.648D+00
 Coeff:     -0.163D-04 0.361D-04 0.211D-03 0.405D-03 0.113D-02-0.281D-02
 Coeff:     -0.134D-01-0.526D-01 0.439D-01 0.375D+00 0.648D+00
 Gap=     0.277 Goal=   None    Shift=    0.000
 RMSDP=9.65D-08 MaxDP=2.95D-06 DE=-3.76D-10 OVMax= 4.14D-06

 Cycle  12  Pass 1  IDiag  1:
 RMSU=  5.51D-08    CP:  8.96D-01  1.30D+00  8.68D-01  8.60D-01  8.43D-01
                    CP:  1.16D+00  1.18D+00  1.12D+00  1.16D+00  1.13D+00
                    CP:  1.08D+00
 E= -307.420551729031     Delta-E=       -0.000000000034 Rises=F Damp=F
 DIIS: error= 2.91D-07 at cycle  12 NSaved=  12.
 NSaved=12 IEnMin=12 EnMin= -307.420551729031     IErMin=12 ErrMin= 2.91D-07
 ErrMax= 2.91D-07  0.00D+00 EMaxC= 1.00D-01 BMatC= 3.33D-12 BMatP= 2.64D-11
 IDIUse=1 WtCom= 1.00D+00 WtEn= 0.00D+00
 Coeff-Com:  0.315D-05-0.689D-05-0.225D-04-0.216D-04 0.226D-05 0.131D-02
 Coeff-Com:  0.120D-02-0.721D-02-0.224D-01-0.427D-01 0.256D+00 0.814D+00
 Coeff:      0.315D-05-0.689D-05-0.225D-04-0.216D-04 0.226D-05 0.131D-02
 Coeff:      0.120D-02-0.721D-02-0.224D-01-0.427D-01 0.256D+00 0.814D+00
 Gap=     0.277 Goal=   None    Shift=    0.000
 RMSDP=4.03D-08 MaxDP=1.43D-06 DE=-3.39D-11 OVMax= 2.17D-06

 Cycle  13  Pass 1  IDiag  1:
 RMSU=  2.57D-08    CP:  8.96D-01  1.30D+00  8.68D-01  8.60D-01  8.43D-01
                    CP:  1.16D+00  1.17D+00  1.12D+00  1.16D+00  1.13D+00
                    CP:  1.17D+00  9.95D-01
 E= -307.420551729036     Delta-E=       -0.000000000004 Rises=F Damp=F
 DIIS: error= 8.79D-08 at cycle  13 NSaved=  13.
 NSaved=13 IEnMin=13 EnMin= -307.420551729036     IErMin=13 ErrMin= 8.79D-08
 ErrMax= 8.79D-08  0.00D+00 EMaxC= 1.00D-01 BMatC= 2.03D-13 BMatP= 3.33D-12
 IDIUse=1 WtCom= 1.00D+00 WtEn= 0.00D+00
 Coeff-Com:  0.115D-05-0.259D-05-0.126D-04-0.180D-04-0.419D-04 0.407D-03
 Coeff-Com:  0.751D-03 0.128D-02-0.578D-02-0.239D-01 0.760D-03 0.161D+00
 Coeff-Com:  0.866D+00
 Coeff:      0.115D-05-0.259D-05-0.126D-04-0.180D-04-0.419D-04 0.407D-03
 Coeff:      0.751D-03 0.128D-02-0.578D-02-0.239D-01 0.760D-03 0.161D+00
 Coeff:      0.866D+00
 Gap=     0.277 Goal=   None    Shift=    0.000
 RMSDP=1.46D-08 MaxDP=5.60D-07 DE=-4.32D-12 OVMax= 5.35D-07

 Cycle  14  Pass 1  IDiag  1:
 RMSU=  6.77D-09    CP:  8.96D-01  1.30D+00  8.68D-01  8.60D-01  8.43D-01
                    CP:  1.16D+00  1.17D+00  1.12D+00  1.16D+00  1.13D+00
                    CP:  1.19D+00  1.09D+00  1.04D+00
 E= -307.420551729037     Delta-E=       -0.000000000002 Rises=F Damp=F
 DIIS: error= 2.87D-08 at cycle  14 NSaved=  14.
 NSaved=14 IEnMin=14 EnMin= -307.420551729037     IErMin=14 ErrMin= 2.87D-08
 ErrMax= 2.87D-08  0.00D+00 EMaxC= 1.00D-01 BMatC= 6.48D-14 BMatP= 2.03D-13
 IDIUse=1 WtCom= 1.00D+00 WtEn= 0.00D+00
 Coeff-Com: -0.116D-06 0.156D-06-0.186D-05-0.419D-05-0.210D-04-0.803D-04
 Coeff-Com:  0.729D-04 0.209D-02 0.133D-02-0.299D-02-0.622D-01-0.110D+00
 Coeff-Com:  0.375D+00 0.796D+00
 Coeff:     -0.116D-06 0.156D-06-0.186D-05-0.419D-05-0.210D-04-0.803D-04
 Coeff:      0.729D-04 0.209D-02 0.133D-02-0.299D-02-0.622D-01-0.110D+00
 Coeff:      0.375D+00 0.796D+00
 Gap=     0.277 Goal=   None    Shift=    0.000
 RMSDP=4.52D-09 MaxDP=2.28D-07 DE=-1.59D-12 OVMax= 3.37D-07

 SCF Done:  E(RM062X) =  -307.420551729     A.U. after   14 cycles
            NFock= 14  Conv=0.45D-08     -V/T= 2.0048
 KE= 3.059664577871D+02 PE=-1.254755092888D+03 EE= 3.719707568950D+02
 Leave Link  502 at Mon Oct 14 10:36:40 2019, MaxMem= 10737418240 cpu:             159.7 elap:               6.7
 (Enter /apps/cent7/gaussian/g16-A.03/g16-haswell/g16/l601.exe)
 Copying SCF densities to generalized density rwf, IOpCl= 0 IROHF=0.

 **********************************************************************

            Population analysis using the SCF density.

 **********************************************************************

 Orbital symmetries:
       Occupied  (A) (A) (A) (A) (A) (A) (A) (A) (A) (A) (A) (A)
                 (A) (A) (A) (A) (A) (A) (A) (A) (A) (A) (A) (A)
                 (A)
       Virtual   (A) (A) (A) (A) (A) (A) (A) (A) (A) (A) (A) (A)
                 (A) (A) (A) (A) (A) (A) (A) (A) (A) (A) (A) (A)
                 (A) (A) (A) (A) (A) (A) (A) (A) (A) (A) (A) (A)
                 (A) (A) (A) (A) (A) (A) (A) (A) (A) (A) (A) (A)
                 (A) (A) (A) (A) (A) (A) (A) (A) (A) (A) (A) (A)
                 (A) (A) (A) (A) (A) (A) (A) (A) (A) (A) (A) (A)
                 (A) (A) (A) (A) (A) (A) (A) (A) (A) (A) (A) (A)
                 (A) (A) (A) (A) (A) (A) (A) (A) (A) (A) (A) (A)
                 (A) (A) (A) (A) (A) (A) (A) (A) (A) (A) (A) (A)
                 (A) (A) (A) (A) (A) (A) (A) (A) (A) (A) (A) (A)
                 (A) (A) (A) (A) (A) (A) (A) (A) (A) (A) (A) (A)
                 (A) (A) (A) (A) (A) (A) (A) (A) (A) (A) (A) (A)
                 (A) (A) (A) (A) (A) (A) (A) (A) (A) (A) (A) (A)
                 (A) (A) (A) (A) (A) (A) (A) (A) (A) (A) (A) (A)
                 (A) (A) (A)
 The electronic state is 1-A.
 Alpha  occ. eigenvalues --  -19.65931 -10.61549 -10.55577 -10.55433 -10.55209
 Alpha  occ. eigenvalues --  -10.54822 -10.54471  -1.19710  -0.95329  -0.84663
 Alpha  occ. eigenvalues --   -0.83611  -0.71392  -0.69042  -0.62745  -0.57806
 Alpha  occ. eigenvalues --   -0.54569  -0.51236  -0.49800  -0.49347  -0.46661
 Alpha  occ. eigenvalues --   -0.42584  -0.41189  -0.40515  -0.31129  -0.28248
 Alpha virt. eigenvalues --   -0.00548   0.00617   0.00958   0.01410   0.02704
 Alpha virt. eigenvalues --    0.02871   0.03559   0.05793   0.07193   0.07454
 Alpha virt. eigenvalues --    0.09438   0.09625   0.09864   0.11080   0.12468
 Alpha virt. eigenvalues --    0.12898   0.13103   0.13664   0.13760   0.14079
 Alpha virt. eigenvalues --    0.14751   0.15091   0.15526   0.15948   0.16480
 Alpha virt. eigenvalues --    0.17425   0.18813   0.19516   0.21831   0.21998
 Alpha virt. eigenvalues --    0.22476   0.23586   0.24403   0.24824   0.27029
 Alpha virt. eigenvalues --    0.27341   0.28899   0.30028   0.30499   0.32078
 Alpha virt. eigenvalues --    0.32403   0.33607   0.35909   0.38053   0.38654
 Alpha virt. eigenvalues --    0.39908   0.41032   0.43414   0.50770   0.52710
 Alpha virt. eigenvalues --    0.55561   0.57344   0.58543   0.59265   0.59501
 Alpha virt. eigenvalues --    0.60678   0.60996   0.61202   0.63673   0.65177
 Alpha virt. eigenvalues --    0.65623   0.66049   0.71647   0.72949   0.76599
 Alpha virt. eigenvalues --    0.77705   0.80651   0.81485   0.83910   0.87718
 Alpha virt. eigenvalues --    0.88062   0.90358   0.91225   0.92988   0.93697
 Alpha virt. eigenvalues --    0.94006   0.95816   1.02176   1.04497   1.04925
 Alpha virt. eigenvalues --    1.05019   1.12105   1.12612   1.15948   1.17885
 Alpha virt. eigenvalues --    1.17960   1.25584   1.28733   1.32194   1.38734
 Alpha virt. eigenvalues --    1.45240   1.50369   1.53434   1.54499   1.59052
 Alpha virt. eigenvalues --    1.59774   1.60689   1.62372   1.64411   1.67642
 Alpha virt. eigenvalues --    1.68419   1.71854   1.75752   1.76877   1.80079
 Alpha virt. eigenvalues --    1.84546   1.85404   1.91368   1.93749   1.94488
 Alpha virt. eigenvalues --    1.95588   1.97764   1.99106   1.99712   2.03158
 Alpha virt. eigenvalues --    2.04359   2.09297   2.10336   2.14065   2.28047
 Alpha virt. eigenvalues --    2.33151   2.33521   2.42670   2.46013   2.47426
 Alpha virt. eigenvalues --    2.50103   2.59274   2.62072   2.66482   2.69120
 Alpha virt. eigenvalues --    2.71885   2.73683   2.74953   2.76482   2.79245
 Alpha virt. eigenvalues --    2.80549   2.81740   2.84132   2.85427   2.92785
 Alpha virt. eigenvalues --    2.94177   2.95009   3.12064   3.15511   3.16384
 Alpha virt. eigenvalues --    3.16697   3.24845   3.35455   3.39037   3.47828
 Alpha virt. eigenvalues --    3.52265   3.53232   3.61608   3.68716   3.94442
 Alpha virt. eigenvalues --    4.02919   4.06641   4.15898   4.18169   4.20446
 Alpha virt. eigenvalues --    4.83221   5.11165   5.54752   5.85397  23.67161
 Alpha virt. eigenvalues --   23.97952  24.01855  24.10321  24.11889  24.21284
 Alpha virt. eigenvalues --   50.04808
          Condensed to atoms (all electrons):
               1          2          3          4          5          6
     1  O    7.995645   0.584877  -0.619184   0.098757  -0.020341   0.047077
     2  C    0.584877   9.495552  -3.982831   2.283332  -1.747527   1.363700
     3  C   -0.619184  -3.982831  12.454212  -3.078133   2.187429  -1.647020
     4  C    0.098757   2.283332  -3.078133   7.380164  -1.362663   1.323836
     5  C   -0.020341  -1.747527   2.187429  -1.362663   6.804985  -0.904584
     6  C    0.047077   1.363700  -1.647020   1.323836  -0.904584   6.563346
     7  C   -0.072964  -1.296243   0.095306  -0.722025   1.005357  -0.931976
     8  H    0.265547   0.010799   0.128512  -0.016772   0.003668  -0.012846
     9  H   -0.035300  -0.123841   0.576129  -0.080282   0.036548  -0.011114
    10  H    0.001201   0.083130  -0.168604   0.423676  -0.052873   0.006406
    11  H   -0.000263   0.006802   0.009048  -0.013937   0.340957  -0.002906
    12  H   -0.001184   0.044946   0.005570  -0.008768  -0.021351   0.317258
    13  H   -0.021169  -0.130131  -0.036480   0.009897  -0.004272   0.075468
               7          8          9         10         11         12
     1  O   -0.072964   0.265547  -0.035300   0.001201  -0.000263  -0.001184
     2  C   -1.296243   0.010799  -0.123841   0.083130   0.006802   0.044946
     3  C    0.095306   0.128512   0.576129  -0.168604   0.009048   0.005570
     4  C   -0.722025  -0.016772  -0.080282   0.423676  -0.013937  -0.008768
     5  C    1.005357   0.003668   0.036548  -0.052873   0.340957  -0.021351
     6  C   -0.931976  -0.012846  -0.011114   0.006406  -0.002906   0.317258
     7  C    7.559661  -0.123582  -0.082774   0.024254  -0.012721  -0.023902
     8  H   -0.123582   0.462214   0.005258  -0.000117   0.000208   0.000508
     9  H   -0.082774   0.005258   0.490592  -0.009963   0.001105   0.000779
    10  H    0.024254  -0.000117  -0.009963   0.487839  -0.001072  -0.000944
    11  H   -0.012721   0.000208   0.001105  -0.001072   0.482657   0.001878
    12  H   -0.023902   0.000508   0.000779  -0.000944   0.001878   0.477442
    13  H    0.414758   0.009755  -0.000681   0.000976  -0.001295  -0.000738
              13
     1  O   -0.021169
     2  C   -0.130131
     3  C   -0.036480
     4  C    0.009897
     5  C   -0.004272
     6  C    0.075468
     7  C    0.414758
     8  H    0.009755
     9  H   -0.000681
    10  H    0.000976
    11  H   -0.001295
    12  H   -0.000738
    13  H    0.527016
 Mulliken charges:
               1
     1  O   -0.222699
     2  C   -0.592566
     3  C    0.076047
     4  C   -0.237080
     5  C   -0.265333
     6  C   -0.186645
     7  C    0.166852
     8  H    0.266848
     9  H    0.233543
    10  H    0.206092
    11  H    0.189540
    12  H    0.208506
    13  H    0.156895
 Sum of Mulliken charges =  -0.00000
 Mulliken charges with hydrogens summed into heavy atoms:
               1
     1  O    0.044148
     2  C   -0.592566
     3  C    0.309590
     4  C   -0.030989
     5  C   -0.075793
     6  C    0.021862
     7  C    0.323747
 Electronic spatial extent (au):  <R**2>=            674.1004
 Charge=              0.0000 electrons
 Dipole moment (field-independent basis, Debye):
    X=              0.1527    Y=              1.3890    Z=              0.0136  Tot=              1.3974
 Quadrupole moment (field-independent basis, Debye-Ang):
   XX=            -37.8926   YY=            -35.4821   ZZ=            -46.0686
   XY=             -4.7236   XZ=             -0.0123   YZ=              0.0321
 Traceless Quadrupole moment (field-independent basis, Debye-Ang):
   XX=              1.9218   YY=              4.3323   ZZ=             -6.2542
   XY=             -4.7236   XZ=             -0.0123   YZ=              0.0321
 Octapole moment (field-independent basis, Debye-Ang**2):
  XXX=             -6.0555  YYY=              0.0822  ZZZ=              0.0721  XYY=             -4.4245
  XXY=             13.4320  XXZ=              0.2262  XZZ=             -6.1693  YZZ=             -0.0198
  YYZ=              0.0145  XYZ=             -0.0901
 Hexadecapole moment (field-independent basis, Debye-Ang**3):
 XXXX=           -494.5745 YYYY=           -277.9023 ZZZZ=            -53.6883 XXXY=            -39.7695
 XXXZ=             -0.4205 YYYX=             -3.2826 YYYZ=              0.0338 ZZZX=             -0.1311
 ZZZY=              0.0234 XXYY=           -121.0846 XXZZ=           -107.9324 YYZZ=            -68.2448
 XXYZ=              0.2354 YYXZ=              0.0267 ZZXY=             -0.7004
 N-N= 2.693973264770D+02 E-N=-1.254755092323D+03  KE= 3.059664577871D+02
 No NMR shielding tensors so no spin-rotation constants.
 Leave Link  601 at Mon Oct 14 10:36:41 2019, MaxMem= 10737418240 cpu:              19.3 elap:               0.9
 (Enter /apps/cent7/gaussian/g16-A.03/g16-haswell/g16/l701.exe)
 ... and contract with generalized density number  0.
 Compute integral first derivatives.
 Leave Link  701 at Mon Oct 14 10:36:42 2019, MaxMem= 10737418240 cpu:               2.6 elap:               0.2
 (Enter /apps/cent7/gaussian/g16-A.03/g16-haswell/g16/l702.exe)
 L702 exits ... SP integral derivatives will be done elsewhere.
 Leave Link  702 at Mon Oct 14 10:36:42 2019, MaxMem= 10737418240 cpu:               0.4 elap:               0.0
 (Enter /apps/cent7/gaussian/g16-A.03/g16-haswell/g16/l703.exe)
 Integral derivatives from FoFJK, PRISM(SPDF).
 Compute integral first derivatives, UseDBF=F ICtDFT=           0.
 Calling FoFJK, ICntrl=      2127 FMM=F ISym2X=0 I1Cent= 0 IOpClX= 0 NMat=1 NMatS=1 NMatT=0.
 FoFJK:  IHMeth= 1 ICntrl=    2127 DoSepK=F KAlg= 0 I1Cent=           0 FoldK=F
 IRaf=         0 NMat=       1 IRICut=       1 DoRegI=T DoRafI=F ISym2E= 0 IDoP0=0 IntGTp=1.
 FoFCou: FMM=F IPFlag=           0 FMFlag=      100000 FMFlg1=         800
         NFxFlg=           0 DoJE=F BraDBF=F KetDBF=F FulRan=T
         wScrn=  0.000000 ICntrl=      2127 IOpCl=  0 I1Cent=           0 NGrid=           0
         NMat0=    1 NMatS0=      1 NMatT0=    0 NMatD0=    1 NMtDS0=    0 NMtDT0=    0
 Symmetry not used in FoFCou.
 Leave Link  703 at Mon Oct 14 10:36:43 2019, MaxMem= 10737418240 cpu:              26.8 elap:               1.2
 (Enter /apps/cent7/gaussian/g16-A.03/g16-haswell/g16/l716.exe)
 Dipole        = 6.00692145D-02 5.46474875D-01 5.33465493D-03
 ***** Axes restored to original set *****
 -------------------------------------------------------------------
 Center     Atomic                   Forces (Hartrees/Bohr)
 Number     Number              X              Y              Z
 -------------------------------------------------------------------
      1        8          -0.008373152    0.001746888    0.000736986
      2        6           0.016012008    0.013474892   -0.001360578
      3        6           0.005057716    0.002858736    0.000168683
      4        6           0.007800844   -0.016132768    0.000369376
      5        6          -0.002788864   -0.006513739   -0.000116489
      6        6          -0.014839907   -0.000313310    0.000305949
      7        6          -0.000268467    0.015438109    0.000157317
      8        1           0.000072906   -0.000280817    0.000087745
      9        1           0.004794612   -0.002447849   -0.000229896
     10        1           0.001508983   -0.004944876    0.000047642
     11        1          -0.002302062   -0.004346622   -0.000054576
     12        1          -0.004819150   -0.000842607    0.000053872
     13        1          -0.001855464    0.002303964   -0.000166031
 -------------------------------------------------------------------
 Cartesian Forces:  Max     0.016132768 RMS     0.006181826
 Leave Link  716 at Mon Oct 14 10:36:43 2019, MaxMem= 10737418240 cpu:               0.6 elap:               0.0
 (Enter /apps/cent7/gaussian/g16-A.03/g16-haswell/g16/l103.exe)

 GradGradGradGradGradGradGradGradGradGradGradGradGradGradGradGradGradGrad
 Berny optimization.
 FormGI is forming the generalized inverse of G from B-inverse, IUseBI=4.
 Internal  Forces:  Max     0.018442040 RMS     0.005864972
 Search for a local minimum.
 Step number   1 out of a maximum of   68
 All quantities printed in internal units (Hartrees-Bohrs-Radians)
 RMS Force = .58650D-02 SwitMx=.10000D-02 MixMth= 1
 Mixed Optimization -- RFO/linear search
 Second derivative matrix not updated -- first step.
 ITU=  0
     Eigenvalues ---    0.01969   0.01970   0.01971   0.01973   0.01977
     Eigenvalues ---    0.01979   0.01984   0.01989   0.02029   0.02276
     Eigenvalues ---    0.16000   0.16000   0.16000   0.16000   0.16000
     Eigenvalues ---    0.16000   0.22000   0.22000   0.23482   0.24997
     Eigenvalues ---    0.34808   0.34811   0.34812   0.34813   0.34819
     Eigenvalues ---    0.40295   0.40596   0.44136   0.44178   0.44290
     Eigenvalues ---    0.44352   0.53792   0.55468
 RFO step:  Lambda=-5.05566550D-03 EMin= 1.96941513D-02
 Linear search not attempted -- first point.
 Iteration  1 RMS(Cart)=  0.02773456 RMS(Int)=  0.00032804
 Iteration  2 RMS(Cart)=  0.00039090 RMS(Int)=  0.00010207
 Iteration  3 RMS(Cart)=  0.00000008 RMS(Int)=  0.00010207
 ITry= 1 IFail=0 DXMaxC= 8.51D-02 DCOld= 1.00D+10 DXMaxT= 3.00D-01 DXLimC= 3.00D+00 Rises=F
 Variable       Old X    -DE/DX   Delta X   Delta X   Delta X     New X
                                 (Linear)    (Quad)   (Total)
    R1        2.56222   0.00287   0.00000   0.00529   0.00529   2.56750
    R2        1.81419   0.00026   0.00000   0.00046   0.00046   1.81465
    R3        2.66232  -0.01780   0.00000  -0.03982  -0.03981   2.62251
    R4        2.66226  -0.01233   0.00000  -0.02741  -0.02742   2.63484
    R5        2.66295  -0.01844   0.00000  -0.04147  -0.04146   2.62149
    R6        2.05981  -0.00480   0.00000  -0.01358  -0.01358   2.04622
    R7        2.65979  -0.01453   0.00000  -0.03253  -0.03253   2.62726
    R8        2.05987  -0.00504   0.00000  -0.01427  -0.01427   2.04561
    R9        2.66004  -0.01655   0.00000  -0.03689  -0.03689   2.62314
   R10        2.05969  -0.00492   0.00000  -0.01391  -0.01391   2.04578
   R11        2.66289  -0.01794   0.00000  -0.04003  -0.04004   2.62285
   R12        2.05980  -0.00482   0.00000  -0.01365  -0.01365   2.04616
   R13        2.05982  -0.00292   0.00000  -0.00828  -0.00828   2.05155
    A1        1.91054   0.00023   0.00000   0.00141   0.00141   1.91195
    A2        2.09705  -0.01083   0.00000  -0.04262  -0.04267   2.05438
    A3        2.09707   0.00971   0.00000   0.03793   0.03788   2.13494
    A4        2.08898   0.00112   0.00000   0.00492   0.00488   2.09386
    A5        2.09743  -0.00234   0.00000  -0.01057  -0.01055   2.08687
    A6        2.09269  -0.00134   0.00000  -0.00994  -0.00995   2.08274
    A7        2.09307   0.00368   0.00000   0.02051   0.02050   2.11357
    A8        2.09458   0.00339   0.00000   0.01446   0.01448   2.10906
    A9        2.09526  -0.00289   0.00000  -0.01447  -0.01448   2.08078
   A10        2.09335  -0.00050   0.00000   0.00001  -0.00000   2.09334
   A11        2.09339  -0.00225   0.00000  -0.01031  -0.01030   2.08309
   A12        2.09492   0.00131   0.00000   0.00630   0.00629   2.10122
   A13        2.09487   0.00094   0.00000   0.00401   0.00401   2.09888
   A14        2.09455   0.00086   0.00000   0.00421   0.00421   2.09875
   A15        2.09325   0.00044   0.00000   0.00315   0.00315   2.09640
   A16        2.09539  -0.00130   0.00000  -0.00736  -0.00736   2.08803
   A17        2.09744  -0.00079   0.00000  -0.00271  -0.00271   2.09473
   A18        2.09275  -0.00007   0.00000  -0.00148  -0.00148   2.09127
   A19        2.09299   0.00086   0.00000   0.00419   0.00419   2.09718
    D1        3.12692   0.00031   0.00000   0.01190   0.01187   3.13879
    D2        0.00000  -0.00016   0.00000  -0.00626  -0.00623  -0.00623
    D3       -3.12428  -0.00054   0.00000  -0.01868  -0.01829   3.14061
    D4        0.01739  -0.00049   0.00000  -0.01723  -0.01692   0.00047
    D5        0.00271   0.00000   0.00000  -0.00033  -0.00035   0.00236
    D6       -3.13881   0.00005   0.00000   0.00113   0.00102  -3.13779
    D7        3.12428   0.00037   0.00000   0.01764   0.01802  -3.14088
    D8       -0.01739   0.00033   0.00000   0.01560   0.01591  -0.00148
    D9       -0.00271   0.00000   0.00000  -0.00004  -0.00008  -0.00278
   D10        3.13881  -0.00004   0.00000  -0.00208  -0.00219   3.13662
   D11       -0.00165   0.00003   0.00000   0.00189   0.00196   0.00032
   D12        3.13996   0.00002   0.00000   0.00086   0.00086   3.14083
   D13        3.13987  -0.00002   0.00000   0.00044   0.00057   3.14044
   D14       -0.00171  -0.00003   0.00000  -0.00060  -0.00053  -0.00224
   D15        0.00057  -0.00007   0.00000  -0.00309  -0.00313  -0.00256
   D16       -3.14108  -0.00003   0.00000  -0.00160  -0.00164   3.14047
   D17       -3.14104  -0.00006   0.00000  -0.00206  -0.00202   3.14013
   D18        0.00050  -0.00002   0.00000  -0.00057  -0.00053  -0.00003
   D19       -0.00057   0.00008   0.00000   0.00274   0.00270   0.00213
   D20        3.14104   0.00006   0.00000   0.00249   0.00252  -3.13963
   D21        3.14108   0.00004   0.00000   0.00125   0.00121  -3.14090
   D22       -0.00050   0.00002   0.00000   0.00100   0.00103   0.00053
   D23        0.00165  -0.00004   0.00000  -0.00118  -0.00112   0.00052
   D24       -3.13987  -0.00001   0.00000   0.00086   0.00099  -3.13887
   D25       -3.13996  -0.00002   0.00000  -0.00093  -0.00094  -3.14091
   D26        0.00171   0.00001   0.00000   0.00111   0.00117   0.00288
         Item               Value     Threshold  Converged?
 Maximum Force            0.018442     0.000450     NO 
 RMS     Force            0.005865     0.000300     NO 
 Maximum Displacement     0.085084     0.001800     NO 
 RMS     Displacement     0.027868     0.001200     NO 
 Predicted change in Energy=-2.565570D-03
 Lowest energy point so far.  Saving SCF results.
 GradGradGradGradGradGradGradGradGradGradGradGradGradGradGradGradGradGrad

 Leave Link  103 at Mon Oct 14 10:36:43 2019, MaxMem= 10737418240 cpu:               1.2 elap:               0.1
 (Enter /apps/cent7/gaussian/g16-A.03/g16-haswell/g16/l202.exe)
                          Input orientation:                          
 ---------------------------------------------------------------------
 Center     Atomic      Atomic             Coordinates (Angstroms)
 Number     Number       Type             X           Y           Z
 ---------------------------------------------------------------------
      1          8           0       -0.708961   -1.157672   -0.007252
      2          6           0        0.010077   -0.004873   -0.005087
      3          6           0       -0.690923    1.192830   -0.001397
      4          6           0        0.004605    2.393096    0.002090
      5          6           0        1.394773    2.411269    0.001554
      6          6           0        2.090945    1.210357    0.000569
      7          6           0        1.404341    0.004130   -0.002424
      8          1           0       -0.111178   -1.909170   -0.012266
      9          1           0       -1.773569    1.173783    0.000075
     10          1           0       -0.547867    3.323985    0.004236
     11          1           0        1.930195    3.352172    0.003241
     12          1           0        3.173724    1.210093    0.001982
     13          1           0        1.950285   -0.934239   -0.000639
 ---------------------------------------------------------------------
                    Distance matrix (angstroms):
                    1          2          3          4          5
     1  O    0.000000
     2  C    1.358664   0.000000
     3  C    2.350579   1.387770   0.000000
     4  C    3.621770   2.397986   1.387231   0.000000
     5  C    4.142839   2.784810   2.415518   1.390287   0.000000
     6  C    3.667029   2.409737   2.781924   2.398268   1.388108
     7  C    2.411609   1.394296   2.408970   2.768834   2.407161
     8  H    0.960270   1.908167   3.155729   4.303848   4.575398
     9  H    2.563030   2.137907   1.082814   2.156068   3.401435
    10  H    4.484566   3.375305   2.135959   1.082490   2.146371
    11  H    5.225318   3.867386   3.396033   2.151215   1.082580
    12  H    4.547708   3.388932   3.864687   3.382723   2.146507
    13  H    2.668625   2.151314   3.391224   3.854457   3.391315
                    6          7          8          9         10
     6  C    0.000000
     7  C    1.387955   0.000000
     8  H    3.818503   2.440822   0.000000
     9  H    3.864687   3.386326   3.502612   0.000000
    10  H    3.380942   3.851311   5.251369   2.475021   0.000000
    11  H    2.147840   3.389091   5.643506   4.296889   2.478223
    12  H    1.082780   2.141280   4.529966   4.947427   4.280045
    13  H    2.149204   1.085631   2.280407   4.279117   4.936928
                   11         12         13
    11  H    0.000000
    12  H    2.476867   0.000000
    13  H    4.286459   2.468799   0.000000
 Stoichiometry    C6H6O
 Framework group  C1[X(C6H6O)]
 Deg. of freedom    33
 Full point group                 C1      NOp   1
 RotChk:  IX=2 Diff= 3.02D-02
 Largest Abelian subgroup         C1      NOp   1
 Largest concise Abelian subgroup C1      NOp   1
                         Standard orientation:                         
 ---------------------------------------------------------------------
 Center     Atomic      Atomic             Coordinates (Angstroms)
 Number     Number       Type             X           Y           Z
 ---------------------------------------------------------------------
      1          8           0       -2.293786   -0.105593    0.000014
      2          6           0       -0.937333   -0.028126    0.001063
      3          6           0       -0.223081   -1.217978   -0.000335
      4          6           0        1.163732   -1.183920   -0.000514
      5          6           0        1.846933    0.026919    0.001069
      6          6           0        1.127556    1.214075   -0.000249
      7          6           0       -0.260202    1.190707   -0.000572
      8          1           0       -2.666140    0.779539    0.003703
      9          1           0       -0.759441   -2.158616   -0.002634
     10          1           0        1.715202   -2.115405   -0.000883
     11          1           0        2.929361    0.045011    0.001968
     12          1           0        1.647045    2.164098   -0.000880
     13          1           0       -0.821359    2.120053   -0.004155
 ---------------------------------------------------------------------
 Rotational constants (GHZ):           5.7078924           2.6415075           1.8058123
 Leave Link  202 at Mon Oct 14 10:36:43 2019, MaxMem= 10737418240 cpu:               0.2 elap:               0.0
 (Enter /apps/cent7/gaussian/g16-A.03/g16-haswell/g16/l301.exe)
 Standard basis: 6-311++G(d,p) (5D, 7F)
 Ernie: Thresh=  0.10000D-02 Tol=  0.10000D-05 Strict=F.
 There are   203 symmetry adapted cartesian basis functions of A   symmetry.
 There are   196 symmetry adapted basis functions of A   symmetry.
   196 basis functions,   306 primitive gaussians,   203 cartesian basis functions
    25 alpha electrons       25 beta electrons
       nuclear repulsion energy       272.2057772616 Hartrees.
 IExCor= 4336 DFT=T Ex+Corr=M062X ExCW=0 ScaHFX=  0.540000
 ScaDFX=  1.000000  1.000000  1.000000  1.000000 ScalE2=  1.000000  1.000000
 IRadAn=      5 IRanWt=     -1 IRanGd=            0 ICorTp=0 IEmpDi=  4
 NAtoms=   13 NActive=   13 NUniq=   13 SFac= 1.00D+00 NAtFMM=   60 NAOKFM=F Big=F
 Integral buffers will be    131072 words long.
 Raffenetti 2 integral format.
 Two-electron integral symmetry is turned on.
 Leave Link  301 at Mon Oct 14 10:36:43 2019, MaxMem= 10737418240 cpu:               1.2 elap:               0.1
 (Enter /apps/cent7/gaussian/g16-A.03/g16-haswell/g16/l302.exe)
 NPDir=0 NMtPBC=     1 NCelOv=     1 NCel=       1 NClECP=     1 NCelD=      1
         NCelK=      1 NCelE2=     1 NClLst=     1 CellRange=     0.0.
 One-electron integrals computed using PRISM.
 One-electron integral symmetry used in STVInt
 NBasis=   196 RedAO= T EigKep=  1.09D-06  NBF=   196
 NBsUse=   196 1.00D-06 EigRej= -1.00D+00 NBFU=   196
 Precomputing XC quadrature grid using
 IXCGrd= 4 IRadAn=           5 IRanWt=          -1 IRanGd=           0 AccXCQ= 0.00D+00.
 Generated NRdTot=       0 NPtTot=           0 NUsed=           0 NTot=          32
 NSgBfM=   203   203   203   203   203 MxSgAt=    13 MxSgA2=    13.
 Leave Link  302 at Mon Oct 14 10:36:44 2019, MaxMem= 10737418240 cpu:               3.1 elap:               0.1
 (Enter /apps/cent7/gaussian/g16-A.03/g16-haswell/g16/l303.exe)
 DipDrv:  MaxL=1.
 Leave Link  303 at Mon Oct 14 10:36:44 2019, MaxMem= 10737418240 cpu:               1.2 elap:               0.1
 (Enter /apps/cent7/gaussian/g16-A.03/g16-haswell/g16/l401.exe)
 Initial guess from the checkpoint file:  "21.chk"
 B after Tr=     0.000000   -0.000000   -0.000000
         Rot=    0.999954   -0.000038    0.000008    0.009557 Ang=  -1.10 deg.
 Guess basis will be translated and rotated to current coordinates.
 JPrj=2 DoOrth=T DoCkMO=T.
 Generating alternative initial guess.
 ExpMin= 3.60D-02 ExpMax= 8.59D+03 ExpMxC= 1.30D+03 IAcc=3 IRadAn=         5 AccDes= 0.00D+00
 Harris functional with IExCor= 1009 and IRadAn=       5 diagonalized for initial guess.
 HarFok:  IExCor= 1009 AccDes= 0.00D+00 IRadAn=         5 IDoV= 1 UseB2=F ITyADJ=14
 ICtDFT=  3500011 ScaDFX=  1.000000  1.000000  1.000000  1.000000
 FoFCou: FMM=F IPFlag=           0 FMFlag=      100000 FMFlg1=           0
         NFxFlg=           0 DoJE=T BraDBF=F KetDBF=T FulRan=T
         wScrn=  0.000000 ICntrl=       500 IOpCl=  0 I1Cent=   200000004 NGrid=           0
         NMat0=    1 NMatS0=      1 NMatT0=    0 NMatD0=    1 NMtDS0=    0 NMtDT0=    0
 Petite list used in FoFCou.
 Harris En= -307.307523316433    
 Leave Link  401 at Mon Oct 14 10:36:44 2019, MaxMem= 10737418240 cpu:               8.3 elap:               0.4
 (Enter /apps/cent7/gaussian/g16-A.03/g16-haswell/g16/l502.exe)
 Integral symmetry usage will be decided dynamically.
 Closed shell SCF:
 Using DIIS extrapolation, IDIIS=  1040.
 NGot= 10737418240 LenX= 10737328915 LenY= 10737287265
 Requested convergence on RMS density matrix=1.00D-08 within 128 cycles.
 Requested convergence on MAX density matrix=1.00D-06.
 Requested convergence on             energy=1.00D-06.
 No special actions if energy rises.
 Fock matrices will be formed incrementally for  20 cycles.

 Cycle   1  Pass 1  IDiag  1:
 FoFJK:  IHMeth= 1 ICntrl=       0 DoSepK=F KAlg= 0 I1Cent=           0 FoldK=F
 IRaf= 980000000 NMat=       1 IRICut=       1 DoRegI=T DoRafI=F ISym2E= 0 IDoP0=0 IntGTp=1.
 FoFCou: FMM=F IPFlag=           0 FMFlag=      100000 FMFlg1=           0
         NFxFlg=           0 DoJE=F BraDBF=F KetDBF=F FulRan=T
         wScrn=  0.000000 ICntrl=         0 IOpCl=  0 I1Cent=           0 NGrid=           0
         NMat0=    1 NMatS0=      1 NMatT0=    0 NMatD0=    1 NMtDS0=    0 NMtDT0=    0
 Symmetry not used in FoFCou.
 E= -307.421525813360    
 DIIS: error= 1.82D-03 at cycle   1 NSaved=   1.
 NSaved= 1 IEnMin= 1 EnMin= -307.421525813360     IErMin= 1 ErrMin= 1.82D-03
 ErrMax= 1.82D-03  0.00D+00 EMaxC= 1.00D-01 BMatC= 1.26D-03 BMatP= 1.26D-03
 IDIUse=3 WtCom= 9.82D-01 WtEn= 1.82D-02
 Coeff-Com:  0.100D+01
 Coeff-En:   0.100D+01
 Coeff:      0.100D+01
 Gap=     0.450 Goal=   None    Shift=    0.000
 GapD=    0.450 DampG=2.000 DampE=1.000 DampFc=2.0000 IDamp=-1.
 RMSDP=8.74D-03 MaxDP=6.14D-01              OVMax= 9.20D-03

 Cycle   2  Pass 1  IDiag  1:
 RMSU=  4.67D-03    CP:  1.15D+00
 E= -307.422793269837     Delta-E=       -0.001267456476 Rises=F Damp=F
 DIIS: error= 1.01D-03 at cycle   2 NSaved=   2.
 NSaved= 2 IEnMin= 2 EnMin= -307.422793269837     IErMin= 2 ErrMin= 1.01D-03
 ErrMax= 1.01D-03  0.00D+00 EMaxC= 1.00D-01 BMatC= 1.41D-04 BMatP= 1.26D-03
 IDIUse=3 WtCom= 9.90D-01 WtEn= 1.01D-02
 Coeff-Com:  0.118D+00 0.882D+00
 Coeff-En:   0.000D+00 0.100D+01
 Coeff:      0.117D+00 0.883D+00
 Gap=     0.277 Goal=   None    Shift=    0.000
 RMSDP=3.22D-04 MaxDP=1.81D-02 DE=-1.27D-03 OVMax= 3.77D-03

 Cycle   3  Pass 1  IDiag  1:
 RMSU=  3.08D-04    CP:  1.15D+00  9.90D-01
 E= -307.422866768076     Delta-E=       -0.000073498239 Rises=F Damp=F
 DIIS: error= 8.55D-04 at cycle   3 NSaved=   3.
 NSaved= 3 IEnMin= 3 EnMin= -307.422866768076     IErMin= 3 ErrMin= 8.55D-04
 ErrMax= 8.55D-04  0.00D+00 EMaxC= 1.00D-01 BMatC= 8.26D-05 BMatP= 1.41D-04
 IDIUse=3 WtCom= 9.91D-01 WtEn= 8.55D-03
 Coeff-Com: -0.430D-01 0.430D+00 0.613D+00
 Coeff-En:   0.000D+00 0.294D+00 0.706D+00
 Coeff:     -0.426D-01 0.429D+00 0.614D+00
 Gap=     0.279 Goal=   None    Shift=    0.000
 RMSDP=4.83D-04 MaxDP=2.72D-02 DE=-7.35D-05 OVMax= 1.91D-03

 Cycle   4  Pass 1  IDiag  1:
 RMSU=  1.81D-04    CP:  1.16D+00  1.03D+00  7.12D-01
 E= -307.422939456522     Delta-E=       -0.000072688446 Rises=F Damp=F
 DIIS: error= 2.34D-04 at cycle   4 NSaved=   4.
 NSaved= 4 IEnMin= 4 EnMin= -307.422939456522     IErMin= 4 ErrMin= 2.34D-04
 ErrMax= 2.34D-04  0.00D+00 EMaxC= 1.00D-01 BMatC= 3.37D-06 BMatP= 8.26D-05
 IDIUse=3 WtCom= 9.98D-01 WtEn= 2.34D-03
 Coeff-Com: -0.222D-01 0.133D+00 0.256D+00 0.634D+00
 Coeff-En:   0.000D+00 0.000D+00 0.000D+00 0.100D+01
 Coeff:     -0.222D-01 0.133D+00 0.255D+00 0.634D+00
 Gap=     0.279 Goal=   None    Shift=    0.000
 RMSDP=6.06D-05 MaxDP=4.56D-03 DE=-7.27D-05 OVMax= 5.32D-04

 Cycle   5  Pass 1  IDiag  1:
 RMSU=  2.55D-05    CP:  1.16D+00  1.03D+00  7.59D-01  1.04D+00
 E= -307.422941769595     Delta-E=       -0.000002313074 Rises=F Damp=F
 DIIS: error= 5.36D-05 at cycle   5 NSaved=   5.
 NSaved= 5 IEnMin= 5 EnMin= -307.422941769595     IErMin= 5 ErrMin= 5.36D-05
 ErrMax= 5.36D-05  0.00D+00 EMaxC= 1.00D-01 BMatC= 2.99D-07 BMatP= 3.37D-06
 IDIUse=1 WtCom= 1.00D+00 WtEn= 0.00D+00
 Coeff-Com: -0.193D-02-0.192D-01 0.417D-02 0.227D+00 0.789D+00
 Coeff:     -0.193D-02-0.192D-01 0.417D-02 0.227D+00 0.789D+00
 Gap=     0.279 Goal=   None    Shift=    0.000
 RMSDP=4.08D-05 MaxDP=2.65D-03 DE=-2.31D-06 OVMax= 1.71D-04

 Cycle   6  Pass 1  IDiag  1:
 RMSU=  1.07D-05    CP:  1.16D+00  1.02D+00  7.92D-01  1.06D+00  8.43D-01
 E= -307.422942039330     Delta-E=       -0.000000269735 Rises=F Damp=F
 DIIS: error= 1.07D-05 at cycle   6 NSaved=   6.
 NSaved= 6 IEnMin= 6 EnMin= -307.422942039330     IErMin= 6 ErrMin= 1.07D-05
 ErrMax= 1.07D-05  0.00D+00 EMaxC= 1.00D-01 BMatC= 1.31D-08 BMatP= 2.99D-07
 IDIUse=1 WtCom= 1.00D+00 WtEn= 0.00D+00
 Coeff-Com:  0.399D-03-0.121D-01-0.105D-01 0.433D-01 0.242D+00 0.737D+00
 Coeff:      0.399D-03-0.121D-01-0.105D-01 0.433D-01 0.242D+00 0.737D+00
 Gap=     0.279 Goal=   None    Shift=    0.000
 RMSDP=6.00D-06 MaxDP=3.72D-04 DE=-2.70D-07 OVMax= 6.53D-05

 Cycle   7  Pass 1  IDiag  1:
 RMSU=  1.84D-06    CP:  1.16D+00  1.02D+00  7.96D-01  1.07D+00  8.90D-01
                    CP:  1.06D+00
 E= -307.422942050760     Delta-E=       -0.000000011430 Rises=F Damp=F
 DIIS: error= 7.72D-06 at cycle   7 NSaved=   7.
 NSaved= 7 IEnMin= 7 EnMin= -307.422942050760     IErMin= 7 ErrMin= 7.72D-06
 ErrMax= 7.72D-06  0.00D+00 EMaxC= 1.00D-01 BMatC= 4.07D-09 BMatP= 1.31D-08
 IDIUse=1 WtCom= 1.00D+00 WtEn= 0.00D+00
 Coeff-Com:  0.364D-03-0.410D-02-0.586D-02 0.950D-03 0.428D-01 0.378D+00
 Coeff-Com:  0.587D+00
 Coeff:      0.364D-03-0.410D-02-0.586D-02 0.950D-03 0.428D-01 0.378D+00
 Coeff:      0.587D+00
 Gap=     0.279 Goal=   None    Shift=    0.000
 RMSDP=2.02D-06 MaxDP=1.47D-04 DE=-1.14D-08 OVMax= 3.10D-05

 Cycle   8  Pass 1  IDiag  1:
 RMSU=  7.35D-07    CP:  1.16D+00  1.02D+00  7.96D-01  1.07D+00  9.01D-01
                    CP:  1.08D+00  9.21D-01
 E= -307.422942055292     Delta-E=       -0.000000004532 Rises=F Damp=F
 DIIS: error= 1.39D-06 at cycle   8 NSaved=   8.
 NSaved= 8 IEnMin= 8 EnMin= -307.422942055292     IErMin= 8 ErrMin= 1.39D-06
 ErrMax= 1.39D-06  0.00D+00 EMaxC= 1.00D-01 BMatC= 1.51D-10 BMatP= 4.07D-09
 IDIUse=1 WtCom= 1.00D+00 WtEn= 0.00D+00
 Coeff-Com:  0.449D-04 0.420D-03-0.418D-03-0.444D-02-0.186D-01 0.324D-02
 Coeff-Com:  0.144D+00 0.876D+00
 Coeff:      0.449D-04 0.420D-03-0.418D-03-0.444D-02-0.186D-01 0.324D-02
 Coeff:      0.144D+00 0.876D+00
 Gap=     0.279 Goal=   None    Shift=    0.000
 RMSDP=7.70D-07 MaxDP=5.06D-05 DE=-4.53D-09 OVMax= 8.82D-06

 Cycle   9  Pass 1  IDiag  1:
 RMSU=  1.96D-07    CP:  1.16D+00  1.02D+00  7.97D-01  1.07D+00  9.02D-01
                    CP:  1.10D+00  9.70D-01  1.07D+00
 E= -307.422942055534     Delta-E=       -0.000000000242 Rises=F Damp=F
 DIIS: error= 4.70D-07 at cycle   9 NSaved=   9.
 NSaved= 9 IEnMin= 9 EnMin= -307.422942055534     IErMin= 9 ErrMin= 4.70D-07
 ErrMax= 4.70D-07  0.00D+00 EMaxC= 1.00D-01 BMatC= 2.49D-11 BMatP= 1.51D-10
 IDIUse=1 WtCom= 1.00D+00 WtEn= 0.00D+00
 Coeff-Com: -0.450D-05 0.457D-03 0.212D-03-0.203D-02-0.111D-01-0.257D-01
 Coeff-Com:  0.193D-01 0.355D+00 0.664D+00
 Coeff:     -0.450D-05 0.457D-03 0.212D-03-0.203D-02-0.111D-01-0.257D-01
 Coeff:      0.193D-01 0.355D+00 0.664D+00
 Gap=     0.279 Goal=   None    Shift=    0.000
 RMSDP=1.02D-07 MaxDP=4.91D-06 DE=-2.42D-10 OVMax= 2.88D-06

 Cycle  10  Pass 1  IDiag  1:
 RMSU=  5.50D-08    CP:  1.16D+00  1.02D+00  7.97D-01  1.07D+00  9.02D-01
                    CP:  1.10D+00  9.69D-01  1.13D+00  1.16D+00
 E= -307.422942055572     Delta-E=       -0.000000000038 Rises=F Damp=F
 DIIS: error= 2.70D-07 at cycle  10 NSaved=  10.
 NSaved=10 IEnMin=10 EnMin= -307.422942055572     IErMin=10 ErrMin= 2.70D-07
 ErrMax= 2.70D-07  0.00D+00 EMaxC= 1.00D-01 BMatC= 2.33D-12 BMatP= 2.49D-11
 IDIUse=1 WtCom= 1.00D+00 WtEn= 0.00D+00
 Coeff-Com: -0.821D-05 0.397D-04 0.128D-03 0.231D-03 0.357D-03-0.679D-02
 Coeff-Com: -0.198D-01-0.833D-01 0.159D+00 0.950D+00
 Coeff:     -0.821D-05 0.397D-04 0.128D-03 0.231D-03 0.357D-03-0.679D-02
 Coeff:     -0.198D-01-0.833D-01 0.159D+00 0.950D+00
 Gap=     0.279 Goal=   None    Shift=    0.000
 RMSDP=7.14D-08 MaxDP=4.57D-06 DE=-3.79D-11 OVMax= 2.08D-06

 Cycle  11  Pass 1  IDiag  1:
 RMSU=  2.13D-08    CP:  1.16D+00  1.02D+00  7.97D-01  1.07D+00  9.02D-01
                    CP:  1.10D+00  9.73D-01  1.15D+00  1.27D+00  1.15D+00
 E= -307.422942055577     Delta-E=       -0.000000000006 Rises=F Damp=F
 DIIS: error= 6.62D-08 at cycle  11 NSaved=  11.
 NSaved=11 IEnMin=11 EnMin= -307.422942055577     IErMin=11 ErrMin= 6.62D-08
 ErrMax= 6.62D-08  0.00D+00 EMaxC= 1.00D-01 BMatC= 1.45D-13 BMatP= 2.33D-12
 IDIUse=1 WtCom= 1.00D+00 WtEn= 0.00D+00
 Coeff-Com: -0.190D-06-0.390D-04-0.138D-04 0.226D-03 0.113D-02 0.262D-02
 Coeff-Com: -0.213D-02-0.388D-01-0.508D-01 0.658D-01 0.102D+01
 Coeff:     -0.190D-06-0.390D-04-0.138D-04 0.226D-03 0.113D-02 0.262D-02
 Coeff:     -0.213D-02-0.388D-01-0.508D-01 0.658D-01 0.102D+01
 Gap=     0.279 Goal=   None    Shift=    0.000
 RMSDP=3.51D-08 MaxDP=2.26D-06 DE=-5.57D-12 OVMax= 6.54D-07

 Cycle  12  Pass 1  IDiag  1:
 RMSU=  7.36D-09    CP:  1.16D+00  1.02D+00  7.97D-01  1.07D+00  9.02D-01
                    CP:  1.10D+00  9.70D-01  1.15D+00  1.30D+00  1.22D+00
                    CP:  1.06D+00
 E= -307.422942055580     Delta-E=       -0.000000000002 Rises=F Damp=F
 DIIS: error= 1.98D-08 at cycle  12 NSaved=  12.
 NSaved=12 IEnMin=12 EnMin= -307.422942055580     IErMin=12 ErrMin= 1.98D-08
 ErrMax= 1.98D-08  0.00D+00 EMaxC= 1.00D-01 BMatC= 2.70D-14 BMatP= 1.45D-13
 IDIUse=1 WtCom= 1.00D+00 WtEn= 0.00D+00
 Coeff-Com:  0.739D-06-0.169D-04-0.183D-04 0.481D-04 0.351D-03 0.153D-02
 Coeff-Com:  0.143D-02-0.491D-02-0.320D-01-0.659D-01 0.333D+00 0.767D+00
 Coeff:      0.739D-06-0.169D-04-0.183D-04 0.481D-04 0.351D-03 0.153D-02
 Coeff:      0.143D-02-0.491D-02-0.320D-01-0.659D-01 0.333D+00 0.767D+00
 Gap=     0.279 Goal=   None    Shift=    0.000
 RMSDP=3.41D-09 MaxDP=1.02D-07 DE=-2.27D-12 OVMax= 2.01D-07

 SCF Done:  E(RM062X) =  -307.422942056     A.U. after   12 cycles
            NFock= 12  Conv=0.34D-08     -V/T= 2.0037
 KE= 3.063008799960D+02 PE=-1.260680404383D+03 EE= 3.747508050697D+02
 Leave Link  502 at Mon Oct 14 10:36:50 2019, MaxMem= 10737418240 cpu:             133.1 elap:               5.6
 (Enter /apps/cent7/gaussian/g16-A.03/g16-haswell/g16/l701.exe)
 ... and contract with generalized density number  0.
 Compute integral first derivatives.
 Leave Link  701 at Mon Oct 14 10:36:50 2019, MaxMem= 10737418240 cpu:               2.6 elap:               0.1
 (Enter /apps/cent7/gaussian/g16-A.03/g16-haswell/g16/l702.exe)
 L702 exits ... SP integral derivatives will be done elsewhere.
 Leave Link  702 at Mon Oct 14 10:36:50 2019, MaxMem= 10737418240 cpu:               0.5 elap:               0.0
 (Enter /apps/cent7/gaussian/g16-A.03/g16-haswell/g16/l703.exe)
 Integral derivatives from FoFJK, PRISM(SPDF).
 Compute integral first derivatives, UseDBF=F ICtDFT=           0.
 Calling FoFJK, ICntrl=      2127 FMM=F ISym2X=0 I1Cent= 0 IOpClX= 0 NMat=1 NMatS=1 NMatT=0.
 FoFJK:  IHMeth= 1 ICntrl=    2127 DoSepK=F KAlg= 0 I1Cent=           0 FoldK=F
 IRaf=         0 NMat=       1 IRICut=       1 DoRegI=T DoRafI=F ISym2E= 0 IDoP0=0 IntGTp=1.
 FoFCou: FMM=F IPFlag=           0 FMFlag=      100000 FMFlg1=         800
         NFxFlg=           0 DoJE=F BraDBF=F KetDBF=F FulRan=T
         wScrn=  0.000000 ICntrl=      2127 IOpCl=  0 I1Cent=           0 NGrid=           0
         NMat0=    1 NMatS0=      1 NMatT0=    0 NMatD0=    1 NMtDS0=    0 NMtDT0=    0
 Symmetry not used in FoFCou.
 Leave Link  703 at Mon Oct 14 10:36:51 2019, MaxMem= 10737418240 cpu:              25.1 elap:               1.1
 (Enter /apps/cent7/gaussian/g16-A.03/g16-haswell/g16/l716.exe)
 Dipole        = 5.71204034D-02 5.50225093D-01 7.86417812D-04
 ***** Axes restored to original set *****
 -------------------------------------------------------------------
 Center     Atomic                   Forces (Hartrees/Bohr)
 Number     Number              X              Y              Z
 -------------------------------------------------------------------
      1        8          -0.001625352   -0.002011000   -0.000090720
      2        6           0.004465920   -0.000112506    0.000309243
      3        6          -0.002958582    0.002922306    0.000025913
      4        6          -0.000564177    0.000660382   -0.000154520
      5        6           0.001219312    0.002313982    0.000096805
      6        6           0.000295894    0.000682861   -0.000088599
      7        6          -0.000505332   -0.002945303    0.000021069
      8        1          -0.000151288   -0.000715675    0.000015110
      9        1          -0.000055008   -0.000932106   -0.000077878
     10        1          -0.000421315    0.000710078    0.000026768
     11        1          -0.000084104    0.000144132    0.000017792
     12        1           0.000497432   -0.000410650    0.000008640
     13        1          -0.000113401   -0.000306499   -0.000109623
 -------------------------------------------------------------------
 Cartesian Forces:  Max     0.004465920 RMS     0.001279228
 Leave Link  716 at Mon Oct 14 10:36:51 2019, MaxMem= 10737418240 cpu:               0.4 elap:               0.0
 (Enter /apps/cent7/gaussian/g16-A.03/g16-haswell/g16/l103.exe)

 GradGradGradGradGradGradGradGradGradGradGradGradGradGradGradGradGradGrad
 Berny optimization.
 Using GEDIIS/GDIIS optimizer.
 FormGI is forming the generalized inverse of G from B-inverse, IUseBI=4.
 Internal  Forces:  Max     0.003950357 RMS     0.000960880
 Search for a local minimum.
 Step number   2 out of a maximum of   68
 All quantities printed in internal units (Hartrees-Bohrs-Radians)
 RMS Force = .96088D-03 SwitMx=.10000D-02 MixMth= 2
 Mixed Optimization -- En-DIIS/RFO-DIIS
 Update second derivatives using D2CorX and points    1    2
 DE= -2.39D-03 DEPred=-2.57D-03 R= 9.32D-01
 TightC=F SS=  1.41D+00  RLast= 1.22D-01 DXNew= 5.0454D-01 3.6708D-01
 Trust test= 9.32D-01 RLast= 1.22D-01 DXMaxT set to 3.67D-01
 ITU=  1  0
 Use linear search instead of GDIIS.
     Eigenvalues ---    0.01969   0.01970   0.01972   0.01973   0.01977
     Eigenvalues ---    0.01979   0.01984   0.01989   0.02034   0.02276
     Eigenvalues ---    0.15697   0.16000   0.16000   0.16000   0.16000
     Eigenvalues ---    0.16026   0.21737   0.22108   0.23370   0.24481
     Eigenvalues ---    0.34754   0.34811   0.34812   0.34816   0.34948
     Eigenvalues ---    0.40204   0.40503   0.43518   0.44203   0.44344
     Eigenvalues ---    0.49786   0.55189   0.55613
 RFO step:  Lambda=-1.00728896D-04 EMin= 1.96913730D-02
 Quartic linear search produced a step of -0.06537.
 Iteration  1 RMS(Cart)=  0.00441371 RMS(Int)=  0.00001619
 Iteration  2 RMS(Cart)=  0.00001554 RMS(Int)=  0.00000834
 Iteration  3 RMS(Cart)=  0.00000000 RMS(Int)=  0.00000834
 ITry= 1 IFail=0 DXMaxC= 1.60D-02 DCOld= 1.00D+10 DXMaxT= 3.67D-01 DXLimC= 3.00D+00 Rises=F
 Variable       Old X    -DE/DX   Delta X   Delta X   Delta X     New X
                                 (Linear)    (Quad)   (Total)
    R1        2.56750   0.00326  -0.00035   0.00612   0.00577   2.57327
    R2        1.81465   0.00046  -0.00003   0.00082   0.00079   1.81543
    R3        2.62251   0.00395   0.00260   0.00485   0.00745   2.62996
    R4        2.63484  -0.00053   0.00179  -0.00361  -0.00182   2.63302
    R5        2.62149   0.00158   0.00271  -0.00024   0.00247   2.62396
    R6        2.04622   0.00007   0.00089  -0.00102  -0.00013   2.04609
    R7        2.62726   0.00184   0.00213   0.00107   0.00320   2.63046
    R8        2.04561   0.00083   0.00093   0.00094   0.00188   2.04749
    R9        2.62314   0.00252   0.00241   0.00204   0.00445   2.62760
   R10        2.04578   0.00008   0.00091  -0.00101  -0.00011   2.04567
   R11        2.62285   0.00245   0.00262   0.00159   0.00421   2.62706
   R12        2.04616   0.00050   0.00089   0.00012   0.00101   2.04717
   R13        2.05155   0.00021   0.00054  -0.00018   0.00036   2.05191
    A1        1.91195   0.00103  -0.00009   0.00615   0.00605   1.91800
    A2        2.05438  -0.00091   0.00279  -0.00725  -0.00446   2.04992
    A3        2.13494   0.00031  -0.00248   0.00464   0.00216   2.13710
    A4        2.09386   0.00060  -0.00032   0.00262   0.00230   2.09616
    A5        2.08687   0.00007   0.00069  -0.00047   0.00022   2.08709
    A6        2.08274  -0.00098   0.00065  -0.00673  -0.00608   2.07666
    A7        2.11357   0.00091  -0.00134   0.00720   0.00586   2.11944
    A8        2.10906  -0.00041  -0.00095  -0.00009  -0.00104   2.10802
    A9        2.08078   0.00021   0.00095  -0.00060   0.00034   2.08113
   A10        2.09334   0.00020   0.00000   0.00069   0.00069   2.09404
   A11        2.08309  -0.00037   0.00067  -0.00235  -0.00168   2.08141
   A12        2.10122   0.00004  -0.00041   0.00046   0.00005   2.10126
   A13        2.09888   0.00033  -0.00026   0.00190   0.00164   2.10051
   A14        2.09875   0.00095  -0.00027   0.00433   0.00405   2.10281
   A15        2.09640  -0.00005  -0.00021   0.00081   0.00061   2.09701
   A16        2.08803  -0.00090   0.00048  -0.00514  -0.00466   2.08337
   A17        2.09473  -0.00084   0.00018  -0.00403  -0.00385   2.09088
   A18        2.09127   0.00016   0.00010   0.00021   0.00031   2.09158
   A19        2.09718   0.00068  -0.00027   0.00382   0.00355   2.10073
    D1        3.13879  -0.00003  -0.00078   0.00025  -0.00052   3.13826
    D2       -0.00623   0.00006   0.00041   0.00181   0.00221  -0.00401
    D3        3.14061   0.00004   0.00120  -0.00095   0.00021   3.14083
    D4        0.00047   0.00002   0.00111  -0.00206  -0.00098  -0.00051
    D5        0.00236  -0.00005   0.00002  -0.00247  -0.00245  -0.00010
    D6       -3.13779  -0.00008  -0.00007  -0.00358  -0.00364  -3.14143
    D7       -3.14088  -0.00004  -0.00118   0.00122   0.00001  -3.14088
    D8       -0.00148   0.00000  -0.00104   0.00265   0.00158   0.00010
    D9       -0.00278   0.00006   0.00001   0.00279   0.00280   0.00001
   D10        3.13662   0.00010   0.00014   0.00422   0.00437   3.14099
   D11        0.00032  -0.00001  -0.00013  -0.00014  -0.00028   0.00004
   D12        3.14083   0.00002  -0.00006   0.00110   0.00104  -3.14132
   D13        3.14044   0.00002  -0.00004   0.00098   0.00093   3.14137
   D14       -0.00224   0.00005   0.00003   0.00222   0.00225   0.00001
   D15       -0.00256   0.00006   0.00020   0.00245   0.00266   0.00010
   D16        3.14047   0.00002   0.00011   0.00075   0.00086   3.14133
   D17        3.14013   0.00003   0.00013   0.00120   0.00133   3.14145
   D18       -0.00003  -0.00001   0.00003  -0.00050  -0.00047  -0.00050
   D19        0.00213  -0.00005  -0.00018  -0.00213  -0.00230  -0.00018
   D20       -3.13963  -0.00005  -0.00016  -0.00176  -0.00192  -3.14155
   D21       -3.14090  -0.00001  -0.00008  -0.00044  -0.00051  -3.14141
   D22        0.00053  -0.00000  -0.00007  -0.00006  -0.00013   0.00040
   D23        0.00052  -0.00001   0.00007  -0.00047  -0.00040   0.00012
   D24       -3.13887  -0.00004  -0.00007  -0.00190  -0.00198  -3.14085
   D25       -3.14091  -0.00001   0.00006  -0.00084  -0.00078   3.14150
   D26        0.00288  -0.00005  -0.00008  -0.00227  -0.00235   0.00053
         Item               Value     Threshold  Converged?
 Maximum Force            0.003950     0.000450     NO 
 RMS     Force            0.000961     0.000300     NO 
 Maximum Displacement     0.016035     0.001800     NO 
 RMS     Displacement     0.004414     0.001200     NO 
 Predicted change in Energy=-6.230804D-05
 Lowest energy point so far.  Saving SCF results.
 GradGradGradGradGradGradGradGradGradGradGradGradGradGradGradGradGradGrad

 Leave Link  103 at Mon Oct 14 10:36:51 2019, MaxMem= 10737418240 cpu:               0.5 elap:               0.0
 (Enter /apps/cent7/gaussian/g16-A.03/g16-haswell/g16/l202.exe)
                          Input orientation:                          
 ---------------------------------------------------------------------
 Center     Atomic      Atomic             Coordinates (Angstroms)
 Number     Number       Type             X           Y           Z
 ---------------------------------------------------------------------
      1          8           0       -0.710653   -1.158627   -0.005976
      2          6           0        0.013807   -0.005618   -0.003718
      3          6           0       -0.690582    1.194674   -0.001578
      4          6           0        0.003938    2.397034    0.001691
[...]
 ! A3    A(1,2,7)              122.5125         -DE/DX =    0.0                 !
 ! A4    A(3,2,7)              120.2252         -DE/DX =    0.0                 !
 ! A5    A(2,3,4)              119.544          -DE/DX =    0.0                 !
 ! A6    A(2,3,9)              118.7745         -DE/DX =   -0.0001              !
 ! A7    A(4,3,9)              121.6815         -DE/DX =    0.0                 !
 ! A8    A(3,4,5)              120.736          -DE/DX =    0.0                 !
 ! A9    A(3,4,10)             119.3048         -DE/DX =    0.0001              !
 ! A10   A(5,4,10)             119.9592         -DE/DX =    0.0                 !
 ! A11   A(4,5,6)              119.293          -DE/DX =    0.0001              !
 ! A12   A(4,5,11)             120.3738         -DE/DX =    0.0                 !
 ! A13   A(6,5,11)             120.3332         -DE/DX =    0.0                 !
 ! A14   A(5,6,7)              120.5223         -DE/DX =    0.0                 !
 ! A15   A(5,6,12)             120.1718         -DE/DX =    0.0                 !
 ! A16   A(7,6,12)             119.3059         -DE/DX =    0.0                 !
 ! A17   A(2,7,6)              119.6795         -DE/DX =    0.0                 !
 ! A18   A(2,7,13)             119.953          -DE/DX =    0.0001              !
 ! A19   A(6,7,13)             120.3675         -DE/DX =    0.0                 !
 ! D1    D(8,1,2,3)           -179.9982         -DE/DX =    0.0                 !
 ! D2    D(8,1,2,7)              0.0019         -DE/DX =    0.0                 !
 ! D3    D(1,2,3,4)           -179.9999         -DE/DX =    0.0                 !
 ! D4    D(1,2,3,9)              0.0001         -DE/DX =    0.0                 !
 ! D5    D(7,2,3,4)              0.0            -DE/DX =    0.0                 !
 ! D6    D(7,2,3,9)           -180.0            -DE/DX =    0.0                 !
 ! D7    D(1,2,7,6)            179.9999         -DE/DX =    0.0                 !
 ! D8    D(1,2,7,13)             0.0            -DE/DX =    0.0                 !
 ! D9    D(3,2,7,6)              0.0            -DE/DX =    0.0                 !
 ! D10   D(3,2,7,13)          -179.9999         -DE/DX =    0.0                 !
 ! D11   D(2,3,4,5)             -0.0001         -DE/DX =    0.0                 !
 ! D12   D(2,3,4,10)          -180.0            -DE/DX =    0.0                 !
 ! D13   D(9,3,4,5)            180.0            -DE/DX =    0.0                 !
 ! D14   D(9,3,4,10)             0.0001         -DE/DX =    0.0                 !
 ! D15   D(3,4,5,6)              0.0            -DE/DX =    0.0                 !
 ! D16   D(3,4,5,11)           180.0            -DE/DX =    0.0                 !
 ! D17   D(10,4,5,6)           180.0            -DE/DX =    0.0                 !
 ! D18   D(10,4,5,11)           -0.0001         -DE/DX =    0.0                 !
 ! D19   D(4,5,6,7)              0.0            -DE/DX =    0.0                 !
 ! D20   D(4,5,6,12)          -180.0            -DE/DX =    0.0                 !
 ! D21   D(11,5,6,7)          -180.0            -DE/DX =    0.0                 !
 ! D22   D(11,5,6,12)            0.0            -DE/DX =    0.0                 !
 ! D23   D(5,6,7,2)              0.0            -DE/DX =    0.0                 !
 ! D24   D(5,6,7,13)           179.9999         -DE/DX =    0.0                 !
 ! D25   D(12,6,7,2)           180.0            -DE/DX =    0.0                 !
 ! D26   D(12,6,7,13)           -0.0001         -DE/DX =    0.0                 !
 --------------------------------------------------------------------------------
 GradGradGradGradGradGradGradGradGradGradGradGradGradGradGradGradGradGrad

 Leave Link  103 at Mon Oct 14 10:37:50 2019, MaxMem= 10737418240 cpu:               0.6 elap:               0.1
 (Enter /apps/cent7/gaussian/g16-A.03/g16-haswell/g16/l9999.exe)

 ----------------------------------------------------------------------

 Electric dipole moment (input orientation):
 (Debye = 10**-18 statcoulomb cm , SI units = C m)
                  (au)            (Debye)         (10**-30 SI)
   Tot        0.554120D+00      0.140843D+01      0.469802D+01
   x          0.510486D+00      0.129753D+01      0.432808D+01
   y         -0.215520D+00     -0.547798D+00     -0.182726D+01
   z         -0.184764D-02     -0.469624D-02     -0.156650D-01

 Dipole polarizability, Alpha (input orientation).
 (esu units = cm**3 , SI units = C**2 m**2 J**-1)
 Alpha(0;0):
               (au)            (10**-24 esu)      (10**-40 SI)
   iso        0.693553D+02      0.102774D+02      0.114351D+02
   aniso      0.416805D+02      0.617642D+01      0.687219D+01
   xx         0.799809D+02      0.118519D+02      0.131871D+02
   yx         0.269368D+01      0.399162D+00      0.444128D+00
   yy         0.861138D+02      0.127607D+02      0.141982D+02
   zx         0.310947D-01      0.460776D-02      0.512683D-02
   zy         0.102646D+00      0.152106D-01      0.169241D-01
   zz         0.419711D+02      0.621948D+01      0.692010D+01

 ----------------------------------------------------------------------

 Dipole orientation:
     8         -0.97500628         -2.34340301         -0.38899617
     6          0.00672246         -0.00030127          0.03031193
     6          0.62066037          1.44554967         -2.08107904
     6          1.62652859          3.84635475         -1.75636470
     6          2.02801750          4.82283295          0.65494399
     6          1.40936876          3.36467884          2.75054451
     6          0.39985566          0.95616163          2.45040757
     1         -1.31771523         -3.15910514          1.19619179
     1          0.29794519          0.65952643         -3.94261059
     1          2.10112438          4.96408294         -3.40546538
     1          2.81318643          6.69646434          0.89552009
     1          1.71041434          4.09702384          4.63902316
     1         -0.08160759         -0.17936904          4.08991430

 Electric dipole moment (dipole orientation):
 (Debye = 10**-18 statcoulomb cm , SI units = C m)
                  (au)            (Debye)         (10**-30 SI)
   Tot        0.554120D+00      0.140843D+01      0.469802D+01
   x          0.000000D+00      0.000000D+00      0.000000D+00
   y          0.000000D+00      0.000000D+00      0.000000D+00
   z          0.554120D+00      0.140843D+01      0.469802D+01

 Dipole polarizability, Alpha (dipole orientation).
 (esu units = cm**3 , SI units = C**2 m**2 J**-1)
 Alpha(0;0):
               (au)            (10**-24 esu)      (10**-40 SI)
   iso        0.693553D+02      0.102774D+02      0.114351D+02
   aniso      0.416805D+02      0.617642D+01      0.687219D+01
   xx         0.487252D+02      0.722033D+01      0.803370D+01
   yx         0.161027D+02      0.238617D+01      0.265497D+01
   yy         0.803627D+02      0.119085D+02      0.132500D+02
   zx        -0.227446D+00     -0.337040D-01     -0.375007D-01
   zy        -0.250470D+00     -0.371158D-01     -0.412969D-01
   zz         0.789779D+02      0.117033D+02      0.130217D+02

 ----------------------------------------------------------------------
 1\1\GINC-BROWN-A010\Freq\RM062X\6-311++G(d,p)\C6H6O1\FINEJ\14-Oct-2019
 \0\\#P Geom=AllCheck Guess=TCheck SCRF=Check GenChk RM062X/6-311++G(d,
 p) Freq\\Title Card Required\\0,1\O,-0.7120550085,-1.157283001,-0.0063
 0809\C,0.0152480689,-0.005095085,-0.0033927437\C,-0.690775121,1.195250
 7641,-0.0013826937\C,0.0032869124,2.3974009451,0.0018078431\C,1.396129
 3532,2.4157886281,0.0028022586\C,2.0917438792,1.2122741667,0.000584403
 9\C,1.4079099875,0.0009104104,-0.0024598962\H,-0.1213697342,-1.9148786
 236,-0.0099191006\H,-1.773175434,1.1641819247,-0.0025506704\H,-0.55073
 6475,3.3288087613,0.003398559\H,1.9315432447,3.3566428643,0.0052313438
 \H,3.1753667506,1.2095803217,0.0012209152\H,1.9533299063,-0.9378200768
 ,-0.004349839\\Version=ES64L-G16RevA.03\State=1-A\HF=-307.4230198\RMSD
 =3.080e-09\RMSF=1.410e-04\ZeroPoint=0.1051557\Thermal=0.1051557\Dipole
 =0.5104862,-0.2155205,-0.0018476\DipoleDeriv=-0.5198405,-0.5900875,-0.
 0019003,-0.5959836,-1.331141,-0.0022741,-0.0017232,-0.0017715,-0.38587
 61,0.4205857,0.6145497,0.0017239,0.6442934,1.23385,0.0028243,0.0017055
 ,0.0027732,0.0904344,0.0198183,0.0953629,0.0003886,-0.2243863,-0.31676
 88,-0.0004759,-0.0002724,-0.000449,-0.1715577,0.1904082,-0.0254528,0.0
 001492,0.0800401,0.1167379,0.0005629,0.0003431,0.0004691,-0.130707,-0.
 2169549,0.0806569,0.0001576,0.1068652,-0.0970713,0.0002308,0.0001811,0
 .0002884,-0.169962,0.0912367,0.0466813,0.0002105,-0.1011346,0.1772788,
 0.0006252,-0.0000024,0.0006404,-0.1338589,-0.1743053,-0.3528118,-0.000
 769,-0.0018503,-0.1419926,0.000074,-0.0001007,0.0001085,-0.1835472,0.1
 793119,0.0914534,0.0005076,0.0473858,0.3721456,0.0001064,0.0002468,-0.
 0003539,0.3385332,-0.031047,-0.0093756,-0.0001903,-0.0085681,0.0779529
 ,-0.0001725,-0.0002261,-0.0001647,0.1573314,0.0350801,0.0657961,0.0000
 615,0.0643509,-0.0357213,-0.0003361,0.0000783,-0.0003076,0.1383789,0.0
 301659,-0.0608686,-0.0002184,-0.0616328,-0.0423706,-0.0004751,-0.00020
 32,-0.0004927,0.1535194,-0.0743317,-0.0016682,-0.0001348,0.0026856,0.0
 711136,-0.0001518,-0.0001258,-0.0001753,0.1395966,0.0498726,0.045764,0
 .0000139,0.0479348,-0.0840133,-0.0005382,0.0000992,-0.0005649,0.157715
 \Polar=79.9808561,2.6936801,86.1137963,0.0310947,0.1026464,41.9711234\
 Quadrupole=-0.1669506,4.6595544,-4.4926038,-2.5659703,-0.0006302,0.027
 992\PG=C01 [X(C6H6O1)]\NImag=0\\0.43383509,-0.11194311,0.65569901,-0.0
 0088930,0.00238113,0.02556371,-0.17247540,-0.12131312,-0.00030164,0.70
 880893,-0.07091420,-0.25272921,-0.00063399,-0.01070372,0.71650157,-0.0
 0011043,-0.00053784,-0.04098312,0.00029586,0.00132400,0.14606596,0.019
 99766,-0.02386107,-0.00005910,-0.19563070,0.13731728,0.00018264,0.7610
 7547,0.01535955,-0.06035306,-0.00013140,0.05329318,-0.25506180,-0.0003
 8222,0.02122164,0.69509347,0.00002917,-0.00017081,0.00640211,0.0000029
 4,-0.00031548,-0.05972157,0.00064523,0.00126519,0.11939079,-0.00813512
 ,0.00956868,0.00000357,0.08274826,-0.03487125,-0.00000297,-0.18945294,
 -0.06089008,-0.00025128,0.69540107,0.00195816,0.00405442,-0.00002110,0
 .02953857,-0.06214531,-0.00010923,-0.13461530,-0.30028689,-0.00063454,
 -0.03012712,0.73610732,-0.00000802,-0.00000249,0.00567302,0.00013038,-
 0.00014311,-0.00458613,-0.00040897,-0.00058763,-0.05382075,0.00035138,
 0.00128801,0.13485420,0.00347757,-0.00732476,0.00000186,-0.06689924,0.
 04227469,0.00004345,-0.02326499,-0.08611264,-0.00021663,-0.33895860,0.
 03422123,-0.00011655,0.68786163,-0.00613371,-0.00277297,-0.00000801,0.
 04202768,-0.02002758,-0.00000923,-0.02951594,0.03690822,0.00004768,-0.
 04061928,-0.13011868,-0.00018101,0.03838928,0.73941849,-0.00001178,-0.
 00000797,-0.00168500,0.00004732,-0.00001718,0.00016813,-0.00007887,0.0
 0001146,0.00232804,-0.00028129,-0.00012736,-0.05811065,0.00045873,0.00
 138636,0.12331376,-0.00373953,0.00201595,-0.00000707,-0.02466843,-0.03
 146197,-0.00008659,-0.00239640,0.00361483,0.00001415,-0.02926126,0.027
 56870,0.00003454,-0.18346883,0.13078809,0.00021345,0.75195535,0.011229
 83,-0.00155643,-0.00000173,-0.09680933,0.04611889,0.00003792,0.0007082
 4,-0.07839327,-0.00017905,0.08771210,0.03937762,0.00014446,0.05580876,
 -0.29186181,-0.00048811,-0.00256682,0.67805255,0.00002298,-0.00002437,
 0.00824921,-0.00022272,0.00009855,-0.00639683,-0.00000862,-0.00017077,
 0.00243729,0.00017115,0.00009590,0.00151661,0.00005412,-0.00043906,-0.
 05588977,0.00036318,0.00120934,0.12742657,-0.03111669,-0.01308314,-0.0
 0005722,-0.32288997,-0.02938003,-0.00022891,-0.02215822,0.07666655,0.0
 0014885,-0.05969462,-0.02967155,-0.00010788,0.07003692,-0.02988164,-0.
 00002162,-0.18182186,-0.05753679,-0.00020367,0.68961415,-0.05270344,-0
 .01064063,-0.00008525,0.06005728,-0.13437281,-0.00015068,0.02452475,0.
 03919746,0.00011783,-0.03495061,-0.02112244,-0.00007832,0.02844078,-0.
 05925138,-0.00010915,-0.13127702,-0.29532288,-0.00062808,-0.01935480,0
 .74403883,-0.00014174,-0.00004098,0.00767019,-0.00002929,-0.00022306,-
 0.05489220,0.00004504,0.00014574,0.00021387,-0.00012219,-0.00006780,0.
 00117866,0.00010324,-0.00015560,0.00128273,-0.00036129,-0.00056752,-0.
 04849956,0.00029164,0.00142045,0.10988605,-0.24544429,0.26700378,0.001
 30312,0.01435427,-0.02200560,-0.00010431,-0.00184057,-0.00447914,-0.00
 000957,0.00105752,0.00000797,0.00000186,-0.00047096,0.00011100,-0.0000
 0089,-0.00074327,0.00000896,-0.00000128,0.00184814,-0.00484383,-0.0000
 1042,0.23248936,0.21512189,-0.33552295,-0.00152462,0.02457960,-0.03655
 240,-0.00013964,-0.00559632,-0.00294179,-0.00001792,0.00193148,-0.0006
 9026,-0.00000141,-0.00034253,0.00096915,0.00000148,0.00034534,-0.00122
 291,0.00000695,0.00235109,0.00516886,0.00001749,-0.23677960,0.37047138
 ,0.00110684,-0.00163803,-0.00299048,0.00007731,-0.00004146,-0.00249102
 ,-0.00000593,-0.00001270,0.00169504,0.00000710,0.00000730,0.00179688,-
 0.00000968,0.00000219,0.00004174,0.00000477,-0.00000716,-0.00070794,0.
 00000883,0.00002121,-0.00068288,-0.00118222,0.00166605,0.00368241,0.00
 092311,-0.00059034,0.00000278,-0.01309065,-0.00426436,-0.00002496,-0.3
 4727713,-0.00409121,-0.00032467,-0.00919929,0.00219582,-0.00000387,0.0
 0126216,-0.00283502,-0.00001448,0.00078769,0.00045558,0.00000330,0.000
 05764,0.00290745,0.00000012,0.00019159,-0.00004629,0.00000067,0.366853
 54,-0.00078263,0.00196037,0.00001184,0.02758751,0.00567472,0.00002798,
 -0.00595161,-0.05826730,-0.00005753,-0.02757831,0.00510888,-0.00001819
 ,-0.00228254,-0.00449802,-0.00002813,-0.00012571,-0.00152734,-0.000001
 11,0.00240173,-0.00470556,-0.00002146,-0.00026794,0.00019968,0.0000009
 4,0.00636311,0.05488494,0.00000177,0.00001360,-0.00329015,0.00004659,0
 .00000223,0.00427870,-0.00033581,-0.00006180,-0.03411236,-0.00006625,0
 .00001134,0.00188559,-0.00001045,-0.00002858,0.00801264,0.00000139,-0.
 00000118,-0.00142962,0.00000279,-0.00002187,0.00607209,-0.00000061,0.0
 0000057,-0.00060694,0.00035589,0.00007208,0.02415393,0.00060699,-0.000
 65035,-0.00000223,-0.00087694,-0.00342620,-0.00001476,0.01163715,-0.01
 476929,-0.00002414,-0.13392704,0.12549946,0.00019803,-0.00932814,0.028
 25310,0.00005111,-0.00602366,-0.00084522,-0.00001151,-0.00067976,-0.00
 110495,-0.00000197,-0.00009068,-0.00028426,0.00000014,0.00063428,0.000
 52995,0.00000518,0.13773937,0.00082993,-0.00153889,-0.00000478,-0.0036
 0430,-0.00200703,-0.00002582,0.01589894,-0.01812701,-0.00003311,0.1251
 0371,-0.26971713,-0.00040498,-0.00244196,0.00428373,0.00000003,-0.0004
 4889,0.00181115,-0.00001177,-0.00095841,0.00009536,0.00000199,-0.00019
 436,-0.00027888,0.00000110,-0.00022035,0.00089164,0.00001160,-0.134269
 93,0.28402123,0.00000188,-0.00000191,-0.00005798,-0.00001299,-0.000029
 45,0.00853007,0.00004104,-0.00005269,0.00346581,0.00019097,-0.00040626
 ,-0.03843183,-0.00000937,0.00002094,0.00350140,-0.00001059,-0.00000999
 ,0.00729552,-0.00000375,0.00000085,-0.00127153,0.00000022,-0.00000019,
 -0.00021451,0.00000488,0.00001170,-0.00436035,-0.00020627,0.00045438,0
 .02628221,0.00038046,-0.00021769,0.00000028,-0.00132903,0.00117660,0.0
 0000176,-0.00546270,0.00118899,-0.00000636,-0.00977714,-0.02862020,-0.
 00007026,-0.12908283,-0.12391228,-0.00033516,0.01168021,0.01546306,0.0
 0004008,-0.00078681,0.00318595,0.00000260,-0.00006437,-0.00007511,-0.0
 0000023,-0.00050776,-0.00136945,-0.00000367,0.00090258,0.00042167,0.00
 000436,0.13297268,-0.00018661,0.00023743,0.00000166,0.00099333,-0.0000
 6009,0.00000233,0.00047631,0.00175477,-0.00001115,0.00254758,0.0038410
 7,0.00000659,-0.12379509,-0.27605457,-0.00061651,-0.01580123,-0.017883
 29,-0.00005223,0.00387002,-0.00275462,-0.00002106,0.00015020,0.0000835
 5,0.00000104,0.00018402,0.00008074,-0.00000020,-0.00045183,0.00052617,
 0.00000927,0.13252658,0.29044862,-0.00000031,0.00000346,-0.00080099,0.
 00000274,0.00000249,-0.00077248,-0.00000854,-0.00001199,0.00712321,-0.
 00000129,-0.00001375,0.00150163,-0.00033518,-0.00061638,-0.03358528,-0
 .00002832,-0.00003219,0.00129878,0.00000319,-0.00002003,0.00751918,0.0
 0000072,-0.00000081,-0.00008309,-0.00000034,-0.00000106,0.00028398,0.0
 0000244,0.00000954,-0.00388653,0.00036320,0.00067270,0.02508833,-0.001
 01607,-0.00033301,-0.00000178,0.00141935,-0.00248644,-0.00000890,0.000
 77126,0.00001710,0.00000141,0.00032131,0.00335002,0.00000314,-0.010632
 41,-0.00323435,-0.00001555,-0.34449791,0.00056781,-0.00018093,-0.01081
 527,0.00263915,-0.00000284,-0.00000367,0.00020344,0.00000103,-0.000082
 00,-0.00001710,0.00000033,-0.00065318,-0.00019291,-0.00000091,0.000648
 04,0.00025640,0.00000336,0.36385959,-0.00178288,-0.00033501,-0.0000023
 9,-0.00204373,-0.00438304,-0.00002819,-0.00017892,-0.00136006,0.000000
 21,0.00286850,-0.00459745,-0.00002502,0.02750592,0.00571311,0.00002152
 ,0.00086790,-0.05923692,-0.00004920,-0.02795082,0.00417046,-0.00001409
 ,-0.00002812,0.00026585,0.00000160,0.00000092,0.00011265,0.00000199,0.
 00141881,0.00008780,0.00000160,-0.00059815,0.00078836,0.00001031,-0.00
 054995,0.05790519,-0.00000468,-0.00000022,-0.00005848,-0.00001230,-0.0
 0002875,0.00823962,0.00000153,-0.00000133,-0.00163896,0.00000124,-0.00
 002522,0.00776274,0.00005150,0.00000443,0.00298494,-0.00018000,-0.0000
 5408,-0.03637756,-0.00006600,0.00000977,0.00226812,0.00000047,0.000000
 53,-0.00001234,0.00000071,0.00000200,-0.00076960,0.00000313,0.00000021
 ,-0.00004321,0.00000161,0.00001094,-0.00401808,0.00019948,0.00007093,0
 .02561510,0.00270622,0.00072818,0.00000673,-0.00947044,0.02874519,0.00
 005813,-0.00599790,-0.00101948,-0.00000910,-0.00112213,-0.00130575,-0.
 00000377,-0.00053227,-0.00343693,-0.00001097,0.01219790,-0.01419616,-0
 .00002609,-0.13159366,0.12247929,0.00022711,-0.00128308,-0.00140871,-0
 .00000864,-0.00055317,0.00149300,0.00000284,0.00005902,0.00007687,0.00
 000053,0.00042666,-0.00076969,-0.00000167,0.00068094,0.00047051,0.0000
 0331,0.13448191,-0.00005277,0.00349791,0.00001865,-0.00360295,-0.00095
 591,-0.00000938,-0.00042798,0.00183726,-0.00001131,-0.00069541,0.00018
 885,0.00000311,-0.00434114,-0.00270767,-0.00002644,0.01648084,-0.01835
 536,-0.00003414,0.12252779,-0.26450064,-0.00047411,0.00131669,0.000050
 72,-0.00000208,-0.00005933,0.00008461,0.00000021,0.00010071,-0.0000481
 5,0.00000177,0.00083003,-0.00100814,-0.00000229,-0.00022016,0.00086904
 ,0.00001079,-0.13185632,0.28104749,0.00000362,0.00002644,-0.00369203,-
 0.00002418,0.00000521,0.00256086,-0.00000965,-0.00000986,0.00623749,-0
 .00000014,0.00000272,-0.00121996,-0.00001504,-0.00002372,0.00763733,0.
 00004238,-0.00005071,0.00107730,0.00023374,-0.00047674,-0.03074472,0.0
 0000290,-0.00000846,0.00057313,-0.00000004,0.00000096,-0.00011790,0.00
 000086,0.00000162,-0.00080909,0.00000179,-0.00000340,0.00033135,0.0000
 0217,0.00001073,-0.00395229,-0.00023842,0.00052521,0.02211853\\0.00002
 838,0.00007074,0.00001878,-0.00020767,-0.00007271,0.00001226,-0.000152
 49,-0.00029966,-0.00000447,0.00030277,0.00012993,0.00000412,-0.0001934
 4,0.00035775,-0.00000502,0.00000384,-0.00040396,-0.00000153,0.00031776
 ,0.00022745,0.00001503,-0.00001221,0.00001929,-0.00001638,-0.00000586,
 0.00006250,-0.00001151,-0.00007314,0.00000953,0.00000079,0.00000736,-0
 .00002351,0.00000043,0.00002684,-0.00002233,-0.00000044,-0.00004215,-0
 .00005502,-0.00001208\\\@


 ... THE UNIVERSE IS NOT ONLY QUEERER THAN WE SUPPOSE,
 BUT QUEERER THAN WE CAN SUPPOSE ... 

                                   -- J. B. S. HALDANE
 Job cpu time:       0 days  0 hours 17 minutes 48.5 seconds.
 Elapsed time:       0 days  0 hours  0 minutes 45.1 seconds.
 File lengths (MBytes):  RWF=     56 Int=      0 D2E=      0 Chk=      4 Scr=      1
 Normal termination of Gaussian 16 at Mon Oct 14 10:37:50 2019.
real 78.56
user 1786.45
sys 9.74
Machine:
brown-a010
brown-a010
brown-a010
brown-a010
brown-a010
brown-a010
brown-a010
brown-a010
brown-a010
brown-a010
brown-a010
brown-a010
brown-a010
brown-a010
brown-a010
brown-a010
brown-a010
brown-a010
brown-a010
brown-a010
brown-a010
brown-a010
brown-a010
brown-a010
