 Entering Gaussian System, Link 0=/apps/cent7/gaussian/g16-A.03/g16-haswell/g16/g16
 Initial command:
 /apps/cent7/gaussian/g16-A.03/g16-haswell/g16/l1.exe "/scratch/brown/finej/gaussian/Gau-96477.inp" -scrdir="/scratch/brown/finej/gaussian/"
 Entering Link 1 = /apps/cent7/gaussian/g16-A.03/g16-haswell/g16/l1.exe PID=     96478.
  
 Copyright (c) 1988,1990,1992,1993,1995,1998,2003,2009,2016,
            Gaussian, Inc.  All Rights Reserved.
  
 This is part of the Gaussian(R) 16 program.  It is based on
 the Gaussian(R) 09 system (copyright 2009, Gaussian, Inc.),
 the Gaussian(R) 03 system (copyright 2003, Gaussian, Inc.),
 the Gaussian(R) 98 system (copyright 1998, Gaussian, Inc.),
 the Gaussian(R) 94 system (copyright 1995, Gaussian, Inc.),
 the Gaussian 92(TM) system (copyright 1992, Gaussian, Inc.),
 the Gaussian 90(TM) system (copyright 1990, Gaussian, Inc.),
 the Gaussian 88(TM) system (copyright 1988, Gaussian, Inc.),
 the Gaussian 86(TM) system (copyright 1986, Carnegie Mellon
 University), and the Gaussian 82(TM) system (copyright 1983,
 Carnegie Mellon University). Gaussian is a federally registered
 trademark of Gaussian, Inc.
  
 This software contains proprietary and confidential information,
 including trade secrets, belonging to Gaussian, Inc.
  
 This software is provided under written license and may be
 used, copied, transmitted, or stored only in accord with that
 written license.
  
 The following legend is applicable only to US Government
 contracts under FAR:
  
                    RESTRICTED RIGHTS LEGEND
  
 Use, reproduction and disclosure by the US Government is
 subject to restrictions as set forth in subparagraphs (a)
 and (c) of the Commercial Computer Software - Restricted
 Rights clause in FAR 52.227-19.
  
 Gaussian, Inc.
 340 Quinnipiac St., Bldg. 40, Wallingford CT 06492
  
  
 ---------------------------------------------------------------
 Warning -- This program may not be used in any manner that
 competes with the business of Gaussian, Inc. or will provide
 assistance to any competitor of Gaussian, Inc.  The licensee
 of this program is prohibited from giving any competitor of
 Gaussian, Inc. access to this program.  By using this program,
 the user acknowledges that Gaussian, Inc. is engaged in the
 business of creating and licensing software in the field of
 computational chemistry and represents and warrants to the
 licensee that it is not a competitor of Gaussian, Inc. and that
 it will not use this program in any manner prohibited above.
 ---------------------------------------------------------------
  

 Cite this work as:
 Gaussian 16, Revision A.03,
 M. J. Frisch, G. W. Trucks, H. B. Schlegel, G. E. Scuseria, 
 M. A. Robb, J. R. Cheeseman, G. Scalmani, V. Barone, 
 G. A. Petersson, H. Nakatsuji, X. Li, M. Caricato, A. V. Marenich, 
 J. Bloino, B. G. Janesko, R. Gomperts, B. Mennucci, H. P. Hratchian, 
 J. V. Ortiz, A. F. Izmaylov, J. L. Sonnenberg, D. Williams-Young, 
 F. Ding, F. Lipparini, F. Egidi, J. Goings, B. Peng, A. Petrone, 
 T. Henderson, D. Ranasinghe, V. G. Zakrzewski, J. Gao, N. Rega, 
 G. Zheng, W. Liang, M. Hada, M. Ehara, K. Toyota, R. Fukuda, 
 J. Hasegawa, M. Ishida, T. Nakajima, Y. Honda, O. Kitao, H. Nakai, 
 T. Vreven, K. Throssell, J. A. Montgomery, Jr., J. E. Peralta, 
 F. Ogliaro, M. J. Bearpark, J. J. Heyd, E. N. Brothers, K. N. Kudin, 
 V. N. Staroverov, T. A. Keith, R. Kobayashi, J. Normand, 
 K. Raghavachari, A. P. Rendell, J. C. Burant, S. S. Iyengar, 
 J. Tomasi, M. Cossi, J. M. Millam, M. Klene, C. Adamo, R. Cammi, 
 J. W. Ochterski, R. L. Martin, K. Morokuma, O. Farkas, 
 J. B. Foresman, and D. J. Fox, Gaussian, Inc., Wallingford CT, 2016.
 
 ******************************************
 Gaussian 16:  ES64L-G16RevA.03 25-Dec-2016
                 2-Jan-2020 
 ******************************************
 %chk=21_p_b.chk
 %nprocshared=24
 Will use up to   24 processors via shared memory.
 %mem=80GB
 -------------------------------------------------------------------
 #p opt freq m062x/6-311++g(d,p) geom=connectivity temperature=0.001
 -------------------------------------------------------------------
 1/18=20,19=15,26=3,38=1,57=2,112=-1000/1,3;
 2/9=110,12=2,17=6,18=5,40=1/2;
 3/5=4,6=6,7=1111,11=2,25=1,30=1,71=1,74=-55/1,2,3;
 4//1;
 5/5=2,38=5/2;
 6/7=2,8=2,9=2,10=2,28=1/1;
 7//1,2,3,16;
 1/18=20,19=15,26=3/3(2);
 2/9=110/2;
 99//99;
 2/9=110/2;
 3/5=4,6=6,7=1111,11=2,25=1,30=1,71=1,74=-55/1,2,3;
 4/5=5,16=3,69=1/1;
 5/5=2,38=5/2;
 7//1,2,3,16;
 1/18=20,19=15,26=3/3(-5);
 2/9=110/2;
 6/7=2,8=2,9=2,10=2,19=2,28=1/1;
 99/9=1/99;
 Leave Link    1 at Thu Jan  2 19:20:17 2020, MaxMem= 10737418240 cpu:               0.8 elap:               0.0
 (Enter /apps/cent7/gaussian/g16-A.03/g16-haswell/g16/l101.exe)
 -------------------
 Title Card Required
 -------------------
 Symbolic Z-matrix:
 Charge =  1 Multiplicity = 1
 O                    -0.6901   -1.1952   -0.0142 
 C                    -0.0122   -0.0211    0.0035 
 C                    -0.7133    1.2009    0.0038 
 C                    -0.0091    2.4215    0.0011 
 C                     1.3984    2.4222    0.0001 
 C                     2.1016    1.2028    0.0011 
 C                     1.3966   -0.0173    0.0038 
 H                    -0.06615  -1.92474  -0.02502 
 H                    -1.8033    1.202     0.0062 
 H                    -0.5536    3.3658   -0.0002 
 H                     1.71394   2.96873  -0.86398 
 H                     3.1916    1.2035   -0.0002 
 H                     1.9426   -0.9607    0.0062 
 H                     1.71517   2.97085   0.86239 
 
 ITRead=  0  0  0  0  0  0  0  0  0  0  0  0  0  0
 MicOpt= -1 -1 -1 -1 -1 -1 -1 -1 -1 -1 -1 -1 -1 -1
 NAtoms=     14 NQM=       14 NQMF=       0 NMMI=      0 NMMIF=      0
                NMic=       0 NMicF=      0.
                    Isotopes and Nuclear Properties:
 (Nuclear quadrupole moments (NQMom) in fm**2, nuclear magnetic moments (NMagM)
  in nuclear magnetons)

  Atom         1           2           3           4           5           6           7           8           9          10
 IAtWgt=          16          12          12          12          12          12          12           1           1           1
 AtmWgt=  15.9949146  12.0000000  12.0000000  12.0000000  12.0000000  12.0000000  12.0000000   1.0078250   1.0078250   1.0078250
 NucSpn=           0           0           0           0           0           0           0           1           1           1
 AtZEff=  -0.0000000  -0.0000000  -0.0000000  -0.0000000  -0.0000000  -0.0000000  -0.0000000  -0.0000000  -0.0000000  -0.0000000
 NQMom=    0.0000000   0.0000000   0.0000000   0.0000000   0.0000000   0.0000000   0.0000000   0.0000000   0.0000000   0.0000000
 NMagM=    0.0000000   0.0000000   0.0000000   0.0000000   0.0000000   0.0000000   0.0000000   2.7928460   2.7928460   2.7928460
 AtZNuc=   8.0000000   6.0000000   6.0000000   6.0000000   6.0000000   6.0000000   6.0000000   1.0000000   1.0000000   1.0000000

  Atom        11          12          13          14
 IAtWgt=           1           1           1           1
 AtmWgt=   1.0078250   1.0078250   1.0078250   1.0078250
 NucSpn=           1           1           1           1
 AtZEff=  -0.0000000  -0.0000000  -0.0000000  -0.0000000
 NQMom=    0.0000000   0.0000000   0.0000000   0.0000000
 NMagM=    2.7928460   2.7928460   2.7928460   2.7928460
 AtZNuc=   1.0000000   1.0000000   1.0000000   1.0000000
 Leave Link  101 at Thu Jan  2 19:20:17 2020, MaxMem= 10737418240 cpu:               9.7 elap:               0.4
 (Enter /apps/cent7/gaussian/g16-A.03/g16-haswell/g16/l103.exe)

 GradGradGradGradGradGradGradGradGradGradGradGradGradGradGradGradGradGrad
 Berny optimization.
 Initialization pass.
                           ----------------------------
                           !    Initial Parameters    !
                           ! (Angstroms and Degrees)  !
 --------------------------                            --------------------------
 ! Name  Definition              Value          Derivative Info.                !
 --------------------------------------------------------------------------------
 ! R1    R(1,2)                  1.3559         estimate D2E/DX2                !
 ! R2    R(1,8)                  0.96           estimate D2E/DX2                !
 ! R3    R(2,3)                  1.4088         estimate D2E/DX2                !
 ! R4    R(2,7)                  1.4088         estimate D2E/DX2                !
 ! R5    R(3,4)                  1.4092         estimate D2E/DX2                !
 ! R6    R(3,9)                  1.09           estimate D2E/DX2                !
 ! R7    R(4,5)                  1.4075         estimate D2E/DX2                !
 ! R8    R(4,10)                 1.09           estimate D2E/DX2                !
 ! R9    R(5,6)                  1.4076         estimate D2E/DX2                !
 ! R10   R(5,11)                 1.07           estimate D2E/DX2                !
 ! R11   R(5,14)                 1.07           estimate D2E/DX2                !
 ! R12   R(6,7)                  1.4091         estimate D2E/DX2                !
 ! R13   R(6,12)                 1.09           estimate D2E/DX2                !
 ! R14   R(7,13)                 1.09           estimate D2E/DX2                !
 ! A1    A(2,1,8)              109.4656         estimate D2E/DX2                !
 ! A2    A(1,2,3)              120.1519         estimate D2E/DX2                !
 ! A3    A(1,2,7)              120.1531         estimate D2E/DX2                !
 ! A4    A(3,2,7)              119.6897         estimate D2E/DX2                !
 ! A5    A(2,3,4)              120.1737         estimate D2E/DX2                !
 ! A6    A(2,3,9)              119.902          estimate D2E/DX2                !
 ! A7    A(4,3,9)              119.9242         estimate D2E/DX2                !
 ! A8    A(3,4,5)              120.0104         estimate D2E/DX2                !
 ! A9    A(3,4,10)             120.0497         estimate D2E/DX2                !
 ! A10   A(5,4,10)             119.9399         estimate D2E/DX2                !
 ! A11   A(4,5,6)              119.9425         estimate D2E/DX2                !
 ! A12   A(4,5,11)             107.2011         estimate D2E/DX2                !
 ! A13   A(4,5,14)             107.2011         estimate D2E/DX2                !
 ! A14   A(6,5,11)             107.2011         estimate D2E/DX2                !
 ! A15   A(6,5,14)             107.2011         estimate D2E/DX2                !
 ! A16   A(11,5,14)            107.5525         estimate D2E/DX2                !
 ! A17   A(5,6,7)              120.0087         estimate D2E/DX2                !
 ! A18   A(5,6,12)             119.9342         estimate D2E/DX2                !
 ! A19   A(7,6,12)             120.0571         estimate D2E/DX2                !
 ! A20   A(2,7,6)              120.1747         estimate D2E/DX2                !
 ! A21   A(2,7,13)             119.9058         estimate D2E/DX2                !
 ! A22   A(6,7,13)             119.9195         estimate D2E/DX2                !
 ! D1    D(8,1,2,3)            179.1592         estimate D2E/DX2                !
 ! D2    D(8,1,2,7)              0.0            estimate D2E/DX2                !
 ! D3    D(1,2,3,4)           -179.008          estimate D2E/DX2                !
 ! D4    D(1,2,3,9)              0.9965         estimate D2E/DX2                !
 ! D5    D(7,2,3,4)              0.1551         estimate D2E/DX2                !
 ! D6    D(7,2,3,9)           -179.8405         estimate D2E/DX2                !
 ! D7    D(1,2,7,6)            179.008          estimate D2E/DX2                !
 ! D8    D(1,2,7,13)            -0.9965         estimate D2E/DX2                !
 ! D9    D(3,2,7,6)             -0.1551         estimate D2E/DX2                !
 ! D10   D(3,2,7,13)           179.8405         estimate D2E/DX2                !
 ! D11   D(2,3,4,5)             -0.0943         estimate D2E/DX2                !
 ! D12   D(2,3,4,10)           179.9066         estimate D2E/DX2                !
 ! D13   D(9,3,4,5)            179.9012         estimate D2E/DX2                !
 ! D14   D(9,3,4,10)            -0.0978         estimate D2E/DX2                !
 ! D15   D(3,4,5,6)              0.0328         estimate D2E/DX2                !
 ! D16   D(3,4,5,11)           122.4158         estimate D2E/DX2                !
 ! D17   D(3,4,5,14)          -122.3501         estimate D2E/DX2                !
 ! D18   D(10,4,5,6)          -179.9681         estimate D2E/DX2                !
 ! D19   D(10,4,5,11)          -57.5851         estimate D2E/DX2                !
 ! D20   D(10,4,5,14)           57.6489         estimate D2E/DX2                !
 ! D21   D(4,5,6,7)             -0.0328         estimate D2E/DX2                !
 ! D22   D(4,5,6,12)           179.9681         estimate D2E/DX2                !
 ! D23   D(11,5,6,7)          -122.4158         estimate D2E/DX2                !
 ! D24   D(11,5,6,12)           57.5852         estimate D2E/DX2                !
 ! D25   D(14,5,6,7)           122.3501         estimate D2E/DX2                !
 ! D26   D(14,5,6,12)          -57.6489         estimate D2E/DX2                !
 ! D27   D(5,6,7,2)              0.0943         estimate D2E/DX2                !
 ! D28   D(5,6,7,13)          -179.9012         estimate D2E/DX2                !
 ! D29   D(12,6,7,2)          -179.9066         estimate D2E/DX2                !
 ! D30   D(12,6,7,13)            0.0978         estimate D2E/DX2                !
 --------------------------------------------------------------------------------
 Trust Radius=3.00D-01 FncErr=1.00D-07 GrdErr=1.00D-06 EigMax=2.50D+02 EigMin=1.00D-04
 Number of steps in this run=     76 maximum allowed number of steps=    100.
 GradGradGradGradGradGradGradGradGradGradGradGradGradGradGradGradGradGrad

 Leave Link  103 at Thu Jan  2 19:20:17 2020, MaxMem= 10737418240 cpu:               0.3 elap:               0.0
 (Enter /apps/cent7/gaussian/g16-A.03/g16-haswell/g16/l202.exe)
                          Input orientation:                          
 ---------------------------------------------------------------------
 Center     Atomic      Atomic             Coordinates (Angstroms)
 Number     Number       Type             X           Y           Z
 ---------------------------------------------------------------------
      1          8           0       -0.690100   -1.195200   -0.014200
      2          6           0       -0.012200   -0.021100    0.003500
      3          6           0       -0.713300    1.200900    0.003800
      4          6           0       -0.009100    2.421500    0.001100
      5          6           0        1.398400    2.422200    0.000100
      6          6           0        2.101600    1.202800    0.001100
      7          6           0        1.396600   -0.017300    0.003800
      8          1           0       -0.066154   -1.924738   -0.025018
      9          1           0       -1.803300    1.202000    0.006200
     10          1           0       -0.553600    3.365800   -0.000200
     11          1           0        1.713942    2.968730   -0.863982
     12          1           0        3.191600    1.203500   -0.000200
     13          1           0        1.942600   -0.960700    0.006200
     14          1           0        1.715168    2.970853    0.862387
 ---------------------------------------------------------------------
                    Distance matrix (angstroms):
                    1          2          3          4          5
     1  O    0.000000
     2  C    1.355866   0.000000
     3  C    2.396280   1.408838   0.000000
     4  C    3.680287   2.442603   1.409173   0.000000
     5  C    4.177035   2.821262   2.439439   1.407501   0.000000
     6  C    3.680248   2.442558   2.814902   2.437270   1.407632
     7  C    2.396266   1.408805   2.436327   2.814915   2.439503
     8  H    0.960027   1.904616   3.192059   4.346691   4.587093
     9  H    2.643142   2.168875   1.090003   2.169415   3.426340
    10  H    4.563064   3.429901   2.170786   1.090039   2.168106
    11  H    4.882608   3.559659   3.125664   2.004171   1.070000
    12  H    4.563064   3.429868   3.904903   3.424618   2.168132
    13  H    2.643202   2.168893   3.424372   3.904925   3.426398
    14  H    4.889756   3.559953   3.125277   2.004171   1.070000
                    6          7          8          9         10
     6  C    0.000000
     7  C    1.409140   0.000000
     8  H    3.805435   2.403913   0.000000
     9  H    3.904903   3.424333   3.577030   0.000000
    10  H    3.424713   3.904953   5.313004   2.498764   0.000000
    11  H    2.004284   3.125720   5.274337   4.031072   2.458766
    12  H    1.090001   2.170805   4.516575   4.994904   4.324588
    13  H    2.169341   1.090012   2.228326   4.325395   4.994963
    14  H    2.004284   3.125334   5.284638   4.030076   2.459135
                   11         12         13         14
    11  H    0.000000
    12  H    2.458786   0.000000
    13  H    4.031119   2.498760   0.000000
    14  H    1.726371   2.459155   4.030122   0.000000
 Stoichiometry    C6H7O(1+)
 Framework group  C1[X(C6H7O)]
 Deg. of freedom    36
 Full point group                 C1      NOp   1
 Largest Abelian subgroup         C1      NOp   1
 Largest concise Abelian subgroup C1      NOp   1
                         Standard orientation:                         
 ---------------------------------------------------------------------
 Center     Atomic      Atomic             Coordinates (Angstroms)
 Number     Number       Type             X           Y           Z
 ---------------------------------------------------------------------
      1          8           0       -2.350200   -0.116892    0.006853
      2          6           0       -0.995612   -0.059743   -0.007151
      3          6           0       -0.237183   -1.247012   -0.005177
      4          6           0        1.170742   -1.188082    0.001365
      5          6           0        1.823124    0.059094    0.003940
      6          6           0        1.067976    1.247020    0.000675
      7          6           0       -0.339876    1.187149   -0.005867
      8          1           0       -2.707906    0.773953    0.016542
      9          1           0       -0.740943   -2.213614   -0.008792
     10          1           0        1.755551   -2.107959    0.004420
     11          1           0        2.451278    0.085832    0.869740
     12          1           0        1.573335    2.212789    0.003195
     13          1           0       -0.923190    2.107939   -0.010018
     14          1           0        2.458449    0.085645   -0.856616
 ---------------------------------------------------------------------
 Rotational constants (GHZ):           5.4709021           2.5235293           1.7448934
 Leave Link  202 at Thu Jan  2 19:20:17 2020, MaxMem= 10737418240 cpu:               0.5 elap:               0.0
 (Enter /apps/cent7/gaussian/g16-A.03/g16-haswell/g16/l301.exe)
 Standard basis: 6-311++G(d,p) (5D, 7F)
 Ernie: Thresh=  0.10000D-02 Tol=  0.10000D-05 Strict=F.
 There are   210 symmetry adapted cartesian basis functions of A   symmetry.
 There are   203 symmetry adapted basis functions of A   symmetry.
   203 basis functions,   315 primitive gaussians,   210 cartesian basis functions
    25 alpha electrons       25 beta electrons
       nuclear repulsion energy       281.0707998715 Hartrees.
 IExCor= 4336 DFT=T Ex+Corr=M062X ExCW=0 ScaHFX=  0.540000
 ScaDFX=  1.000000  1.000000  1.000000  1.000000 ScalE2=  1.000000  1.000000
 IRadAn=      5 IRanWt=     -1 IRanGd=            0 ICorTp=0 IEmpDi=  4
 NAtoms=   14 NActive=   14 NUniq=   14 SFac= 1.00D+00 NAtFMM=   60 NAOKFM=F Big=F
 Integral buffers will be    131072 words long.
 Raffenetti 2 integral format.
 Two-electron integral symmetry is turned on.
 Leave Link  301 at Thu Jan  2 19:20:17 2020, MaxMem= 10737418240 cpu:               1.3 elap:               0.1
 (Enter /apps/cent7/gaussian/g16-A.03/g16-haswell/g16/l302.exe)
 NPDir=0 NMtPBC=     1 NCelOv=     1 NCel=       1 NClECP=     1 NCelD=      1
         NCelK=      1 NCelE2=     1 NClLst=     1 CellRange=     0.0.
 One-electron integrals computed using PRISM.
 One-electron integral symmetry used in STVInt
 NBasis=   203 RedAO= T EigKep=  1.72D-06  NBF=   203
 NBsUse=   203 1.00D-06 EigRej= -1.00D+00 NBFU=   203
 Precomputing XC quadrature grid using
 IXCGrd= 4 IRadAn=           5 IRanWt=          -1 IRanGd=           0 AccXCQ= 0.00D+00.
 Generated NRdTot=       0 NPtTot=           0 NUsed=           0 NTot=          32
 NSgBfM=   210   210   210   210   210 MxSgAt=    14 MxSgA2=    14.
 Leave Link  302 at Thu Jan  2 19:20:18 2020, MaxMem= 10737418240 cpu:               4.2 elap:               0.2
 (Enter /apps/cent7/gaussian/g16-A.03/g16-haswell/g16/l303.exe)
 DipDrv:  MaxL=1.
 Leave Link  303 at Thu Jan  2 19:20:18 2020, MaxMem= 10737418240 cpu:               1.3 elap:               0.1
 (Enter /apps/cent7/gaussian/g16-A.03/g16-haswell/g16/l401.exe)
 ExpMin= 3.60D-02 ExpMax= 8.59D+03 ExpMxC= 1.30D+03 IAcc=3 IRadAn=         5 AccDes= 0.00D+00
 Harris functional with IExCor= 1009 and IRadAn=       5 diagonalized for initial guess.
 HarFok:  IExCor= 1009 AccDes= 0.00D+00 IRadAn=         5 IDoV= 1 UseB2=F ITyADJ=14
 ICtDFT=  3500011 ScaDFX=  1.000000  1.000000  1.000000  1.000000
 FoFCou: FMM=F IPFlag=           0 FMFlag=      100000 FMFlg1=           0
         NFxFlg=           0 DoJE=T BraDBF=F KetDBF=T FulRan=T
         wScrn=  0.000000 ICntrl=       500 IOpCl=  0 I1Cent=   200000004 NGrid=           0
         NMat0=    1 NMatS0=      1 NMatT0=    0 NMatD0=    1 NMtDS0=    0 NMtDT0=    0
 Petite list used in FoFCou.
 Harris En= -307.616943297196    
 JPrj=0 DoOrth=F DoCkMO=F.
 Leave Link  401 at Thu Jan  2 19:20:18 2020, MaxMem= 10737418240 cpu:               8.0 elap:               0.4
 (Enter /apps/cent7/gaussian/g16-A.03/g16-haswell/g16/l502.exe)
 Integral symmetry usage will be decided dynamically.
 Closed shell SCF:
 Using DIIS extrapolation, IDIIS=  1040.
 NGot= 10737418240 LenX= 10737322854 LenY= 10737278313
 Requested convergence on RMS density matrix=1.00D-08 within 128 cycles.
 Requested convergence on MAX density matrix=1.00D-06.
 Requested convergence on             energy=1.00D-06.
 No special actions if energy rises.
 Fock matrices will be formed incrementally for  20 cycles.

 Cycle   1  Pass 1  IDiag  1:
 FoFJK:  IHMeth= 1 ICntrl=       0 DoSepK=F KAlg= 0 I1Cent=           0 FoldK=F
 IRaf= 980000000 NMat=       1 IRICut=       1 DoRegI=T DoRafI=F ISym2E= 0 IDoP0=0 IntGTp=1.
 FoFCou: FMM=F IPFlag=           0 FMFlag=      100000 FMFlg1=           0
         NFxFlg=           0 DoJE=F BraDBF=F KetDBF=F FulRan=T
         wScrn=  0.000000 ICntrl=         0 IOpCl=  0 I1Cent=           0 NGrid=           0
         NMat0=    1 NMatS0=      1 NMatT0=    0 NMatD0=    1 NMtDS0=    0 NMtDT0=    0
 Symmetry not used in FoFCou.
 E= -307.594288095614    
 DIIS: error= 3.38D-02 at cycle   1 NSaved=   1.
 NSaved= 1 IEnMin= 1 EnMin= -307.594288095614     IErMin= 1 ErrMin= 3.38D-02
 ErrMax= 3.38D-02  0.00D+00 EMaxC= 1.00D-01 BMatC= 1.81D-01 BMatP= 1.81D-01
 IDIUse=3 WtCom= 6.62D-01 WtEn= 3.38D-01
 Coeff-Com:  0.100D+01
 Coeff-En:   0.100D+01
 Coeff:      0.100D+01
 Gap=     0.244 Goal=   None    Shift=    0.000
 GapD=    0.244 DampG=1.000 DampE=0.500 DampFc=0.5000 IDamp=-1.
 Damping current iteration by 5.00D-01
 RMSDP=1.00D-02 MaxDP=3.94D-01              OVMax= 1.15D-01

 Cycle   2  Pass 1  IDiag  1:
 RMSU=  4.40D-03    CP:  1.05D+00
 E= -307.658724297710     Delta-E=       -0.064436202096 Rises=F Damp=T
 DIIS: error= 8.27D-03 at cycle   2 NSaved=   2.
 NSaved= 2 IEnMin= 2 EnMin= -307.658724297710     IErMin= 2 ErrMin= 8.27D-03
 ErrMax= 8.27D-03  0.00D+00 EMaxC= 1.00D-01 BMatC= 1.70D-02 BMatP= 1.81D-01
 IDIUse=3 WtCom= 9.17D-01 WtEn= 8.27D-02
 Coeff-Com: -0.206D+00 0.121D+01
 Coeff-En:   0.000D+00 0.100D+01
 Coeff:     -0.189D+00 0.119D+01
 Gap=     0.268 Goal=   None    Shift=    0.000
 RMSDP=4.17D-03 MaxDP=1.82D-01 DE=-6.44D-02 OVMax= 6.55D-02

 Cycle   3  Pass 1  IDiag  1:
 RMSU=  3.60D-03    CP:  1.05D+00  1.48D+00
 E= -307.714174639057     Delta-E=       -0.055450341347 Rises=F Damp=F
 DIIS: error= 6.82D-03 at cycle   3 NSaved=   3.
 NSaved= 3 IEnMin= 3 EnMin= -307.714174639057     IErMin= 3 ErrMin= 6.82D-03
 ErrMax= 6.82D-03  0.00D+00 EMaxC= 1.00D-01 BMatC= 4.41D-03 BMatP= 1.70D-02
 IDIUse=3 WtCom= 9.32D-01 WtEn= 6.82D-02
 Coeff-Com: -0.140D+00 0.438D+00 0.702D+00
 Coeff-En:   0.000D+00 0.000D+00 0.100D+01
 Coeff:     -0.130D+00 0.408D+00 0.722D+00
 Gap=     0.262 Goal=   None    Shift=    0.000
 RMSDP=1.05D-03 MaxDP=4.83D-02 DE=-5.55D-02 OVMax= 2.96D-02

 Cycle   4  Pass 1  IDiag  1:
 RMSU=  7.37D-04    CP:  1.04D+00  1.58D+00  8.87D-01
 E= -307.716911596923     Delta-E=       -0.002736957866 Rises=F Damp=F
 DIIS: error= 4.91D-03 at cycle   4 NSaved=   4.
 NSaved= 4 IEnMin= 4 EnMin= -307.716911596923     IErMin= 4 ErrMin= 4.91D-03
 ErrMax= 4.91D-03  0.00D+00 EMaxC= 1.00D-01 BMatC= 1.20D-03 BMatP= 4.41D-03
 IDIUse=3 WtCom= 9.51D-01 WtEn= 4.91D-02
 Coeff-Com: -0.570D-01 0.140D+00 0.403D+00 0.514D+00
 Coeff-En:   0.000D+00 0.000D+00 0.225D+00 0.775D+00
 Coeff:     -0.542D-01 0.133D+00 0.394D+00 0.527D+00
 Gap=     0.261 Goal=   None    Shift=    0.000
 RMSDP=8.93D-04 MaxDP=5.97D-02 DE=-2.74D-03 OVMax= 1.51D-02

 Cycle   5  Pass 1  IDiag  1:
 RMSU=  4.16D-04    CP:  1.03D+00  1.54D+00  8.43D-01  8.06D-01
 E= -307.718095693086     Delta-E=       -0.001184096163 Rises=F Damp=F
 DIIS: error= 7.97D-04 at cycle   5 NSaved=   5.
 NSaved= 5 IEnMin= 5 EnMin= -307.718095693086     IErMin= 5 ErrMin= 7.97D-04
 ErrMax= 7.97D-04  0.00D+00 EMaxC= 1.00D-01 BMatC= 2.59D-05 BMatP= 1.20D-03
 IDIUse=3 WtCom= 9.92D-01 WtEn= 7.97D-03
 Coeff-Com: -0.114D-01 0.233D-01 0.988D-01 0.200D+00 0.689D+00
 Coeff-En:   0.000D+00 0.000D+00 0.000D+00 0.000D+00 0.100D+01
 Coeff:     -0.113D-01 0.231D-01 0.980D-01 0.198D+00 0.692D+00
 Gap=     0.262 Goal=   None    Shift=    0.000
 RMSDP=1.49D-04 MaxDP=5.86D-03 DE=-1.18D-03 OVMax= 2.59D-03

 Cycle   6  Pass 1  IDiag  1:
 RMSU=  6.26D-05    CP:  1.03D+00  1.54D+00  8.58D-01  8.00D-01  8.21D-01
 E= -307.718120378920     Delta-E=       -0.000024685835 Rises=F Damp=F
 DIIS: error= 1.32D-04 at cycle   6 NSaved=   6.
 NSaved= 6 IEnMin= 6 EnMin= -307.718120378920     IErMin= 6 ErrMin= 1.32D-04
 ErrMax= 1.32D-04  0.00D+00 EMaxC= 1.00D-01 BMatC= 2.86D-06 BMatP= 2.59D-05
 IDIUse=3 WtCom= 9.99D-01 WtEn= 1.32D-03
 Coeff-Com: -0.337D-02 0.595D-02 0.312D-01 0.770D-01 0.355D+00 0.534D+00
 Coeff-En:   0.000D+00 0.000D+00 0.000D+00 0.000D+00 0.000D+00 0.100D+01
 Coeff:     -0.337D-02 0.594D-02 0.311D-01 0.769D-01 0.354D+00 0.535D+00
 Gap=     0.262 Goal=   None    Shift=    0.000
 RMSDP=5.41D-05 MaxDP=3.27D-03 DE=-2.47D-05 OVMax= 5.11D-04

 Cycle   7  Pass 1  IDiag  1:
 RMSU=  1.90D-05    CP:  1.03D+00  1.54D+00  8.62D-01  7.98D-01  7.81D-01
                    CP:  8.23D-01
 E= -307.718122736650     Delta-E=       -0.000002357729 Rises=F Damp=F
 DIIS: error= 3.87D-05 at cycle   7 NSaved=   7.
 NSaved= 7 IEnMin= 7 EnMin= -307.718122736650     IErMin= 7 ErrMin= 3.87D-05
 ErrMax= 3.87D-05  0.00D+00 EMaxC= 1.00D-01 BMatC= 1.26D-07 BMatP= 2.86D-06
 IDIUse=1 WtCom= 1.00D+00 WtEn= 0.00D+00
 Coeff-Com:  0.891D-03-0.215D-02-0.723D-02-0.819D-02 0.490D-02 0.139D+00
 Coeff-Com:  0.873D+00
 Coeff:      0.891D-03-0.215D-02-0.723D-02-0.819D-02 0.490D-02 0.139D+00
 Coeff:      0.873D+00
 Gap=     0.262 Goal=   None    Shift=    0.000
 RMSDP=1.06D-05 MaxDP=8.56D-04 DE=-2.36D-06 OVMax= 1.94D-04

 Cycle   8  Pass 1  IDiag  1:
 RMSU=  4.97D-06    CP:  1.03D+00  1.54D+00  8.62D-01  7.99D-01  7.87D-01
                    CP:  8.85D-01  9.74D-01
 E= -307.718122872675     Delta-E=       -0.000000136025 Rises=F Damp=F
 DIIS: error= 1.57D-05 at cycle   8 NSaved=   8.
 NSaved= 8 IEnMin= 8 EnMin= -307.718122872675     IErMin= 8 ErrMin= 1.57D-05
 ErrMax= 1.57D-05  0.00D+00 EMaxC= 1.00D-01 BMatC= 3.52D-08 BMatP= 1.26D-07
 IDIUse=1 WtCom= 1.00D+00 WtEn= 0.00D+00
 Coeff-Com:  0.620D-03-0.135D-02-0.582D-02-0.100D-01-0.274D-01 0.329D-02
 Coeff-Com:  0.400D+00 0.641D+00
 Coeff:      0.620D-03-0.135D-02-0.582D-02-0.100D-01-0.274D-01 0.329D-02
 Coeff:      0.400D+00 0.641D+00
 Gap=     0.262 Goal=   None    Shift=    0.000
 RMSDP=2.54D-06 MaxDP=1.21D-04 DE=-1.36D-07 OVMax= 6.15D-05

 Cycle   9  Pass 1  IDiag  1:
 RMSU=  1.60D-06    CP:  1.03D+00  1.54D+00  8.63D-01  7.99D-01  7.87D-01
                    CP:  8.91D-01  1.05D+00  9.73D-01
 E= -307.718122904127     Delta-E=       -0.000000031452 Rises=F Damp=F
 DIIS: error= 2.16D-06 at cycle   9 NSaved=   9.
 NSaved= 9 IEnMin= 9 EnMin= -307.718122904127     IErMin= 9 ErrMin= 2.16D-06
 ErrMax= 2.16D-06  0.00D+00 EMaxC= 1.00D-01 BMatC= 1.48D-09 BMatP= 3.52D-08
 IDIUse=1 WtCom= 1.00D+00 WtEn= 0.00D+00
 Coeff-Com:  0.308D-04-0.537D-04-0.594D-03-0.140D-02-0.531D-02-0.182D-01
 Coeff-Com:  0.389D-02 0.151D+00 0.870D+00
 Coeff:      0.308D-04-0.537D-04-0.594D-03-0.140D-02-0.531D-02-0.182D-01
 Coeff:      0.389D-02 0.151D+00 0.870D+00
 Gap=     0.262 Goal=   None    Shift=    0.000
 RMSDP=9.57D-07 MaxDP=4.66D-05 DE=-3.15D-08 OVMax= 1.68D-05

 Cycle  10  Pass 1  IDiag  1:
 RMSU=  4.39D-07    CP:  1.03D+00  1.54D+00  8.63D-01  7.99D-01  7.86D-01
                    CP:  8.93D-01  1.05D+00  1.04D+00  1.00D+00
 E= -307.718122906065     Delta-E=       -0.000000001938 Rises=F Damp=F
 DIIS: error= 7.23D-07 at cycle  10 NSaved=  10.
 NSaved=10 IEnMin=10 EnMin= -307.718122906065     IErMin=10 ErrMin= 7.23D-07
 ErrMax= 7.23D-07  0.00D+00 EMaxC= 1.00D-01 BMatC= 7.74D-11 BMatP= 1.48D-09
 IDIUse=1 WtCom= 1.00D+00 WtEn= 0.00D+00
 Coeff-Com: -0.414D-04 0.909D-04 0.350D-03 0.515D-03 0.175D-02-0.341D-02
 Coeff-Com: -0.256D-01-0.361D-01 0.424D-01 0.102D+01
 Coeff:     -0.414D-04 0.909D-04 0.350D-03 0.515D-03 0.175D-02-0.341D-02
 Coeff:     -0.256D-01-0.361D-01 0.424D-01 0.102D+01
 Gap=     0.262 Goal=   None    Shift=    0.000
 RMSDP=2.48D-07 MaxDP=6.00D-06 DE=-1.94D-09 OVMax= 5.91D-06

 Cycle  11  Pass 1  IDiag  1:
 RMSU=  1.21D-07    CP:  1.03D+00  1.54D+00  8.63D-01  7.99D-01  7.86D-01
                    CP:  8.92D-01  1.05D+00  1.06D+00  1.09D+00  1.09D+00
 E= -307.718122906190     Delta-E=       -0.000000000125 Rises=F Damp=F
 DIIS: error= 3.08D-07 at cycle  11 NSaved=  11.
 NSaved=11 IEnMin=11 EnMin= -307.718122906190     IErMin=11 ErrMin= 3.08D-07
 ErrMax= 3.08D-07  0.00D+00 EMaxC= 1.00D-01 BMatC= 1.06D-11 BMatP= 7.74D-11
 IDIUse=1 WtCom= 1.00D+00 WtEn= 0.00D+00
 Coeff-Com: -0.162D-04 0.354D-04 0.158D-03 0.253D-03 0.935D-03-0.537D-03
 Coeff-Com: -0.929D-02-0.202D-01-0.245D-01 0.396D+00 0.657D+00
 Coeff:     -0.162D-04 0.354D-04 0.158D-03 0.253D-03 0.935D-03-0.537D-03
 Coeff:     -0.929D-02-0.202D-01-0.245D-01 0.396D+00 0.657D+00
 Gap=     0.262 Goal=   None    Shift=    0.000
 RMSDP=5.85D-08 MaxDP=2.74D-06 DE=-1.25D-10 OVMax= 1.68D-06

 Cycle  12  Pass 1  IDiag  1:
 RMSU=  3.38D-08    CP:  1.03D+00  1.54D+00  8.63D-01  7.99D-01  7.86D-01
                    CP:  8.92D-01  1.05D+00  1.06D+00  1.10D+00  1.14D+00
                    CP:  1.01D+00
 E= -307.718122906203     Delta-E=       -0.000000000014 Rises=F Damp=F
 DIIS: error= 1.19D-07 at cycle  12 NSaved=  12.
 NSaved=12 IEnMin=12 EnMin= -307.718122906203     IErMin=12 ErrMin= 1.19D-07
 ErrMax= 1.19D-07  0.00D+00 EMaxC= 1.00D-01 BMatC= 1.41D-12 BMatP= 1.06D-11
 IDIUse=1 WtCom= 1.00D+00 WtEn= 0.00D+00
 Coeff-Com:  0.229D-05-0.471D-05-0.923D-05-0.913D-05-0.583D-05 0.413D-03
 Coeff-Com:  0.143D-02-0.491D-03-0.170D-01-0.583D-01 0.234D+00 0.840D+00
 Coeff:      0.229D-05-0.471D-05-0.923D-05-0.913D-05-0.583D-05 0.413D-03
 Coeff:      0.143D-02-0.491D-03-0.170D-01-0.583D-01 0.234D+00 0.840D+00
 Gap=     0.262 Goal=   None    Shift=    0.000
 RMSDP=3.87D-08 MaxDP=2.43D-06 DE=-1.36D-11 OVMax= 7.20D-07

 Cycle  13  Pass 1  IDiag  1:
 RMSU=  1.14D-08    CP:  1.03D+00  1.54D+00  8.63D-01  7.99D-01  7.86D-01
                    CP:  8.92D-01  1.05D+00  1.06D+00  1.10D+00  1.14D+00
                    CP:  1.09D+00  1.04D+00
 E= -307.718122906203     Delta-E=        0.000000000000 Rises=F Damp=F
 DIIS: error= 4.43D-08 at cycle  13 NSaved=  13.
 NSaved=13 IEnMin=12 EnMin= -307.718122906203     IErMin=13 ErrMin= 4.43D-08
 ErrMax= 4.43D-08  0.00D+00 EMaxC= 1.00D-01 BMatC= 3.23D-14 BMatP= 1.41D-12
 IDIUse=1 WtCom= 1.00D+00 WtEn= 0.00D+00
 Coeff-Com:  0.763D-06-0.164D-05-0.515D-05-0.787D-05-0.219D-04 0.957D-04
 Coeff-Com:  0.505D-03 0.388D-03-0.172D-02-0.209D-01 0.273D-01 0.146D+00
 Coeff-Com:  0.849D+00
 Coeff:      0.763D-06-0.164D-05-0.515D-05-0.787D-05-0.219D-04 0.957D-04
 Coeff:      0.505D-03 0.388D-03-0.172D-02-0.209D-01 0.273D-01 0.146D+00
 Coeff:      0.849D+00
 Gap=     0.262 Goal=   None    Shift=    0.000
 RMSDP=5.16D-09 MaxDP=2.57D-07 DE= 0.00D+00 OVMax= 3.51D-07

 SCF Done:  E(RM062X) =  -307.718122906     A.U. after   13 cycles
            NFock= 13  Conv=0.52D-08     -V/T= 2.0037
 KE= 3.065712230763D+02 PE=-1.268190305346D+03 EE= 3.728301594921D+02
 Leave Link  502 at Thu Jan  2 19:20:25 2020, MaxMem= 10737418240 cpu:             165.1 elap:               6.9
 (Enter /apps/cent7/gaussian/g16-A.03/g16-haswell/g16/l601.exe)
 Copying SCF densities to generalized density rwf, IOpCl= 0 IROHF=0.

 **********************************************************************

            Population analysis using the SCF density.

 **********************************************************************

 Orbital symmetries:
       Occupied  (A) (A) (A) (A) (A) (A) (A) (A) (A) (A) (A) (A)
                 (A) (A) (A) (A) (A) (A) (A) (A) (A) (A) (A) (A)
                 (A)
       Virtual   (A) (A) (A) (A) (A) (A) (A) (A) (A) (A) (A) (A)
                 (A) (A) (A) (A) (A) (A) (A) (A) (A) (A) (A) (A)
                 (A) (A) (A) (A) (A) (A) (A) (A) (A) (A) (A) (A)
                 (A) (A) (A) (A) (A) (A) (A) (A) (A) (A) (A) (A)
                 (A) (A) (A) (A) (A) (A) (A) (A) (A) (A) (A) (A)
                 (A) (A) (A) (A) (A) (A) (A) (A) (A) (A) (A) (A)
                 (A) (A) (A) (A) (A) (A) (A) (A) (A) (A) (A) (A)
                 (A) (A) (A) (A) (A) (A) (A) (A) (A) (A) (A) (A)
                 (A) (A) (A) (A) (A) (A) (A) (A) (A) (A) (A) (A)
                 (A) (A) (A) (A) (A) (A) (A) (A) (A) (A) (A) (A)
                 (A) (A) (A) (A) (A) (A) (A) (A) (A) (A) (A) (A)
                 (A) (A) (A) (A) (A) (A) (A) (A) (A) (A) (A) (A)
                 (A) (A) (A) (A) (A) (A) (A) (A) (A) (A) (A) (A)
                 (A) (A) (A) (A) (A) (A) (A) (A) (A) (A) (A) (A)
                 (A) (A) (A) (A) (A) (A) (A) (A) (A) (A)
 The electronic state is 1-A.
 Alpha  occ. eigenvalues --  -19.87410 -10.85742 -10.78620 -10.78273 -10.76075
 Alpha  occ. eigenvalues --  -10.75509 -10.74502  -1.40499  -1.18559  -1.07609
 Alpha  occ. eigenvalues --   -1.06098  -0.93109  -0.91157  -0.83770  -0.78826
 Alpha  occ. eigenvalues --   -0.75876  -0.74555  -0.72163  -0.70053  -0.69356
 Alpha  occ. eigenvalues --   -0.67259  -0.62599  -0.61362  -0.54917  -0.52292
 Alpha virt. eigenvalues --   -0.26108  -0.18973  -0.13858  -0.12391  -0.10579
 Alpha virt. eigenvalues --   -0.10274  -0.09296  -0.08867  -0.07732  -0.06573
 Alpha virt. eigenvalues --   -0.04764  -0.04654  -0.04387  -0.04038  -0.02709
 Alpha virt. eigenvalues --   -0.01461  -0.00450  -0.00378   0.00198   0.00319
 Alpha virt. eigenvalues --    0.00565   0.01083   0.01897   0.01977   0.02426
 Alpha virt. eigenvalues --    0.03067   0.03653   0.04966   0.05921   0.06618
 Alpha virt. eigenvalues --    0.07355   0.07488   0.07721   0.08228   0.09574
 Alpha virt. eigenvalues --    0.10786   0.12991   0.13150   0.13487   0.14136
 Alpha virt. eigenvalues --    0.15014   0.15102   0.17190   0.18813   0.21569
 Alpha virt. eigenvalues --    0.21777   0.22837   0.23075   0.24957   0.26101
 Alpha virt. eigenvalues --    0.32897   0.34634   0.36220   0.36713   0.38996
 Alpha virt. eigenvalues --    0.39871   0.40424   0.40845   0.41378   0.43176
 Alpha virt. eigenvalues --    0.44617   0.45285   0.45751   0.47209   0.50075
 Alpha virt. eigenvalues --    0.51996   0.52103   0.56570   0.58154   0.61535
 Alpha virt. eigenvalues --    0.61783   0.62386   0.66082   0.68883   0.70077
 Alpha virt. eigenvalues --    0.73198   0.73954   0.74395   0.76028   0.76874
 Alpha virt. eigenvalues --    0.79644   0.84450   0.84905   0.87658   0.91542
 Alpha virt. eigenvalues --    0.93044   0.94816   1.00082   1.05101   1.06603
 Alpha virt. eigenvalues --    1.11110   1.16159   1.26194   1.28708   1.30253
 Alpha virt. eigenvalues --    1.31498   1.33714   1.34630   1.36248   1.42904
 Alpha virt. eigenvalues --    1.43029   1.45424   1.45711   1.47494   1.51644
 Alpha virt. eigenvalues --    1.52319   1.53547   1.54214   1.61240   1.62490
 Alpha virt. eigenvalues --    1.66294   1.70103   1.72028   1.74092   1.74881
 Alpha virt. eigenvalues --    1.75468   1.78615   1.79563   1.82853   1.86354
 Alpha virt. eigenvalues --    1.90251   1.93109   1.95082   1.97677   2.06082
 Alpha virt. eigenvalues --    2.12250   2.16784   2.18297   2.25134   2.29817
 Alpha virt. eigenvalues --    2.32953   2.36662   2.37528   2.42139   2.46129
 Alpha virt. eigenvalues --    2.47222   2.50806   2.52085   2.52451   2.56850
 Alpha virt. eigenvalues --    2.59005   2.59275   2.60444   2.63863   2.66115
 Alpha virt. eigenvalues --    2.74637   2.78502   2.81656   2.88687   2.90937
 Alpha virt. eigenvalues --    2.94820   2.96043   3.04069   3.13688   3.17382
 Alpha virt. eigenvalues --    3.25137   3.29246   3.34165   3.43842   3.46223
 Alpha virt. eigenvalues --    3.73617   3.78786   3.83312   3.85269   3.95492
 Alpha virt. eigenvalues --    3.99633   4.03597   4.66235   4.90802   5.34149
 Alpha virt. eigenvalues --    5.64426  23.49103  23.79310  23.80805  23.91024
 Alpha virt. eigenvalues --   23.94257  24.00905  49.83220
          Condensed to atoms (all electrons):
               1          2          3          4          5          6
     1  O    7.766075   0.561105  -0.527144   0.068976  -0.012138   0.010029
     2  C    0.561105  10.779633  -4.920614   2.676820  -1.973487   1.823369
     3  C   -0.527144  -4.920614  13.131494  -3.112070   2.080104  -1.675782
     4  C    0.068976   2.676820  -3.112070   7.154694  -1.629587   1.072707
     5  C   -0.012138  -1.973487   2.080104  -1.629587   8.218886  -1.330328
     6  C    0.010029   1.823369  -1.675782   1.072707  -1.330328   6.484674
     7  C    0.009860  -2.413474   0.560616  -0.933938   1.285393  -1.194343
     8  H    0.275016   0.039808   0.105637  -0.009096   0.000671  -0.001641
     9  H   -0.033303  -0.201137   0.646299  -0.102585   0.053813  -0.028197
    10  H    0.001023   0.106478  -0.182557   0.444324  -0.078960   0.028339
    11  H    0.001177  -0.009923   0.007080  -0.034300   0.387935  -0.028951
    12  H   -0.001499   0.081773  -0.026789   0.025783  -0.074419   0.387000
    13  H   -0.014958  -0.212775   0.052429  -0.039903   0.049629  -0.022917
    14  H    0.000868  -0.000424  -0.003073  -0.016908   0.370247  -0.005526
               7          8          9         10         11         12
     1  O    0.009860   0.275016  -0.033303   0.001023   0.001177  -0.001499
     2  C   -2.413474   0.039808  -0.201137   0.106478  -0.009923   0.081773
     3  C    0.560616   0.105637   0.646299  -0.182557   0.007080  -0.026789
     4  C   -0.933938  -0.009096  -0.102585   0.444324  -0.034300   0.025783
     5  C    1.285393   0.000671   0.053813  -0.078960   0.387935  -0.074419
     6  C   -1.194343  -0.001641  -0.028197   0.028339  -0.028951   0.387000
     7  C    8.454312  -0.130856  -0.045495  -0.008771   0.005723  -0.085880
     8  H   -0.130856   0.404957   0.004302   0.000075  -0.000116   0.001300
     9  H   -0.045495   0.004302   0.406671  -0.007143  -0.000479  -0.000237
    10  H   -0.008771   0.000075  -0.007143   0.383178  -0.002907   0.002108
    11  H    0.005723  -0.000116  -0.000479  -0.002907   0.469377  -0.002546
    12  H   -0.085880   0.001300  -0.000237   0.002108  -0.002546   0.378333
    13  H    0.516564   0.002859   0.001896  -0.000823  -0.000909  -0.002650
    14  H   -0.016698  -0.000237  -0.000564  -0.002803  -0.054419  -0.001709
              13         14
     1  O   -0.014958   0.000868
     2  C   -0.212775  -0.000424
     3  C    0.052429  -0.003073
     4  C   -0.039903  -0.016908
     5  C    0.049629   0.370247
     6  C   -0.022917  -0.005526
     7  C    0.516564  -0.016698
     8  H    0.002859  -0.000237
     9  H    0.001896  -0.000564
    10  H   -0.000823  -0.002803
    11  H   -0.000909  -0.054419
    12  H   -0.002650  -0.001709
    13  H    0.438954  -0.001193
    14  H   -0.001193   0.468857
 Mulliken charges:
               1
     1  O   -0.105085
     2  C   -0.337150
     3  C   -0.135630
     4  C    0.435083
     5  C   -1.347760
     6  C    0.481567
     7  C   -0.003015
     8  H    0.307321
     9  H    0.306159
    10  H    0.318439
    11  H    0.263259
    12  H    0.319431
    13  H    0.233797
    14  H    0.263584
 Sum of Mulliken charges =   1.00000
 Mulliken charges with hydrogens summed into heavy atoms:
               1
     1  O    0.202236
     2  C   -0.337150
     3  C    0.170529
     4  C    0.753522
     5  C   -0.820917
     6  C    0.800998
     7  C    0.230782
 Electronic spatial extent (au):  <R**2>=            669.5149
 Charge=              1.0000 electrons
 Dipole moment (field-independent basis, Debye):
    X=              2.2331    Y=              1.5544    Z=              0.0119  Tot=              2.7208
 Quadrupole moment (field-independent basis, Debye-Ang):
   XX=            -21.3116   YY=            -26.6814   ZZ=            -40.5643
   XY=             -4.7944   XZ=             -0.0084   YZ=              0.0328
 Traceless Quadrupole moment (field-independent basis, Debye-Ang):
   XX=              8.2075   YY=              2.8377   ZZ=            -11.0452
   XY=             -4.7944   XZ=             -0.0084   YZ=              0.0328
 Octapole moment (field-independent basis, Debye-Ang**2):
  XXX=             -0.9027  YYY=              0.6319  ZZZ=              0.0969  XYY=              0.2804
  XXY=             14.3490  XXZ=              0.2195  XZZ=              0.9457  YZZ=              0.2707
  YYZ=              0.0044  XYZ=             -0.0956
 Hexadecapole moment (field-independent basis, Debye-Ang**3):
 XXXX=           -407.5168 YYYY=           -222.7700 ZZZZ=            -46.9427 XXXY=            -42.9549
 XXXZ=             -0.6884 YYYX=             -3.4384 YYYZ=              0.0327 ZZZX=              0.0009
 ZZZY=              0.0263 XXYY=            -98.2160 XXZZ=            -86.1405 YYZZ=            -61.6550
 XXYZ=              0.2427 YYXZ=              0.0535 ZZXY=             -0.1268
 N-N= 2.810707998715D+02 E-N=-1.268190305398D+03  KE= 3.065712230763D+02
 No NMR shielding tensors so no spin-rotation constants.
 Leave Link  601 at Thu Jan  2 19:20:25 2020, MaxMem= 10737418240 cpu:               3.0 elap:               0.2
 (Enter /apps/cent7/gaussian/g16-A.03/g16-haswell/g16/l701.exe)
 ... and contract with generalized density number  0.
 Compute integral first derivatives.
 Leave Link  701 at Thu Jan  2 19:20:25 2020, MaxMem= 10737418240 cpu:               2.7 elap:               0.1
 (Enter /apps/cent7/gaussian/g16-A.03/g16-haswell/g16/l702.exe)
 L702 exits ... SP integral derivatives will be done elsewhere.
 Leave Link  702 at Thu Jan  2 19:20:26 2020, MaxMem= 10737418240 cpu:               0.7 elap:               0.0
 (Enter /apps/cent7/gaussian/g16-A.03/g16-haswell/g16/l703.exe)
 Integral derivatives from FoFJK, PRISM(SPDF).
 Compute integral first derivatives, UseDBF=F ICtDFT=           0.
 Calling FoFJK, ICntrl=      2127 FMM=F ISym2X=0 I1Cent= 0 IOpClX= 0 NMat=1 NMatS=1 NMatT=0.
 FoFJK:  IHMeth= 1 ICntrl=    2127 DoSepK=F KAlg= 0 I1Cent=           0 FoldK=F
 IRaf=         0 NMat=       1 IRICut=       1 DoRegI=T DoRafI=F ISym2E= 0 IDoP0=0 IntGTp=1.
 FoFCou: FMM=F IPFlag=           0 FMFlag=      100000 FMFlg1=         800
         NFxFlg=           0 DoJE=F BraDBF=F KetDBF=F FulRan=T
         wScrn=  0.000000 ICntrl=      2127 IOpCl=  0 I1Cent=           0 NGrid=           0
         NMat0=    1 NMatS0=      1 NMatT0=    0 NMatD0=    1 NMtDS0=    0 NMtDT0=    0
 Symmetry not used in FoFCou.
 Leave Link  703 at Thu Jan  2 19:20:27 2020, MaxMem= 10737418240 cpu:              28.1 elap:               1.2
 (Enter /apps/cent7/gaussian/g16-A.03/g16-haswell/g16/l716.exe)
 Dipole        = 8.78553586D-01 6.11563888D-01 4.70019464D-03
 ***** Axes restored to original set *****
 -------------------------------------------------------------------
 Center     Atomic                   Forces (Hartrees/Bohr)
 Number     Number              X              Y              Z
 -------------------------------------------------------------------
      1        8           0.014366172    0.051222716    0.001256460
      2        6          -0.011684233   -0.031794990   -0.002205034
      3        6          -0.004399948    0.043907579    0.000396877
      4        6          -0.067460519   -0.052982482    0.000443840
      5        6           0.009813861    0.017036932   -0.000281091
      6        6          -0.009349270   -0.085342278    0.000386163
      7        6           0.041816481    0.028951890    0.000312942
      8        1           0.002112156   -0.008395227    0.000058111
      9        1           0.004733498   -0.002443460   -0.000182572
     10        1           0.001548126   -0.004167733   -0.000026828
     11        1           0.012153710    0.020606454   -0.014111345
     12        1          -0.004181568   -0.000459312   -0.000011618
     13        1          -0.001626782    0.003224687   -0.000117296
     14        1           0.012158316    0.020635222    0.014081392
 -------------------------------------------------------------------
 Cartesian Forces:  Max     0.085342278 RMS     0.024558675
 Leave Link  716 at Thu Jan  2 19:20:27 2020, MaxMem= 10737418240 cpu:               0.5 elap:               0.0
 (Enter /apps/cent7/gaussian/g16-A.03/g16-haswell/g16/l103.exe)

 GradGradGradGradGradGradGradGradGradGradGradGradGradGradGradGradGradGrad
 Berny optimization.
 FormGI is forming the generalized inverse of G from B-inverse, IUseBI=4.
 Internal  Forces:  Max     0.048661288 RMS     0.014809916
 Search for a local minimum.
 Step number   1 out of a maximum of   76
 All quantities printed in internal units (Hartrees-Bohrs-Radians)
 RMS Force = .14810D-01 SwitMx=.10000D-02 MixMth= 1
 Mixed Optimization -- RFO/linear search
 Second derivative matrix not updated -- first step.
 ITU=  0
     Eigenvalues ---    0.01969   0.01970   0.01971   0.01974   0.01979
     Eigenvalues ---    0.01981   0.01987   0.02027   0.02276   0.04808
     Eigenvalues ---    0.07351   0.11478   0.12407   0.16000   0.16000
     Eigenvalues ---    0.16000   0.16000   0.16000   0.22000   0.22074
     Eigenvalues ---    0.23497   0.24997   0.34808   0.34811   0.34812
     Eigenvalues ---    0.34813   0.37230   0.37230   0.40295   0.40665
     Eigenvalues ---    0.44136   0.44178   0.44291   0.44352   0.53792
     Eigenvalues ---    0.55468
 RFO step:  Lambda=-3.32560965D-02 EMin= 1.96943145D-02
 Linear search not attempted -- first point.
 Iteration  1 RMS(Cart)=  0.04716708 RMS(Int)=  0.00100312
 Iteration  2 RMS(Cart)=  0.00098782 RMS(Int)=  0.00014589
 Iteration  3 RMS(Cart)=  0.00000107 RMS(Int)=  0.00014588
 Iteration  4 RMS(Cart)=  0.00000000 RMS(Int)=  0.00014588
 ITry= 1 IFail=0 DXMaxC= 1.59D-01 DCOld= 1.00D+10 DXMaxT= 3.00D-01 DXLimC= 3.00D+00 Rises=F
 Variable       Old X    -DE/DX   Delta X   Delta X   Delta X     New X
                                 (Linear)    (Quad)   (Total)
    R1        2.56222  -0.04534   0.00000  -0.07938  -0.07938   2.48283
    R2        1.81419   0.00775   0.00000   0.01318   0.01318   1.82737
    R3        2.66232   0.00519   0.00000   0.00828   0.00819   2.67051
    R4        2.66226   0.01211   0.00000   0.02300   0.02294   2.68520
    R5        2.66295  -0.04777   0.00000  -0.10080  -0.10083   2.56212
    R6        2.05981  -0.00474   0.00000  -0.01242  -0.01242   2.04739
    R7        2.65979   0.04866   0.00000   0.10445   0.10450   2.76429
    R8        2.05987  -0.00438   0.00000  -0.01150  -0.01150   2.04838
    R9        2.66004   0.04738   0.00000   0.10196   0.10204   2.76208
   R10        2.02201   0.02551   0.00000   0.06289   0.06289   2.08490
   R11        2.02201   0.02553   0.00000   0.06295   0.06295   2.08495
   R12        2.66289  -0.04822   0.00000  -0.10146  -0.10143   2.56146
   R13        2.05980  -0.00418   0.00000  -0.01096  -0.01096   2.04884
   R14        2.05982  -0.00361   0.00000  -0.00946  -0.00946   2.05037
    A1        1.91054   0.00699   0.00000   0.03616   0.03616   1.94670
    A2        2.09705  -0.02129   0.00000  -0.07055  -0.07045   2.02659
    A3        2.09707   0.00401   0.00000   0.01880   0.01890   2.11596
    A4        2.08898   0.01729   0.00000   0.05188   0.05164   2.14062
    A5        2.09743  -0.00528   0.00000  -0.02657  -0.02678   2.07065
    A6        2.09269   0.00013   0.00000   0.00031   0.00041   2.09309
    A7        2.09307   0.00515   0.00000   0.02626   0.02637   2.11944
    A8        2.09458   0.00611   0.00000   0.02828   0.02821   2.12279
    A9        2.09526  -0.00381   0.00000  -0.01807  -0.01804   2.07723
   A10        2.09335  -0.00230   0.00000  -0.01021  -0.01018   2.08317
   A11        2.09339  -0.01792   0.00000  -0.05291  -0.05232   2.04107
   A12        1.87101   0.00692   0.00000   0.02960   0.02991   1.90092
   A13        1.87101   0.00685   0.00000   0.02879   0.02912   1.90013
   A14        1.87101   0.00657   0.00000   0.02728   0.02763   1.89865
   A15        1.87101   0.00653   0.00000   0.02662   0.02698   1.89799
   A16        1.87715  -0.00908   0.00000  -0.06580  -0.06592   1.81122
   A17        2.09455   0.00384   0.00000   0.02016   0.02018   2.11473
   A18        2.09325  -0.00145   0.00000  -0.00763  -0.00764   2.08560
   A19        2.09539  -0.00239   0.00000  -0.01253  -0.01254   2.08285
   A20        2.09744  -0.00404   0.00000  -0.02083  -0.02094   2.07650
   A21        2.09275   0.00223   0.00000   0.01151   0.01156   2.10431
   A22        2.09299   0.00181   0.00000   0.00933   0.00938   2.10237
    D1        3.12692   0.00051   0.00000   0.00787   0.00770   3.13462
    D2        0.00000  -0.00020   0.00000  -0.00227  -0.00211  -0.00211
    D3       -3.12428  -0.00047   0.00000  -0.00751  -0.00733  -3.13160
    D4        0.01739  -0.00048   0.00000  -0.00807  -0.00790   0.00949
    D5        0.00271   0.00013   0.00000   0.00231   0.00234   0.00505
    D6       -3.13881   0.00012   0.00000   0.00175   0.00176  -3.13705
    D7        3.12428   0.00027   0.00000   0.00674   0.00702   3.13130
    D8       -0.01739   0.00028   0.00000   0.00690   0.00712  -0.01027
    D9       -0.00271  -0.00012   0.00000  -0.00232  -0.00240  -0.00510
   D10        3.13881  -0.00010   0.00000  -0.00216  -0.00230   3.13651
   D11       -0.00165  -0.00002   0.00000  -0.00054  -0.00046  -0.00211
   D12        3.13996  -0.00004   0.00000  -0.00102  -0.00099   3.13897
   D13        3.13987  -0.00002   0.00000   0.00001   0.00012   3.13999
   D14       -0.00171  -0.00003   0.00000  -0.00047  -0.00040  -0.00211
   D15        0.00057  -0.00006   0.00000  -0.00115  -0.00115  -0.00057
   D16        2.13656   0.00188   0.00000   0.02341   0.02325   2.15981
   D17       -2.13541  -0.00189   0.00000  -0.02409  -0.02399  -2.15940
   D18       -3.14104  -0.00004   0.00000  -0.00066  -0.00062   3.14153
   D19       -1.00505   0.00189   0.00000   0.02389   0.02378  -0.98127
   D20        1.00616  -0.00187   0.00000  -0.02361  -0.02346   0.98270
   D21       -0.00057   0.00008   0.00000   0.00114   0.00110   0.00053
   D22        3.14104   0.00004   0.00000   0.00086   0.00084  -3.14131
   D23       -2.13656  -0.00203   0.00000  -0.02454  -0.02446  -2.16102
   D24        1.00505  -0.00206   0.00000  -0.02482  -0.02472   0.98033
   D25        2.13541   0.00206   0.00000   0.02515   0.02504   2.16045
   D26       -1.00616   0.00202   0.00000   0.02486   0.02478  -0.98138
   D27        0.00165  -0.00000   0.00000   0.00054   0.00054   0.00219
   D28       -3.13987  -0.00002   0.00000   0.00038   0.00044  -3.13943
   D29       -3.13996   0.00003   0.00000   0.00083   0.00080  -3.13916
   D30        0.00171   0.00001   0.00000   0.00067   0.00070   0.00241
         Item               Value     Threshold  Converged?
 Maximum Force            0.048661     0.000450     NO 
 RMS     Force            0.014810     0.000300     NO 
 Maximum Displacement     0.158699     0.001800     NO 
 RMS     Displacement     0.047246     0.001200     NO 
 Predicted change in Energy=-1.805151D-02
 Lowest energy point so far.  Saving SCF results.
 GradGradGradGradGradGradGradGradGradGradGradGradGradGradGradGradGradGrad

 Leave Link  103 at Thu Jan  2 19:20:27 2020, MaxMem= 10737418240 cpu:               0.9 elap:               0.1
 (Enter /apps/cent7/gaussian/g16-A.03/g16-haswell/g16/l202.exe)
                          Input orientation:                          
 ---------------------------------------------------------------------
 Center     Atomic      Atomic             Coordinates (Angstroms)
 Number     Number       Type             X           Y           Z
 ---------------------------------------------------------------------
      1          8           0       -0.684769   -1.111220   -0.011777
      2          6           0        0.015150    0.000634   -0.000821
      3          6           0       -0.727309    1.203052    0.002032
      4          6           0       -0.056256    2.381155    0.001331
      5          6           0        1.405687    2.431204    0.000346
      6          6           0        2.112185    1.151663    0.000896
      7          6           0        1.435896   -0.023039    0.001646
      8          1           0       -0.112657   -1.890785   -0.019353
      9          1           0       -1.810222    1.169609    0.004240
     10          1           0       -0.619677    3.307176    0.001022
     11          1           0        1.742705    3.022736   -0.867833
     12          1           0        3.196326    1.140480    0.000471
     13          1           0        1.972048   -0.966319    0.004071
     14          1           0        1.743049    3.022900    0.868317
 ---------------------------------------------------------------------
                    Distance matrix (angstroms):
                    1          2          3          4          5
     1  O    0.000000
     2  C    1.313859   0.000000
     3  C    2.314704   1.413175   0.000000
     4  C    3.548504   2.381593   1.355817   0.000000
     5  C    4.113261   2.800226   2.461307   1.462800   0.000000
     6  C    3.597743   2.392160   2.839960   2.492747   1.461630
     7  C    2.383597   1.420945   2.486515   2.829605   2.454429
     8  H    0.967001   1.895823   3.154375   4.272363   4.580976
     9  H    2.543439   2.167605   1.083431   2.131725   3.454520
    10  H    4.418894   3.366932   2.106876   1.083955   2.206678
    11  H    4.869810   3.587375   3.188869   2.098412   1.103279
    12  H    4.487003   3.379220   3.924135   3.481173   2.207342
    13  H    2.660812   2.182767   3.463049   3.914027   3.444407
    14  H    4.874404   3.588193   3.188255   2.097856   1.103310
                    6          7          8          9         10
     6  C    0.000000
     7  C    1.355468   0.000000
     8  H    3.769194   2.426300   0.000000
     9  H    3.922450   3.458280   3.499757   0.000000
    10  H    3.479843   3.913530   5.222671   2.446754   0.000000
    11  H    2.095738   3.182275   5.320242   4.100961   2.533113
    12  H    1.084199   2.110188   4.487575   5.006634   4.388218
    13  H    2.122616   1.085008   2.280610   4.343703   4.997981
    14  H    2.095283   3.181699   5.326904   4.099640   2.532881
                   11         12         13         14
    11  H    0.000000
    12  H    2.531769   0.000000
    13  H    4.089667   2.436693   0.000000
    14  H    1.736150   2.531537   4.088182   0.000000
 Stoichiometry    C6H7O(1+)
 Framework group  C1[X(C6H7O)]
 Deg. of freedom    36
 Full point group                 C1      NOp   1
 RotChk:  IX=0 Diff= 2.75D-02
 Largest Abelian subgroup         C1      NOp   1
 Largest concise Abelian subgroup C1      NOp   1
                         Standard orientation:                         
 ---------------------------------------------------------------------
 Center     Atomic      Atomic             Coordinates (Angstroms)
 Number     Number       Type             X           Y           Z
 ---------------------------------------------------------------------
      1          8           0       -2.281825   -0.107005    0.004427
      2          6           0       -0.970427   -0.026978   -0.003105
      3          6           0       -0.272239   -1.255634   -0.003853
      4          6           0        1.083378   -1.232737    0.000399
      5          6           0        1.829298    0.025587    0.003062
      6          6           0        1.046202    1.259733    0.000183
      7          6           0       -0.308947    1.230610   -0.004117
      8          1           0       -2.690919    0.769177    0.010736
      9          1           0       -0.821580   -2.189462   -0.007295
     10          1           0        1.625090   -2.171621    0.002338
     11          1           0        2.507722    0.037345    0.873020
     12          1           0        1.556993    2.216068    0.001734
     13          1           0       -0.878885    2.153863   -0.008242
     14          1           0        2.512586    0.037182   -0.863123
 ---------------------------------------------------------------------
 Rotational constants (GHZ):           5.2726322           2.6326538           1.7746615
 Leave Link  202 at Thu Jan  2 19:20:27 2020, MaxMem= 10737418240 cpu:               0.2 elap:               0.0
 (Enter /apps/cent7/gaussian/g16-A.03/g16-haswell/g16/l301.exe)
 Standard basis: 6-311++G(d,p) (5D, 7F)
 Ernie: Thresh=  0.10000D-02 Tol=  0.10000D-05 Strict=F.
 There are   210 symmetry adapted cartesian basis functions of A   symmetry.
 There are   203 symmetry adapted basis functions of A   symmetry.
   203 basis functions,   315 primitive gaussians,   210 cartesian basis functions
    25 alpha electrons       25 beta electrons
       nuclear repulsion energy       282.0067181636 Hartrees.
 IExCor= 4336 DFT=T Ex+Corr=M062X ExCW=0 ScaHFX=  0.540000
 ScaDFX=  1.000000  1.000000  1.000000  1.000000 ScalE2=  1.000000  1.000000
 IRadAn=      5 IRanWt=     -1 IRanGd=            0 ICorTp=0 IEmpDi=  4
 NAtoms=   14 NActive=   14 NUniq=   14 SFac= 1.00D+00 NAtFMM=   60 NAOKFM=F Big=F
 Integral buffers will be    131072 words long.
 Raffenetti 2 integral format.
 Two-electron integral symmetry is turned on.
 Leave Link  301 at Thu Jan  2 19:20:27 2020, MaxMem= 10737418240 cpu:               1.5 elap:               0.1
 (Enter /apps/cent7/gaussian/g16-A.03/g16-haswell/g16/l302.exe)
 NPDir=0 NMtPBC=     1 NCelOv=     1 NCel=       1 NClECP=     1 NCelD=      1
         NCelK=      1 NCelE2=     1 NClLst=     1 CellRange=     0.0.
 One-electron integrals computed using PRISM.
 One-electron integral symmetry used in STVInt
 NBasis=   203 RedAO= T EigKep=  1.84D-06  NBF=   203
 NBsUse=   203 1.00D-06 EigRej= -1.00D+00 NBFU=   203
 Precomputing XC quadrature grid using
 IXCGrd= 4 IRadAn=           5 IRanWt=          -1 IRanGd=           0 AccXCQ= 0.00D+00.
 Generated NRdTot=       0 NPtTot=           0 NUsed=           0 NTot=          32
 NSgBfM=   210   210   210   210   210 MxSgAt=    14 MxSgA2=    14.
 Leave Link  302 at Thu Jan  2 19:20:27 2020, MaxMem= 10737418240 cpu:               3.8 elap:               0.2
 (Enter /apps/cent7/gaussian/g16-A.03/g16-haswell/g16/l303.exe)
 DipDrv:  MaxL=1.
 Leave Link  303 at Thu Jan  2 19:20:27 2020, MaxMem= 10737418240 cpu:               0.7 elap:               0.1
 (Enter /apps/cent7/gaussian/g16-A.03/g16-haswell/g16/l401.exe)
 Initial guess from the checkpoint file:  "21_p_b.chk"
 B after Tr=    -0.000000   -0.000000    0.000000
         Rot=    0.999963   -0.000070   -0.000041    0.008577 Ang=  -0.98 deg.
 Guess basis will be translated and rotated to current coordinates.
 JPrj=2 DoOrth=T DoCkMO=T.
 Generating alternative initial guess.
 ExpMin= 3.60D-02 ExpMax= 8.59D+03 ExpMxC= 1.30D+03 IAcc=3 IRadAn=         5 AccDes= 0.00D+00
 Harris functional with IExCor= 1009 and IRadAn=       5 diagonalized for initial guess.
 HarFok:  IExCor= 1009 AccDes= 0.00D+00 IRadAn=         5 IDoV= 1 UseB2=F ITyADJ=14
 ICtDFT=  3500011 ScaDFX=  1.000000  1.000000  1.000000  1.000000
 FoFCou: FMM=F IPFlag=           0 FMFlag=      100000 FMFlg1=           0
         NFxFlg=           0 DoJE=T BraDBF=F KetDBF=T FulRan=T
         wScrn=  0.000000 ICntrl=       500 IOpCl=  0 I1Cent=   200000004 NGrid=           0
         NMat0=    1 NMatS0=      1 NMatT0=    0 NMatD0=    1 NMtDS0=    0 NMtDT0=    0
 Petite list used in FoFCou.
 Harris En= -307.634737390777    
 Leave Link  401 at Thu Jan  2 19:20:28 2020, MaxMem= 10737418240 cpu:               9.3 elap:               0.4
 (Enter /apps/cent7/gaussian/g16-A.03/g16-haswell/g16/l502.exe)
 Integral symmetry usage will be decided dynamically.
 Closed shell SCF:
 Using DIIS extrapolation, IDIIS=  1040.
 NGot= 10737418240 LenX= 10737322854 LenY= 10737278313
 Requested convergence on RMS density matrix=1.00D-08 within 128 cycles.
 Requested convergence on MAX density matrix=1.00D-06.
 Requested convergence on             energy=1.00D-06.
 No special actions if energy rises.
 Fock matrices will be formed incrementally for  20 cycles.

 Cycle   1  Pass 1  IDiag  1:
 FoFJK:  IHMeth= 1 ICntrl=       0 DoSepK=F KAlg= 0 I1Cent=           0 FoldK=F
 IRaf= 980000000 NMat=       1 IRICut=       1 DoRegI=T DoRafI=F ISym2E= 0 IDoP0=0 IntGTp=1.
 FoFCou: FMM=F IPFlag=           0 FMFlag=      100000 FMFlg1=           0
         NFxFlg=           0 DoJE=F BraDBF=F KetDBF=F FulRan=T
         wScrn=  0.000000 ICntrl=         0 IOpCl=  0 I1Cent=           0 NGrid=           0
         NMat0=    1 NMatS0=      1 NMatT0=    0 NMatD0=    1 NMtDS0=    0 NMtDT0=    0
 Symmetry not used in FoFCou.
 E= -307.727863610312    
 DIIS: error= 4.62D-03 at cycle   1 NSaved=   1.
 NSaved= 1 IEnMin= 1 EnMin= -307.727863610312     IErMin= 1 ErrMin= 4.62D-03
 ErrMax= 4.62D-03  0.00D+00 EMaxC= 1.00D-01 BMatC= 7.88D-03 BMatP= 7.88D-03
 IDIUse=3 WtCom= 9.54D-01 WtEn= 4.62D-02
 Coeff-Com:  0.100D+01
 Coeff-En:   0.100D+01
 Coeff:      0.100D+01
 Gap=     0.511 Goal=   None    Shift=    0.000
 GapD=    0.511 DampG=2.000 DampE=1.000 DampFc=2.0000 IDamp=-1.
 RMSDP=5.02D-03 MaxDP=2.32D-01              OVMax= 3.00D-02

 Cycle   2  Pass 1  IDiag  1:
 RMSU=  4.96D-03    CP:  1.02D+00
 E= -307.736185372675     Delta-E=       -0.008321762363 Rises=F Damp=F
 DIIS: error= 1.98D-03 at cycle   2 NSaved=   2.
 NSaved= 2 IEnMin= 2 EnMin= -307.736185372675     IErMin= 2 ErrMin= 1.98D-03
 ErrMax= 1.98D-03  0.00D+00 EMaxC= 1.00D-01 BMatC= 1.00D-03 BMatP= 7.88D-03
 IDIUse=3 WtCom= 9.80D-01 WtEn= 1.98D-02
 Coeff-Com:  0.130D+00 0.870D+00
 Coeff-En:   0.000D+00 0.100D+01
 Coeff:      0.127D+00 0.873D+00
 Gap=     0.271 Goal=   None    Shift=    0.000
 RMSDP=1.26D-03 MaxDP=7.54D-02 DE=-8.32D-03 OVMax= 1.24D-02

 Cycle   3  Pass 1  IDiag  1:
 RMSU=  6.70D-04    CP:  9.95D-01  9.89D-01
 E= -307.736709761381     Delta-E=       -0.000524388706 Rises=F Damp=F
 DIIS: error= 2.55D-03 at cycle   3 NSaved=   3.
 NSaved= 3 IEnMin= 3 EnMin= -307.736709761381     IErMin= 2 ErrMin= 1.98D-03
 ErrMax= 2.55D-03  0.00D+00 EMaxC= 1.00D-01 BMatC= 5.08D-04 BMatP= 1.00D-03
 IDIUse=3 WtCom= 9.75D-01 WtEn= 2.55D-02
 Coeff-Com: -0.381D-01 0.412D+00 0.627D+00
 Coeff-En:   0.000D+00 0.276D+00 0.724D+00
 Coeff:     -0.372D-01 0.408D+00 0.629D+00
 Gap=     0.273 Goal=   None    Shift=    0.000
 RMSDP=3.80D-04 MaxDP=1.82D-02 DE=-5.24D-04 OVMax= 8.44D-03

 Cycle   4  Pass 1  IDiag  1:
 RMSU=  2.42D-04    CP:  9.99D-01  1.03D+00  7.81D-01
 E= -307.737189633517     Delta-E=       -0.000479872136 Rises=F Damp=F
 DIIS: error= 4.81D-04 at cycle   4 NSaved=   4.
 NSaved= 4 IEnMin= 4 EnMin= -307.737189633517     IErMin= 4 ErrMin= 4.81D-04
 ErrMax= 4.81D-04  0.00D+00 EMaxC= 1.00D-01 BMatC= 2.68D-05 BMatP= 5.08D-04
 IDIUse=3 WtCom= 9.95D-01 WtEn= 4.81D-03
 Coeff-Com: -0.193D-01 0.116D+00 0.261D+00 0.643D+00
 Coeff-En:   0.000D+00 0.000D+00 0.000D+00 0.100D+01
 Coeff:     -0.192D-01 0.115D+00 0.260D+00 0.644D+00
 Gap=     0.274 Goal=   None    Shift=    0.000
 RMSDP=2.07D-04 MaxDP=1.46D-02 DE=-4.80D-04 OVMax= 2.73D-03

 Cycle   5  Pass 1  IDiag  1:
 RMSU=  5.25D-05    CP:  9.95D-01  1.02D+00  8.76D-01  8.98D-01
 E= -307.737214158738     Delta-E=       -0.000024525221 Rises=F Damp=F
 DIIS: error= 2.75D-04 at cycle   5 NSaved=   5.
 NSaved= 5 IEnMin= 5 EnMin= -307.737214158738     IErMin= 5 ErrMin= 2.75D-04
 ErrMax= 2.75D-04  0.00D+00 EMaxC= 1.00D-01 BMatC= 4.03D-06 BMatP= 2.68D-05
 IDIUse=3 WtCom= 9.97D-01 WtEn= 2.75D-03
 Coeff-Com: -0.166D-02-0.251D-01 0.101D-01 0.284D+00 0.733D+00
 Coeff-En:   0.000D+00 0.000D+00 0.000D+00 0.000D+00 0.100D+01
 Coeff:     -0.166D-02-0.251D-01 0.101D-01 0.283D+00 0.734D+00
 Gap=     0.273 Goal=   None    Shift=    0.000
 RMSDP=2.98D-05 MaxDP=1.32D-03 DE=-2.45D-05 OVMax= 1.06D-03

 Cycle   6  Pass 1  IDiag  1:
 RMSU=  2.20D-05    CP:  9.95D-01  1.02D+00  8.94D-01  9.39D-01  9.94D-01
 E= -307.737219104387     Delta-E=       -0.000004945649 Rises=F Damp=F
 DIIS: error= 5.66D-05 at cycle   6 NSaved=   6.
 NSaved= 6 IEnMin= 6 EnMin= -307.737219104387     IErMin= 6 ErrMin= 5.66D-05
 ErrMax= 5.66D-05  0.00D+00 EMaxC= 1.00D-01 BMatC= 1.97D-07 BMatP= 4.03D-06
 IDIUse=1 WtCom= 1.00D+00 WtEn= 0.00D+00
 Coeff-Com:  0.167D-02-0.201D-01-0.232D-01 0.840D-02 0.177D+00 0.857D+00
 Coeff:      0.167D-02-0.201D-01-0.232D-01 0.840D-02 0.177D+00 0.857D+00
 Gap=     0.274 Goal=   None    Shift=    0.000
 RMSDP=1.54D-05 MaxDP=7.59D-04 DE=-4.95D-06 OVMax= 7.15D-04

 Cycle   7  Pass 1  IDiag  1:
 RMSU=  7.22D-06    CP:  9.95D-01  1.01D+00  9.03D-01  9.36D-01  1.07D+00
                    CP:  1.19D+00
 E= -307.737219545025     Delta-E=       -0.000000440637 Rises=F Damp=F
 DIIS: error= 3.14D-05 at cycle   7 NSaved=   7.
 NSaved= 7 IEnMin= 7 EnMin= -307.737219545025     IErMin= 7 ErrMin= 3.14D-05
 ErrMax= 3.14D-05  0.00D+00 EMaxC= 1.00D-01 BMatC= 7.45D-08 BMatP= 1.97D-07
 IDIUse=1 WtCom= 1.00D+00 WtEn= 0.00D+00
 Coeff-Com:  0.905D-03-0.619D-02-0.125D-01-0.402D-01-0.283D-01 0.414D+00
 Coeff-Com:  0.672D+00
 Coeff:      0.905D-03-0.619D-02-0.125D-01-0.402D-01-0.283D-01 0.414D+00
 Coeff:      0.672D+00
 Gap=     0.274 Goal=   None    Shift=    0.000
 RMSDP=6.63D-06 MaxDP=2.32D-04 DE=-4.41D-07 OVMax= 1.52D-04

 Cycle   8  Pass 1  IDiag  1:
 RMSU=  3.54D-06    CP:  9.95D-01  1.01D+00  9.05D-01  9.33D-01  1.10D+00
                    CP:  1.38D+00  1.38D+00
 E= -307.737219629718     Delta-E=       -0.000000084693 Rises=F Damp=F
 DIIS: error= 1.19D-05 at cycle   8 NSaved=   8.
 NSaved= 8 IEnMin= 8 EnMin= -307.737219629718     IErMin= 8 ErrMin= 1.19D-05
 ErrMax= 1.19D-05  0.00D+00 EMaxC= 1.00D-01 BMatC= 6.42D-09 BMatP= 7.45D-08
 IDIUse=1 WtCom= 1.00D+00 WtEn= 0.00D+00
 Coeff-Com:  0.631D-04 0.158D-02 0.402D-05-0.168D-01-0.434D-01 0.956D-02
 Coeff-Com:  0.272D+00 0.777D+00
 Coeff:      0.631D-04 0.158D-02 0.402D-05-0.168D-01-0.434D-01 0.956D-02
 Coeff:      0.272D+00 0.777D+00
 Gap=     0.274 Goal=   None    Shift=    0.000
 RMSDP=2.46D-06 MaxDP=2.15D-04 DE=-8.47D-08 OVMax= 8.58D-05

 Cycle   9  Pass 1  IDiag  1:
 RMSU=  1.13D-06    CP:  9.95D-01  1.01D+00  9.05D-01  9.28D-01  1.10D+00
                    CP:  1.41D+00  1.46D+00  9.76D-01
 E= -307.737219637951     Delta-E=       -0.000000008233 Rises=F Damp=F
 DIIS: error= 2.13D-06 at cycle   9 NSaved=   9.
 NSaved= 9 IEnMin= 9 EnMin= -307.737219637951     IErMin= 9 ErrMin= 2.13D-06
 ErrMax= 2.13D-06  0.00D+00 EMaxC= 1.00D-01 BMatC= 8.89D-10 BMatP= 6.42D-09
 IDIUse=1 WtCom= 1.00D+00 WtEn= 0.00D+00
 Coeff-Com: -0.478D-04 0.126D-02 0.118D-02-0.392D-02-0.154D-01-0.249D-01
 Coeff-Com:  0.643D-01 0.345D+00 0.633D+00
 Coeff:     -0.478D-04 0.126D-02 0.118D-02-0.392D-02-0.154D-01-0.249D-01
 Coeff:      0.643D-01 0.345D+00 0.633D+00
 Gap=     0.274 Goal=   None    Shift=    0.000
 RMSDP=8.01D-07 MaxDP=4.24D-05 DE=-8.23D-09 OVMax= 8.33D-06

 Cycle  10  Pass 1  IDiag  1:
 RMSU=  4.15D-07    CP:  9.95D-01  1.01D+00  9.05D-01  9.26D-01  1.10D+00
                    CP:  1.42D+00  1.47D+00  1.00D+00  1.05D+00
 E= -307.737219638713     Delta-E=       -0.000000000762 Rises=F Damp=F
 DIIS: error= 2.53D-07 at cycle  10 NSaved=  10.
 NSaved=10 IEnMin=10 EnMin= -307.737219638713     IErMin=10 ErrMin= 2.53D-07
 ErrMax= 2.53D-07  0.00D+00 EMaxC= 1.00D-01 BMatC= 1.67D-11 BMatP= 8.89D-10
 IDIUse=1 WtCom= 1.00D+00 WtEn= 0.00D+00
 Coeff-Com: -0.966D-05 0.836D-04 0.164D-03 0.327D-03 0.331D-03-0.412D-02
 Coeff-Com: -0.120D-01 0.851D-03 0.991D-01 0.915D+00
 Coeff:     -0.966D-05 0.836D-04 0.164D-03 0.327D-03 0.331D-03-0.412D-02
 Coeff:     -0.120D-01 0.851D-03 0.991D-01 0.915D+00
 Gap=     0.274 Goal=   None    Shift=    0.000
 RMSDP=3.47D-07 MaxDP=2.95D-05 DE=-7.62D-10 OVMax= 1.84D-06

 Cycle  11  Pass 1  IDiag  1:
 RMSU=  5.58D-08    CP:  9.95D-01  1.01D+00  9.05D-01  9.26D-01  1.10D+00
                    CP:  1.42D+00  1.48D+00  1.02D+00  1.11D+00  9.86D-01
 E= -307.737219638732     Delta-E=       -0.000000000019 Rises=F Damp=F
 DIIS: error= 8.18D-08 at cycle  11 NSaved=  11.
 NSaved=11 IEnMin=11 EnMin= -307.737219638732     IErMin=11 ErrMin= 8.18D-08
 ErrMax= 8.18D-08  0.00D+00 EMaxC= 1.00D-01 BMatC= 1.10D-12 BMatP= 1.67D-11
 IDIUse=1 WtCom= 1.00D+00 WtEn= 0.00D+00
 Coeff-Com: -0.377D-06-0.287D-04-0.663D-05 0.206D-03 0.627D-03 0.185D-03
 Coeff-Com: -0.590D-02-0.120D-01-0.140D-02 0.231D+00 0.787D+00
 Coeff:     -0.377D-06-0.287D-04-0.663D-05 0.206D-03 0.627D-03 0.185D-03
 Coeff:     -0.590D-02-0.120D-01-0.140D-02 0.231D+00 0.787D+00
 Gap=     0.274 Goal=   None    Shift=    0.000
 RMSDP=3.19D-08 MaxDP=1.61D-06 DE=-1.92D-11 OVMax= 5.29D-07

 Cycle  12  Pass 1  IDiag  1:
 RMSU=  1.30D-08    CP:  9.95D-01  1.01D+00  9.05D-01  9.26D-01  1.10D+00
                    CP:  1.42D+00  1.48D+00  1.02D+00  1.12D+00  1.01D+00
                    CP:  1.06D+00
 E= -307.737219638734     Delta-E=       -0.000000000001 Rises=F Damp=F
 DIIS: error= 5.98D-08 at cycle  12 NSaved=  12.
 NSaved=12 IEnMin=12 EnMin= -307.737219638734     IErMin=12 ErrMin= 5.98D-08
 ErrMax= 5.98D-08  0.00D+00 EMaxC= 1.00D-01 BMatC= 3.41D-13 BMatP= 1.10D-12
 IDIUse=1 WtCom= 1.00D+00 WtEn= 0.00D+00
 Coeff-Com:  0.901D-06-0.246D-04-0.210D-04 0.723D-04 0.298D-03 0.596D-03
 Coeff-Com: -0.185D-02-0.628D-02-0.125D-01 0.235D-01 0.401D+00 0.595D+00
 Coeff:      0.901D-06-0.246D-04-0.210D-04 0.723D-04 0.298D-03 0.596D-03
 Coeff:     -0.185D-02-0.628D-02-0.125D-01 0.235D-01 0.401D+00 0.595D+00
 Gap=     0.274 Goal=   None    Shift=    0.000
 RMSDP=7.57D-09 MaxDP=3.74D-07 DE=-1.14D-12 OVMax= 2.35D-07

 SCF Done:  E(RM062X) =  -307.737219639     A.U. after   12 cycles
            NFock= 12  Conv=0.76D-08     -V/T= 2.0037
 KE= 3.066116892377D+02 PE=-1.270150933931D+03 EE= 3.737953068910D+02
 Leave Link  502 at Thu Jan  2 19:20:34 2020, MaxMem= 10737418240 cpu:             149.5 elap:               6.3
 (Enter /apps/cent7/gaussian/g16-A.03/g16-haswell/g16/l701.exe)
 ... and contract with generalized density number  0.
 Compute integral first derivatives.
 Leave Link  701 at Thu Jan  2 19:20:34 2020, MaxMem= 10737418240 cpu:               2.8 elap:               0.1
 (Enter /apps/cent7/gaussian/g16-A.03/g16-haswell/g16/l702.exe)
 L702 exits ... SP integral derivatives will be done elsewhere.
 Leave Link  702 at Thu Jan  2 19:20:34 2020, MaxMem= 10737418240 cpu:               0.5 elap:               0.0
 (Enter /apps/cent7/gaussian/g16-A.03/g16-haswell/g16/l703.exe)
 Integral derivatives from FoFJK, PRISM(SPDF).
 Compute integral first derivatives, UseDBF=F ICtDFT=           0.
 Calling FoFJK, ICntrl=      2127 FMM=F ISym2X=0 I1Cent= 0 IOpClX= 0 NMat=1 NMatS=1 NMatT=0.
 FoFJK:  IHMeth= 1 ICntrl=    2127 DoSepK=F KAlg= 0 I1Cent=           0 FoldK=F
 IRaf=         0 NMat=       1 IRICut=       1 DoRegI=T DoRafI=F ISym2E= 0 IDoP0=0 IntGTp=1.
 FoFCou: FMM=F IPFlag=           0 FMFlag=      100000 FMFlg1=         800
         NFxFlg=           0 DoJE=F BraDBF=F KetDBF=F FulRan=T
         wScrn=  0.000000 ICntrl=      2127 IOpCl=  0 I1Cent=           0 NGrid=           0
         NMat0=    1 NMatS0=      1 NMatT0=    0 NMatD0=    1 NMtDS0=    0 NMtDT0=    0
 Symmetry not used in FoFCou.
 Leave Link  703 at Thu Jan  2 19:20:35 2020, MaxMem= 10737418240 cpu:              28.0 elap:               1.2
 (Enter /apps/cent7/gaussian/g16-A.03/g16-haswell/g16/l716.exe)
 Dipole        = 5.70946149D-01 6.08083455D-01 3.20282556D-03
 ***** Axes restored to original set *****
 -------------------------------------------------------------------
 Center     Atomic                   Forces (Hartrees/Bohr)
 Number     Number              X              Y              Z
 -------------------------------------------------------------------
      1        8           0.008970408    0.013249415    0.000328885
      2        6          -0.009242350   -0.018950228   -0.000712953
      3        6          -0.003249025    0.013741065    0.000273676
      4        6          -0.009638874   -0.009807510    0.000065483
      5        6           0.005341488    0.010164804   -0.000080596
      6        6          -0.004121912   -0.013214004    0.000054196
      7        6           0.010129602    0.004176478    0.000173693
      8        1          -0.001552460   -0.003429835    0.000087100
      9        1           0.000752034   -0.003142771   -0.000141977
     10        1           0.001983269    0.001747765    0.000025485
     11        1           0.001174974    0.002060674    0.001707144
     12        1           0.000314433    0.002198691    0.000037502
     13        1          -0.002054925   -0.000870031   -0.000123374
     14        1           0.001193337    0.002075488   -0.001694264
 -------------------------------------------------------------------
 Cartesian Forces:  Max     0.018950228 RMS     0.006156613
 Leave Link  716 at Thu Jan  2 19:20:35 2020, MaxMem= 10737418240 cpu:               0.8 elap:               0.0
 (Enter /apps/cent7/gaussian/g16-A.03/g16-haswell/g16/l103.exe)

 GradGradGradGradGradGradGradGradGradGradGradGradGradGradGradGradGradGrad
 Berny optimization.
 Using GEDIIS/GDIIS optimizer.
 FormGI is forming the generalized inverse of G from B-inverse, IUseBI=4.
 Internal  Forces:  Max     0.012264450 RMS     0.002879119
 Search for a local minimum.
 Step number   2 out of a maximum of   76
 All quantities printed in internal units (Hartrees-Bohrs-Radians)
 RMS Force = .28791D-02 SwitMx=.10000D-02 MixMth= 1
 Mixed Optimization -- RFO/linear search
 Update second derivatives using D2CorX and points    1    2
 DE= -1.91D-02 DEPred=-1.81D-02 R= 1.06D+00
 TightC=F SS=  1.41D+00  RLast= 2.93D-01 DXNew= 5.0454D-01 8.7870D-01
 Trust test= 1.06D+00 RLast= 2.93D-01 DXMaxT set to 5.05D-01
 ITU=  1  0
 Use linear search instead of GDIIS.
     Eigenvalues ---    0.01969   0.01970   0.01971   0.01975   0.01979
     Eigenvalues ---    0.01981   0.01987   0.02024   0.02276   0.04887
     Eigenvalues ---    0.07373   0.11206   0.12202   0.15507   0.16000
     Eigenvalues ---    0.16000   0.16000   0.16056   0.21380   0.22021
     Eigenvalues ---    0.23790   0.25079   0.34796   0.34811   0.34812
     Eigenvalues ---    0.34846   0.37230   0.37831   0.40263   0.40626
     Eigenvalues ---    0.41305   0.44181   0.44346   0.46511   0.52483
     Eigenvalues ---    0.55448
 RFO step:  Lambda=-1.38350744D-03 EMin= 1.96938073D-02
 Quartic linear search produced a step of  0.15825.
 Iteration  1 RMS(Cart)=  0.01627769 RMS(Int)=  0.00030556
 Iteration  2 RMS(Cart)=  0.00027228 RMS(Int)=  0.00004670
 Iteration  3 RMS(Cart)=  0.00000005 RMS(Int)=  0.00004670
 ITry= 1 IFail=0 DXMaxC= 6.70D-02 DCOld= 1.00D+10 DXMaxT= 5.05D-01 DXLimC= 3.00D+00 Rises=F
 Variable       Old X    -DE/DX   Delta X   Delta X   Delta X     New X
                                 (Linear)    (Quad)   (Total)
    R1        2.48283  -0.01226  -0.01256  -0.01591  -0.02848   2.45436
    R2        1.82737   0.00184   0.00209   0.00212   0.00420   1.83157
    R3        2.67051   0.00767   0.00130   0.01902   0.02028   2.69080
    R4        2.68520   0.00461   0.00363   0.00897   0.01257   2.69777
    R5        2.56212  -0.00305  -0.01596   0.00563  -0.01033   2.55179
    R6        2.04739  -0.00066  -0.00197  -0.00046  -0.00242   2.04497
    R7        2.76429   0.00749   0.01654   0.00551   0.02207   2.78636
    R8        2.04838   0.00046  -0.00182   0.00312   0.00130   2.04968
    R9        2.76208   0.00819   0.01615   0.00757   0.02375   2.78583
   R10        2.08490   0.00012   0.00995  -0.00823   0.00172   2.08661
   R11        2.08495   0.00015   0.00996  -0.00816   0.00180   2.08675
   R12        2.56146  -0.00297  -0.01605   0.00574  -0.01030   2.55116
   R13        2.04884   0.00029  -0.00174   0.00248   0.00075   2.04958
   R14        2.05037  -0.00026  -0.00150   0.00045  -0.00105   2.04932
    A1        1.94670   0.00600   0.00572   0.03721   0.04293   1.98963
    A2        2.02659  -0.00114  -0.01115   0.00530  -0.00582   2.02077
    A3        2.11596   0.00227   0.00299   0.00797   0.01099   2.12695
    A4        2.14062  -0.00114   0.00817  -0.01324  -0.00516   2.13545
    A5        2.07065   0.00038  -0.00424   0.00570   0.00140   2.07205
    A6        2.09309  -0.00343   0.00006  -0.02400  -0.02390   2.06919
    A7        2.11944   0.00305   0.00417   0.01830   0.02250   2.14194
    A8        2.12279   0.00234   0.00446   0.00765   0.01210   2.13489
    A9        2.07723   0.00150  -0.00285   0.01595   0.01310   2.09032
   A10        2.08317  -0.00383  -0.00161  -0.02360  -0.02520   2.05797
   A11        2.04107  -0.00473  -0.00828  -0.01493  -0.02301   2.01806
   A12        1.90092   0.00187   0.00473   0.00728   0.01211   1.91303
   A13        1.90013   0.00186   0.00461   0.00725   0.01196   1.91209
   A14        1.89865   0.00186   0.00437   0.00761   0.01208   1.91073
   A15        1.89799   0.00184   0.00427   0.00745   0.01183   1.90982
   A16        1.81122  -0.00250  -0.01043  -0.01494  -0.02542   1.78581
   A17        2.11473   0.00349   0.00319   0.01430   0.01751   2.13224
   A18        2.08560  -0.00400  -0.00121  -0.02372  -0.02493   2.06067
   A19        2.08285   0.00051  -0.00198   0.00942   0.00743   2.09027
   A20        2.07650  -0.00033  -0.00331   0.00052  -0.00284   2.07366
   A21        2.10431  -0.00211   0.00183  -0.01675  -0.01490   2.08942
   A22        2.10237   0.00244   0.00148   0.01623   0.01774   2.12011
    D1        3.13462   0.00019   0.00122   0.00651   0.00772  -3.14084
    D2       -0.00211   0.00002  -0.00033   0.00108   0.00075  -0.00135
    D3       -3.13160  -0.00016  -0.00116  -0.00555  -0.00665  -3.13826
    D4        0.00949  -0.00019  -0.00125  -0.00677  -0.00795   0.00154
    D5        0.00505   0.00002   0.00037   0.00004   0.00041   0.00545
    D6       -3.13705  -0.00000   0.00028  -0.00118  -0.00089  -3.13794
    D7        3.13130   0.00017   0.00111   0.00589   0.00708   3.13838
    D8       -0.01027   0.00018   0.00113   0.00677   0.00794  -0.00233
    D9       -0.00510  -0.00002  -0.00038   0.00003  -0.00035  -0.00546
   D10        3.13651  -0.00000  -0.00036   0.00091   0.00051   3.13702
   D11       -0.00211  -0.00000  -0.00007  -0.00003  -0.00008  -0.00219
   D12        3.13897  -0.00000  -0.00016   0.00037   0.00022   3.13919
[...]
 ! D11   D(2,3,4,5)             -0.0403         -DE/DX =    0.0                 !
 ! D12   D(2,3,4,10)           179.9528         -DE/DX =    0.0                 !
 ! D13   D(9,3,4,5)            179.9834         -DE/DX =    0.0                 !
 ! D14   D(9,3,4,10)            -0.0236         -DE/DX =    0.0                 !
 ! D15   D(3,4,5,6)             -0.0148         -DE/DX =    0.0                 !
 ! D16   D(3,4,5,11)           124.2102         -DE/DX =    0.0                 !
 ! D17   D(3,4,5,14)          -124.2019         -DE/DX =    0.0                 !
 ! D18   D(10,4,5,6)          -180.008          -DE/DX =    0.0                 !
 ! D19   D(10,4,5,11)          -55.7829         -DE/DX =    0.0                 !
 ! D20   D(10,4,5,14)           55.805          -DE/DX =    0.0                 !
 ! D21   D(4,5,6,7)              0.0125         -DE/DX =    0.0                 !
 ! D22   D(4,5,6,12)           180.0145         -DE/DX =    0.0                 !
 ! D23   D(11,5,6,7)          -124.3433         -DE/DX =    0.0                 !
 ! D24   D(11,5,6,12)           55.6587         -DE/DX =    0.0                 !
 ! D25   D(14,5,6,7)           124.3313         -DE/DX =    0.0                 !
 ! D26   D(14,5,6,12)          -55.6667         -DE/DX =    0.0                 !
 ! D27   D(5,6,7,2)              0.0446         -DE/DX =    0.0                 !
 ! D28   D(5,6,7,13)          -179.9664         -DE/DX =    0.0                 !
 ! D29   D(12,6,7,2)          -179.9574         -DE/DX =    0.0                 !
 ! D30   D(12,6,7,13)            0.0316         -DE/DX =    0.0                 !
 --------------------------------------------------------------------------------
 GradGradGradGradGradGradGradGradGradGradGradGradGradGradGradGradGradGrad

 Leave Link  103 at Thu Jan  2 19:21:51 2020, MaxMem= 10737418240 cpu:               1.0 elap:               0.1
 (Enter /apps/cent7/gaussian/g16-A.03/g16-haswell/g16/l9999.exe)

 ----------------------------------------------------------------------

 Electric dipole moment (input orientation):
 (Debye = 10**-18 statcoulomb cm , SI units = C m)
                  (au)            (Debye)         (10**-30 SI)
   Tot        0.758997D+00      0.192918D+01      0.643504D+01
   x          0.753386D+00      0.191492D+01      0.638747D+01
   y          0.921144D-01      0.234131D+00      0.780979D+00
   z          0.946115D-03      0.240478D-02      0.802150D-02

 Dipole polarizability, Alpha (input orientation).
 (esu units = cm**3 , SI units = C**2 m**2 J**-1)
 Alpha(0;0):
               (au)            (10**-24 esu)      (10**-40 SI)
   iso        0.662393D+02      0.981565D+01      0.109214D+02
   aniso      0.473735D+02      0.702002D+01      0.781083D+01
   xx         0.726220D+02      0.107615D+02      0.119737D+02
   yx         0.964230D+01      0.142884D+01      0.158980D+01
   yy         0.880387D+02      0.130460D+02      0.145156D+02
   zx         0.447317D-01      0.662856D-02      0.737527D-02
   zy         0.112482D+00      0.166680D-01      0.185457D-01
   zz         0.380572D+02      0.563949D+01      0.627478D+01

 ----------------------------------------------------------------------

 Dipole orientation:
     8          0.24336900         -1.89716602         -1.53215524
     6          0.01145515         -0.02334626          0.02984457
     6         -0.29320291          2.41027208         -1.09302283
     6         -0.54478959          4.44196758          0.42602857
     6         -0.51695044          4.23027869          3.20679859
     6         -0.19707849          1.65500185          4.22354125
     6          0.05487205         -0.38032217          2.70720150
     1          0.44514825         -3.52449849         -0.71664867
     1         -0.30998399          2.53220982         -3.13529431
     1         -0.77702244          6.30925615         -0.38782463
     1          0.96514257          5.46923434          3.98703270
     1         -0.16781773          1.42468574          6.26076207
     1          0.28841472         -2.26881881          3.46876103
     1         -2.25671255          5.06890316          3.98828465

 Electric dipole moment (dipole orientation):
 (Debye = 10**-18 statcoulomb cm , SI units = C m)
                  (au)            (Debye)         (10**-30 SI)
   Tot        0.758997D+00      0.192918D+01      0.643504D+01
   x          0.000000D+00      0.000000D+00      0.000000D+00
   y          0.000000D+00      0.000000D+00      0.000000D+00
   z          0.758997D+00      0.192918D+01      0.643504D+01

 Dipole polarizability, Alpha (dipole orientation).
 (esu units = cm**3 , SI units = C**2 m**2 J**-1)
 Alpha(0;0):
               (au)            (10**-24 esu)      (10**-40 SI)
   iso        0.662393D+02      0.981565D+01      0.109214D+02
   aniso      0.473735D+02      0.702002D+01      0.781083D+01
   xx         0.387779D+02      0.574630D+01      0.639362D+01
   yx        -0.580342D+01     -0.859978D+00     -0.956854D+00
   yy         0.847677D+02      0.125613D+02      0.139763D+02
   zx        -0.137286D+01     -0.203437D+00     -0.226354D+00
   zy         0.111312D+02      0.164948D+01      0.183530D+01
   zz         0.751723D+02      0.111394D+02      0.123942D+02

 ----------------------------------------------------------------------
 1\1\GINC-BROWN-A008\Freq\RM062X\6-311++G(d,p)\C6H7O1(1+)\FINEJ\02-Jan-
 2020\0\\#P Geom=AllCheck Guess=TCheck SCRF=Check GenChk RM062X/6-311++
 G(d,p) Freq\\Title Card Required\\1,1\O,-0.6819428364,-1.103062555,-0.
 0070027126\C,0.0172594682,-0.0109851985,-0.0044979421\C,-0.7300613923,
 1.2051689723,-0.0015060146\C,-0.0636362441,2.3780558497,0.0011646591\C
 ,1.4107184777,2.4444990401,0.0019712636\C,2.1114433745,1.146700903,0.0
 000157086\C,1.4466766541,-0.0279268749,-0.0026112694\H,-0.1482717525,-
 1.9120146307,-0.0079406255\H,-1.8107008239,1.1386545469,-0.0018698331\
 H,-0.6119736978,3.3141643876,0.0026892373\H,1.7541808392,3.046227359,-
 0.8555750743\H,3.1964355533,1.1555887139,0.0007814063\H,1.9689074128,-
 0.9785349837,-0.0034963067\H,1.7531209072,3.0427090705,0.8624644733\\V
 ersion=ES64L-G16RevA.03\State=1-A\HF=-307.7383932\RMSD=4.774e-09\RMSF=
 5.668e-05\ZeroPoint=0.1166923\Thermal=0.1166923\Dipole=0.7533856,0.092
 1144,0.0009461\DipoleDeriv=-0.5875506,-0.6136525,-0.0016717,-0.6333999
 ,-1.5926438,-0.0034677,-0.0015028,-0.0028725,-0.309462,1.3671699,0.536
 316,0.0021395,0.445867,1.961667,0.0042424,0.0026303,0.004177,0.3435483
 ,-0.0035357,0.0914288,0.0001687,0.1067017,-1.076919,-0.0021432,-0.0002
 955,-0.0020835,-0.1338039,0.1664098,0.4863393,0.0011973,0.0111173,0.56
 33639,0.0014162,0.0004005,0.0013686,-0.0120619,-0.1889708,-0.2571526,-
 0.0007336,-0.2382662,-0.5135256,-0.0013495,-0.0007371,-0.0012544,0.006
 7402,0.2232828,0.0717316,0.000433,0.4972786,0.5137519,0.0015588,0.0012
 785,0.001172,-0.0026348,-0.8626045,-0.4605355,-0.0015922,-0.4225605,-0
 .2108363,-0.0006846,-0.0019685,-0.0009028,-0.1314555,0.2388443,0.01209
 08,-0.0000819,0.0916699,0.5937924,0.0005335,0.0001268,0.0005659,0.3688
 531,0.1168894,0.0002861,-0.0000223,-0.0013408,0.0857446,-0.0001909,-0.
 0000116,-0.0002753,0.1734218,0.0773616,0.0113973,0.000028,-0.0004522,0
 .1137632,-0.0000527,-0.00001,-0.0000893,0.1288999,0.1349987,0.0631346,
 0.0041705,0.0623411,0.2154397,0.0052228,0.0052337,0.0044498,0.1343618,
 0.098024,0.0131875,-0.0000239,0.0273812,0.0932892,-0.0000351,-0.000064
 ,-0.0000863,0.125911,0.0847375,-0.0177592,-0.0001096,-0.0087466,0.0376
 623,-0.0002574,-0.0001658,-0.0002669,0.1733797,0.1349435,0.0631879,-0.
 0039019,0.0624095,0.2154506,-0.0047926,-0.0049144,-0.0039024,0.1343024
 \Polar=72.6219881,9.6423048,88.0387344,0.0447317,0.1124815,38.0571769\
 Quadrupole=-0.0890776,8.656109,-8.5670315,0.3934064,0.0062175,0.034327
 7\PG=C01 [X(C6H7O1)]\NImag=0\\0.44537172,-0.03505720,0.77552909,0.0003
 0077,0.00132286,0.04259920,-0.22529343,-0.16601892,-0.00042465,0.70575
 160,-0.12306798,-0.35086113,-0.00064459,0.03456860,0.76502436,-0.00039
 209,-0.00071989,-0.05632318,0.00049241,0.00130679,0.18209854,0.0216460
 4,-0.02770698,-0.00005058,-0.19423219,0.11738413,0.00026903,0.77643651
 ,0.00265722,-0.08377493,-0.00019142,0.07223694,-0.19684665,-0.00037787
 ,0.09743352,0.73378445,0.00003059,-0.00019376,0.00633936,0.00017504,-0
 .00036248,-0.06512260,0.00032976,0.00148005,0.11281613,0.00059392,0.02
 018443,0.00003934,0.03839016,-0.01958975,-0.00001056,-0.22293803,-0.13
 931058,-0.00033885,0.63248094,0.00988951,0.01142772,0.00001676,-0.0004
 9271,-0.06116574,-0.00008617,-0.17577985,-0.38890743,-0.00078420,0.038
 01398,0.81645636,0.00001881,0.00002148,0.00404053,0.00000984,-0.000135
 42,-0.00534534,-0.00041692,-0.00074219,-0.05522169,0.00029028,0.001318
 73,0.16859733,-0.00343964,-0.00707233,-0.00001487,-0.00125849,0.010264
 19,0.00002430,-0.01510816,-0.02213630,-0.00006019,-0.24947152,0.001886
 51,-0.00006737,0.54798784,-0.00663960,-0.01262427,-0.00002424,0.013106
 37,0.00980847,0.00004252,-0.02706738,-0.01023152,-0.00004938,0.0155341
 2,-0.08717018,-0.00001782,-0.00420316,0.54089967,-0.00001376,-0.000030
 62,-0.00019493,0.00003112,0.00004440,-0.01325473,-0.00005989,-0.000052
 57,0.01545756,-0.00005276,-0.00002490,-0.07318723,-0.00001510,0.000030
 77,0.47345035,-0.00454180,0.00517772,-0.00000870,-0.02816701,-0.038902
 76,-0.00006820,0.00086547,0.00510178,0.00000269,-0.02746112,0.03573168
 ,0.00005160,-0.13791143,0.06990579,0.00009168,0.73327548,0.01533776,0.
 01708655,0.00002968,-0.06293178,0.00812631,-0.00000296,-0.00447833,-0.
 02000963,-0.00005182,0.01941965,0.00607103,0.00001686,0.08339420,-0.19
 777712,-0.00017402,0.09640889,0.71109682,0.00001464,0.00002349,0.00627
 322,-0.00014215,-0.00001845,-0.00592336,-0.00000115,-0.00003554,0.0019
 1831,0.00001946,0.00003091,0.00016733,0.00010830,-0.00017306,-0.073381
 95,0.00059717,0.00105842,0.16824651,-0.03675023,-0.03083096,-0.0001177
 8,-0.27272770,0.01418426,-0.00029579,-0.01214445,0.02770256,0.00004766
 ,-0.01387812,-0.00381134,-0.00001331,0.00943667,-0.00881545,-0.0000205
 5,-0.20416886,-0.12721789,-0.00034792,0.65375810,-0.05883216,-0.019598
 38,-0.00013671,0.06686270,-0.12165145,-0.00004011,0.03030625,0.0245529
 5,0.00005993,-0.01411513,-0.00525139,-0.00001137,-0.01176718,-0.035827
 46,-0.00009314,-0.16646255,-0.40135867,-0.00073688,0.02377083,0.837058
 97,-0.00014489,-0.00008718,0.02073392,-0.00021119,-0.00008277,-0.06423
 190,0.00004608,0.00006085,0.00221452,-0.00004009,-0.00002607,0.0012256
 7,-0.00001562,-0.00009634,0.01621320,-0.00044521,-0.00070972,-0.054454
 31,0.00070302,0.00123249,0.10680070,-0.20437218,0.24238746,0.00026661,
 0.01860696,-0.02271764,-0.00002016,-0.00190103,-0.00499181,-0.00002325
 ,0.00187031,0.00074032,0.00000217,-0.00024146,-0.00114775,-0.00000404,
 -0.00048224,0.00240844,0.00000604,-0.00014434,-0.00637743,-0.00001167,
 0.18818898,0.19644951,-0.34606473,-0.00039990,0.01700050,-0.04237830,-
 0.00006628,-0.00492156,0.00234671,-0.00000925,-0.00034707,-0.00263834,
 -0.00000909,0.00102985,0.00203610,0.00000565,0.00023378,-0.00283405,-0
 .00000399,0.00397666,0.00620404,0.00002077,-0.21164019,0.38350830,0.00
 018613,-0.00035610,-0.01552574,0.00003366,-0.00008325,-0.00186209,-0.0
 0001698,-0.00002437,0.00804165,0.00000113,-0.00001303,0.00146418,0.000
 00361,0.00000484,0.00008673,-0.00000025,-0.00000402,-0.00069909,0.0000
 1743,0.00001312,-0.00427795,-0.00021648,0.00046149,0.01320312,0.000831
 50,-0.00127888,-0.00000180,-0.01179981,-0.00192705,-0.00001222,-0.3525
 9076,-0.01458669,-0.00009970,-0.00699386,0.00018057,-0.00000339,0.0017
 2432,-0.00102501,-0.00000088,0.00041075,0.00038610,0.00000098,0.000663
 00,0.00172176,0.00000550,0.00020073,0.00010147,-0.00000029,0.36746274,
 -0.00097573,0.00179430,0.00000761,0.03022233,0.00383472,0.00001880,-0.
 01653925,-0.05752033,-0.00006181,-0.02986195,0.00314958,-0.00001105,-0
 .00037237,-0.00386551,-0.00003429,-0.00005422,-0.00090261,0.00000146,0
 .00130322,-0.00499344,-0.00002522,-0.00025273,0.00014019,0.00000150,0.
 01677759,0.05731080,-0.00000262,0.00000242,-0.00191375,0.00007178,0.00
 000944,0.00227942,-0.00010768,-0.00005308,-0.03697754,-0.00006897,-0.0
 0000168,0.00304011,-0.00000757,-0.00003016,0.01116342,-0.00000080,-0.0
 0000455,-0.00079516,-0.00000177,-0.00002167,0.00471604,0.00000009,0.00
 000171,-0.00042493,0.00011280,0.00008108,0.02604607,0.00092328,-0.0012
 5968,-0.00000209,-0.00364417,-0.00224387,-0.00001187,0.01297173,-0.017
 38851,-0.00004141,-0.13313479,0.12908060,0.00021851,-0.01023461,0.0264
 4305,0.00005013,-0.00590456,-0.00382472,-0.00001172,0.00153456,0.00036
 058,0.00000276,-0.00013759,-0.00024130,-0.00000021,0.00066748,0.000138
 64,0.00000351,0.13599060,0.00103399,-0.00073908,0.00000014,-0.00284102
 ,-0.00323976,-0.00002801,0.01464105,-0.01575256,-0.00005168,0.12463151
 ,-0.27568413,-0.00038574,-0.00323375,0.00733982,0.00001148,-0.00213267
 ,0.00071343,-0.00000446,-0.00042560,-0.00007580,0.00000204,-0.00012685
 ,-0.00027237,0.00000124,0.00009752,0.00085264,0.00001268,-0.13272483,0
 .28608459,-0.00000079,-0.00000347,-0.00084274,-0.00001463,-0.00002441,
 0.01262580,0.00002628,-0.00008787,0.01050072,0.00021396,-0.00036596,-0
 .04686317,-0.00001292,0.00001628,0.00095648,-0.00000446,-0.00000258,0.
 00262840,0.00000135,0.00000528,-0.00160469,0.00000069,0.00000205,-0.00
 127210,0.00000047,0.00001739,-0.00611647,-0.00020938,0.00044552,0.0271
 7074,0.00115197,0.00050654,-0.00005450,-0.00612977,0.00242482,0.000652
 81,-0.00430771,-0.00177141,-0.00163084,-0.01016861,-0.01863130,0.02543
 243,-0.06617623,-0.03618790,0.06640576,0.00519677,0.00159888,-0.013383
 32,0.00383135,0.00426613,0.00101373,-0.00003883,-0.00020991,-0.0000189
 1,-0.00013319,-0.00085275,-0.00165971,0.00059975,0.00062335,-0.0014586
 5,0.07347696,0.00059168,0.00223279,-0.00026945,0.00184719,-0.00339397,
 0.00145523,-0.00072430,0.00509461,0.00006023,-0.00736952,-0.00474501,-
 0.00025154,-0.03639313,-0.10907212,0.11661211,-0.00939669,-0.02060497,
 0.02193117,0.00320332,-0.00278204,-0.00153413,0.00027286,-0.00024772,0
 .00000758,-0.00014776,-0.00013571,0.00019660,0.00006051,0.00018995,-0.
 00040792,0.04485784,0.12668811,-0.00044614,-0.00080731,0.00001811,0.00
 054237,0.00061517,0.00067677,-0.00066238,-0.00152694,-0.00150361,-0.00
 008224,-0.00168361,0.00003207,0.06487078,0.11411480,-0.18403413,-0.001
 29646,-0.00092152,-0.00012282,-0.00110314,-0.00137759,-0.00157620,-0.0
 0003797,0.00011044,0.00003356,-0.00010457,-0.00011154,-0.00016092,0.00
 054068,0.00016184,0.00083064,-0.06939863,-0.12205246,0.20910521,-0.000
 22019,0.00027698,0.00000199,-0.00109452,-0.00138204,-0.00000971,0.0004
 1794,-0.00111786,-0.00000109,0.00157689,0.00245097,0.00000365,-0.00755
 926,-0.00172551,-0.00001049,-0.34974630,-0.00478987,-0.00023008,-0.006
 92479,0.00280938,-0.00000833,-0.00002105,0.00000700,-0.00000055,-0.000
 02047,-0.00002931,0.00000034,-0.00037169,-0.00023278,-0.00000167,0.000
 02040,0.00025787,-0.00014597,0.36320555,-0.00197690,0.00022617,0.00000
 340,-0.00086175,-0.00613520,-0.00003277,-0.00030820,0.00109925,0.00000
 491,0.00055821,-0.00682968,-0.00001702,0.02805217,0.00494513,0.0000301
 6,-0.00023259,-0.05908543,-0.00001659,-0.02918303,0.00389059,-0.000043
 36,0.00004104,0.00028064,-0.00000065,-0.00003879,0.00015530,0.00000159
 ,0.00147315,0.00038686,-0.00000223,-0.00031699,0.00078217,0.00055210,0
 .00308100,0.05866675,-0.00000193,0.00000310,-0.00319636,-0.00000228,-0
 .00003285,0.01280928,0.00000129,0.00000815,-0.00167994,0.00000031,-0.0
 0001275,0.00272092,0.00003962,-0.00000070,0.00087946,-0.00021268,-0.00
 000397,-0.04674532,-0.00008774,-0.00002952,0.01062832,-0.00000032,-0.0
 0000047,0.00061639,-0.00000012,0.00000153,-0.00057296,0.00000131,-0.00
 000292,0.00171919,0.00039339,-0.00146620,0.00087162,0.00025155,0.00006
 083,0.02711861,0.00294556,0.00018778,0.00000865,-0.01226548,0.02857366
 ,0.00003621,-0.00481001,-0.00204978,-0.00001642,-0.00071572,-0.0007297
 3,-0.00000086,-0.00174516,-0.00241768,-0.00002028,0.01346242,-0.017260
 24,-0.00002318,-0.12631929,0.12319046,0.00009217,-0.00148919,-0.001228
 74,-0.00000575,-0.00028933,0.00135695,0.00000472,0.00013957,0.00007202
 ,0.00000086,0.00031968,-0.00057518,-0.00004303,0.00071577,0.00002768,0
 .00000982,0.12972853,0.00000169,0.00313787,0.00000928,-0.00455410,0.00
 226740,-0.00000816,-0.00151161,0.00107596,-0.00000420,-0.00037834,0.00
 004148,0.00000105,-0.00348040,-0.00036228,-0.00001774,0.01399021,-0.01
 999308,-0.00002965,0.12294956,-0.27737820,-0.00024493,0.00113187,0.000
 16648,0.00000031,-0.00011249,0.00031510,0.00000172,0.00006401,0.000006
 77,0.00000070,0.00016305,-0.00068297,-0.00016546,0.00013935,0.00083688
 ,0.00001074,-0.12856839,0.29125573,-0.00000057,0.00000419,-0.00203069,
 -0.00001517,0.00003961,0.00090692,-0.00000916,-0.00001309,0.00471303,-
 0.00000388,-0.00000176,-0.00067770,-0.00001375,-0.00002610,0.01092761,
 0.00003290,-0.00005963,0.00308132,0.00008912,-0.00024077,-0.03482190,-
 0.00000114,-0.00000059,0.00058334,-0.00000043,0.00000399,-0.00012388,0
 .00000064,0.00000128,-0.00056693,0.00102644,-0.00131921,-0.00018168,0.
 00000424,0.00001224,-0.00604619,-0.00008459,0.00028315,0.02441400,0.00
 115348,0.00050405,0.00005761,-0.00613616,0.00243146,-0.00065416,-0.004
 30534,-0.00177908,0.00162600,-0.01015043,-0.01852923,-0.02552544,-0.06
 600287,-0.03575987,-0.06638093,0.00517244,0.00154891,0.01339293,0.0038
 3411,0.00426636,-0.00098626,-0.00003905,-0.00020999,0.00001745,-0.0001
 3310,-0.00086041,0.00165586,0.00060045,0.00061805,0.00145890,0.0023574
 7,0.00351531,0.00736670,0.00002171,-0.00031499,-0.00039222,0.00032265,
 0.00016559,-0.00102466,0.07330465,0.00058820,0.00222802,0.00027657,0.0
 0185565,-0.00338907,-0.00146113,-0.00072749,0.00508913,-0.00003655,-0.
 00736955,-0.00475427,0.00022312,-0.03596828,-0.10809873,-0.11630728,-0
 .00936838,-0.02052859,-0.02202684,0.00319386,-0.00278973,0.00153356,0.
 00027242,-0.00024695,-0.00000867,-0.00014833,-0.00013503,-0.00019608,0
 .00006237,0.00018963,0.00040724,0.00352967,0.00667689,0.01309209,0.000
 25482,0.00078057,0.00146501,-0.00057880,-0.00068715,0.00131669,0.04440
 384,0.12566529,0.00045185,0.00082079,0.00002306,-0.00054614,-0.0006312
 0,0.00066648,0.00065229,0.00155588,-0.00149589,0.00003288,0.00163373,0
 .00000701,-0.06483925,-0.11379141,-0.18508183,0.00126072,0.00082983,-0
 .00019308,0.00112941,0.00137694,-0.00156543,0.00003943,-0.00011253,0.0
 0003293,0.00010363,0.00011054,-0.00015945,-0.00054083,-0.00016340,0.00
 083414,-0.00732001,-0.01296203,-0.02398862,0.00014612,-0.00055261,0.00
 087699,0.00004168,0.00016319,-0.00017725,0.06938821,0.12172227,0.21022
 094\\0.00004436,-0.00000073,0.00004668,-0.00012843,-0.00010787,-0.0002
 4521,-0.00000317,0.00001553,0.00008110,-0.00004506,0.00003065,0.000028
 76,-0.00002348,0.00000272,-0.00001079,0.00006604,-0.00008130,0.0000174
 3,0.00006968,0.00005003,0.00005614,-0.00001094,-0.00001008,0.00001660,
 -0.00000329,0.00002243,0.00001500,0.00000072,0.00001084,-0.00002678,0.
 00001535,0.00003118,0.00004646,0.00000552,0.00000381,-0.00002217,-0.00
 000602,-0.00000631,0.00002590,0.00001871,0.00003911,-0.00002912\\\@


 The earth never tires,
 The earth is rude, silent, incomprehensible at first,
 Nature is rude and incomprehensible at first,
 Be not discouraged, keep on,
 There are divine things well envelop'd,
 I swear to you there are divine things more beautiful than words can tell.
                                 -- Walt Whitman
 Job cpu time:       0 days  0 hours 20 minutes 27.0 seconds.
 Elapsed time:       0 days  0 hours  0 minutes 51.9 seconds.
 File lengths (MBytes):  RWF=     61 Int=      0 D2E=      0 Chk=      5 Scr=      1
 Normal termination of Gaussian 16 at Thu Jan  2 19:21:51 2020.
real 94.57
user 2159.68
sys 14.58
Machine:
brown-a008
brown-a008
brown-a008
brown-a008
brown-a008
brown-a008
brown-a008
brown-a008
brown-a008
brown-a008
brown-a008
brown-a008
brown-a008
brown-a008
brown-a008
brown-a008
brown-a008
brown-a008
brown-a008
brown-a008
brown-a008
brown-a008
brown-a008
brown-a008
