 Entering Gaussian System, Link 0=/apps/cent7/gaussian/g16-A.03/g16-haswell/g16/g16
 Initial command:
 /apps/cent7/gaussian/g16-A.03/g16-haswell/g16/l1.exe "/scratch/brown/finej/gaussian/Gau-107870.inp" -scrdir="/scratch/brown/finej/gaussian/"
 Entering Link 1 = /apps/cent7/gaussian/g16-A.03/g16-haswell/g16/l1.exe PID=    107872.
  
 Copyright (c) 1988,1990,1992,1993,1995,1998,2003,2009,2016,
            Gaussian, Inc.  All Rights Reserved.
  
 This is part of the Gaussian(R) 16 program.  It is based on
 the Gaussian(R) 09 system (copyright 2009, Gaussian, Inc.),
 the Gaussian(R) 03 system (copyright 2003, Gaussian, Inc.),
 the Gaussian(R) 98 system (copyright 1998, Gaussian, Inc.),
 the Gaussian(R) 94 system (copyright 1995, Gaussian, Inc.),
 the Gaussian 92(TM) system (copyright 1992, Gaussian, Inc.),
 the Gaussian 90(TM) system (copyright 1990, Gaussian, Inc.),
 the Gaussian 88(TM) system (copyright 1988, Gaussian, Inc.),
 the Gaussian 86(TM) system (copyright 1986, Carnegie Mellon
 University), and the Gaussian 82(TM) system (copyright 1983,
 Carnegie Mellon University). Gaussian is a federally registered
 trademark of Gaussian, Inc.
  
 This software contains proprietary and confidential information,
 including trade secrets, belonging to Gaussian, Inc.
  
 This software is provided under written license and may be
 used, copied, transmitted, or stored only in accord with that
 written license.
  
 The following legend is applicable only to US Government
 contracts under FAR:
  
                    RESTRICTED RIGHTS LEGEND
  
 Use, reproduction and disclosure by the US Government is
 subject to restrictions as set forth in subparagraphs (a)
 and (c) of the Commercial Computer Software - Restricted
 Rights clause in FAR 52.227-19.
  
 Gaussian, Inc.
 340 Quinnipiac St., Bldg. 40, Wallingford CT 06492
  
  
 ---------------------------------------------------------------
 Warning -- This program may not be used in any manner that
 competes with the business of Gaussian, Inc. or will provide
 assistance to any competitor of Gaussian, Inc.  The licensee
 of this program is prohibited from giving any competitor of
 Gaussian, Inc. access to this program.  By using this program,
 the user acknowledges that Gaussian, Inc. is engaged in the
 business of creating and licensing software in the field of
 computational chemistry and represents and warrants to the
 licensee that it is not a competitor of Gaussian, Inc. and that
 it will not use this program in any manner prohibited above.
 ---------------------------------------------------------------
  

 Cite this work as:
 Gaussian 16, Revision A.03,
 M. J. Frisch, G. W. Trucks, H. B. Schlegel, G. E. Scuseria, 
 M. A. Robb, J. R. Cheeseman, G. Scalmani, V. Barone, 
 G. A. Petersson, H. Nakatsuji, X. Li, M. Caricato, A. V. Marenich, 
 J. Bloino, B. G. Janesko, R. Gomperts, B. Mennucci, H. P. Hratchian, 
 J. V. Ortiz, A. F. Izmaylov, J. L. Sonnenberg, D. Williams-Young, 
 F. Ding, F. Lipparini, F. Egidi, J. Goings, B. Peng, A. Petrone, 
 T. Henderson, D. Ranasinghe, V. G. Zakrzewski, J. Gao, N. Rega, 
 G. Zheng, W. Liang, M. Hada, M. Ehara, K. Toyota, R. Fukuda, 
 J. Hasegawa, M. Ishida, T. Nakajima, Y. Honda, O. Kitao, H. Nakai, 
 T. Vreven, K. Throssell, J. A. Montgomery, Jr., J. E. Peralta, 
 F. Ogliaro, M. J. Bearpark, J. J. Heyd, E. N. Brothers, K. N. Kudin, 
 V. N. Staroverov, T. A. Keith, R. Kobayashi, J. Normand, 
 K. Raghavachari, A. P. Rendell, J. C. Burant, S. S. Iyengar, 
 J. Tomasi, M. Cossi, J. M. Millam, M. Klene, C. Adamo, R. Cammi, 
 J. W. Ochterski, R. L. Martin, K. Morokuma, O. Farkas, 
 J. B. Foresman, and D. J. Fox, Gaussian, Inc., Wallingford CT, 2016.
 
 ******************************************
 Gaussian 16:  ES64L-G16RevA.03 25-Dec-2016
                13-Oct-2019 
 ******************************************
 %chk=21_p.chk
 %nprocshared=24
 Will use up to   24 processors via shared memory.
 %mem=80GB
 -------------------------------------------------------------------
 #P opt freq m062x/6-311++g(d,p) geom=connectivity temperature=0.001
 -------------------------------------------------------------------
 1/18=20,19=15,26=3,38=1,57=2,112=-1000/1,3;
 2/9=110,12=2,17=6,18=5,40=1/2;
 3/5=4,6=6,7=1111,11=2,25=1,30=1,71=1,74=-55/1,2,3;
 4//1;
 5/5=2,38=5/2;
 6/7=2,8=2,9=2,10=2,28=1/1;
 7//1,2,3,16;
 1/18=20,19=15,26=3/3(2);
 2/9=110/2;
 99//99;
 2/9=110/2;
 3/5=4,6=6,7=1111,11=2,25=1,30=1,71=1,74=-55/1,2,3;
 4/5=5,16=3,69=1/1;
 5/5=2,38=5/2;
 7//1,2,3,16;
 1/18=20,19=15,26=3/3(-5);
 2/9=110/2;
 6/7=2,8=2,9=2,10=2,19=2,28=1/1;
 99/9=1/99;
 Leave Link    1 at Sun Oct 13 21:37:17 2019, MaxMem= 10737418240 cpu:               1.3 elap:               0.1
 (Enter /apps/cent7/gaussian/g16-A.03/g16-haswell/g16/l101.exe)
 -------------------
 Title Card Required
 -------------------
 Symbolic Z-matrix:
 Charge =  1 Multiplicity = 1
 O                    -0.6901   -1.1952   -0.0142 
 C                    -0.0122   -0.0211    0.0035 
 C                    -0.7133    1.2009    0.0038 
 C                    -0.0091    2.4215    0.0011 
 C                     1.3984    2.4222    0.0001 
 C                     2.1016    1.2028    0.0011 
 C                     1.3966   -0.0173    0.0038 
 H                    -0.4795   -1.69825   0.77586 
 H                    -1.8033    1.202     0.0062 
 H                    -0.5536    3.3658   -0.0002 
 H                     1.9434    3.3661   -0.0015 
 H                     3.1916    1.2035   -0.0002 
 H                     1.9426   -0.9607    0.0062 
 H                    -1.63356  -1.01962  -0.03974 
 
 ITRead=  0  0  0  0  0  0  0  0  0  0  0  0  0  0
 MicOpt= -1 -1 -1 -1 -1 -1 -1 -1 -1 -1 -1 -1 -1 -1
 NAtoms=     14 NQM=       14 NQMF=       0 NMMI=      0 NMMIF=      0
                NMic=       0 NMicF=      0.
                    Isotopes and Nuclear Properties:
 (Nuclear quadrupole moments (NQMom) in fm**2, nuclear magnetic moments (NMagM)
  in nuclear magnetons)

  Atom         1           2           3           4           5           6           7           8           9          10
 IAtWgt=          16          12          12          12          12          12          12           1           1           1
 AtmWgt=  15.9949146  12.0000000  12.0000000  12.0000000  12.0000000  12.0000000  12.0000000   1.0078250   1.0078250   1.0078250
 NucSpn=           0           0           0           0           0           0           0           1           1           1
 AtZEff=  -0.0000000  -0.0000000  -0.0000000  -0.0000000  -0.0000000  -0.0000000  -0.0000000  -0.0000000  -0.0000000  -0.0000000
 NQMom=    0.0000000   0.0000000   0.0000000   0.0000000   0.0000000   0.0000000   0.0000000   0.0000000   0.0000000   0.0000000
 NMagM=    0.0000000   0.0000000   0.0000000   0.0000000   0.0000000   0.0000000   0.0000000   2.7928460   2.7928460   2.7928460
 AtZNuc=   8.0000000   6.0000000   6.0000000   6.0000000   6.0000000   6.0000000   6.0000000   1.0000000   1.0000000   1.0000000

  Atom        11          12          13          14
 IAtWgt=           1           1           1           1
 AtmWgt=   1.0078250   1.0078250   1.0078250   1.0078250
 NucSpn=           1           1           1           1
 AtZEff=  -0.0000000  -0.0000000  -0.0000000  -0.0000000
 NQMom=    0.0000000   0.0000000   0.0000000   0.0000000
 NMagM=    2.7928460   2.7928460   2.7928460   2.7928460
 AtZNuc=   1.0000000   1.0000000   1.0000000   1.0000000
 Leave Link  101 at Sun Oct 13 21:37:17 2019, MaxMem= 10737418240 cpu:               8.2 elap:               0.4
 (Enter /apps/cent7/gaussian/g16-A.03/g16-haswell/g16/l103.exe)

 GradGradGradGradGradGradGradGradGradGradGradGradGradGradGradGradGradGrad
 Berny optimization.
 Initialization pass.
                           ----------------------------
                           !    Initial Parameters    !
                           ! (Angstroms and Degrees)  !
 --------------------------                            --------------------------
 ! Name  Definition              Value          Derivative Info.                !
 --------------------------------------------------------------------------------
 ! R1    R(1,2)                  1.3559         estimate D2E/DX2                !
 ! R2    R(1,8)                  0.96           estimate D2E/DX2                !
 ! R3    R(1,14)                 0.96           estimate D2E/DX2                !
 ! R4    R(2,3)                  1.4088         estimate D2E/DX2                !
 ! R5    R(2,7)                  1.4088         estimate D2E/DX2                !
 ! R6    R(3,4)                  1.4092         estimate D2E/DX2                !
 ! R7    R(3,9)                  1.09           estimate D2E/DX2                !
 ! R8    R(4,5)                  1.4075         estimate D2E/DX2                !
 ! R9    R(4,10)                 1.09           estimate D2E/DX2                !
 ! R10   R(5,6)                  1.4076         estimate D2E/DX2                !
 ! R11   R(5,11)                 1.0899         estimate D2E/DX2                !
 ! R12   R(6,7)                  1.4091         estimate D2E/DX2                !
 ! R13   R(6,12)                 1.09           estimate D2E/DX2                !
 ! R14   R(7,13)                 1.09           estimate D2E/DX2                !
 ! A1    A(2,1,8)              109.4712         estimate D2E/DX2                !
 ! A2    A(2,1,14)             109.4712         estimate D2E/DX2                !
 ! A3    A(8,1,14)             109.4712         estimate D2E/DX2                !
 ! A4    A(1,2,3)              120.1519         estimate D2E/DX2                !
 ! A5    A(1,2,7)              120.1531         estimate D2E/DX2                !
 ! A6    A(3,2,7)              119.6897         estimate D2E/DX2                !
 ! A7    A(2,3,4)              120.1737         estimate D2E/DX2                !
 ! A8    A(2,3,9)              119.902          estimate D2E/DX2                !
 ! A9    A(4,3,9)              119.9242         estimate D2E/DX2                !
 ! A10   A(3,4,5)              120.0104         estimate D2E/DX2                !
 ! A11   A(3,4,10)             120.0497         estimate D2E/DX2                !
 ! A12   A(5,4,10)             119.9399         estimate D2E/DX2                !
 ! A13   A(4,5,6)              119.9425         estimate D2E/DX2                !
 ! A14   A(4,5,11)             120.0303         estimate D2E/DX2                !
 ! A15   A(6,5,11)             120.0272         estimate D2E/DX2                !
 ! A16   A(5,6,7)              120.0087         estimate D2E/DX2                !
 ! A17   A(5,6,12)             119.9342         estimate D2E/DX2                !
 ! A18   A(7,6,12)             120.0571         estimate D2E/DX2                !
 ! A19   A(2,7,6)              120.1747         estimate D2E/DX2                !
 ! A20   A(2,7,13)             119.9058         estimate D2E/DX2                !
 ! A21   A(6,7,13)             119.9195         estimate D2E/DX2                !
 ! D1    D(8,1,2,3)           -119.0679         estimate D2E/DX2                !
 ! D2    D(8,1,2,7)             61.773          estimate D2E/DX2                !
 ! D3    D(14,1,2,3)             0.9321         estimate D2E/DX2                !
 ! D4    D(14,1,2,7)          -178.227          estimate D2E/DX2                !
 ! D5    D(1,2,3,4)           -179.008          estimate D2E/DX2                !
 ! D6    D(1,2,3,9)              0.9965         estimate D2E/DX2                !
 ! D7    D(7,2,3,4)              0.1551         estimate D2E/DX2                !
 ! D8    D(7,2,3,9)           -179.8405         estimate D2E/DX2                !
 ! D9    D(1,2,7,6)            179.008          estimate D2E/DX2                !
 ! D10   D(1,2,7,13)            -0.9965         estimate D2E/DX2                !
 ! D11   D(3,2,7,6)             -0.1551         estimate D2E/DX2                !
 ! D12   D(3,2,7,13)           179.8405         estimate D2E/DX2                !
 ! D13   D(2,3,4,5)             -0.0943         estimate D2E/DX2                !
 ! D14   D(2,3,4,10)           179.9066         estimate D2E/DX2                !
 ! D15   D(9,3,4,5)            179.9012         estimate D2E/DX2                !
 ! D16   D(9,3,4,10)            -0.0978         estimate D2E/DX2                !
 ! D17   D(3,4,5,6)              0.0328         estimate D2E/DX2                !
 ! D18   D(3,4,5,11)          -179.9704         estimate D2E/DX2                !
 ! D19   D(10,4,5,6)          -179.9681         estimate D2E/DX2                !
 ! D20   D(10,4,5,11)            0.0287         estimate D2E/DX2                !
 ! D21   D(4,5,6,7)             -0.0328         estimate D2E/DX2                !
 ! D22   D(4,5,6,12)           179.9681         estimate D2E/DX2                !
 ! D23   D(11,5,6,7)           179.9704         estimate D2E/DX2                !
 ! D24   D(11,5,6,12)           -0.0287         estimate D2E/DX2                !
 ! D25   D(5,6,7,2)              0.0943         estimate D2E/DX2                !
 ! D26   D(5,6,7,13)          -179.9012         estimate D2E/DX2                !
 ! D27   D(12,6,7,2)          -179.9066         estimate D2E/DX2                !
 ! D28   D(12,6,7,13)            0.0978         estimate D2E/DX2                !
 --------------------------------------------------------------------------------
 Trust Radius=3.00D-01 FncErr=1.00D-07 GrdErr=1.00D-06 EigMax=2.50D+02 EigMin=1.00D-04
 Number of steps in this run=     73 maximum allowed number of steps=    100.
 GradGradGradGradGradGradGradGradGradGradGradGradGradGradGradGradGradGrad

 Leave Link  103 at Sun Oct 13 21:37:17 2019, MaxMem= 10737418240 cpu:               0.8 elap:               0.1
 (Enter /apps/cent7/gaussian/g16-A.03/g16-haswell/g16/l202.exe)
                          Input orientation:                          
 ---------------------------------------------------------------------
 Center     Atomic      Atomic             Coordinates (Angstroms)
 Number     Number       Type             X           Y           Z
 ---------------------------------------------------------------------
      1          8           0       -0.690100   -1.195200   -0.014200
      2          6           0       -0.012200   -0.021100    0.003500
      3          6           0       -0.713300    1.200900    0.003800
      4          6           0       -0.009100    2.421500    0.001100
      5          6           0        1.398400    2.422200    0.000100
      6          6           0        2.101600    1.202800    0.001100
      7          6           0        1.396600   -0.017300    0.003800
      8          1           0       -0.479495   -1.698249    0.775855
      9          1           0       -1.803300    1.202000    0.006200
     10          1           0       -0.553600    3.365800   -0.000200
     11          1           0        1.943400    3.366100   -0.001500
     12          1           0        3.191600    1.203500   -0.000200
     13          1           0        1.942600   -0.960700    0.006200
     14          1           0       -1.633562   -1.019621   -0.039740
 ---------------------------------------------------------------------
                    Distance matrix (angstroms):
                    1          2          3          4          5
     1  O    0.000000
     2  C    1.355866   0.000000
     3  C    2.396280   1.408838   0.000000
     4  C    3.680287   2.442603   1.409173   0.000000
     5  C    4.177035   2.821262   2.439439   1.407501   0.000000
     6  C    3.680248   2.442558   2.814902   2.437270   1.407632
     7  C    2.396266   1.408805   2.436327   2.814915   2.439503
     8  H    0.960000   1.904659   3.009286   4.218276   4.594169
     9  H    2.643142   2.168875   1.090003   2.169415   3.426340
    10  H    4.563064   3.429901   2.170786   1.090039   2.168106
    11  H    5.266967   3.911204   3.427269   2.168993   1.089943
    12  H    4.563064   3.429868   3.904903   3.424618   2.168132
    13  H    2.643202   2.168893   3.424372   3.904925   3.426398
    14  H    0.960000   1.904659   2.404057   3.805503   4.586993
                    6          7          8          9         10
     6  C    0.000000
     7  C    1.409140   0.000000
     8  H    3.959594   2.634652   0.000000
     9  H    3.904903   3.424333   3.279676   0.000000
    10  H    3.424713   3.904953   5.123704   2.498764   0.000000
    11  H    2.169078   3.427304   5.667657   4.326794   2.497000
    12  H    1.090001   2.170805   4.743348   4.994904   4.324588
    13  H    2.169341   1.090012   2.646298   4.325395   4.994963
    14  H    4.346522   3.191931   1.567673   2.228569   4.516613
                   11         12         13         14
    11  H    0.000000
    12  H    2.496967   0.000000
    13  H    4.326807   2.498760   0.000000
    14  H    5.659564   5.312816   3.576942   0.000000
 Stoichiometry    C6H7O(1+)
 Framework group  C1[X(C6H7O)]
 Deg. of freedom    36
 Full point group                 C1      NOp   1
 Largest Abelian subgroup         C1      NOp   1
 Largest concise Abelian subgroup C1      NOp   1
                         Standard orientation:                         
 ---------------------------------------------------------------------
 Center     Atomic      Atomic             Coordinates (Angstroms)
 Number     Number       Type             X           Y           Z
 ---------------------------------------------------------------------
      1          8           0       -2.259928   -0.053906   -0.061373
      2          6           0       -0.904847   -0.027143   -0.023817
      3          6           0       -0.221658    1.204806   -0.004323
      4          6           0        1.187114    1.233258    0.013621
      5          6           0        1.915603    0.028948    0.014108
      6          6           0        1.235706   -1.203463   -0.004041
      7          6           0       -0.173051   -1.230972   -0.021978
      8          1           0       -2.592970   -0.500237    0.720594
      9          1           0       -0.784435    2.138288   -0.003048
     10          1           0        1.713660    2.187590    0.027151
     11          1           0        3.005236    0.050573    0.028473
     12          1           0        1.800007   -2.136023   -0.004187
     13          1           0       -0.698068   -2.186131   -0.034391
     14          1           0       -2.597203    0.844584   -0.085034
 ---------------------------------------------------------------------
 Rotational constants (GHZ):           5.5110017           2.4974191           1.7255848
 Leave Link  202 at Sun Oct 13 21:37:17 2019, MaxMem= 10737418240 cpu:               0.5 elap:               0.0
 (Enter /apps/cent7/gaussian/g16-A.03/g16-haswell/g16/l301.exe)
 Standard basis: 6-311++G(d,p) (5D, 7F)
 Ernie: Thresh=  0.10000D-02 Tol=  0.10000D-05 Strict=F.
 There are   210 symmetry adapted cartesian basis functions of A   symmetry.
 There are   203 symmetry adapted basis functions of A   symmetry.
   203 basis functions,   315 primitive gaussians,   210 cartesian basis functions
    25 alpha electrons       25 beta electrons
       nuclear repulsion energy       280.9871475273 Hartrees.
 IExCor= 4336 DFT=T Ex+Corr=M062X ExCW=0 ScaHFX=  0.540000
 ScaDFX=  1.000000  1.000000  1.000000  1.000000 ScalE2=  1.000000  1.000000
 IRadAn=      5 IRanWt=     -1 IRanGd=            0 ICorTp=0 IEmpDi=  4
 NAtoms=   14 NActive=   14 NUniq=   14 SFac= 1.00D+00 NAtFMM=   60 NAOKFM=F Big=F
 Integral buffers will be    131072 words long.
 Raffenetti 2 integral format.
 Two-electron integral symmetry is turned on.
 Leave Link  301 at Sun Oct 13 21:37:17 2019, MaxMem= 10737418240 cpu:               1.6 elap:               0.1
 (Enter /apps/cent7/gaussian/g16-A.03/g16-haswell/g16/l302.exe)
 NPDir=0 NMtPBC=     1 NCelOv=     1 NCel=       1 NClECP=     1 NCelD=      1
         NCelK=      1 NCelE2=     1 NClLst=     1 CellRange=     0.0.
 One-electron integrals computed using PRISM.
 One-electron integral symmetry used in STVInt
 NBasis=   203 RedAO= T EigKep=  1.15D-06  NBF=   203
 NBsUse=   203 1.00D-06 EigRej= -1.00D+00 NBFU=   203
 Precomputing XC quadrature grid using
 IXCGrd= 4 IRadAn=           5 IRanWt=          -1 IRanGd=           0 AccXCQ= 0.00D+00.
 Generated NRdTot=       0 NPtTot=           0 NUsed=           0 NTot=          32
 NSgBfM=   210   210   210   210   210 MxSgAt=    14 MxSgA2=    14.
 Leave Link  302 at Sun Oct 13 21:37:18 2019, MaxMem= 10737418240 cpu:               3.8 elap:               0.2
 (Enter /apps/cent7/gaussian/g16-A.03/g16-haswell/g16/l303.exe)
 DipDrv:  MaxL=1.
 Leave Link  303 at Sun Oct 13 21:37:18 2019, MaxMem= 10737418240 cpu:               1.1 elap:               0.1
 (Enter /apps/cent7/gaussian/g16-A.03/g16-haswell/g16/l401.exe)
 ExpMin= 3.60D-02 ExpMax= 8.59D+03 ExpMxC= 1.30D+03 IAcc=3 IRadAn=         5 AccDes= 0.00D+00
 Harris functional with IExCor= 1009 and IRadAn=       5 diagonalized for initial guess.
 HarFok:  IExCor= 1009 AccDes= 0.00D+00 IRadAn=         5 IDoV= 1 UseB2=F ITyADJ=14
 ICtDFT=  3500011 ScaDFX=  1.000000  1.000000  1.000000  1.000000
 FoFCou: FMM=F IPFlag=           0 FMFlag=      100000 FMFlg1=           0
         NFxFlg=           0 DoJE=T BraDBF=F KetDBF=T FulRan=T
         wScrn=  0.000000 ICntrl=       500 IOpCl=  0 I1Cent=   200000004 NGrid=           0
         NMat0=    1 NMatS0=      1 NMatT0=    0 NMatD0=    1 NMtDS0=    0 NMtDT0=    0
 Petite list used in FoFCou.
 Harris En= -307.629582376792    
 JPrj=0 DoOrth=F DoCkMO=F.
 Leave Link  401 at Sun Oct 13 21:37:18 2019, MaxMem= 10737418240 cpu:               7.5 elap:               0.4
 (Enter /apps/cent7/gaussian/g16-A.03/g16-haswell/g16/l502.exe)
 Integral symmetry usage will be decided dynamically.
 Closed shell SCF:
 Using DIIS extrapolation, IDIIS=  1040.
 NGot= 10737418240 LenX= 10737322882 LenY= 10737278341
 Requested convergence on RMS density matrix=1.00D-08 within 128 cycles.
 Requested convergence on MAX density matrix=1.00D-06.
 Requested convergence on             energy=1.00D-06.
 No special actions if energy rises.
 Fock matrices will be formed incrementally for  20 cycles.

 Cycle   1  Pass 1  IDiag  1:
 FoFJK:  IHMeth= 1 ICntrl=       0 DoSepK=F KAlg= 0 I1Cent=           0 FoldK=F
 IRaf= 980000000 NMat=       1 IRICut=       1 DoRegI=T DoRafI=F ISym2E= 0 IDoP0=0 IntGTp=1.
 FoFCou: FMM=F IPFlag=           0 FMFlag=      100000 FMFlg1=           0
         NFxFlg=           0 DoJE=F BraDBF=F KetDBF=F FulRan=T
         wScrn=  0.000000 ICntrl=         0 IOpCl=  0 I1Cent=           0 NGrid=           0
         NMat0=    1 NMatS0=      1 NMatT0=    0 NMatD0=    1 NMtDS0=    0 NMtDT0=    0
 Symmetry not used in FoFCou.
 E= -307.518469778402    
 DIIS: error= 4.44D-02 at cycle   1 NSaved=   1.
 NSaved= 1 IEnMin= 1 EnMin= -307.518469778402     IErMin= 1 ErrMin= 4.44D-02
 ErrMax= 4.44D-02  0.00D+00 EMaxC= 1.00D-01 BMatC= 2.03D-01 BMatP= 2.03D-01
 IDIUse=3 WtCom= 5.56D-01 WtEn= 4.44D-01
 Coeff-Com:  0.100D+01
 Coeff-En:   0.100D+01
 Coeff:      0.100D+01
 Gap=     0.369 Goal=   None    Shift=    0.000
 GapD=    0.369 DampG=1.000 DampE=0.500 DampFc=0.5000 IDamp=-1.
 Damping current iteration by 5.00D-01
 RMSDP=1.29D-02 MaxDP=6.42D-01              OVMax= 2.32D-01

 Cycle   2  Pass 1  IDiag  1:
 RMSU=  6.44D-03    CP:  1.02D+00
 E= -307.604310618698     Delta-E=       -0.085840840295 Rises=F Damp=T
 DIIS: error= 8.70D-03 at cycle   2 NSaved=   2.
 NSaved= 2 IEnMin= 2 EnMin= -307.604310618698     IErMin= 2 ErrMin= 8.70D-03
 ErrMax= 8.70D-03  0.00D+00 EMaxC= 1.00D-01 BMatC= 2.10D-02 BMatP= 2.03D-01
 IDIUse=3 WtCom= 9.13D-01 WtEn= 8.70D-02
 Coeff-Com: -0.988D-01 0.110D+01
 Coeff-En:   0.000D+00 0.100D+01
 Coeff:     -0.902D-01 0.109D+01
 Gap=     0.308 Goal=   None    Shift=    0.000
 RMSDP=5.73D-03 MaxDP=2.25D-01 DE=-8.58D-02 OVMax= 1.69D-01

 Cycle   3  Pass 1  IDiag  1:
 RMSU=  5.58D-03    CP:  1.02D+00  1.20D+00
 E= -307.687764324445     Delta-E=       -0.083453705748 Rises=F Damp=F
 DIIS: error= 1.17D-02 at cycle   3 NSaved=   3.
 NSaved= 3 IEnMin= 3 EnMin= -307.687764324445     IErMin= 2 ErrMin= 8.70D-03
 ErrMax= 1.17D-02  0.00D+00 EMaxC= 1.00D-01 BMatC= 9.43D-03 BMatP= 2.10D-02
 IDIUse=3 WtCom= 8.83D-01 WtEn= 1.17D-01
 Coeff-Com: -0.121D+00 0.471D+00 0.651D+00
 Coeff-En:   0.000D+00 0.000D+00 0.100D+01
 Coeff:     -0.107D+00 0.416D+00 0.692D+00
 Gap=     0.289 Goal=   None    Shift=    0.000
 RMSDP=1.68D-03 MaxDP=7.35D-02 DE=-8.35D-02 OVMax= 5.04D-02

 Cycle   4  Pass 1  IDiag  1:
 RMSU=  1.04D-03    CP:  1.00D+00  1.25D+00  8.39D-01
 E= -307.695650636005     Delta-E=       -0.007886311560 Rises=F Damp=F
 DIIS: error= 5.58D-03 at cycle   4 NSaved=   4.
 NSaved= 4 IEnMin= 4 EnMin= -307.695650636005     IErMin= 4 ErrMin= 5.58D-03
 ErrMax= 5.58D-03  0.00D+00 EMaxC= 1.00D-01 BMatC= 1.72D-03 BMatP= 9.43D-03
 IDIUse=3 WtCom= 9.44D-01 WtEn= 5.58D-02
 Coeff-Com: -0.429D-01 0.108D+00 0.355D+00 0.580D+00
 Coeff-En:   0.000D+00 0.000D+00 0.128D+00 0.872D+00
 Coeff:     -0.405D-01 0.102D+00 0.342D+00 0.597D+00
 Gap=     0.286 Goal=   None    Shift=    0.000
 RMSDP=6.65D-04 MaxDP=3.18D-02 DE=-7.89D-03 OVMax= 1.67D-02

 Cycle   5  Pass 1  IDiag  1:
 RMSU=  4.33D-04    CP:  9.94D-01  1.25D+00  8.68D-01  7.08D-01
 E= -307.697368997646     Delta-E=       -0.001718361641 Rises=F Damp=F
 DIIS: error= 7.85D-04 at cycle   5 NSaved=   5.
 NSaved= 5 IEnMin= 5 EnMin= -307.697368997646     IErMin= 5 ErrMin= 7.85D-04
 ErrMax= 7.85D-04  0.00D+00 EMaxC= 1.00D-01 BMatC= 3.32D-05 BMatP= 1.72D-03
 IDIUse=3 WtCom= 9.92D-01 WtEn= 7.85D-03
 Coeff-Com: -0.806D-02 0.128D-01 0.803D-01 0.207D+00 0.708D+00
 Coeff-En:   0.000D+00 0.000D+00 0.000D+00 0.000D+00 0.100D+01
 Coeff:     -0.800D-02 0.127D-01 0.797D-01 0.205D+00 0.711D+00
 Gap=     0.284 Goal=   None    Shift=    0.000
 RMSDP=2.13D-04 MaxDP=1.06D-02 DE=-1.72D-03 OVMax= 2.78D-03

 Cycle   6  Pass 1  IDiag  1:
 RMSU=  1.00D-04    CP:  9.97D-01  1.25D+00  8.78D-01  7.33D-01  7.84D-01
 E= -307.697403362329     Delta-E=       -0.000034364683 Rises=F Damp=F
 DIIS: error= 2.13D-04 at cycle   6 NSaved=   6.
 NSaved= 6 IEnMin= 6 EnMin= -307.697403362329     IErMin= 6 ErrMin= 2.13D-04
 ErrMax= 2.13D-04  0.00D+00 EMaxC= 1.00D-01 BMatC= 3.65D-06 BMatP= 3.32D-05
 IDIUse=3 WtCom= 9.98D-01 WtEn= 2.13D-03
 Coeff-Com:  0.292D-04-0.232D-02 0.850D-02 0.400D-01 0.288D+00 0.665D+00
 Coeff-En:   0.000D+00 0.000D+00 0.000D+00 0.000D+00 0.000D+00 0.100D+01
 Coeff:      0.291D-04-0.232D-02 0.848D-02 0.399D-01 0.288D+00 0.666D+00
 Gap=     0.284 Goal=   None    Shift=    0.000
 RMSDP=3.97D-05 MaxDP=1.33D-03 DE=-3.44D-05 OVMax= 8.11D-04

 Cycle   7  Pass 1  IDiag  1:
 RMSU=  2.50D-05    CP:  9.98D-01  1.25D+00  8.81D-01  7.32D-01  7.74D-01
                    CP:  1.06D+00
 E= -307.697407078709     Delta-E=       -0.000003716380 Rises=F Damp=F
 DIIS: error= 4.43D-05 at cycle   7 NSaved=   7.
 NSaved= 7 IEnMin= 7 EnMin= -307.697407078709     IErMin= 7 ErrMin= 4.43D-05
 ErrMax= 4.43D-05  0.00D+00 EMaxC= 1.00D-01 BMatC= 3.58D-07 BMatP= 3.65D-06
 IDIUse=1 WtCom= 1.00D+00 WtEn= 0.00D+00
 Coeff-Com:  0.153D-02-0.334D-02-0.999D-02-0.242D-01-0.438D-01 0.199D+00
 Coeff-Com:  0.881D+00
 Coeff:      0.153D-02-0.334D-02-0.999D-02-0.242D-01-0.438D-01 0.199D+00
 Coeff:      0.881D+00
 Gap=     0.284 Goal=   None    Shift=    0.000
 RMSDP=2.41D-05 MaxDP=1.05D-03 DE=-3.72D-06 OVMax= 3.03D-04

 Cycle   8  Pass 1  IDiag  1:
 RMSU=  7.62D-06    CP:  9.98D-01  1.25D+00  8.83D-01  7.31D-01  7.72D-01
                    CP:  1.19D+00  1.14D+00
 E= -307.697407490067     Delta-E=       -0.000000411358 Rises=F Damp=F
 DIIS: error= 7.71D-06 at cycle   8 NSaved=   8.
 NSaved= 8 IEnMin= 8 EnMin= -307.697407490067     IErMin= 8 ErrMin= 7.71D-06
 ErrMax= 7.71D-06  0.00D+00 EMaxC= 1.00D-01 BMatC= 8.80D-09 BMatP= 3.58D-07
 IDIUse=1 WtCom= 1.00D+00 WtEn= 0.00D+00
 Coeff-Com:  0.214D-03-0.386D-03-0.112D-02-0.405D-02-0.147D-01 0.422D-02
 Coeff-Com:  0.619D-01 0.954D+00
 Coeff:      0.214D-03-0.386D-03-0.112D-02-0.405D-02-0.147D-01 0.422D-02
 Coeff:      0.619D-01 0.954D+00
 Gap=     0.284 Goal=   None    Shift=    0.000
 RMSDP=2.59D-06 MaxDP=1.09D-04 DE=-4.11D-07 OVMax= 4.43D-05

 Cycle   9  Pass 1  IDiag  1:
 RMSU=  1.39D-06    CP:  9.98D-01  1.25D+00  8.84D-01  7.30D-01  7.71D-01
                    CP:  1.20D+00  1.17D+00  1.10D+00
 E= -307.697407501690     Delta-E=       -0.000000011623 Rises=F Damp=F
 DIIS: error= 4.94D-06 at cycle   9 NSaved=   9.
 NSaved= 9 IEnMin= 9 EnMin= -307.697407501690     IErMin= 9 ErrMin= 4.94D-06
 ErrMax= 4.94D-06  0.00D+00 EMaxC= 1.00D-01 BMatC= 1.91D-09 BMatP= 8.80D-09
 IDIUse=1 WtCom= 1.00D+00 WtEn= 0.00D+00
 Coeff-Com: -0.684D-04 0.179D-03 0.710D-03 0.109D-02-0.555D-03-0.143D-01
 Coeff-Com: -0.613D-01 0.363D+00 0.711D+00
 Coeff:     -0.684D-04 0.179D-03 0.710D-03 0.109D-02-0.555D-03-0.143D-01
 Coeff:     -0.613D-01 0.363D+00 0.711D+00
 Gap=     0.284 Goal=   None    Shift=    0.000
 RMSDP=1.63D-06 MaxDP=8.23D-05 DE=-1.16D-08 OVMax= 3.30D-05

 Cycle  10  Pass 1  IDiag  1:
 RMSU=  4.83D-07    CP:  9.98D-01  1.25D+00  8.84D-01  7.30D-01  7.70D-01
                    CP:  1.21D+00  1.17D+00  1.13D+00  1.01D+00
 E= -307.697407504045     Delta-E=       -0.000000002355 Rises=F Damp=F
 DIIS: error= 1.20D-06 at cycle  10 NSaved=  10.
 NSaved=10 IEnMin=10 EnMin= -307.697407504045     IErMin=10 ErrMin= 1.20D-06
 ErrMax= 1.20D-06  0.00D+00 EMaxC= 1.00D-01 BMatC= 3.08D-10 BMatP= 1.91D-09
 IDIUse=1 WtCom= 1.00D+00 WtEn= 0.00D+00
 Coeff-Com: -0.381D-04 0.832D-04 0.330D-03 0.780D-03 0.125D-02-0.492D-02
 Coeff-Com: -0.272D-01-0.207D-01 0.276D+00 0.774D+00
 Coeff:     -0.381D-04 0.832D-04 0.330D-03 0.780D-03 0.125D-02-0.492D-02
 Coeff:     -0.272D-01-0.207D-01 0.276D+00 0.774D+00
 Gap=     0.284 Goal=   None    Shift=    0.000
 RMSDP=3.71D-07 MaxDP=1.21D-05 DE=-2.36D-09 OVMax= 9.57D-06

 Cycle  11  Pass 1  IDiag  1:
 RMSU=  1.72D-07    CP:  9.98D-01  1.25D+00  8.84D-01  7.30D-01  7.69D-01
                    CP:  1.21D+00  1.18D+00  1.15D+00  1.11D+00  9.98D-01
 E= -307.697407504399     Delta-E=       -0.000000000354 Rises=F Damp=F
 DIIS: error= 6.70D-07 at cycle  11 NSaved=  11.
 NSaved=11 IEnMin=11 EnMin= -307.697407504399     IErMin=11 ErrMin= 6.70D-07
 ErrMax= 6.70D-07  0.00D+00 EMaxC= 1.00D-01 BMatC= 3.49D-11 BMatP= 3.08D-10
 IDIUse=1 WtCom= 1.00D+00 WtEn= 0.00D+00
 Coeff-Com: -0.102D-04 0.199D-04 0.814D-04 0.263D-03 0.595D-03-0.933D-03
 Coeff-Com: -0.717D-02-0.525D-01 0.698D-01 0.347D+00 0.643D+00
 Coeff:     -0.102D-04 0.199D-04 0.814D-04 0.263D-03 0.595D-03-0.933D-03
 Coeff:     -0.717D-02-0.525D-01 0.698D-01 0.347D+00 0.643D+00
 Gap=     0.284 Goal=   None    Shift=    0.000
 RMSDP=8.81D-08 MaxDP=2.88D-06 DE=-3.54D-10 OVMax= 3.17D-06

 Cycle  12  Pass 1  IDiag  1:
 RMSU=  6.54D-08    CP:  9.98D-01  1.25D+00  8.84D-01  7.30D-01  7.69D-01
                    CP:  1.21D+00  1.18D+00  1.15D+00  1.12D+00  1.07D+00
                    CP:  9.00D-01
 E= -307.697407504439     Delta-E=       -0.000000000040 Rises=F Damp=F
 DIIS: error= 1.50D-07 at cycle  12 NSaved=  12.
 NSaved=12 IEnMin=12 EnMin= -307.697407504439     IErMin=12 ErrMin= 1.50D-07
 ErrMax= 1.50D-07  0.00D+00 EMaxC= 1.00D-01 BMatC= 3.40D-12 BMatP= 3.49D-11
 IDIUse=1 WtCom= 1.00D+00 WtEn= 0.00D+00
 Coeff-Com:  0.273D-05-0.635D-05-0.237D-04-0.338D-04-0.172D-04 0.611D-03
 Coeff-Com:  0.208D-02-0.123D-01-0.148D-01-0.221D-01 0.237D+00 0.809D+00
 Coeff:      0.273D-05-0.635D-05-0.237D-04-0.338D-04-0.172D-04 0.611D-03
 Coeff:      0.208D-02-0.123D-01-0.148D-01-0.221D-01 0.237D+00 0.809D+00
 Gap=     0.284 Goal=   None    Shift=    0.000
 RMSDP=4.89D-08 MaxDP=1.84D-06 DE=-4.02D-11 OVMax= 1.28D-06

 Cycle  13  Pass 1  IDiag  1:
 RMSU=  2.31D-08    CP:  9.98D-01  1.25D+00  8.84D-01  7.30D-01  7.69D-01
                    CP:  1.21D+00  1.18D+00  1.15D+00  1.12D+00  1.08D+00
                    CP:  1.02D+00  1.05D+00
 E= -307.697407504443     Delta-E=       -0.000000000004 Rises=F Damp=F
 DIIS: error= 2.94D-08 at cycle  13 NSaved=  13.
 NSaved=13 IEnMin=13 EnMin= -307.697407504443     IErMin=13 ErrMin= 2.94D-08
 ErrMax= 2.94D-08  0.00D+00 EMaxC= 1.00D-01 BMatC= 1.15D-13 BMatP= 3.40D-12
 IDIUse=1 WtCom= 1.00D+00 WtEn= 0.00D+00
 Coeff-Com:  0.631D-06-0.141D-05-0.661D-05-0.145D-04-0.290D-04 0.137D-03
 Coeff-Com:  0.533D-03 0.770D-03-0.468D-02-0.225D-01-0.974D-02 0.101D+00
 Coeff-Com:  0.935D+00
 Coeff:      0.631D-06-0.141D-05-0.661D-05-0.145D-04-0.290D-04 0.137D-03
 Coeff:      0.533D-03 0.770D-03-0.468D-02-0.225D-01-0.974D-02 0.101D+00
 Coeff:      0.935D+00
 Gap=     0.284 Goal=   None    Shift=    0.000
 RMSDP=8.26D-09 MaxDP=4.26D-07 DE=-4.09D-12 OVMax= 3.31D-07

 SCF Done:  E(RM062X) =  -307.697407504     A.U. after   13 cycles
            NFock= 13  Conv=0.83D-08     -V/T= 2.0041
 KE= 3.064512712127D+02 PE=-1.268100949532D+03 EE= 3.729651232880D+02
 Leave Link  502 at Sun Oct 13 21:37:25 2019, MaxMem= 10737418240 cpu:             165.8 elap:               7.0
 (Enter /apps/cent7/gaussian/g16-A.03/g16-haswell/g16/l601.exe)
 Copying SCF densities to generalized density rwf, IOpCl= 0 IROHF=0.

 **********************************************************************

            Population analysis using the SCF density.

 **********************************************************************

 Orbital symmetries:
       Occupied  (A) (A) (A) (A) (A) (A) (A) (A) (A) (A) (A) (A)
                 (A) (A) (A) (A) (A) (A) (A) (A) (A) (A) (A) (A)
                 (A)
       Virtual   (A) (A) (A) (A) (A) (A) (A) (A) (A) (A) (A) (A)
                 (A) (A) (A) (A) (A) (A) (A) (A) (A) (A) (A) (A)
                 (A) (A) (A) (A) (A) (A) (A) (A) (A) (A) (A) (A)
                 (A) (A) (A) (A) (A) (A) (A) (A) (A) (A) (A) (A)
                 (A) (A) (A) (A) (A) (A) (A) (A) (A) (A) (A) (A)
                 (A) (A) (A) (A) (A) (A) (A) (A) (A) (A) (A) (A)
                 (A) (A) (A) (A) (A) (A) (A) (A) (A) (A) (A) (A)
                 (A) (A) (A) (A) (A) (A) (A) (A) (A) (A) (A) (A)
                 (A) (A) (A) (A) (A) (A) (A) (A) (A) (A) (A) (A)
                 (A) (A) (A) (A) (A) (A) (A) (A) (A) (A) (A) (A)
                 (A) (A) (A) (A) (A) (A) (A) (A) (A) (A) (A) (A)
                 (A) (A) (A) (A) (A) (A) (A) (A) (A) (A) (A) (A)
                 (A) (A) (A) (A) (A) (A) (A) (A) (A) (A) (A) (A)
                 (A) (A) (A) (A) (A) (A) (A) (A) (A) (A) (A) (A)
                 (A) (A) (A) (A) (A) (A) (A) (A) (A) (A)
 The electronic state is 1-A.
 Alpha  occ. eigenvalues --  -20.01677 -10.81416 -10.73974 -10.73557 -10.72100
 Alpha  occ. eigenvalues --  -10.71994 -10.71296  -1.56766  -1.14383  -1.05379
 Alpha  occ. eigenvalues --   -1.03576  -0.99267  -0.94609  -0.87180  -0.82827
 Alpha  occ. eigenvalues --   -0.80993  -0.74668  -0.68959  -0.68203  -0.66327
 Alpha  occ. eigenvalues --   -0.61029  -0.59590  -0.58017  -0.48328  -0.48052
 Alpha virt. eigenvalues --   -0.19605  -0.15951  -0.15742  -0.13685  -0.10841
 Alpha virt. eigenvalues --   -0.09847  -0.07984  -0.07944  -0.07684  -0.06361
 Alpha virt. eigenvalues --   -0.05124  -0.04338  -0.03736  -0.03165  -0.01665
 Alpha virt. eigenvalues --   -0.00380  -0.00109   0.00444   0.00725   0.00913
 Alpha virt. eigenvalues --    0.01266   0.01562   0.02073   0.02647   0.03679
 Alpha virt. eigenvalues --    0.03773   0.04535   0.05080   0.05908   0.06897
 Alpha virt. eigenvalues --    0.07318   0.07824   0.08357   0.08548   0.09504
 Alpha virt. eigenvalues --    0.10477   0.11657   0.13499   0.14304   0.14892
 Alpha virt. eigenvalues --    0.15321   0.16054   0.16817   0.18589   0.18864
 Alpha virt. eigenvalues --    0.19674   0.23635   0.24727   0.25189   0.26280
 Alpha virt. eigenvalues --    0.32962   0.34987   0.36805   0.39726   0.40923
 Alpha virt. eigenvalues --    0.42026   0.42520   0.43912   0.44673   0.44831
 Alpha virt. eigenvalues --    0.45213   0.46845   0.48881   0.49595   0.49921
 Alpha virt. eigenvalues --    0.54719   0.56043   0.61223   0.62213   0.62594
 Alpha virt. eigenvalues --    0.64502   0.67687   0.71486   0.72217   0.73377
 Alpha virt. eigenvalues --    0.75275   0.75889   0.76307   0.78119   0.78433
 Alpha virt. eigenvalues --    0.80003   0.83943   0.86498   0.87956   0.88325
 Alpha virt. eigenvalues --    0.90917   0.94759   0.95727   0.96643   1.01268
 Alpha virt. eigenvalues --    1.02519   1.15327   1.20381   1.28586   1.30748
 Alpha virt. eigenvalues --    1.35680   1.36991   1.38745   1.41266   1.42481
 Alpha virt. eigenvalues --    1.42777   1.44381   1.45896   1.49082   1.52160
 Alpha virt. eigenvalues --    1.53183   1.55823   1.58775   1.62182   1.63562
 Alpha virt. eigenvalues --    1.65203   1.69782   1.73911   1.74922   1.77261
 Alpha virt. eigenvalues --    1.78465   1.79876   1.81412   1.83126   1.85286
 Alpha virt. eigenvalues --    1.87027   1.89663   1.91126   1.92709   2.04608
 Alpha virt. eigenvalues --    2.12888   2.14704   2.17376   2.25242   2.30636
 Alpha virt. eigenvalues --    2.31042   2.33252   2.40424   2.41603   2.46084
 Alpha virt. eigenvalues --    2.49022   2.54437   2.57150   2.58061   2.59787
 Alpha virt. eigenvalues --    2.61784   2.65060   2.65425   2.65849   2.67272
 Alpha virt. eigenvalues --    2.70263   2.76237   2.78101   2.78908   2.94092
 Alpha virt. eigenvalues --    2.95094   2.98316   3.09964   3.15027   3.20928
 Alpha virt. eigenvalues --    3.23737   3.33384   3.35888   3.37532   3.42836
 Alpha virt. eigenvalues --    3.52923   3.66558   3.85601   3.87344   3.94288
 Alpha virt. eigenvalues --    4.00621   4.01749   4.65493   4.99124   5.46174
 Alpha virt. eigenvalues --    5.56510  23.49491  23.80416  23.84183  23.92452
 Alpha virt. eigenvalues --   23.94371  24.04018  49.72296
          Condensed to atoms (all electrons):
               1          2          3          4          5          6
     1  O    7.665103   0.109878  -0.120548   0.058267   0.021695  -0.023188
     2  C    0.109878  10.083133  -1.795722   1.178976  -1.605419   1.853908
     3  C   -0.120548  -1.795722   7.962475  -0.915535   1.167870  -0.848306
     4  C    0.058267   1.178976  -0.915535   6.609745  -0.918930   1.160278
     5  C    0.021695  -1.605419   1.167870  -0.918930   6.697346  -1.120278
     6  C   -0.023188   1.853908  -0.848306   1.160278  -1.120278   7.111675
     7  C   -0.291889  -3.154203   0.053347  -1.426478   1.703102  -2.310021
     8  H    0.299297   0.035150   0.025004   0.002122  -0.001503   0.011310
     9  H   -0.018988  -0.201670   0.477870   0.080916   0.000023   0.011684
    10  H   -0.001830   0.063235  -0.063685   0.354195  -0.034198  -0.004474
    11  H    0.000568   0.009955  -0.013656   0.000081   0.341090  -0.006593
    12  H   -0.002360   0.063152   0.022750  -0.000816  -0.036667   0.416743
    13  H   -0.016685  -0.174536  -0.099519  -0.003357   0.018416  -0.007877
    14  H    0.305900   0.080732  -0.094374   0.001563  -0.008827   0.012209
               7          8          9         10         11         12
     1  O   -0.291889   0.299297  -0.018988  -0.001830   0.000568  -0.002360
     2  C   -3.154203   0.035150  -0.201670   0.063235   0.009955   0.063152
     3  C    0.053347   0.025004   0.477870  -0.063685  -0.013656   0.022750
     4  C   -1.426478   0.002122   0.080916   0.354195   0.000081  -0.000816
     5  C    1.703102  -0.001503   0.000023  -0.034198   0.341090  -0.036667
     6  C   -2.310021   0.011310   0.011684  -0.004474  -0.006593   0.416743
     7  C   11.111888  -0.066786  -0.042182   0.006612   0.002073  -0.140031
     8  H   -0.066786   0.322242  -0.000283  -0.000058   0.000048   0.000164
     9  H   -0.042182  -0.000283   0.489245  -0.000544  -0.000984   0.001193
    10  H    0.006612  -0.000058  -0.000544   0.413747   0.002459  -0.000746
    11  H    0.002073   0.000048  -0.000984   0.002459   0.412805   0.000886
    12  H   -0.140031   0.000164   0.001193  -0.000746   0.000886   0.419167
    13  H    0.574394  -0.000547  -0.000413   0.000914   0.000314  -0.004775
    14  H    0.021006  -0.014329   0.006024   0.000703   0.000018   0.000208
              13         14
     1  O   -0.016685   0.305900
     2  C   -0.174536   0.080732
     3  C   -0.099519  -0.094374
     4  C   -0.003357   0.001563
     5  C    0.018416  -0.008827
     6  C   -0.007877   0.012209
     7  C    0.574394   0.021006
     8  H   -0.000547  -0.014329
     9  H   -0.000413   0.006024
    10  H    0.000914   0.000703
    11  H    0.000314   0.000018
    12  H   -0.004775   0.000208
    13  H    0.457760   0.001855
    14  H    0.001855   0.310979
 Mulliken charges:
               1
     1  O    0.014780
     2  C   -0.546568
     3  C    0.242030
     4  C   -0.181028
     5  C   -0.223720
     6  C   -0.257069
     7  C   -0.040832
     8  H    0.388170
     9  H    0.198108
    10  H    0.263669
    11  H    0.250937
    12  H    0.261132
    13  H    0.254057
    14  H    0.376333
 Sum of Mulliken charges =   1.00000
 Mulliken charges with hydrogens summed into heavy atoms:
               1
     1  O    0.779283
     2  C   -0.546568
     3  C    0.440138
     4  C    0.082642
     5  C    0.027217
     6  C    0.004063
     7  C    0.213225
 Electronic spatial extent (au):  <R**2>=            672.0083
 Charge=              1.0000 electrons
 Dipole moment (field-independent basis, Debye):
    X=             -6.1848    Y=              0.6185    Z=              1.3089  Tot=              6.3519
 Quadrupole moment (field-independent basis, Debye-Ang):
   XX=             -8.6350   YY=            -28.6301   ZZ=            -42.6554
   XY=             -2.0756   XZ=             -3.8517   YZ=             -1.0929
 Traceless Quadrupole moment (field-independent basis, Debye-Ang):
   XX=             18.0052   YY=             -1.9899   ZZ=            -16.0153
   XY=             -2.0756   XZ=             -3.8517   YZ=             -1.0929
 Octapole moment (field-independent basis, Debye-Ang**2):
  XXX=            -56.5699  YYY=              0.6935  ZZZ=              1.3207  XYY=             -5.5559
  XXY=              5.8800  XXZ=             11.1552  XZZ=            -11.1015  YZZ=             -0.7709
  YYZ=              0.2337  XYZ=              3.3479
 Hexadecapole moment (field-independent basis, Debye-Ang**3):
 XXXX=           -289.5627 YYYY=           -241.3755 ZZZZ=            -47.9405 XXXY=            -17.0650
 XXXZ=            -30.0291 YYYX=             -3.2069 YYYZ=             -0.2452 ZZZX=             -4.4325
 ZZZY=             -1.2746 XXYY=            -97.6389 XXZZ=            -90.6095 YYZZ=            -63.2673
 XXYZ=             -8.5428 YYXZ=             -1.1131 ZZXY=              1.6529
 N-N= 2.809871475273D+02 E-N=-1.268100949372D+03  KE= 3.064512712127D+02
 No NMR shielding tensors so no spin-rotation constants.
 Leave Link  601 at Sun Oct 13 21:37:25 2019, MaxMem= 10737418240 cpu:               2.3 elap:               0.1
 (Enter /apps/cent7/gaussian/g16-A.03/g16-haswell/g16/l701.exe)
 ... and contract with generalized density number  0.
 Compute integral first derivatives.
 Leave Link  701 at Sun Oct 13 21:37:25 2019, MaxMem= 10737418240 cpu:               2.7 elap:               0.1
 (Enter /apps/cent7/gaussian/g16-A.03/g16-haswell/g16/l702.exe)
 L702 exits ... SP integral derivatives will be done elsewhere.
 Leave Link  702 at Sun Oct 13 21:37:25 2019, MaxMem= 10737418240 cpu:               0.4 elap:               0.0
 (Enter /apps/cent7/gaussian/g16-A.03/g16-haswell/g16/l703.exe)
 Integral derivatives from FoFJK, PRISM(SPDF).
 Compute integral first derivatives, UseDBF=F ICtDFT=           0.
 Calling FoFJK, ICntrl=      2127 FMM=F ISym2X=0 I1Cent= 0 IOpClX= 0 NMat=1 NMatS=1 NMatT=0.
 FoFJK:  IHMeth= 1 ICntrl=    2127 DoSepK=F KAlg= 0 I1Cent=           0 FoldK=F
 IRaf=         0 NMat=       1 IRICut=       1 DoRegI=T DoRafI=F ISym2E= 0 IDoP0=0 IntGTp=1.
 FoFCou: FMM=F IPFlag=           0 FMFlag=      100000 FMFlg1=         800
         NFxFlg=           0 DoJE=F BraDBF=F KetDBF=F FulRan=T
         wScrn=  0.000000 ICntrl=      2127 IOpCl=  0 I1Cent=           0 NGrid=           0
         NMat0=    1 NMatS0=      1 NMatT0=    0 NMatD0=    1 NMtDS0=    0 NMtDT0=    0
 Symmetry not used in FoFCou.
 Leave Link  703 at Sun Oct 13 21:37:27 2019, MaxMem= 10737418240 cpu:              28.1 elap:               1.2
 (Enter /apps/cent7/gaussian/g16-A.03/g16-haswell/g16/l716.exe)
 Dipole        =-2.43327930D+00 2.43344453D-01 5.14942614D-01
 ***** Axes restored to original set *****
 -------------------------------------------------------------------
 Center     Atomic                   Forces (Hartrees/Bohr)
 Number     Number              X              Y              Z
 -------------------------------------------------------------------
      1        8          -0.020084069   -0.045256375   -0.003475194
      2        6           0.064802810    0.110271032   -0.004818203
      3        6           0.005880983   -0.009070671    0.000361572
      4        6           0.008189659   -0.012024816   -0.000466288
      5        6          -0.006698829   -0.010692055   -0.000204890
      6        6          -0.016388262    0.000610822    0.001180593
      7        6          -0.008203145   -0.003397310   -0.000370880
      8        1           0.001436632   -0.018383957    0.013373219
      9        1           0.001010303    0.001498130   -0.000228016
     10        1           0.001001927   -0.005967750    0.000058003
     11        1          -0.002755465   -0.004471895   -0.000074563
     12        1          -0.005660023   -0.002234956    0.000028972
     13        1          -0.000955916    0.002658117   -0.001144657
     14        1          -0.021576605   -0.003538316   -0.004219665
 -------------------------------------------------------------------
 Cartesian Forces:  Max     0.110271032 RMS     0.022260332
 Leave Link  716 at Sun Oct 13 21:37:27 2019, MaxMem= 10737418240 cpu:               0.7 elap:               0.0
 (Enter /apps/cent7/gaussian/g16-A.03/g16-haswell/g16/l103.exe)

 GradGradGradGradGradGradGradGradGradGradGradGradGradGradGradGradGradGrad
 Berny optimization.
 FormGI is forming the generalized inverse of G from B-inverse, IUseBI=4.
 Internal  Forces:  Max     0.078210300 RMS     0.013012131
 Search for a local minimum.
 Step number   1 out of a maximum of   73
 All quantities printed in internal units (Hartrees-Bohrs-Radians)
 RMS Force = .13012D-01 SwitMx=.10000D-02 MixMth= 1
 Mixed Optimization -- RFO/linear search
 Second derivative matrix not updated -- first step.
 ITU=  0
     Eigenvalues ---    0.01969   0.01970   0.01971   0.01973   0.01977
     Eigenvalues ---    0.01979   0.01984   0.01989   0.02067   0.02276
     Eigenvalues ---    0.06498   0.16000   0.16000   0.16000   0.16000
     Eigenvalues ---    0.16000   0.16000   0.16000   0.22000   0.22000
     Eigenvalues ---    0.23482   0.24997   0.34808   0.34811   0.34812
     Eigenvalues ---    0.34813   0.34819   0.40295   0.40596   0.44136
     Eigenvalues ---    0.44178   0.44290   0.44352   0.53792   0.55473
     Eigenvalues ---    0.55473
 RFO step:  Lambda=-2.35977852D-02 EMin= 1.96941603D-02
 Linear search not attempted -- first point.
 Iteration  1 RMS(Cart)=  0.03687694 RMS(Int)=  0.00203845
 Iteration  2 RMS(Cart)=  0.00139203 RMS(Int)=  0.00129461
 Iteration  3 RMS(Cart)=  0.00000259 RMS(Int)=  0.00129460
 Iteration  4 RMS(Cart)=  0.00000001 RMS(Int)=  0.00129460
 ITry= 1 IFail=0 DXMaxC= 1.42D-01 DCOld= 1.00D+10 DXMaxT= 3.00D-01 DXLimC= 3.00D+00 Rises=F
 Variable       Old X    -DE/DX   Delta X   Delta X   Delta X     New X
                                 (Linear)    (Quad)   (Total)
    R1        2.56222   0.07821   0.00000   0.13928   0.13928   2.70150
    R2        1.81414   0.02096   0.00000   0.03624   0.03624   1.85037
    R3        1.81414   0.02067   0.00000   0.03573   0.03573   1.84987
    R4        2.66232  -0.02414   0.00000  -0.05221  -0.05206   2.61026
    R5        2.66226  -0.02503   0.00000  -0.05413  -0.05398   2.60828
    R6        2.66295  -0.02058   0.00000  -0.04428  -0.04428   2.61867
    R7        2.05981  -0.00101   0.00000  -0.00271  -0.00271   2.05709
    R8        2.65979  -0.01568   0.00000  -0.03317  -0.03332   2.62647
    R9        2.05987  -0.00567   0.00000  -0.01525  -0.01525   2.04462
   R10        2.66004  -0.01448   0.00000  -0.03063  -0.03078   2.62926
   R11        2.05969  -0.00525   0.00000  -0.01412  -0.01412   2.04557
   R12        2.66289  -0.02070   0.00000  -0.04451  -0.04451   2.61838
   R13        2.05980  -0.00566   0.00000  -0.01523  -0.01523   2.04457
   R14        2.05982  -0.00278   0.00000  -0.00749  -0.00749   2.05234
    A1        1.91063   0.01314   0.00000   0.08619   0.08198   1.99261
    A2        1.91063   0.01118   0.00000   0.07549   0.07125   1.98189
    A3        1.91063  -0.00466   0.00000   0.00384  -0.00293   1.90770
    A4        2.09705  -0.00588   0.00000  -0.02141  -0.02155   2.07549
    A5        2.09707  -0.01028   0.00000  -0.03748  -0.03762   2.05945
    A6        2.08898   0.01615   0.00000   0.05886   0.05914   2.14812
    A7        2.09743  -0.00804   0.00000  -0.03250  -0.03236   2.06506
    A8        2.09269   0.00556   0.00000   0.02464   0.02457   2.11725
    A9        2.09307   0.00248   0.00000   0.00786   0.00779   2.10086
   A10        2.09458  -0.00069   0.00000  -0.00093  -0.00109   2.09349
   A11        2.09526  -0.00184   0.00000  -0.01142  -0.01134   2.08392
   A12        2.09335   0.00253   0.00000   0.01235   0.01242   2.10577
   A13        2.09339   0.00132   0.00000   0.00805   0.00775   2.10114
   A14        2.09492  -0.00082   0.00000  -0.00490  -0.00475   2.09018
   A15        2.09487  -0.00050   0.00000  -0.00315  -0.00300   2.09187
   A16        2.09455   0.00066   0.00000   0.00462   0.00445   2.09900
   A17        2.09325   0.00196   0.00000   0.01018   0.01024   2.10349
   A18        2.09539  -0.00262   0.00000  -0.01480  -0.01473   2.08066
   A19        2.09744  -0.00940   0.00000  -0.03808  -0.03794   2.05951
   A20        2.09275   0.00523   0.00000   0.02190   0.02182   2.11458
   A21        2.09299   0.00418   0.00000   0.01618   0.01611   2.10910
    D1       -2.07813  -0.00415   0.00000  -0.04363  -0.04603  -2.12415
    D2        1.07814  -0.00420   0.00000  -0.04197  -0.04441   1.03373
    D3        0.01627   0.00504   0.00000   0.06008   0.06253   0.07880
    D4       -3.11065   0.00499   0.00000   0.06174   0.06414  -3.04651
    D5       -3.12428   0.00005   0.00000   0.00011   0.00012  -3.12416
    D6        0.01739  -0.00009   0.00000  -0.00316  -0.00316   0.01423
    D7        0.00271  -0.00012   0.00000  -0.00235  -0.00243   0.00027
    D8       -3.13881  -0.00026   0.00000  -0.00562  -0.00572   3.13866
    D9        3.12428   0.00034   0.00000   0.00811   0.00806   3.13234
   D10       -0.01739   0.00048   0.00000   0.01174   0.01176  -0.00564
   D11       -0.00271   0.00047   0.00000   0.01044   0.01046   0.00776
   D12        3.13881   0.00062   0.00000   0.01406   0.01416  -3.13021
   D13       -0.00165  -0.00018   0.00000  -0.00475  -0.00481  -0.00646
   D14        3.13996  -0.00004   0.00000  -0.00128  -0.00129   3.13867
   D15        3.13987  -0.00004   0.00000  -0.00149  -0.00156   3.13831
   D16       -0.00171   0.00010   0.00000   0.00199   0.00196   0.00025
   D17        0.00057   0.00018   0.00000   0.00394   0.00397   0.00454
   D18       -3.14108   0.00007   0.00000   0.00181   0.00191  -3.13917
   D19       -3.14104   0.00004   0.00000   0.00046   0.00040  -3.14063
   D20        0.00050  -0.00007   0.00000  -0.00167  -0.00166  -0.00116
   D21       -0.00057   0.00017   0.00000   0.00412   0.00427   0.00370
   D22        3.14104  -0.00023   0.00000  -0.00487  -0.00478   3.13626
   D23        3.14108   0.00027   0.00000   0.00625   0.00634  -3.13577
   D24       -0.00050  -0.00012   0.00000  -0.00274  -0.00271  -0.00321
   D25        0.00165  -0.00051   0.00000  -0.01141  -0.01125  -0.00961
   D26       -3.13987  -0.00066   0.00000  -0.01504  -0.01494   3.12838
   D27       -3.13996  -0.00012   0.00000  -0.00241  -0.00232   3.14090
   D28        0.00171  -0.00027   0.00000  -0.00604  -0.00601  -0.00430
         Item               Value     Threshold  Converged?
 Maximum Force            0.078210     0.000450     NO 
 RMS     Force            0.013012     0.000300     NO 
 Maximum Displacement     0.142058     0.001800     NO 
 RMS     Displacement     0.036623     0.001200     NO 
 Predicted change in Energy=-1.268966D-02
 Lowest energy point so far.  Saving SCF results.
 GradGradGradGradGradGradGradGradGradGradGradGradGradGradGradGradGradGrad

 Leave Link  103 at Sun Oct 13 21:37:27 2019, MaxMem= 10737418240 cpu:               2.6 elap:               0.1
 (Enter /apps/cent7/gaussian/g16-A.03/g16-haswell/g16/l202.exe)
                          Input orientation:                          
 ---------------------------------------------------------------------
 Center     Atomic      Atomic             Coordinates (Angstroms)
 Number     Number       Type             X           Y           Z
 ---------------------------------------------------------------------
      1          8           0       -0.690438   -1.191778    0.010421
      2          6           0        0.019858    0.048829    0.017278
      3          6           0       -0.697498    1.229221    0.011826
      4          6           0        0.003553    2.424462   -0.002694
      5          6           0        1.393379    2.413700   -0.003586
      6          6           0        2.087852    1.208095    0.004580
      7          6           0        1.399401    0.005653    0.009260
      8          1           0       -0.488736   -1.773423    0.771860
      9          1           0       -1.786059    1.229655    0.015702
     10          1           0       -0.540834    3.359471   -0.009918
     11          1           0        1.937909    3.349191   -0.012670
     12          1           0        3.169723    1.197130   -0.001067
     13          1           0        1.931921   -0.940862    0.003314
     14          1           0       -1.660489   -1.086713   -0.068491
 ---------------------------------------------------------------------
                    Distance matrix (angstroms):
                    1          2          3          4          5
     1  O    0.000000
     2  C    1.429572   0.000000
     3  C    2.421010   1.381288   0.000000
     4  C    3.682253   2.375772   1.385743   0.000000
     5  C    4.164368   2.734887   2.403122   1.389868   0.000000
     6  C    3.671284   2.370793   2.785440   2.413277   1.391346
     7  C    2.408583   1.380241   2.427779   2.792699   2.408088
     8  H    0.979175   2.036827   3.104369   4.297036   4.655714
     9  H    2.657772   2.157705   1.088567   2.151885   3.392810
    10  H    4.553753   3.357896   2.136113   1.081967   2.153069
    11  H    5.246823   3.817356   3.382344   2.144052   1.082470
    12  H    4.539588   3.352697   3.867375   3.395729   2.153008
    13  H    2.634346   2.153060   3.409278   3.878665   3.397522
    14  H    0.978909   2.029872   2.509453   3.886092   4.645774
                    6          7          8          9         10
     6  C    0.000000
     7  C    1.385588   0.000000
     8  H    4.014595   2.704022   0.000000
     9  H    3.873987   3.412532   3.357574   0.000000
    10  H    3.396855   3.874657   5.192349   2.467256   0.000000
    11  H    2.146410   3.386697   5.722349   4.284994   2.478766
    12  H    1.081940   2.133954   4.775554   4.955916   4.294651
    13  H    2.154607   1.086050   2.672714   4.305192   4.960600
    14  H    4.395628   3.249959   1.597112   2.321297   4.585369
                   11         12         13         14
    11  H    0.000000
    12  H    2.479691   0.000000
    13  H    4.290087   2.470461   0.000000
    14  H    5.712166   5.343354   3.596087   0.000000
 Stoichiometry    C6H7O(1+)
 Framework group  C1[X(C6H7O)]
 Deg. of freedom    36
 Full point group                 C1      NOp   1
 RotChk:  IX=0 Diff= 9.80D-03
 Largest Abelian subgroup         C1      NOp   1
 Largest concise Abelian subgroup C1      NOp   1
                         Standard orientation:                         
 ---------------------------------------------------------------------
 Center     Atomic      Atomic             Coordinates (Angstroms)
 Number     Number       Type             X           Y           Z
 ---------------------------------------------------------------------
      1          8           0       -2.270183   -0.045189   -0.054705
      2          6           0       -0.841317   -0.017649   -0.019232
      3          6           0       -0.197079    1.204060   -0.000798
      4          6           0        1.188547    1.216430    0.012296
      5          6           0        1.893125    0.018391    0.014507
      6          6           0        1.215452   -1.196655   -0.001816
      7          6           0       -0.169684   -1.223445   -0.024874
      8          1           0       -2.680644   -0.523853    0.694419
      9          1           0       -0.755850    2.138272    0.000474
     10          1           0        1.711163    2.163735    0.024051
     11          1           0        2.975441    0.031630    0.027025
     12          1           0        1.761789   -2.130519   -0.005103
     13          1           0       -0.708003   -2.166357   -0.050073
     14          1           0       -2.676693    0.841818   -0.133647
 ---------------------------------------------------------------------
 Rotational constants (GHZ):           5.5834656           2.5200353           1.7430439
 Leave Link  202 at Sun Oct 13 21:37:27 2019, MaxMem= 10737418240 cpu:               0.2 elap:               0.0
 (Enter /apps/cent7/gaussian/g16-A.03/g16-haswell/g16/l301.exe)
 Standard basis: 6-311++G(d,p) (5D, 7F)
 Ernie: Thresh=  0.10000D-02 Tol=  0.10000D-05 Strict=F.
 There are   210 symmetry adapted cartesian basis functions of A   symmetry.
 There are   203 symmetry adapted basis functions of A   symmetry.
   203 basis functions,   315 primitive gaussians,   210 cartesian basis functions
    25 alpha electrons       25 beta electrons
       nuclear repulsion energy       282.1228924540 Hartrees.
 IExCor= 4336 DFT=T Ex+Corr=M062X ExCW=0 ScaHFX=  0.540000
 ScaDFX=  1.000000  1.000000  1.000000  1.000000 ScalE2=  1.000000  1.000000
 IRadAn=      5 IRanWt=     -1 IRanGd=            0 ICorTp=0 IEmpDi=  4
 NAtoms=   14 NActive=   14 NUniq=   14 SFac= 1.00D+00 NAtFMM=   60 NAOKFM=F Big=F
 Integral buffers will be    131072 words long.
 Raffenetti 2 integral format.
 Two-electron integral symmetry is turned on.
 Leave Link  301 at Sun Oct 13 21:37:27 2019, MaxMem= 10737418240 cpu:               1.2 elap:               0.1
 (Enter /apps/cent7/gaussian/g16-A.03/g16-haswell/g16/l302.exe)
 NPDir=0 NMtPBC=     1 NCelOv=     1 NCel=       1 NClECP=     1 NCelD=      1
         NCelK=      1 NCelE2=     1 NClLst=     1 CellRange=     0.0.
 One-electron integrals computed using PRISM.
 One-electron integral symmetry used in STVInt
 NBasis=   203 RedAO= T EigKep=  1.05D-06  NBF=   203
 NBsUse=   203 1.00D-06 EigRej= -1.00D+00 NBFU=   203
 Precomputing XC quadrature grid using
 IXCGrd= 4 IRadAn=           5 IRanWt=          -1 IRanGd=           0 AccXCQ= 0.00D+00.
 Generated NRdTot=       0 NPtTot=           0 NUsed=           0 NTot=          32
 NSgBfM=   210   210   210   210   210 MxSgAt=    14 MxSgA2=    14.
 Leave Link  302 at Sun Oct 13 21:37:27 2019, MaxMem= 10737418240 cpu:               3.3 elap:               0.2
 (Enter /apps/cent7/gaussian/g16-A.03/g16-haswell/g16/l303.exe)
 DipDrv:  MaxL=1.
 Leave Link  303 at Sun Oct 13 21:37:27 2019, MaxMem= 10737418240 cpu:               0.7 elap:               0.1
 (Enter /apps/cent7/gaussian/g16-A.03/g16-haswell/g16/l401.exe)
 Initial guess from the checkpoint file:  "21_p.chk"
 B after Tr=    -0.000000   -0.000000   -0.000000
         Rot=    0.999996   -0.000487    0.000513    0.002566 Ang=  -0.31 deg.
 Guess basis will be translated and rotated to current coordinates.
 JPrj=2 DoOrth=T DoCkMO=T.
 Generating alternative initial guess.
 ExpMin= 3.60D-02 ExpMax= 8.59D+03 ExpMxC= 1.30D+03 IAcc=3 IRadAn=         5 AccDes= 0.00D+00
 Harris functional with IExCor= 1009 and IRadAn=       5 diagonalized for initial guess.
 HarFok:  IExCor= 1009 AccDes= 0.00D+00 IRadAn=         5 IDoV= 1 UseB2=F ITyADJ=14
 ICtDFT=  3500011 ScaDFX=  1.000000  1.000000  1.000000  1.000000
 FoFCou: FMM=F IPFlag=           0 FMFlag=      100000 FMFlg1=           0
         NFxFlg=           0 DoJE=T BraDBF=F KetDBF=T FulRan=T
         wScrn=  0.000000 ICntrl=       500 IOpCl=  0 I1Cent=   200000004 NGrid=           0
         NMat0=    1 NMatS0=      1 NMatT0=    0 NMatD0=    1 NMtDS0=    0 NMtDT0=    0
 Petite list used in FoFCou.
 Harris En= -307.649392924220    
 Leave Link  401 at Sun Oct 13 21:37:28 2019, MaxMem= 10737418240 cpu:               9.4 elap:               0.4
 (Enter /apps/cent7/gaussian/g16-A.03/g16-haswell/g16/l502.exe)
 Integral symmetry usage will be decided dynamically.
 Closed shell SCF:
 Using DIIS extrapolation, IDIIS=  1040.
 NGot= 10737418240 LenX= 10737322882 LenY= 10737278341
 Requested convergence on RMS density matrix=1.00D-08 within 128 cycles.
 Requested convergence on MAX density matrix=1.00D-06.
 Requested convergence on             energy=1.00D-06.
 No special actions if energy rises.
 Fock matrices will be formed incrementally for  20 cycles.

 Cycle   1  Pass 1  IDiag  1:
 FoFJK:  IHMeth= 1 ICntrl=       0 DoSepK=F KAlg= 0 I1Cent=           0 FoldK=F
 IRaf= 980000000 NMat=       1 IRICut=       1 DoRegI=T DoRafI=F ISym2E= 0 IDoP0=0 IntGTp=1.
 FoFCou: FMM=F IPFlag=           0 FMFlag=      100000 FMFlg1=           0
         NFxFlg=           0 DoJE=F BraDBF=F KetDBF=F FulRan=T
         wScrn=  0.000000 ICntrl=         0 IOpCl=  0 I1Cent=           0 NGrid=           0
         NMat0=    1 NMatS0=      1 NMatT0=    0 NMatD0=    1 NMtDS0=    0 NMtDT0=    0
 Symmetry not used in FoFCou.
 E= -307.704412349912    
 DIIS: error= 5.11D-03 at cycle   1 NSaved=   1.
 NSaved= 1 IEnMin= 1 EnMin= -307.704412349912     IErMin= 1 ErrMin= 5.11D-03
 ErrMax= 5.11D-03  0.00D+00 EMaxC= 1.00D-01 BMatC= 6.60D-03 BMatP= 6.60D-03
 IDIUse=3 WtCom= 9.49D-01 WtEn= 5.11D-02
 Coeff-Com:  0.100D+01
 Coeff-En:   0.100D+01
 Coeff:      0.100D+01
 Gap=     0.467 Goal=   None    Shift=    0.000
 GapD=    0.467 DampG=2.000 DampE=1.000 DampFc=2.0000 IDamp=-1.
 RMSDP=1.06D-02 MaxDP=7.46D-01              OVMax= 1.75D-02

 Cycle   2  Pass 1  IDiag  1:
 RMSU=  6.31D-03    CP:  1.20D+00
 E= -307.710338873644     Delta-E=       -0.005926523732 Rises=F Damp=F
 DIIS: error= 1.86D-03 at cycle   2 NSaved=   2.
 NSaved= 2 IEnMin= 2 EnMin= -307.710338873644     IErMin= 2 ErrMin= 1.86D-03
 ErrMax= 1.86D-03  0.00D+00 EMaxC= 1.00D-01 BMatC= 8.19D-04 BMatP= 6.60D-03
 IDIUse=3 WtCom= 9.81D-01 WtEn= 1.86D-02
 Coeff-Com:  0.141D+00 0.859D+00
 Coeff-En:   0.000D+00 0.100D+01
 Coeff:      0.139D+00 0.861D+00
 Gap=     0.287 Goal=   None    Shift=    0.000
 RMSDP=8.96D-04 MaxDP=4.82D-02 DE=-5.93D-03 OVMax= 9.97D-03

 Cycle   3  Pass 1  IDiag  1:
 RMSU=  7.80D-04    CP:  1.19D+00  9.77D-01
 E= -307.710601608657     Delta-E=       -0.000262735013 Rises=F Damp=F
 DIIS: error= 1.57D-03 at cycle   3 NSaved=   3.
 NSaved= 3 IEnMin= 3 EnMin= -307.710601608657     IErMin= 3 ErrMin= 1.57D-03
 ErrMax= 1.57D-03  0.00D+00 EMaxC= 1.00D-01 BMatC= 5.73D-04 BMatP= 8.19D-04
 IDIUse=3 WtCom= 9.84D-01 WtEn= 1.57D-02
 Coeff-Com: -0.455D-01 0.455D+00 0.591D+00
 Coeff-En:   0.000D+00 0.374D+00 0.626D+00
 Coeff:     -0.448D-01 0.453D+00 0.591D+00
 Gap=     0.290 Goal=   None    Shift=    0.000
 RMSDP=7.22D-04 MaxDP=4.48D-02 DE=-2.63D-04 OVMax= 5.22D-03

 Cycle   4  Pass 1  IDiag  1:
 RMSU=  4.16D-04    CP:  1.19D+00  1.03D+00  5.51D-01
 E= -307.711042076065     Delta-E=       -0.000440467408 Rises=F Damp=F
 DIIS: error= 2.81D-04 at cycle   4 NSaved=   4.
 NSaved= 4 IEnMin= 4 EnMin= -307.711042076065     IErMin= 4 ErrMin= 2.81D-04
 ErrMax= 2.81D-04  0.00D+00 EMaxC= 1.00D-01 BMatC= 6.29D-06 BMatP= 5.73D-04
 IDIUse=3 WtCom= 9.97D-01 WtEn= 2.81D-03
 Coeff-Com: -0.160D-01 0.960D-01 0.168D+00 0.752D+00
 Coeff-En:   0.000D+00 0.000D+00 0.000D+00 0.100D+01
 Coeff:     -0.159D-01 0.958D-01 0.168D+00 0.752D+00
 Gap=     0.290 Goal=   None    Shift=    0.000
 RMSDP=8.00D-05 MaxDP=4.91D-03 DE=-4.40D-04 OVMax= 1.19D-03

 Cycle   5  Pass 1  IDiag  1:
 RMSU=  4.97D-05    CP:  1.19D+00  1.03D+00  5.78D-01  1.09D+00
 E= -307.711047188732     Delta-E=       -0.000005112667 Rises=F Damp=F
 DIIS: error= 1.94D-04 at cycle   5 NSaved=   5.
 NSaved= 5 IEnMin= 5 EnMin= -307.711047188732     IErMin= 5 ErrMin= 1.94D-04
 ErrMax= 1.94D-04  0.00D+00 EMaxC= 1.00D-01 BMatC= 1.68D-06 BMatP= 6.29D-06
 IDIUse=3 WtCom= 9.98D-01 WtEn= 1.94D-03
 Coeff-Com: -0.231D-02-0.126D-01 0.571D-02 0.353D+00 0.656D+00
 Coeff-En:   0.000D+00 0.000D+00 0.000D+00 0.100D+00 0.900D+00
 Coeff:     -0.230D-02-0.125D-01 0.570D-02 0.353D+00 0.656D+00
 Gap=     0.290 Goal=   None    Shift=    0.000
 RMSDP=6.03D-05 MaxDP=4.94D-03 DE=-5.11D-06 OVMax= 5.88D-04

 Cycle   6  Pass 1  IDiag  1:
 RMSU=  2.32D-05    CP:  1.19D+00  1.03D+00  5.91D-01  1.11D+00  8.47D-01
 E= -307.711048971147     Delta-E=       -0.000001782415 Rises=F Damp=F
 DIIS: error= 4.52D-05 at cycle   6 NSaved=   6.
 NSaved= 6 IEnMin= 6 EnMin= -307.711048971147     IErMin= 6 ErrMin= 4.52D-05
 ErrMax= 4.52D-05  0.00D+00 EMaxC= 1.00D-01 BMatC= 1.29D-07 BMatP= 1.68D-06
 IDIUse=1 WtCom= 1.00D+00 WtEn= 0.00D+00
 Coeff-Com:  0.803D-03-0.135D-01-0.161D-01 0.357D-01 0.241D+00 0.752D+00
 Coeff:      0.803D-03-0.135D-01-0.161D-01 0.357D-01 0.241D+00 0.752D+00
 Gap=     0.290 Goal=   None    Shift=    0.000
 RMSDP=1.13D-05 MaxDP=7.33D-04 DE=-1.78D-06 OVMax= 1.38D-04

 Cycle   7  Pass 1  IDiag  1:
 RMSU=  7.10D-06    CP:  1.19D+00  1.03D+00  5.93D-01  1.12D+00  8.83D-01
                    CP:  9.89D-01
 E= -307.711049104826     Delta-E=       -0.000000133679 Rises=F Damp=F
 DIIS: error= 8.25D-06 at cycle   7 NSaved=   7.
 NSaved= 7 IEnMin= 7 EnMin= -307.711049104826     IErMin= 7 ErrMin= 8.25D-06
 ErrMax= 8.25D-06  0.00D+00 EMaxC= 1.00D-01 BMatC= 1.24D-08 BMatP= 1.29D-07
 IDIUse=1 WtCom= 1.00D+00 WtEn= 0.00D+00
 Coeff-Com:  0.389D-03-0.280D-02-0.584D-02-0.180D-01 0.323D-01 0.284D+00
 Coeff-Com:  0.710D+00
 Coeff:      0.389D-03-0.280D-02-0.584D-02-0.180D-01 0.323D-01 0.284D+00
 Coeff:      0.710D+00
 Gap=     0.290 Goal=   None    Shift=    0.000
 RMSDP=2.35D-06 MaxDP=6.34D-05 DE=-1.34D-07 OVMax= 4.52D-05

 Cycle   8  Pass 1  IDiag  1:
 RMSU=  1.49D-06    CP:  1.19D+00  1.03D+00  5.93D-01  1.13D+00  9.01D-01
                    CP:  1.01D+00  8.82D-01
 E= -307.711049118828     Delta-E=       -0.000000014002 Rises=F Damp=F
 DIIS: error= 1.28D-06 at cycle   8 NSaved=   8.
 NSaved= 8 IEnMin= 8 EnMin= -307.711049118828     IErMin= 8 ErrMin= 1.28D-06
 ErrMax= 1.28D-06  0.00D+00 EMaxC= 1.00D-01 BMatC= 4.42D-10 BMatP= 1.24D-08
 IDIUse=1 WtCom= 1.00D+00 WtEn= 0.00D+00
 Coeff-Com:  0.188D-06 0.665D-03 0.860D-04-0.866D-02-0.153D-01-0.967D-02
 Coeff-Com:  0.133D+00 0.900D+00
 Coeff:      0.188D-06 0.665D-03 0.860D-04-0.866D-02-0.153D-01-0.967D-02
 Coeff:      0.133D+00 0.900D+00
 Gap=     0.290 Goal=   None    Shift=    0.000
 RMSDP=1.22D-06 MaxDP=5.60D-05 DE=-1.40D-08 OVMax= 1.17D-05

 Cycle   9  Pass 1  IDiag  1:
 RMSU=  3.78D-07    CP:  1.19D+00  1.03D+00  5.93D-01  1.13D+00  9.03D-01
                    CP:  1.03D+00  8.85D-01  1.07D+00
 E= -307.711049119418     Delta-E=       -0.000000000591 Rises=F Damp=F
 DIIS: error= 3.96D-07 at cycle   9 NSaved=   9.
 NSaved= 9 IEnMin= 9 EnMin= -307.711049119418     IErMin= 9 ErrMin= 3.96D-07
 ErrMax= 3.96D-07  0.00D+00 EMaxC= 1.00D-01 BMatC= 4.56D-11 BMatP= 4.42D-10
 IDIUse=1 WtCom= 1.00D+00 WtEn= 0.00D+00
 Coeff-Com: -0.199D-04 0.390D-03 0.365D-03-0.236D-02-0.721D-02-0.197D-01
 Coeff-Com:  0.959D-02 0.313D+00 0.706D+00
 Coeff:     -0.199D-04 0.390D-03 0.365D-03-0.236D-02-0.721D-02-0.197D-01
 Coeff:      0.959D-02 0.313D+00 0.706D+00
 Gap=     0.290 Goal=   None    Shift=    0.000
 RMSDP=1.69D-07 MaxDP=8.20D-06 DE=-5.91D-10 OVMax= 3.31D-06

 Cycle  10  Pass 1  IDiag  1:
 RMSU=  9.77D-08    CP:  1.19D+00  1.03D+00  5.93D-01  1.13D+00  9.02D-01
                    CP:  1.03D+00  8.85D-01  1.08D+00  1.07D+00
 E= -307.711049119473     Delta-E=       -0.000000000054 Rises=F Damp=F
 DIIS: error= 1.39D-07 at cycle  10 NSaved=  10.
 NSaved=10 IEnMin=10 EnMin= -307.711049119473     IErMin=10 ErrMin= 1.39D-07
 ErrMax= 1.39D-07  0.00D+00 EMaxC= 1.00D-01 BMatC= 4.64D-12 BMatP= 4.56D-11
 IDIUse=1 WtCom= 1.00D+00 WtEn= 0.00D+00
 Coeff-Com: -0.557D-05 0.421D-04 0.112D-03 0.234D-03-0.399D-03-0.501D-02
 Coeff-Com: -0.115D-01-0.697D-02 0.227D+00 0.797D+00
 Coeff:     -0.557D-05 0.421D-04 0.112D-03 0.234D-03-0.399D-03-0.501D-02
 Coeff:     -0.115D-01-0.697D-02 0.227D+00 0.797D+00
 Gap=     0.290 Goal=   None    Shift=    0.000
 RMSDP=8.51D-08 MaxDP=7.14D-06 DE=-5.43D-11 OVMax= 1.36D-06

 Cycle  11  Pass 1  IDiag  1:
 RMSU=  3.06D-08    CP:  1.19D+00  1.03D+00  5.93D-01  1.13D+00  9.02D-01
                    CP:  1.03D+00  8.84D-01  1.08D+00  1.12D+00  1.07D+00
 E= -307.711049119479     Delta-E=       -0.000000000006 Rises=F Damp=F
 DIIS: error= 6.82D-08 at cycle  11 NSaved=  11.
 NSaved=11 IEnMin=11 EnMin= -307.711049119479     IErMin=11 ErrMin= 6.82D-08
 ErrMax= 6.82D-08  0.00D+00 EMaxC= 1.00D-01 BMatC= 4.46D-13 BMatP= 4.64D-12
 IDIUse=1 WtCom= 1.00D+00 WtEn= 0.00D+00
 Coeff-Com:  0.112D-06-0.233D-04 0.204D-05 0.302D-03 0.544D-03 0.279D-03
 Coeff-Com: -0.447D-02-0.311D-01 0.108D-01 0.271D+00 0.752D+00
 Coeff:      0.112D-06-0.233D-04 0.204D-05 0.302D-03 0.544D-03 0.279D-03
 Coeff:     -0.447D-02-0.311D-01 0.108D-01 0.271D+00 0.752D+00
 Gap=     0.290 Goal=   None    Shift=    0.000
 RMSDP=2.77D-08 MaxDP=1.52D-06 DE=-5.91D-12 OVMax= 4.08D-07

 Cycle  12  Pass 1  IDiag  1:
 RMSU=  1.27D-08    CP:  1.19D+00  1.03D+00  5.93D-01  1.13D+00  9.02D-01
                    CP:  1.03D+00  8.83D-01  1.08D+00  1.13D+00  1.07D+00
                    CP:  9.66D-01
 E= -307.711049119481     Delta-E=       -0.000000000002 Rises=F Damp=F
 DIIS: error= 2.91D-08 at cycle  12 NSaved=  12.
 NSaved=12 IEnMin=12 EnMin= -307.711049119481     IErMin=12 ErrMin= 2.91D-08
 ErrMax= 2.91D-08  0.00D+00 EMaxC= 1.00D-01 BMatC= 5.80D-14 BMatP= 4.46D-13
 IDIUse=1 WtCom= 1.00D+00 WtEn= 0.00D+00
 Coeff-Com:  0.531D-06-0.131D-04-0.969D-05 0.106D-03 0.248D-03 0.530D-03
 Coeff-Com: -0.871D-03-0.118D-01-0.143D-01 0.426D-01 0.292D+00 0.691D+00
 Coeff:      0.531D-06-0.131D-04-0.969D-05 0.106D-03 0.248D-03 0.530D-03
 Coeff:     -0.871D-03-0.118D-01-0.143D-01 0.426D-01 0.292D+00 0.691D+00
 Gap=     0.290 Goal=   None    Shift=    0.000
 RMSDP=5.61D-09 MaxDP=2.73D-07 DE=-1.82D-12 OVMax= 1.96D-07

 SCF Done:  E(RM062X) =  -307.711049119     A.U. after   12 cycles
            NFock= 12  Conv=0.56D-08     -V/T= 2.0036
 KE= 3.066108866508D+02 PE=-1.270730616387D+03 EE= 3.742857881623D+02
 Leave Link  502 at Sun Oct 13 21:37:34 2019, MaxMem= 10737418240 cpu:             147.3 elap:               6.2
 (Enter /apps/cent7/gaussian/g16-A.03/g16-haswell/g16/l701.exe)
 ... and contract with generalized density number  0.
 Compute integral first derivatives.
 Leave Link  701 at Sun Oct 13 21:37:34 2019, MaxMem= 10737418240 cpu:               2.6 elap:               0.1
 (Enter /apps/cent7/gaussian/g16-A.03/g16-haswell/g16/l702.exe)
 L702 exits ... SP integral derivatives will be done elsewhere.
 Leave Link  702 at Sun Oct 13 21:37:34 2019, MaxMem= 10737418240 cpu:               0.4 elap:               0.0
 (Enter /apps/cent7/gaussian/g16-A.03/g16-haswell/g16/l703.exe)
 Integral derivatives from FoFJK, PRISM(SPDF).
 Compute integral first derivatives, UseDBF=F ICtDFT=           0.
 Calling FoFJK, ICntrl=      2127 FMM=F ISym2X=0 I1Cent= 0 IOpClX= 0 NMat=1 NMatS=1 NMatT=0.
 FoFJK:  IHMeth= 1 ICntrl=    2127 DoSepK=F KAlg= 0 I1Cent=           0 FoldK=F
 IRaf=         0 NMat=       1 IRICut=       1 DoRegI=T DoRafI=F ISym2E= 0 IDoP0=0 IntGTp=1.
 FoFCou: FMM=F IPFlag=           0 FMFlag=      100000 FMFlg1=         800
         NFxFlg=           0 DoJE=F BraDBF=F KetDBF=F FulRan=T
         wScrn=  0.000000 ICntrl=      2127 IOpCl=  0 I1Cent=           0 NGrid=           0
         NMat0=    1 NMatS0=      1 NMatT0=    0 NMatD0=    1 NMtDS0=    0 NMtDT0=    0
 Symmetry not used in FoFCou.
 Leave Link  703 at Sun Oct 13 21:37:35 2019, MaxMem= 10737418240 cpu:              27.1 elap:               1.2
 (Enter /apps/cent7/gaussian/g16-A.03/g16-haswell/g16/l716.exe)
 Dipole        =-2.47470209D+00 2.33468392D-01 4.60896386D-01
 ***** Axes restored to original set *****
 -------------------------------------------------------------------
 Center     Atomic                   Forces (Hartrees/Bohr)
 Number     Number              X              Y              Z
 -------------------------------------------------------------------
      1        8          -0.013963205   -0.019753799    0.004816429
      2        6           0.018158394    0.033626812   -0.000316225
      3        6          -0.010908699   -0.008957009    0.000328555
      4        6           0.003687770    0.002250350   -0.000355066
      5        6           0.000777565    0.000750158   -0.000064263
      6        6           0.000019190    0.004471830    0.000174904
      7        6          -0.001759474   -0.013544902    0.000149547
      8        1           0.001147087    0.000383713   -0.001596655
      9        1           0.001355696    0.000399402    0.000177904
     10        1          -0.000233638   -0.000012515   -0.000030150
     11        1           0.000123751   -0.000003780    0.000028193
     12        1           0.000197372   -0.000103595    0.000043693
     13        1          -0.000388648    0.000786588   -0.000661550
     14        1           0.001786840   -0.000293253   -0.002695316
 -------------------------------------------------------------------
 Cartesian Forces:  Max     0.033626812 RMS     0.007734885
 Leave Link  716 at Sun Oct 13 21:37:35 2019, MaxMem= 10737418240 cpu:               0.8 elap:               0.1
 (Enter /apps/cent7/gaussian/g16-A.03/g16-haswell/g16/l103.exe)

 GradGradGradGradGradGradGradGradGradGradGradGradGradGradGradGradGradGrad
 Berny optimization.
 Using GEDIIS/GDIIS optimizer.
 FormGI is forming the generalized inverse of G from B-inverse, IUseBI=4.
 Internal  Forces:  Max     0.022542133 RMS     0.003454134
 Search for a local minimum.
 Step number   2 out of a maximum of   73
 All quantities printed in internal units (Hartrees-Bohrs-Radians)
 RMS Force = .34541D-02 SwitMx=.10000D-02 MixMth= 1
 Mixed Optimization -- RFO/linear search
 Update second derivatives using D2CorX and points    1    2
 DE= -1.36D-02 DEPred=-1.27D-02 R= 1.08D+00
 TightC=F SS=  1.41D+00  RLast= 2.63D-01 DXNew= 5.0454D-01 7.8997D-01
 Trust test= 1.08D+00 RLast= 2.63D-01 DXMaxT set to 5.05D-01
 ITU=  1  0
 Use linear search instead of GDIIS.
     Eigenvalues ---    0.01969   0.01970   0.01972   0.01974   0.01978
     Eigenvalues ---    0.01980   0.01984   0.01989   0.02061   0.02272
     Eigenvalues ---    0.05459   0.15982   0.15999   0.16000   0.16000
     Eigenvalues ---    0.16000   0.16000   0.16510   0.20905   0.22009
     Eigenvalues ---    0.22078   0.24982   0.34750   0.34810   0.34812
     Eigenvalues ---    0.34817   0.34916   0.39541   0.40313   0.43098
     Eigenvalues ---    0.44179   0.44350   0.46479   0.48151   0.55473
     Eigenvalues ---    0.57929
 RFO step:  Lambda=-1.85796719D-03 EMin= 1.96914689D-02
 Quartic linear search produced a step of  0.28041.
 Iteration  1 RMS(Cart)=  0.01840404 RMS(Int)=  0.00082442
 Iteration  2 RMS(Cart)=  0.00061497 RMS(Int)=  0.00058813
 Iteration  3 RMS(Cart)=  0.00000021 RMS(Int)=  0.00058813
 ITry= 1 IFail=0 DXMaxC= 7.84D-02 DCOld= 1.00D+10 DXMaxT= 5.05D-01 DXLimC= 3.00D+00 Rises=F
 Variable       Old X    -DE/DX   Delta X   Delta X   Delta X     New X
                                 (Linear)    (Quad)   (Total)
    R1        2.70150   0.02254   0.03906   0.02492   0.06397   2.76547
    R2        1.85037  -0.00123   0.01016  -0.01028  -0.00012   1.85026
    R3        1.84987  -0.00159   0.01002  -0.01100  -0.00098   1.84889
    R4        2.61026  -0.00292  -0.01460   0.00201  -0.01246   2.59780
    R5        2.60828  -0.00221  -0.01514   0.00443  -0.01057   2.59771
    R6        2.61867   0.00445  -0.01242   0.02185   0.00943   2.62810
    R7        2.05709  -0.00135  -0.00076  -0.00442  -0.00518   2.05192
    R8        2.62647   0.00142  -0.00934   0.01098   0.00150   2.62797
    R9        2.04462   0.00011  -0.00428   0.00343  -0.00084   2.04378
   R10        2.62926   0.00086  -0.00863   0.00883   0.00007   2.62934
   R11        2.04557   0.00006  -0.00396   0.00303  -0.00093   2.04464
   R12        2.61838   0.00424  -0.01248   0.02126   0.00878   2.62716
   R13        2.04457   0.00020  -0.00427   0.00376  -0.00051   2.04406
   R14        2.05234  -0.00087  -0.00210  -0.00170  -0.00380   2.04853
    A1        1.99261   0.00005   0.02299  -0.00397   0.01700   2.00961
    A2        1.98189   0.00088   0.01998   0.00460   0.02255   2.00444
    A3        1.90770   0.00136  -0.00082   0.02985   0.02603   1.93374
    A4        2.07549  -0.00301  -0.00604  -0.01136  -0.01754   2.05796
    A5        2.05945  -0.00519  -0.01055  -0.01937  -0.03005   2.02940
    A6        2.14812   0.00820   0.01658   0.03062   0.04745   2.19557
    A7        2.06506  -0.00487  -0.00908  -0.02127  -0.03022   2.03484
    A8        2.11725   0.00284   0.00689   0.01234   0.01916   2.13642
    A9        2.10086   0.00203   0.00219   0.00893   0.01105   2.11192
   A10        2.09349   0.00056  -0.00030   0.00473   0.00428   2.09777
   A11        2.08392  -0.00050  -0.00318  -0.00195  -0.00506   2.07886
   A12        2.10577  -0.00006   0.00348  -0.00280   0.00075   2.10652
   A13        2.10114   0.00036   0.00217   0.00215   0.00406   2.10520
   A14        2.09018  -0.00007  -0.00133  -0.00008  -0.00128   2.08890
   A15        2.09187  -0.00029  -0.00084  -0.00208  -0.00279   2.08908
   A16        2.09900   0.00029   0.00125   0.00206   0.00316   2.10217
   A17        2.10349  -0.00005   0.00287  -0.00253   0.00039   2.10388
   A18        2.08066  -0.00025  -0.00413   0.00041  -0.00368   2.07698
   A19        2.05951  -0.00454  -0.01064  -0.01838  -0.02892   2.03059
   A20        2.11458   0.00233   0.00612   0.00909   0.01510   2.12968
   A21        2.10910   0.00221   0.00452   0.00924   0.01365   2.12275
    D1       -2.12415  -0.00082  -0.01291   0.00477  -0.00901  -2.13317
    D2        1.03373  -0.00078  -0.01245   0.01142  -0.00216   1.03157
    D3        0.07880   0.00190   0.01753   0.04711   0.06576   0.14456
    D4       -3.04651   0.00194   0.01799   0.05375   0.07262  -2.97389
    D5       -3.12416   0.00017   0.00003   0.00838   0.00847  -3.11568
    D6        0.01423   0.00017  -0.00089   0.00854   0.00772   0.02195
    D7        0.00027  -0.00001  -0.00068   0.00086   0.00005   0.00033
    D8        3.13866  -0.00000  -0.00160   0.00102  -0.00070   3.13795
    D9        3.13234  -0.00004   0.00226  -0.00112   0.00105   3.13338
   D10       -0.00564   0.00021   0.00330   0.01384   0.01713   0.01150
   D11        0.00776   0.00011   0.00293   0.00626   0.00925   0.01700
   D12       -3.13021   0.00037   0.00397   0.02123   0.02533  -3.10488
   D13       -0.00646  -0.00011  -0.00135  -0.00683  -0.00821  -0.01467
   D14        3.13867  -0.00003  -0.00036  -0.00191  -0.00226   3.13641
   D15        3.13831  -0.00012  -0.00044  -0.00700  -0.00749   3.13082
   D16        0.00025  -0.00003   0.00055  -0.00208  -0.00153  -0.00127
   D17        0.00454   0.00010   0.00111   0.00557   0.00674   0.01129
   D18       -3.13917   0.00007   0.00053   0.00375   0.00440  -3.13477
   D19       -3.14063   0.00001   0.00011   0.00058   0.00068  -3.13995
[...]
 ! D6    D(1,2,3,9)              0.001          -DE/DX =    0.0                 !
 ! D7    D(7,2,3,4)             -0.0012         -DE/DX =    0.0                 !
 ! D8    D(7,2,3,9)            180.0035         -DE/DX =    0.0                 !
 ! D9    D(1,2,7,6)            180.0218         -DE/DX =    0.0                 !
 ! D10   D(1,2,7,13)             0.0091         -DE/DX =    0.0                 !
 ! D11   D(3,2,7,6)              0.0194         -DE/DX =    0.0                 !
 ! D12   D(3,2,7,13)           180.0066         -DE/DX =    0.0                 !
 ! D13   D(2,3,4,5)             -0.0121         -DE/DX =    0.0                 !
 ! D14   D(2,3,4,10)           179.9961         -DE/DX =    0.0                 !
 ! D15   D(9,3,4,5)           -180.0168         -DE/DX =    0.0                 !
 ! D16   D(9,3,4,10)            -0.0086         -DE/DX =    0.0                 !
 ! D17   D(3,4,5,6)              0.0067         -DE/DX =    0.0                 !
 ! D18   D(3,4,5,11)          -179.9918         -DE/DX =    0.0                 !
 ! D19   D(10,4,5,6)          -180.0016         -DE/DX =    0.0                 !
 ! D20   D(10,4,5,11)           -0.0001         -DE/DX =    0.0                 !
 ! D21   D(4,5,6,7)              0.0125         -DE/DX =    0.0                 !
 ! D22   D(4,5,6,12)          -179.9981         -DE/DX =    0.0                 !
 ! D23   D(11,5,6,7)           180.011          -DE/DX =    0.0                 !
 ! D24   D(11,5,6,12)            0.0004         -DE/DX =    0.0                 !
 ! D25   D(5,6,7,2)             -0.0243         -DE/DX =    0.0                 !
 ! D26   D(5,6,7,13)          -180.0114         -DE/DX =    0.0                 !
 ! D27   D(12,6,7,2)           179.9862         -DE/DX =    0.0                 !
 ! D28   D(12,6,7,13)           -0.001          -DE/DX =    0.0                 !
 --------------------------------------------------------------------------------
 GradGradGradGradGradGradGradGradGradGradGradGradGradGradGradGradGradGrad

 Leave Link  103 at Sun Oct 13 21:39:54 2019, MaxMem= 10737418240 cpu:               0.5 elap:               0.0
 (Enter /apps/cent7/gaussian/g16-A.03/g16-haswell/g16/l9999.exe)

 ----------------------------------------------------------------------

 Electric dipole moment (input orientation):
 (Debye = 10**-18 statcoulomb cm , SI units = C m)
                  (au)            (Debye)         (10**-30 SI)
   Tot        0.244379D+01      0.621149D+01      0.207193D+02
   x         -0.158099D+01     -0.401849D+01     -0.134042D+02
   y         -0.185868D+01     -0.472430D+01     -0.157586D+02
   z          0.133660D+00      0.339730D+00      0.113322D+01

 Dipole polarizability, Alpha (input orientation).
 (esu units = cm**3 , SI units = C**2 m**2 J**-1)
 Alpha(0;0):
               (au)            (10**-24 esu)      (10**-40 SI)
   iso        0.647471D+02      0.959453D+01      0.106754D+02
   aniso      0.386131D+02      0.572188D+01      0.636645D+01
   xx         0.767021D+02      0.113661D+02      0.126465D+02
   yx         0.283564D+01      0.420199D+00      0.467534D+00
   yy         0.781086D+02      0.115745D+02      0.128784D+02
   zx        -0.271319D+01     -0.402053D+00     -0.447344D+00
   zy        -0.631914D+00     -0.936400D-01     -0.104189D+00
   zz         0.394306D+02      0.584301D+01      0.650122D+01

 ----------------------------------------------------------------------

 Dipole orientation:
     8          0.53332812         -0.25718876          2.57441589
     6          0.10416778          0.14361259         -0.17204577
     6         -1.72149333          1.85149561         -0.89656754
     6         -2.04992336          2.15830687         -3.48892734
     6         -0.57911716          0.78264631         -5.18308266
     6          1.23716690         -0.91613450         -4.32815088
     6          1.61312292         -1.26843825         -1.74656020
     1          1.22604335          1.18606447          3.48504807
     1         -2.84299215          2.90115436          0.45827868
     1         -3.45838851          3.47572008         -4.17036902
     1         -0.85390002          1.03971020         -7.19424383
     1          2.37165770         -1.97715425         -5.65893826
     1          3.00639349         -2.57206411         -1.00917611
     1         -0.85914264         -1.04648838          3.48554217

 Electric dipole moment (dipole orientation):
 (Debye = 10**-18 statcoulomb cm , SI units = C m)
                  (au)            (Debye)         (10**-30 SI)
   Tot        0.244379D+01      0.621149D+01      0.207193D+02
   x          0.000000D+00      0.000000D+00      0.000000D+00
   y          0.000000D+00      0.000000D+00      0.000000D+00
   z          0.244379D+01      0.621149D+01      0.207193D+02

 Dipole polarizability, Alpha (dipole orientation).
 (esu units = cm**3 , SI units = C**2 m**2 J**-1)
 Alpha(0;0):
               (au)            (10**-24 esu)      (10**-40 SI)
   iso        0.647471D+02      0.959453D+01      0.106754D+02
   aniso      0.386131D+02      0.572188D+01      0.636645D+01
   xx         0.580769D+02      0.860610D+01      0.957558D+01
   yx        -0.176324D+02     -0.261285D+01     -0.290719D+01
   yy         0.557251D+02      0.825760D+01      0.918782D+01
   zx         0.108364D+00      0.160578D-01      0.178668D-01
   zy        -0.101420D+00     -0.150288D-01     -0.167218D-01
   zz         0.804394D+02      0.119199D+02      0.132627D+02

 ----------------------------------------------------------------------
 1\1\GINC-BROWN-A419\Freq\RM062X\6-311++G(d,p)\C6H7O1(1+)\FINEJ\13-Oct-
 2019\0\\#P Geom=AllCheck Guess=TCheck SCRF=Check GenChk RM062X/6-311++
 G(d,p) Freq\\Title Card Required\\1,1\O,-0.6476220866,-1.2292656371,0.
 1535813615\C,0.0566932611,0.0778423229,0.088483097\C,-0.6996270175,1.2
 282388475,0.129888404\C,0.0072873864,2.4259983279,0.0659060872\C,1.396
 3543432,2.4160531478,-0.0332737333\C,2.1027889167,1.217659256,-0.07045
 13894\C,1.425961878,0.0016311487,-0.0088200844\H,-1.0945797272,-1.4219
 449809,0.9979652535\H,-1.7805566134,1.2106183669,0.2076236292\H,-0.534
 2210154,3.3627618217,0.0942287086\H,1.9337014843,3.3547619532,-0.08209
 08385\H,3.1824336212,1.219674579,-0.1476150689\H,1.9400648755,-0.95060
 2435,-0.0351763027\H,-1.2091362363,-1.4407966384,-0.6144334738\\Versio
 n=ES64L-G16RevA.03\State=1-A\HF=-307.715033\RMSD=3.412e-09\RMSF=1.656e
 -05\ZeroPoint=0.1169643\Thermal=0.1169643\Dipole=-1.580994,-1.8586826,
 0.1336601\DipoleDeriv=-0.4910304,-0.3566627,0.0200757,-0.3244055,-0.85
 84667,0.0298254,0.0196721,0.0319956,-0.2684888,0.5598119,0.3469171,-0.
 0471187,0.3098859,0.8707257,-0.0324345,-0.046591,-0.0350005,-0.0402507
 ,-0.0989128,-0.0349767,0.0014152,0.0710746,-0.1800479,-0.0040337,0.000
 1723,0.0035463,-0.0842924,-0.0649025,-0.0445574,-0.0015952,-0.1119736,
 0.079439,0.0060677,-0.0008444,0.0012376,-0.0946427,0.030612,0.0951283,
 -0.0077858,0.0658618,0.0962287,-0.0064323,-0.0074762,-0.0085936,-0.062
 2413,0.1188264,-0.0110382,-0.0149199,0.0926953,-0.0687706,-0.0069314,-
 0.0160224,0.0005837,-0.0910556,-0.1816595,0.0243787,0.0083307,-0.10113
 9,-0.0822335,0.0075103,0.0096382,-0.0015136,-0.0623755,0.3563337,0.002
 7417,-0.0597114,0.0153239,0.3809945,-0.0963247,-0.1119732,-0.1733374,0
 .4753868,0.052167,-0.0440531,0.0089894,-0.0313065,0.097112,0.0030678,0
 .0088752,0.0040061,0.1700451,0.0703074,0.0076734,0.0055637,0.0113206,0
 .0678042,0.0001006,0.0055433,0.0003427,0.1488425,0.0795662,-0.018616,0
 .005175,-0.0179736,0.0580464,0.0022934,0.0051492,0.0023553,0.1486987,0
 .0621485,0.0045141,0.0061247,-0.0003589,0.0790852,0.0007887,0.0062136,
 0.0004086,0.1480854,0.1240703,-0.0002732,0.003261,-0.0105792,0.0729018
 ,0.0018162,0.0033496,0.0011124,0.1693939,0.3826619,0.0288239,0.0721958
 ,0.0315742,0.3871811,0.0946865,0.1242937,0.1728568,0.4428945\Polar=76.
 7021271,2.8356436,78.1086155,-2.7131868,-0.631914,39.4305568\Quadrupol
 e=3.4001929,6.8835247,-10.2837177,8.4188026,-1.0800703,-0.7914018\PG=C
 01 [X(C6H7O1)]\NImag=0\\0.40862746,0.20782723,0.27356066,0.02412068,-0
 .00879869,0.78107655,-0.07292398,-0.01039699,0.00031557,0.69807798,-0.
 03534189,-0.11679154,0.00302964,-0.12005533,0.54188128,0.00058200,0.00
 125470,-0.07088295,-0.03875607,0.00414780,0.14197314,0.00359516,-0.037
 49586,0.00014216,-0.20981673,0.17034834,0.00944225,0.77890736,0.002550
 13,-0.04535604,0.00032614,0.07918575,-0.25381885,-0.00343977,-0.009180
 36,0.66456839,-0.00029685,0.00318985,-0.00018426,0.01045034,-0.0099627
 1,-0.05231859,-0.04695922,-0.00537462,0.12587521,0.00220087,0.01426560
 ,0.00030032,0.07347699,-0.04524697,-0.00478679,-0.18393005,-0.05118475
 ,0.00949967,0.68643379,0.00129009,-0.00312282,0.00003397,0.03430577,-0
 .06604571,-0.00172469,-0.13151916,-0.28772099,0.01197047,-0.04176042,0
 .73971122,0.00045062,-0.00089067,0.00865960,-0.00566937,0.00396491,-0.
 00006876,0.01038802,0.00621911,-0.06018579,-0.03888725,-0.00373980,0.1
 3919252,-0.00111276,-0.00113333,-0.00002565,-0.06715553,0.03694919,0.0
 0411407,-0.02044471,-0.08389134,0.00265329,-0.34088483,0.03904086,0.01
 940393,0.69312696,0.00046377,0.00095784,-0.00006710,0.03516783,-0.0265
 5241,-0.00226593,-0.03142367,0.04009421,0.00184444,-0.03524610,-0.1354
 0313,0.00331905,0.03680680,0.74268688,-0.00004850,0.00005040,-0.001728
 91,0.00413035,-0.00239349,-0.00421978,0.00207408,0.00560090,0.00343737
 ,0.02021775,-0.00199690,-0.06481967,-0.03968777,-0.00928232,0.14642225
 ,-0.00739335,-0.00424982,0.00130479,-0.02526764,-0.02323857,0.00202600
 ,0.00039635,-0.00222452,-0.00009017,-0.02385913,0.03203460,0.00170692,
 -0.18986966,0.12875331,0.00752888,0.76040375,0.00398879,0.00468563,-0.
 00022165,-0.10143867,0.03552066,0.00685733,0.00833504,-0.07770177,0.00
 025267,0.08181084,0.04217616,-0.00626429,0.05481216,-0.29110823,-0.001
 39086,-0.00049222,0.66752963,0.00121182,0.00037058,0.01004384,0.002900
 37,0.00126363,-0.00067074,-0.00020848,0.00100411,-0.00121458,0.0011607
 0,-0.00270076,0.00495495,0.00834685,-0.00668853,-0.06507092,-0.0442928
 6,-0.00575997,0.14351172,-0.01587832,-0.01127100,0.00119167,-0.3562953
 8,-0.00286902,0.02178743,-0.02903083,0.08296924,0.00159718,-0.05989580
 ,-0.03768087,0.00461563,0.07521625,-0.02760279,-0.00476890,-0.18213355
 ,-0.04841453,0.00907419,0.70490208,-0.04626593,-0.01881446,0.00352013,
 0.08834320,-0.11082176,-0.00568887,0.02130578,0.03265177,-0.00182137,-
 0.02689430,-0.01673889,0.00209463,0.02367969,-0.05522830,-0.00103978,-
 0.12844972,-0.29042343,0.01165800,-0.05688861,0.75163360,0.00158903,0.
 00100229,-0.00103011,0.02076509,0.00084269,-0.05453392,0.00228053,-0.0
 0623231,0.00603398,0.00449546,0.00287022,-0.00160012,-0.00534009,0.002
 63544,0.00464370,0.00996575,0.00593523,-0.06311832,-0.04072863,-0.0027
 5499,0.13029662,-0.13402114,-0.07098595,0.18958745,-0.00797893,0.00042
 678,0.00702788,0.00223666,0.00100073,0.00016395,-0.00078783,0.00010553
 ,-0.00026631,0.00047515,-0.00011297,0.00006989,-0.00104157,0.00082567,
 -0.00123275,-0.00105155,-0.00313700,0.00094989,0.12717753,-0.06016017,
 -0.04666118,0.05388790,-0.01163526,-0.00238003,0.02055766,-0.00062434,
 0.00026186,0.00052245,-0.00019637,-0.00055631,-0.00158201,0.00007092,0
 .00007305,0.00028696,-0.00040761,-0.00008799,-0.00103215,0.00037509,-0
 .00180171,0.00104377,0.06276728,0.04855780,0.15618612,0.05958465,-0.38
 583576,0.00555113,0.01028729,0.00828829,-0.00202730,-0.00169557,-0.000
 24867,0.00049053,-0.00041535,0.00001860,-0.00031604,-0.00014912,0.0001
 2299,-0.00051053,-0.00028502,-0.00016144,-0.00086450,-0.00187869,-0.00
 023064,-0.17532356,-0.06930803,0.39606890,0.00193743,-0.00051246,-0.00
 045517,-0.01149766,-0.00467480,0.00108633,-0.34586093,-0.00205131,0.02
 242777,-0.00906878,0.00189360,0.00091333,0.00052488,-0.00241207,0.0005
 3780,0.00059214,-0.00055263,-0.00016495,0.00137365,0.00266345,0.000244
 52,-0.00020724,0.00094717,-0.00000193,0.36258225,-0.00036862,0.0032846
 6,-0.00006022,0.02629961,0.00314260,-0.00188793,-0.00231132,-0.0570937
 8,0.00043212,-0.02750912,0.00619258,0.00194686,-0.00244488,-0.00471828
 ,0.00031276,-0.00036627,-0.00130720,0.00002068,0.00211493,-0.00474184,
 -0.00004154,0.00036606,-0.00068166,0.00033617,0.00363338,0.05511729,-0
 .00045800,-0.00005015,-0.00445458,0.00074424,0.00033387,0.00287683,0.0
 2243322,0.00041506,-0.03510315,0.00123802,-0.00016335,0.00388138,0.000
 53734,0.00031015,0.00760039,-0.00016730,0.00003655,-0.00178418,0.00024
 774,-0.00008214,0.00517121,0.00007852,0.00100061,0.00018405,-0.0243477
 3,-0.00061293,0.02542533,-0.00020703,-0.00254715,0.00008438,-0.0005063
 8,-0.00166216,0.00057892,0.01129335,-0.01726954,-0.00036340,-0.1323455
 8,0.12788930,0.00521795,-0.00901775,0.02730813,0.00066904,-0.00562808,
 -0.00052690,0.00092554,-0.00095176,-0.00100784,-0.00002593,0.00006644,
 0.00000160,-0.00017212,0.00069543,0.00045640,-0.00036251,0.13602536,0.
 00004689,-0.00194166,0.00002451,-0.00311280,-0.00094729,0.00031543,0.0
 1341536,-0.01812267,-0.00071943,0.12735620,-0.27875799,-0.00644986,-0.
 00274505,0.00579143,0.00018260,-0.00089470,0.00117294,0.00013157,-0.00
 052422,0.00034516,0.00001716,0.00006535,-0.00000561,-0.00019374,0.0001
 8421,0.00088885,-0.00007111,-0.13387095,0.29091815,0.00005554,0.000210
 87,0.00057556,0.00059536,0.00021117,0.00727339,-0.00070504,0.00147598,
 0.00357117,0.00522730,-0.00648843,-0.03984544,0.00099909,-0.00196554,0
 .00452554,0.00092913,0.00010229,0.00716959,-0.00002936,0.00005216,-0.0
 0146718,-0.00005856,-0.00014074,0.00008924,-0.00036045,-0.00009046,-0.
 00427259,-0.00632339,0.00663979,0.02721008,0.00028044,-0.00024266,-0.0
 0012438,-0.00149182,0.00149321,0.00013841,-0.00529734,0.00002752,0.000
 90344,-0.01014064,-0.02723832,0.00135159,-0.13146239,-0.12553268,0.007
 73073,0.01218444,0.01586352,-0.00070689,-0.00074301,0.00380008,0.00054
 223,-0.00002891,0.00010325,-0.00000888,-0.00047987,-0.00130006,0.00003
 405,0.00085162,0.00016640,-0.00034872,0.13528658,-0.00013698,0.0000233
 9,-0.00000699,0.00150539,0.00020508,-0.00010240,0.00109046,0.00151268,
 -0.00001333,0.00294121,0.00556700,-0.00022127,-0.12559985,-0.27911087,
 0.01159929,-0.01424247,-0.01674245,0.00125558,0.00275730,-0.00319629,-
 0.00007899,-0.00000123,-0.00001213,0.00000619,0.00025300,0.00023708,-0
 .00002326,-0.00018887,0.00048476,-0.00003628,0.13237137,0.29096500,-0.
 00012616,0.00000017,-0.00148958,0.00013560,-0.00009910,0.00067067,0.00
 089099,0.00006064,0.00727768,0.00102108,0.00193576,0.00445322,0.007727
 87,0.01159669,-0.04342029,-0.00037146,-0.00090050,0.00478947,0.0005563
 9,-0.00015213,0.00739240,0.00018846,0.00022389,-0.00006379,0.00001623,
 0.00008752,-0.00021357,-0.00034500,-0.00006175,-0.00397695,-0.00912663
 ,-0.01237603,0.02890089,-0.00040228,-0.00002743,0.00006410,0.00121178,
 -0.00199569,0.00045988,0.00070000,0.00035798,-0.00015193,0.00012075,0.
 00243682,0.00047818,-0.00859114,-0.00245848,0.00099878,-0.35131228,-0.
 00055244,0.02220174,-0.00891388,0.00165034,0.00091418,-0.00003692,-0.0
 0004748,-0.00008019,-0.00006997,0.00000518,-0.00003764,-0.00042010,-0.
 00024518,0.00000614,0.00056865,0.00000146,-0.00033246,0.36664612,-0.00
 238906,-0.00145321,0.00019376,-0.00074668,-0.00256597,0.00016121,-0.00
 003336,-0.00131032,0.00000183,0.00284947,-0.00453292,-0.00007360,0.027
 56024,0.00529203,-0.00197367,-0.00006101,-0.05856228,0.00019892,-0.029
 12062,0.00249509,0.00209954,-0.00016511,-0.00015429,-0.00020042,0.0000
 2332,0.00010278,-0.00000943,0.00131059,0.00019281,-0.00009998,-0.00035
 178,0.00077367,-0.00002826,0.00081502,0.05886919,0.00008863,0.00002303
 ,0.00048365,0.00044761,0.00025107,0.00731352,-0.00014604,-0.00002800,-
 0.00136014,0.00047584,-0.00004235,0.00716379,0.00066413,0.00017460,0.0
 0494983,0.02219949,0.00023109,-0.04226594,0.00125142,-0.00009760,0.004
 03490,0.00000953,-0.00017591,0.00004914,-0.00003817,-0.00000809,-0.000
 59346,-0.00001122,0.00001120,-0.00037172,-0.00032869,-0.00005404,-0.00
 406167,-0.02426725,-0.00040601,0.02889129,0.00248461,0.00073428,-0.000
 56143,-0.01044950,0.02701317,0.00073302,-0.00519056,-0.00151601,0.0007
 4477,-0.00051482,-0.00096786,-0.00008124,-0.00130842,-0.00361725,0.000
 67044,0.01370681,-0.01454380,-0.00051812,-0.12555460,0.12405573,0.0051
 1771,-0.00025563,0.00015853,0.00018094,-0.00030978,0.00111012,0.000086
 32,0.00004550,0.00006497,-0.00004213,0.00052717,-0.00074456,-0.0000456
 1,0.00052428,0.00044344,-0.00034922,0.12667535,0.00017345,0.00088395,-
 0.00007914,-0.00294066,0.00224080,0.00022971,-0.00125118,0.00175319,0.
 00012455,-0.00121010,-0.00025661,0.00006972,-0.00314062,-0.00284544,0.
 00033713,0.01408223,-0.01509013,-0.00079456,0.12590998,-0.28359033,-0.
 00628688,-0.00002316,0.00018612,0.00004552,-0.00018986,0.00028857,0.00
 002191,0.00008216,-0.00002039,-0.00001138,0.00076989,-0.00068949,-0.00
 004964,0.00007957,0.00099833,-0.00006351,-0.13229654,0.29596335,-0.000
 55458,-0.00012119,-0.00518073,0.00106432,-0.00191576,0.00391042,0.0007
 4199,0.00014594,0.00490453,-0.00008018,0.00005270,-0.00179384,0.000663
 90,0.00037243,0.00745924,-0.00083247,0.00125129,0.00426930,0.00509706,
 -0.00615062,-0.03532738,0.00076460,0.00033817,0.00025416,0.00010100,-0
 .00007081,0.00106285,-0.00004218,-0.00001037,-0.00052957,-0.00006228,0
 .00005801,-0.00022604,-0.00034448,-0.00008984,-0.00426216,-0.00584383,
 0.00649449,0.02507304,-0.18718711,-0.08396447,-0.21594449,-0.00938321,
 -0.00114628,-0.00443333,0.00244225,0.00122648,-0.00057885,-0.00080494,
 0.00017007,0.00037799,0.00050395,-0.00009381,-0.00012256,-0.00077824,0
 .00088518,0.00130284,-0.00104330,-0.00285487,-0.00076975,0.01545393,0.
 00864740,0.01689633,-0.00021155,0.00031458,-0.00002626,0.00009898,0.00
 009351,0.00005509,-0.00005493,-0.00000623,-0.00018930,-0.00002504,-0.0
 0013445,0.00000394,-0.00038039,-0.00004518,-0.00067287,0.18136959,-0.0
 7167771,-0.04925522,-0.05178225,-0.01448118,-0.00306686,-0.01841424,-0
 .00065572,0.00028232,-0.00044693,0.00002480,-0.00051158,0.00160720,0.0
 0003520,0.00007122,-0.00029302,-0.00024322,-0.00006154,0.00107290,0.00
 024512,-0.00176859,-0.00105162,0.00886801,0.00326208,0.00386611,0.0007
 9499,-0.00071163,-0.00110580,0.00002522,0.00000151,0.00014057,0.000070
 27,-0.00001742,-0.00023725,-0.00001966,-0.00014490,0.00018453,0.000105
 80,0.00017807,-0.00035445,0.07690806,0.05174254,-0.18280033,-0.0558258
 4,-0.33005233,-0.00267455,-0.00996100,0.01038849,0.00165282,0.00152239
 ,-0.00048478,-0.00037246,0.00040851,-0.00001045,0.00025910,0.00016573,
 0.00009826,0.00060382,0.00015583,-0.00045274,0.00097268,0.00234127,-0.
 00026514,-0.02195899,-0.00562255,-0.01853508,0.00004142,-0.00036413,0.
 00021948,0.00016990,0.00018400,0.00004886,0.00000603,-0.00000647,-0.00
 003243,0.00009096,0.00022595,0.00002896,-0.00009162,-0.00003793,0.0003
 8619,0.20410122,0.06681423,0.33866271\\0.00003410,0.00001487,-0.000008
 17,-0.00002095,0.00002509,0.00001640,-0.00002781,-0.00005089,0.0000008
 7,0.00002144,0.00001771,-0.00001210,-0.00000978,0.00000917,-0.00000288
 ,0.00001259,0.00001517,0.00002696,-0.00000058,-0.00003814,-0.00002750,
 -0.00000524,-0.00000384,-0.00000494,0.00000423,0.00000941,0.00000549,-
 0.00000705,0.00000053,0.00000070,-0.00000402,0.00000468,-0.00000113,0.
 00000282,0.00000552,0.00000199,0.00000663,0.00000866,-0.00000498,-0.00
 000638,-0.00001794,0.00000931\\\@


 STEINBACH'S GUIDELINES FOR SYSTEMS PROGRAMMING:
 NEVER TEST FOR AN ERROR CONDITION YOU DON'T KNOW HOW
 TO HANDLE.
 Job cpu time:       0 days  0 hours 19 minutes 45.9 seconds.
 Elapsed time:       0 days  0 hours  0 minutes 50.3 seconds.
 File lengths (MBytes):  RWF=     61 Int=      0 D2E=      0 Chk=      5 Scr=      1
 Normal termination of Gaussian 16 at Sun Oct 13 21:39:54 2019.
real 157.38
user 3570.63
sys 17.72
Machine:
brown-a419
brown-a419
brown-a419
brown-a419
brown-a419
brown-a419
brown-a419
brown-a419
brown-a419
brown-a419
brown-a419
brown-a419
brown-a419
brown-a419
brown-a419
brown-a419
brown-a419
brown-a419
brown-a419
brown-a419
brown-a419
brown-a419
brown-a419
brown-a419
