 Entering Gaussian System, Link 0=/apps/cent7/gaussian/g16-A.03/g16-haswell/g16/g16
 Initial command:
 /apps/cent7/gaussian/g16-A.03/g16-haswell/g16/l1.exe "/scratch/brown/finej/gaussian/Gau-95194.inp" -scrdir="/scratch/brown/finej/gaussian/"
 Entering Link 1 = /apps/cent7/gaussian/g16-A.03/g16-haswell/g16/l1.exe PID=     95195.
  
 Copyright (c) 1988,1990,1992,1993,1995,1998,2003,2009,2016,
            Gaussian, Inc.  All Rights Reserved.
  
 This is part of the Gaussian(R) 16 program.  It is based on
 the Gaussian(R) 09 system (copyright 2009, Gaussian, Inc.),
 the Gaussian(R) 03 system (copyright 2003, Gaussian, Inc.),
 the Gaussian(R) 98 system (copyright 1998, Gaussian, Inc.),
 the Gaussian(R) 94 system (copyright 1995, Gaussian, Inc.),
 the Gaussian 92(TM) system (copyright 1992, Gaussian, Inc.),
 the Gaussian 90(TM) system (copyright 1990, Gaussian, Inc.),
 the Gaussian 88(TM) system (copyright 1988, Gaussian, Inc.),
 the Gaussian 86(TM) system (copyright 1986, Carnegie Mellon
 University), and the Gaussian 82(TM) system (copyright 1983,
 Carnegie Mellon University). Gaussian is a federally registered
 trademark of Gaussian, Inc.
  
 This software contains proprietary and confidential information,
 including trade secrets, belonging to Gaussian, Inc.
  
 This software is provided under written license and may be
 used, copied, transmitted, or stored only in accord with that
 written license.
  
 The following legend is applicable only to US Government
 contracts under FAR:
  
                    RESTRICTED RIGHTS LEGEND
  
 Use, reproduction and disclosure by the US Government is
 subject to restrictions as set forth in subparagraphs (a)
 and (c) of the Commercial Computer Software - Restricted
 Rights clause in FAR 52.227-19.
  
 Gaussian, Inc.
 340 Quinnipiac St., Bldg. 40, Wallingford CT 06492
  
  
 ---------------------------------------------------------------
 Warning -- This program may not be used in any manner that
 competes with the business of Gaussian, Inc. or will provide
 assistance to any competitor of Gaussian, Inc.  The licensee
 of this program is prohibited from giving any competitor of
 Gaussian, Inc. access to this program.  By using this program,
 the user acknowledges that Gaussian, Inc. is engaged in the
 business of creating and licensing software in the field of
 computational chemistry and represents and warrants to the
 licensee that it is not a competitor of Gaussian, Inc. and that
 it will not use this program in any manner prohibited above.
 ---------------------------------------------------------------
  

 Cite this work as:
 Gaussian 16, Revision A.03,
 M. J. Frisch, G. W. Trucks, H. B. Schlegel, G. E. Scuseria, 
 M. A. Robb, J. R. Cheeseman, G. Scalmani, V. Barone, 
 G. A. Petersson, H. Nakatsuji, X. Li, M. Caricato, A. V. Marenich, 
 J. Bloino, B. G. Janesko, R. Gomperts, B. Mennucci, H. P. Hratchian, 
 J. V. Ortiz, A. F. Izmaylov, J. L. Sonnenberg, D. Williams-Young, 
 F. Ding, F. Lipparini, F. Egidi, J. Goings, B. Peng, A. Petrone, 
 T. Henderson, D. Ranasinghe, V. G. Zakrzewski, J. Gao, N. Rega, 
 G. Zheng, W. Liang, M. Hada, M. Ehara, K. Toyota, R. Fukuda, 
 J. Hasegawa, M. Ishida, T. Nakajima, Y. Honda, O. Kitao, H. Nakai, 
 T. Vreven, K. Throssell, J. A. Montgomery, Jr., J. E. Peralta, 
 F. Ogliaro, M. J. Bearpark, J. J. Heyd, E. N. Brothers, K. N. Kudin, 
 V. N. Staroverov, T. A. Keith, R. Kobayashi, J. Normand, 
 K. Raghavachari, A. P. Rendell, J. C. Burant, S. S. Iyengar, 
 J. Tomasi, M. Cossi, J. M. Millam, M. Klene, C. Adamo, R. Cammi, 
 J. W. Ochterski, R. L. Martin, K. Morokuma, O. Farkas, 
 J. B. Foresman, and D. J. Fox, Gaussian, Inc., Wallingford CT, 2016.
 
 ******************************************
 Gaussian 16:  ES64L-G16RevA.03 25-Dec-2016
                13-Oct-2019 
 ******************************************
 %chk=22.chk
 %nprocshared=24
 Will use up to   24 processors via shared memory.
 %mem=80GB
 -------------------------------------------------------------------
 #P opt freq m062x/6-311++g(d,p) geom=connectivity temperature=0.001
 -------------------------------------------------------------------
 1/18=20,19=15,26=3,38=1,57=2,112=-1000/1,3;
 2/9=110,12=2,17=6,18=5,40=1/2;
 3/5=4,6=6,7=1111,11=2,25=1,30=1,71=1,74=-55/1,2,3;
 4//1;
 5/5=2,38=5/2;
 6/7=2,8=2,9=2,10=2,28=1/1;
 7//1,2,3,16;
 1/18=20,19=15,26=3/3(2);
 2/9=110/2;
 99//99;
 2/9=110/2;
 3/5=4,6=6,7=1111,11=2,25=1,30=1,71=1,74=-55/1,2,3;
 4/5=5,16=3,69=1/1;
 5/5=2,38=5/2;
 7//1,2,3,16;
 1/18=20,19=15,26=3/3(-5);
 2/9=110/2;
 6/7=2,8=2,9=2,10=2,19=2,28=1/1;
 99/9=1/99;
 Leave Link    1 at Sun Oct 13 21:38:19 2019, MaxMem= 10737418240 cpu:               1.3 elap:               0.1
 (Enter /apps/cent7/gaussian/g16-A.03/g16-haswell/g16/l101.exe)
 -------------------
 Title Card Required
 -------------------
 Symbolic Z-matrix:
 Charge =  0 Multiplicity = 1
 O                    -0.0951    2.9154    1.3701 
 S                    -0.3951    1.7832    0.2792 
 C                     0.8845    0.4973    0.467 
 C                     1.1733    0.1618   -1.0101 
 C                     1.2142    1.485    -1.8222 
 C                     0.0923    2.4454   -1.3523 
 H                     1.8051    0.9215    0.8677 
 H                     0.4643   -0.407     0.9072 
 H                     2.1748   -0.2668   -1.0462 
 H                     0.3215   -0.4117   -1.3757 
 H                     2.1595    1.9703   -1.5793 
 H                     0.9856    1.2234   -2.8554 
 H                     0.5721    3.4176   -1.2387 
 H                    -0.7176    2.318    -2.0705 
 
 ITRead=  0  0  0  0  0  0  0  0  0  0  0  0  0  0
 MicOpt= -1 -1 -1 -1 -1 -1 -1 -1 -1 -1 -1 -1 -1 -1
 NAtoms=     14 NQM=       14 NQMF=       0 NMMI=      0 NMMIF=      0
                NMic=       0 NMicF=      0.
                    Isotopes and Nuclear Properties:
 (Nuclear quadrupole moments (NQMom) in fm**2, nuclear magnetic moments (NMagM)
  in nuclear magnetons)

  Atom         1           2           3           4           5           6           7           8           9          10
 IAtWgt=          16          32          12          12          12          12           1           1           1           1
 AtmWgt=  15.9949146  31.9720718  12.0000000  12.0000000  12.0000000  12.0000000   1.0078250   1.0078250   1.0078250   1.0078250
 NucSpn=           0           0           0           0           0           0           1           1           1           1
 AtZEff=  -0.0000000  -0.0000000  -0.0000000  -0.0000000  -0.0000000  -0.0000000  -0.0000000  -0.0000000  -0.0000000  -0.0000000
 NQMom=    0.0000000   0.0000000   0.0000000   0.0000000   0.0000000   0.0000000   0.0000000   0.0000000   0.0000000   0.0000000
 NMagM=    0.0000000   0.0000000   0.0000000   0.0000000   0.0000000   0.0000000   2.7928460   2.7928460   2.7928460   2.7928460
 AtZNuc=   8.0000000  16.0000000   6.0000000   6.0000000   6.0000000   6.0000000   1.0000000   1.0000000   1.0000000   1.0000000

  Atom        11          12          13          14
 IAtWgt=           1           1           1           1
 AtmWgt=   1.0078250   1.0078250   1.0078250   1.0078250
 NucSpn=           1           1           1           1
 AtZEff=  -0.0000000  -0.0000000  -0.0000000  -0.0000000
 NQMom=    0.0000000   0.0000000   0.0000000   0.0000000
 NMagM=    2.7928460   2.7928460   2.7928460   2.7928460
 AtZNuc=   1.0000000   1.0000000   1.0000000   1.0000000
 Leave Link  101 at Sun Oct 13 21:38:20 2019, MaxMem= 10737418240 cpu:               8.2 elap:               0.4
 (Enter /apps/cent7/gaussian/g16-A.03/g16-haswell/g16/l103.exe)

 GradGradGradGradGradGradGradGradGradGradGradGradGradGradGradGradGradGrad
 Berny optimization.
 Initialization pass.
                           ----------------------------
                           !    Initial Parameters    !
                           ! (Angstroms and Degrees)  !
 --------------------------                            --------------------------
 ! Name  Definition              Value          Derivative Info.                !
 --------------------------------------------------------------------------------
 ! R1    R(1,2)                  1.6006         estimate D2E/DX2                !
 ! R2    R(2,3)                  1.8238         estimate D2E/DX2                !
 ! R3    R(2,6)                  1.827          estimate D2E/DX2                !
 ! R4    R(3,4)                  1.542          estimate D2E/DX2                !
 ! R5    R(3,7)                  1.09           estimate D2E/DX2                !
 ! R6    R(3,8)                  1.09           estimate D2E/DX2                !
 ! R7    R(4,5)                  1.5531         estimate D2E/DX2                !
 ! R8    R(4,9)                  1.09           estimate D2E/DX2                !
 ! R9    R(4,10)                 1.09           estimate D2E/DX2                !
 ! R10   R(5,6)                  1.5498         estimate D2E/DX2                !
 ! R11   R(5,11)                 1.09           estimate D2E/DX2                !
 ! R12   R(5,12)                 1.09           estimate D2E/DX2                !
 ! R13   R(6,13)                 1.0901         estimate D2E/DX2                !
 ! R14   R(6,14)                 1.0899         estimate D2E/DX2                !
 ! A1    A(1,2,3)              107.2807         estimate D2E/DX2                !
 ! A2    A(1,2,6)              107.5923         estimate D2E/DX2                !
 ! A3    A(3,2,6)               99.2264         estimate D2E/DX2                !
 ! A4    A(2,3,4)              100.7295         estimate D2E/DX2                !
 ! A5    A(2,3,7)              110.8578         estimate D2E/DX2                !
 ! A6    A(2,3,8)              110.8584         estimate D2E/DX2                !
 ! A7    A(4,3,7)              106.1793         estimate D2E/DX2                !
 ! A8    A(4,3,8)              106.1735         estimate D2E/DX2                !
 ! A9    A(7,3,8)              120.0013         estimate D2E/DX2                !
 ! A10   A(3,4,5)              108.6902         estimate D2E/DX2                !
 ! A11   A(3,4,9)              106.8203         estimate D2E/DX2                !
 ! A12   A(3,4,10)             106.8224         estimate D2E/DX2                !
 ! A13   A(5,4,9)              107.0681         estimate D2E/DX2                !
 ! A14   A(5,4,10)             107.0652         estimate D2E/DX2                !
 ! A15   A(9,4,10)             120.0025         estimate D2E/DX2                !
 ! A16   A(4,5,6)              110.5098         estimate D2E/DX2                !
 ! A17   A(4,5,11)             106.5973         estimate D2E/DX2                !
 ! A18   A(4,5,12)             106.597          estimate D2E/DX2                !
 ! A19   A(6,5,11)             106.5188         estimate D2E/DX2                !
 ! A20   A(6,5,12)             106.5169         estimate D2E/DX2                !
 ! A21   A(11,5,12)            119.9966         estimate D2E/DX2                !
 ! A22   A(2,6,5)              103.8435         estimate D2E/DX2                !
 ! A23   A(2,6,13)             110.3418         estimate D2E/DX2                !
 ! A24   A(2,6,14)             110.3545         estimate D2E/DX2                !
 ! A25   A(5,6,13)             105.4058         estimate D2E/DX2                !
 ! A26   A(5,6,14)             105.4077         estimate D2E/DX2                !
 ! A27   A(13,6,14)            119.9983         estimate D2E/DX2                !
 ! D1    D(1,2,3,4)           -139.7804         estimate D2E/DX2                !
 ! D2    D(1,2,3,7)            -27.7136         estimate D2E/DX2                !
 ! D3    D(1,2,3,8)            108.159          estimate D2E/DX2                !
 ! D4    D(6,2,3,4)            -27.99           estimate D2E/DX2                !
 ! D5    D(6,2,3,7)             84.0768         estimate D2E/DX2                !
 ! D6    D(6,2,3,8)           -140.0506         estimate D2E/DX2                !
 ! D7    D(1,2,6,5)            118.1742         estimate D2E/DX2                !
 ! D8    D(1,2,6,13)             5.6447         estimate D2E/DX2                !
 ! D9    D(1,2,6,14)          -129.2887         estimate D2E/DX2                !
 ! D10   D(3,2,6,5)              6.6302         estimate D2E/DX2                !
 ! D11   D(3,2,6,13)          -105.8993         estimate D2E/DX2                !
 ! D12   D(3,2,6,14)           119.1672         estimate D2E/DX2                !
 ! D13   D(2,3,4,5)             41.6222         estimate D2E/DX2                !
 ! D14   D(2,3,4,9)            156.8338         estimate D2E/DX2                !
 ! D15   D(2,3,4,10)           -73.5872         estimate D2E/DX2                !
 ! D16   D(7,3,4,5)            -73.9918         estimate D2E/DX2                !
 ! D17   D(7,3,4,9)             41.2199         estimate D2E/DX2                !
 ! D18   D(7,3,4,10)           170.7988         estimate D2E/DX2                !
 ! D19   D(8,3,4,5)            157.2348         estimate D2E/DX2                !
 ! D20   D(8,3,4,9)            -87.5535         estimate D2E/DX2                !
 ! D21   D(8,3,4,10)            42.0255         estimate D2E/DX2                !
 ! D22   D(3,4,5,6)            -40.6512         estimate D2E/DX2                !
 ! D23   D(3,4,5,11)            74.7066         estimate D2E/DX2                !
 ! D24   D(3,4,5,12)          -156.0066         estimate D2E/DX2                !
 ! D25   D(9,4,5,6)           -155.7019         estimate D2E/DX2                !
 ! D26   D(9,4,5,11)           -40.3441         estimate D2E/DX2                !
 ! D27   D(9,4,5,12)            88.9427         estimate D2E/DX2                !
 ! D28   D(10,4,5,6)            74.4005         estimate D2E/DX2                !
 ! D29   D(10,4,5,11)         -170.2417         estimate D2E/DX2                !
 ! D30   D(10,4,5,12)          -40.9549         estimate D2E/DX2                !
 ! D31   D(4,5,6,2)             17.646          estimate D2E/DX2                !
 ! D32   D(4,5,6,13)           133.7031         estimate D2E/DX2                !
 ! D33   D(4,5,6,14)           -98.4261         estimate D2E/DX2                !
 ! D34   D(11,5,6,2)           -97.761          estimate D2E/DX2                !
 ! D35   D(11,5,6,13)           18.2962         estimate D2E/DX2                !
 ! D36   D(11,5,6,14)          146.1669         estimate D2E/DX2                !
 ! D37   D(12,5,6,2)           133.0516         estimate D2E/DX2                !
 ! D38   D(12,5,6,13)         -110.8912         estimate D2E/DX2                !
 ! D39   D(12,5,6,14)           16.9795         estimate D2E/DX2                !
 --------------------------------------------------------------------------------
 Trust Radius=3.00D-01 FncErr=1.00D-07 GrdErr=1.00D-06 EigMax=2.50D+02 EigMin=1.00D-04
 Number of steps in this run=     90 maximum allowed number of steps=    100.
 GradGradGradGradGradGradGradGradGradGradGradGradGradGradGradGradGradGrad

 Leave Link  103 at Sun Oct 13 21:38:20 2019, MaxMem= 10737418240 cpu:               0.9 elap:               0.2
 (Enter /apps/cent7/gaussian/g16-A.03/g16-haswell/g16/l202.exe)
                          Input orientation:                          
 ---------------------------------------------------------------------
 Center     Atomic      Atomic             Coordinates (Angstroms)
 Number     Number       Type             X           Y           Z
 ---------------------------------------------------------------------
      1          8           0       -0.095100    2.915400    1.370100
      2         16           0       -0.395100    1.783200    0.279200
      3          6           0        0.884500    0.497300    0.467000
      4          6           0        1.173300    0.161800   -1.010100
      5          6           0        1.214200    1.485000   -1.822200
      6          6           0        0.092300    2.445400   -1.352300
      7          1           0        1.805100    0.921500    0.867700
      8          1           0        0.464300   -0.407000    0.907200
      9          1           0        2.174800   -0.266800   -1.046200
     10          1           0        0.321500   -0.411700   -1.375700
     11          1           0        2.159500    1.970300   -1.579300
     12          1           0        0.985600    1.223400   -2.855400
     13          1           0        0.572100    3.417600   -1.238700
     14          1           0       -0.717600    2.318000   -2.070500
 ---------------------------------------------------------------------
                    Distance matrix (angstroms):
                    1          2          3          4          5
     1  O    0.000000
     2  S    1.600606   0.000000
     3  C    2.760872   1.823783   0.000000
     4  C    3.854414   2.598290   1.542008   0.000000
     5  C    3.735116   2.663579   2.514894   1.553074   0.000000
     6  C    2.769022   1.826981   2.780742   2.549606   1.549785
     7  H    2.799786   2.435106   1.089959   2.121897   2.811095
     8  H    3.400816   2.435144   1.090001   2.121851   3.404650
     9  H    4.595362   3.544513   2.130375   1.089956   2.143299
    10  H    4.333886   2.840739   2.130444   1.090013   2.143303
    11  H    3.830848   3.164650   2.825367   2.137113   1.090004
    12  H    4.678208   3.470652   3.402320   2.137138   1.090043
    13  H    2.739197   2.431205   3.396345   3.318725   2.118421
    14  H    3.547129   2.431277   3.510068   3.057638   2.118347
                    6          7          8          9         10
     6  C    0.000000
     7  H    3.191294   0.000000
     8  H    3.657856   1.887913   0.000000
     9  H    3.433152   2.282925   2.600238   0.000000
    10  H    2.866374   3.001889   2.287367   1.887932   0.000000
    11  H    2.133205   2.685775   3.835093   2.299793   3.015563
    12  H    2.133208   3.824160   4.133657   2.628326   2.303062
    13  H    1.090085   3.491092   4.386807   4.022500   3.839936
    14  H    1.089945   4.116703   4.205854   4.012027   3.002289
                   11         12         13         14
    11  H    0.000000
    12  H    1.887944   0.000000
    13  H    2.174977   2.756667   0.000000
    14  H    2.939367   2.171430   1.887945   0.000000
 Stoichiometry    C4H8OS
 Framework group  C1[X(C4H8OS)]
 Deg. of freedom    36
 Full point group                 C1      NOp   1
 Largest Abelian subgroup         C1      NOp   1
 Largest concise Abelian subgroup C1      NOp   1
                         Standard orientation:                         
 ---------------------------------------------------------------------
 Center     Atomic      Atomic             Coordinates (Angstroms)
 Number     Number       Type             X           Y           Z
 ---------------------------------------------------------------------
      1          8           0       -2.101494    0.022103    0.547184
      2         16           0       -0.854209   -0.049455   -0.453366
      3          6           0        0.246957   -1.373367    0.147363
      4          6           0        1.627096   -0.725007   -0.082061
      5          6           0        1.552892    0.766961    0.342867
      6          6           0        0.211085    1.395018   -0.112032
      7          1           0        0.147180   -1.501936    1.225104
      8          1           0        0.205858   -2.240995   -0.511147
      9          1           0        2.323428   -1.216817    0.597091
     10          1           0        1.809329   -0.742885   -1.156584
     11          1           0        1.547634    0.780386    1.432775
     12          1           0        2.339496    1.286160   -0.204747
     13          1           0       -0.160176    1.943510    0.753766
     14          1           0        0.438359    1.925412   -1.036699
 ---------------------------------------------------------------------
 Rotational constants (GHZ):           5.0973552           2.6227095           2.0147382
 Leave Link  202 at Sun Oct 13 21:38:20 2019, MaxMem= 10737418240 cpu:               0.3 elap:               0.0
 (Enter /apps/cent7/gaussian/g16-A.03/g16-haswell/g16/l301.exe)
 Standard basis: 6-311++G(d,p) (5D, 7F)
 Ernie: Thresh=  0.10000D-02 Tol=  0.10000D-05 Strict=F.
 There are   202 symmetry adapted cartesian basis functions of A   symmetry.
 There are   196 symmetry adapted basis functions of A   symmetry.
   196 basis functions,   302 primitive gaussians,   202 cartesian basis functions
    28 alpha electrons       28 beta electrons
       nuclear repulsion energy       319.3838012813 Hartrees.
 IExCor= 4336 DFT=T Ex+Corr=M062X ExCW=0 ScaHFX=  0.540000
 ScaDFX=  1.000000  1.000000  1.000000  1.000000 ScalE2=  1.000000  1.000000
 IRadAn=      5 IRanWt=     -1 IRanGd=            0 ICorTp=0 IEmpDi=  4
 NAtoms=   14 NActive=   14 NUniq=   14 SFac= 1.00D+00 NAtFMM=   60 NAOKFM=F Big=F
 Integral buffers will be    131072 words long.
 Raffenetti 2 integral format.
 Two-electron integral symmetry is turned on.
 Leave Link  301 at Sun Oct 13 21:38:20 2019, MaxMem= 10737418240 cpu:               1.3 elap:               0.1
 (Enter /apps/cent7/gaussian/g16-A.03/g16-haswell/g16/l302.exe)
 NPDir=0 NMtPBC=     1 NCelOv=     1 NCel=       1 NClECP=     1 NCelD=      1
         NCelK=      1 NCelE2=     1 NClLst=     1 CellRange=     0.0.
 One-electron integrals computed using PRISM.
 One-electron integral symmetry used in STVInt
 NBasis=   196 RedAO= T EigKep=  1.73D-05  NBF=   196
 NBsUse=   196 1.00D-06 EigRej= -1.00D+00 NBFU=   196
 Precomputing XC quadrature grid using
 IXCGrd= 4 IRadAn=           5 IRanWt=          -1 IRanGd=           0 AccXCQ= 0.00D+00.
 Generated NRdTot=       0 NPtTot=           0 NUsed=           0 NTot=          32
 NSgBfM=   202   202   202   202   202 MxSgAt=    14 MxSgA2=    14.
 Leave Link  302 at Sun Oct 13 21:38:20 2019, MaxMem= 10737418240 cpu:               3.6 elap:               0.2
 (Enter /apps/cent7/gaussian/g16-A.03/g16-haswell/g16/l303.exe)
 DipDrv:  MaxL=1.
 Leave Link  303 at Sun Oct 13 21:38:20 2019, MaxMem= 10737418240 cpu:               1.0 elap:               0.1
 (Enter /apps/cent7/gaussian/g16-A.03/g16-haswell/g16/l401.exe)
 ExpMin= 3.60D-02 ExpMax= 9.34D+04 ExpMxC= 3.17D+03 IAcc=3 IRadAn=         5 AccDes= 0.00D+00
 Harris functional with IExCor= 1009 and IRadAn=       5 diagonalized for initial guess.
 HarFok:  IExCor= 1009 AccDes= 0.00D+00 IRadAn=         5 IDoV= 1 UseB2=F ITyADJ=14
 ICtDFT=  3500011 ScaDFX=  1.000000  1.000000  1.000000  1.000000
 FoFCou: FMM=F IPFlag=           0 FMFlag=      100000 FMFlg1=           0
         NFxFlg=           0 DoJE=T BraDBF=F KetDBF=T FulRan=T
         wScrn=  0.000000 ICntrl=       500 IOpCl=  0 I1Cent=   200000004 NGrid=           0
         NMat0=    1 NMatS0=      1 NMatT0=    0 NMatD0=    1 NMtDS0=    0 NMtDT0=    0
 Petite list used in FoFCou.
 Harris En= -630.337838879011    
 JPrj=0 DoOrth=F DoCkMO=F.
 Leave Link  401 at Sun Oct 13 21:38:21 2019, MaxMem= 10737418240 cpu:               7.3 elap:               0.3
 (Enter /apps/cent7/gaussian/g16-A.03/g16-haswell/g16/l502.exe)
 Integral symmetry usage will be decided dynamically.
 Closed shell SCF:
 Using DIIS extrapolation, IDIIS=  1040.
 NGot= 10737418240 LenX= 10737329687 LenY= 10737288442
 Requested convergence on RMS density matrix=1.00D-08 within 128 cycles.
 Requested convergence on MAX density matrix=1.00D-06.
 Requested convergence on             energy=1.00D-06.
 No special actions if energy rises.
 Fock matrices will be formed incrementally for  20 cycles.

 Cycle   1  Pass 1  IDiag  1:
 FoFJK:  IHMeth= 1 ICntrl=       0 DoSepK=F KAlg= 0 I1Cent=           0 FoldK=F
 IRaf= 990000000 NMat=       1 IRICut=       1 DoRegI=T DoRafI=F ISym2E= 0 IDoP0=0 IntGTp=1.
 FoFCou: FMM=F IPFlag=           0 FMFlag=      100000 FMFlg1=           0
         NFxFlg=           0 DoJE=F BraDBF=F KetDBF=F FulRan=T
         wScrn=  0.000000 ICntrl=         0 IOpCl=  0 I1Cent=           0 NGrid=           0
         NMat0=    1 NMatS0=      1 NMatT0=    0 NMatD0=    1 NMtDS0=    0 NMtDT0=    0
 Symmetry not used in FoFCou.
 E= -630.219986595165    
 DIIS: error= 4.21D-02 at cycle   1 NSaved=   1.
 NSaved= 1 IEnMin= 1 EnMin= -630.219986595165     IErMin= 1 ErrMin= 4.21D-02
 ErrMax= 4.21D-02  0.00D+00 EMaxC= 1.00D-01 BMatC= 4.19D-01 BMatP= 4.19D-01
 IDIUse=3 WtCom= 5.79D-01 WtEn= 4.21D-01
 Coeff-Com:  0.100D+01
 Coeff-En:   0.100D+01
 Coeff:      0.100D+01
 Gap=     0.294 Goal=   None    Shift=    0.000
 GapD=    0.294 DampG=1.000 DampE=0.500 DampFc=0.5000 IDamp=-1.
 Damping current iteration by 5.00D-01
 RMSDP=5.98D-02 MaxDP=2.73D+00              OVMax= 2.68D-01

 Cycle   2  Pass 1  IDiag  1:
 RMSU=  2.82D-02    CP:  1.54D+00
 E= -630.323965673742     Delta-E=       -0.103979078577 Rises=F Damp=T
 DIIS: error= 1.37D-02 at cycle   2 NSaved=   2.
 NSaved= 2 IEnMin= 2 EnMin= -630.323965673742     IErMin= 2 ErrMin= 1.37D-02
 ErrMax= 1.37D-02  0.00D+00 EMaxC= 1.00D-01 BMatC= 4.37D-02 BMatP= 4.19D-01
 IDIUse=3 WtCom= 8.63D-01 WtEn= 1.37D-01
 Coeff-Com:  0.124D+00 0.876D+00
 Coeff-En:   0.269D+00 0.731D+00
 Coeff:      0.144D+00 0.856D+00
 Gap=     0.309 Goal=   None    Shift=    0.000
 RMSDP=2.49D-02 MaxDP=1.25D+00 DE=-1.04D-01 OVMax= 1.75D-01

 Cycle   3  Pass 1  IDiag  1:
 RMSU=  4.26D-03    CP:  1.06D+00  1.90D-01
 E= -630.495884101474     Delta-E=       -0.171918427731 Rises=F Damp=F
 DIIS: error= 1.82D-02 at cycle   3 NSaved=   3.
 NSaved= 3 IEnMin= 3 EnMin= -630.495884101474     IErMin= 2 ErrMin= 1.37D-02
 ErrMax= 1.82D-02  0.00D+00 EMaxC= 1.00D-01 BMatC= 3.76D-02 BMatP= 4.37D-02
 IDIUse=3 WtCom= 8.18D-01 WtEn= 1.82D-01
 Coeff-Com: -0.816D-02 0.479D+00 0.529D+00
 Coeff-En:   0.000D+00 0.000D+00 0.100D+01
 Coeff:     -0.667D-02 0.392D+00 0.615D+00
 Gap=     0.265 Goal=   None    Shift=    0.000
 RMSDP=6.29D-03 MaxDP=2.74D-01 DE=-1.72D-01 OVMax= 6.85D-02

 Cycle   4  Pass 1  IDiag  1:
 RMSU=  1.67D-03    CP:  1.18D+00  3.90D-01  9.99D-01
 E= -630.521167143320     Delta-E=       -0.025283041847 Rises=F Damp=F
 DIIS: error= 6.21D-03 at cycle   4 NSaved=   4.
 NSaved= 4 IEnMin= 4 EnMin= -630.521167143320     IErMin= 4 ErrMin= 6.21D-03
 ErrMax= 6.21D-03  0.00D+00 EMaxC= 1.00D-01 BMatC= 7.20D-03 BMatP= 3.76D-02
 IDIUse=3 WtCom= 9.38D-01 WtEn= 6.21D-02
 Coeff-Com: -0.116D-01 0.509D-01 0.322D+00 0.639D+00
 Coeff-En:   0.000D+00 0.000D+00 0.172D+00 0.828D+00
 Coeff:     -0.108D-01 0.477D-01 0.312D+00 0.651D+00
 Gap=     0.268 Goal=   None    Shift=    0.000
 RMSDP=2.48D-03 MaxDP=1.10D-01 DE=-2.53D-02 OVMax= 2.41D-02

 Cycle   5  Pass 1  IDiag  1:
 RMSU=  4.08D-04    CP:  1.12D+00  3.12D-01  1.02D+00  7.02D-01
 E= -630.527235062511     Delta-E=       -0.006067919191 Rises=F Damp=F
 DIIS: error= 7.36D-04 at cycle   5 NSaved=   5.
 NSaved= 5 IEnMin= 5 EnMin= -630.527235062511     IErMin= 5 ErrMin= 7.36D-04
 ErrMax= 7.36D-04  0.00D+00 EMaxC= 1.00D-01 BMatC= 7.01D-05 BMatP= 7.20D-03
 IDIUse=3 WtCom= 9.93D-01 WtEn= 7.36D-03
 Coeff-Com: -0.554D-03-0.812D-02 0.347D-01 0.150D+00 0.824D+00
 Coeff-En:   0.000D+00 0.000D+00 0.000D+00 0.000D+00 0.100D+01
 Coeff:     -0.550D-03-0.806D-02 0.345D-01 0.149D+00 0.825D+00
 Gap=     0.266 Goal=   None    Shift=    0.000
 RMSDP=1.78D-04 MaxDP=6.36D-03 DE=-6.07D-03 OVMax= 3.45D-03

 Cycle   6  Pass 1  IDiag  1:
 RMSU=  1.15D-04    CP:  1.12D+00  3.09D-01  1.03D+00  7.32D-01  8.19D-01
 E= -630.527314990253     Delta-E=       -0.000079927742 Rises=F Damp=F
 DIIS: error= 8.04D-05 at cycle   6 NSaved=   6.
 NSaved= 6 IEnMin= 6 EnMin= -630.527314990253     IErMin= 6 ErrMin= 8.04D-05
 ErrMax= 8.04D-05  0.00D+00 EMaxC= 1.00D-01 BMatC= 2.92D-06 BMatP= 7.01D-05
 IDIUse=1 WtCom= 1.00D+00 WtEn= 0.00D+00
 Coeff-Com:  0.136D-02-0.476D-02-0.174D-01-0.266D-01 0.945D-01 0.953D+00
 Coeff:      0.136D-02-0.476D-02-0.174D-01-0.266D-01 0.945D-01 0.953D+00
 Gap=     0.266 Goal=   None    Shift=    0.000
 RMSDP=1.35D-04 MaxDP=5.71D-03 DE=-7.99D-05 OVMax= 1.12D-03

 Cycle   7  Pass 1  IDiag  1:
 RMSU=  2.47D-05    CP:  1.12D+00  3.05D-01  1.02D+00  7.28D-01  8.92D-01
                    CP:  1.15D+00
 E= -630.527320747684     Delta-E=       -0.000005757430 Rises=F Damp=F
 DIIS: error= 3.73D-05 at cycle   7 NSaved=   7.
 NSaved= 7 IEnMin= 7 EnMin= -630.527320747684     IErMin= 7 ErrMin= 3.73D-05
 ErrMax= 3.73D-05  0.00D+00 EMaxC= 1.00D-01 BMatC= 2.71D-07 BMatP= 2.92D-06
 IDIUse=1 WtCom= 1.00D+00 WtEn= 0.00D+00
 Coeff-Com:  0.300D-03-0.460D-03-0.657D-02-0.163D-01-0.374D-01 0.189D+00
 Coeff-Com:  0.871D+00
 Coeff:      0.300D-03-0.460D-03-0.657D-02-0.163D-01-0.374D-01 0.189D+00
 Coeff:      0.871D+00
 Gap=     0.267 Goal=   None    Shift=    0.000
 RMSDP=3.50D-05 MaxDP=1.36D-03 DE=-5.76D-06 OVMax= 4.06D-04

 Cycle   8  Pass 1  IDiag  1:
 RMSU=  6.73D-06    CP:  1.12D+00  3.04D-01  1.02D+00  7.27D-01  8.97D-01
                    CP:  1.23D+00  1.14D+00
 E= -630.527321289130     Delta-E=       -0.000000541447 Rises=F Damp=F
 DIIS: error= 1.53D-05 at cycle   8 NSaved=   8.
 NSaved= 8 IEnMin= 8 EnMin= -630.527321289130     IErMin= 8 ErrMin= 1.53D-05
 ErrMax= 1.53D-05  0.00D+00 EMaxC= 1.00D-01 BMatC= 6.41D-08 BMatP= 2.71D-07
 IDIUse=1 WtCom= 1.00D+00 WtEn= 0.00D+00
 Coeff-Com: -0.179D-04 0.312D-03-0.119D-02-0.385D-02-0.246D-01-0.245D-01
 Coeff-Com:  0.325D+00 0.729D+00
 Coeff:     -0.179D-04 0.312D-03-0.119D-02-0.385D-02-0.246D-01-0.245D-01
 Coeff:      0.325D+00 0.729D+00
 Gap=     0.267 Goal=   None    Shift=    0.000
 RMSDP=9.88D-06 MaxDP=3.74D-04 DE=-5.41D-07 OVMax= 1.06D-04

 Cycle   9  Pass 1  IDiag  1:
 RMSU=  1.54D-06    CP:  1.12D+00  3.03D-01  1.02D+00  7.27D-01  8.98D-01
                    CP:  1.25D+00  1.25D+00  1.10D+00
 E= -630.527321368752     Delta-E=       -0.000000079622 Rises=F Damp=F
 DIIS: error= 4.13D-06 at cycle   9 NSaved=   9.
 NSaved= 9 IEnMin= 9 EnMin= -630.527321368752     IErMin= 9 ErrMin= 4.13D-06
 ErrMax= 4.13D-06  0.00D+00 EMaxC= 1.00D-01 BMatC= 3.38D-09 BMatP= 6.41D-08
 IDIUse=1 WtCom= 1.00D+00 WtEn= 0.00D+00
 Coeff-Com: -0.214D-04 0.864D-04 0.267D-03 0.768D-03-0.227D-02-0.217D-01
 Coeff-Com: -0.143D-01 0.129D+00 0.908D+00
 Coeff:     -0.214D-04 0.864D-04 0.267D-03 0.768D-03-0.227D-02-0.217D-01
 Coeff:     -0.143D-01 0.129D+00 0.908D+00
 Gap=     0.267 Goal=   None    Shift=    0.000
 RMSDP=2.03D-06 MaxDP=7.26D-05 DE=-7.96D-08 OVMax= 3.07D-05

 Cycle  10  Pass 1  IDiag  1:
 RMSU=  6.83D-07    CP:  1.12D+00  3.03D-01  1.02D+00  7.27D-01  8.99D-01
                    CP:  1.26D+00  1.29D+00  1.18D+00  1.09D+00
 E= -630.527321374103     Delta-E=       -0.000000005350 Rises=F Damp=F
 DIIS: error= 1.03D-06 at cycle  10 NSaved=  10.
 NSaved=10 IEnMin=10 EnMin= -630.527321374103     IErMin=10 ErrMin= 1.03D-06
 ErrMax= 1.03D-06  0.00D+00 EMaxC= 1.00D-01 BMatC= 4.21D-10 BMatP= 3.38D-09
 IDIUse=1 WtCom= 1.00D+00 WtEn= 0.00D+00
 Coeff-Com: -0.445D-06-0.153D-05 0.166D-03 0.468D-03 0.631D-03-0.491D-02
 Coeff-Com: -0.253D-01-0.146D-01 0.297D+00 0.746D+00
 Coeff:     -0.445D-06-0.153D-05 0.166D-03 0.468D-03 0.631D-03-0.491D-02
 Coeff:     -0.253D-01-0.146D-01 0.297D+00 0.746D+00
 Gap=     0.267 Goal=   None    Shift=    0.000
 RMSDP=7.11D-07 MaxDP=2.87D-05 DE=-5.35D-09 OVMax= 7.45D-06

 Cycle  11  Pass 1  IDiag  1:
 RMSU=  1.99D-07    CP:  1.12D+00  3.03D-01  1.02D+00  7.26D-01  8.98D-01
                    CP:  1.26D+00  1.29D+00  1.20D+00  1.15D+00  8.80D-01
 E= -630.527321374585     Delta-E=       -0.000000000483 Rises=F Damp=F
 DIIS: error= 2.65D-07 at cycle  11 NSaved=  11.
 NSaved=11 IEnMin=11 EnMin= -630.527321374585     IErMin=11 ErrMin= 2.65D-07
 ErrMax= 2.65D-07  0.00D+00 EMaxC= 1.00D-01 BMatC= 2.70D-11 BMatP= 4.21D-10
 IDIUse=1 WtCom= 1.00D+00 WtEn= 0.00D+00
 Coeff-Com:  0.281D-05-0.812D-05 0.331D-04 0.696D-04 0.356D-03 0.492D-03
 Coeff-Com: -0.650D-02-0.134D-01 0.183D-01 0.185D+00 0.816D+00
 Coeff:      0.281D-05-0.812D-05 0.331D-04 0.696D-04 0.356D-03 0.492D-03
 Coeff:     -0.650D-02-0.134D-01 0.183D-01 0.185D+00 0.816D+00
 Gap=     0.267 Goal=   None    Shift=    0.000
 RMSDP=1.47D-07 MaxDP=6.34D-06 DE=-4.83D-10 OVMax= 2.17D-06

 Cycle  12  Pass 1  IDiag  1:
 RMSU=  4.99D-08    CP:  1.12D+00  3.03D-01  1.02D+00  7.26D-01  8.98D-01
                    CP:  1.26D+00  1.29D+00  1.20D+00  1.15D+00  9.35D-01
                    CP:  1.14D+00
 E= -630.527321374613     Delta-E=       -0.000000000028 Rises=F Damp=F
 DIIS: error= 9.61D-08 at cycle  12 NSaved=  12.
 NSaved=12 IEnMin=12 EnMin= -630.527321374613     IErMin=12 ErrMin= 9.61D-08
 ErrMax= 9.61D-08  0.00D+00 EMaxC= 1.00D-01 BMatC= 3.82D-12 BMatP= 2.70D-11
 IDIUse=1 WtCom= 1.00D+00 WtEn= 0.00D+00
 Coeff-Com:  0.121D-05-0.324D-05-0.562D-06-0.147D-04 0.770D-04 0.707D-03
 Coeff-Com: -0.264D-03-0.398D-02-0.202D-01 0.710D-02 0.342D+00 0.675D+00
 Coeff:      0.121D-05-0.324D-05-0.562D-06-0.147D-04 0.770D-04 0.707D-03
 Coeff:     -0.264D-03-0.398D-02-0.202D-01 0.710D-02 0.342D+00 0.675D+00
 Gap=     0.267 Goal=   None    Shift=    0.000
 RMSDP=3.11D-08 MaxDP=9.55D-07 DE=-2.80D-11 OVMax= 9.22D-07

 Cycle  13  Pass 1  IDiag  1:
 RMSU=  1.88D-08    CP:  1.12D+00  3.03D-01  1.02D+00  7.26D-01  8.98D-01
                    CP:  1.26D+00  1.29D+00  1.20D+00  1.15D+00  9.36D-01
                    CP:  1.23D+00  9.78D-01
 E= -630.527321374615     Delta-E=       -0.000000000002 Rises=F Damp=F
 DIIS: error= 3.93D-08 at cycle  13 NSaved=  13.
 NSaved=13 IEnMin=13 EnMin= -630.527321374615     IErMin=13 ErrMin= 3.93D-08
 ErrMax= 3.93D-08  0.00D+00 EMaxC= 1.00D-01 BMatC= 2.32D-13 BMatP= 3.82D-12
 IDIUse=1 WtCom= 1.00D+00 WtEn= 0.00D+00
 Coeff-Com: -0.192D-06 0.400D-06-0.359D-05-0.863D-05-0.340D-04 0.742D-04
 Coeff-Com:  0.617D-03 0.731D-03-0.434D-02-0.155D-01-0.313D-01 0.122D+00
 Coeff-Com:  0.928D+00
 Coeff:     -0.192D-06 0.400D-06-0.359D-05-0.863D-05-0.340D-04 0.742D-04
 Coeff:      0.617D-03 0.731D-03-0.434D-02-0.155D-01-0.313D-01 0.122D+00
 Coeff:      0.928D+00
 Gap=     0.267 Goal=   None    Shift=    0.000
 RMSDP=2.34D-08 MaxDP=1.23D-06 DE=-2.05D-12 OVMax= 5.20D-07

 Cycle  14  Pass 1  IDiag  1:
 RMSU=  7.05D-09    CP:  1.12D+00  3.03D-01  1.02D+00  7.26D-01  8.98D-01
                    CP:  1.26D+00  1.29D+00  1.20D+00  1.14D+00  9.36D-01
                    CP:  1.29D+00  1.10D+00  1.32D+00
 E= -630.527321374618     Delta-E=       -0.000000000002 Rises=F Damp=F
 DIIS: error= 1.03D-08 at cycle  14 NSaved=  14.
 NSaved=14 IEnMin=14 EnMin= -630.527321374618     IErMin=14 ErrMin= 1.03D-08
 ErrMax= 1.03D-08  0.00D+00 EMaxC= 1.00D-01 BMatC= 3.68D-14 BMatP= 2.32D-13
 IDIUse=1 WtCom= 1.00D+00 WtEn= 0.00D+00
 Coeff-Com: -0.185D-06 0.436D-06-0.102D-05-0.392D-06-0.142D-04-0.357D-04
 Coeff-Com:  0.129D-03 0.418D-03 0.948D-03-0.405D-02-0.454D-01-0.392D-01
 Coeff-Com:  0.245D+00 0.842D+00
 Coeff:     -0.185D-06 0.436D-06-0.102D-05-0.392D-06-0.142D-04-0.357D-04
 Coeff:      0.129D-03 0.418D-03 0.948D-03-0.405D-02-0.454D-01-0.392D-01
 Coeff:      0.245D+00 0.842D+00
 Gap=     0.267 Goal=   None    Shift=    0.000
 RMSDP=8.69D-09 MaxDP=5.45D-07 DE=-2.27D-12 OVMax= 2.24D-07

 SCF Done:  E(RM062X) =  -630.527321375     A.U. after   14 cycles
            NFock= 14  Conv=0.87D-08     -V/T= 2.0023
 KE= 6.290513276986D+02 PE=-2.126872155111D+03 EE= 5.479097047568D+02
 Leave Link  502 at Sun Oct 13 21:38:28 2019, MaxMem= 10737418240 cpu:             175.4 elap:               7.4
 (Enter /apps/cent7/gaussian/g16-A.03/g16-haswell/g16/l601.exe)
 Copying SCF densities to generalized density rwf, IOpCl= 0 IROHF=0.

 **********************************************************************

            Population analysis using the SCF density.

 **********************************************************************

 Orbital symmetries:
       Occupied  (A) (A) (A) (A) (A) (A) (A) (A) (A) (A) (A) (A)
                 (A) (A) (A) (A) (A) (A) (A) (A) (A) (A) (A) (A)
                 (A) (A) (A) (A)
       Virtual   (A) (A) (A) (A) (A) (A) (A) (A) (A) (A) (A) (A)
                 (A) (A) (A) (A) (A) (A) (A) (A) (A) (A) (A) (A)
                 (A) (A) (A) (A) (A) (A) (A) (A) (A) (A) (A) (A)
                 (A) (A) (A) (A) (A) (A) (A) (A) (A) (A) (A) (A)
                 (A) (A) (A) (A) (A) (A) (A) (A) (A) (A) (A) (A)
                 (A) (A) (A) (A) (A) (A) (A) (A) (A) (A) (A) (A)
                 (A) (A) (A) (A) (A) (A) (A) (A) (A) (A) (A) (A)
                 (A) (A) (A) (A) (A) (A) (A) (A) (A) (A) (A) (A)
                 (A) (A) (A) (A) (A) (A) (A) (A) (A) (A) (A) (A)
                 (A) (A) (A) (A) (A) (A) (A) (A) (A) (A) (A) (A)
                 (A) (A) (A) (A) (A) (A) (A) (A) (A) (A) (A) (A)
                 (A) (A) (A) (A) (A) (A) (A) (A) (A) (A) (A) (A)
                 (A) (A) (A) (A) (A) (A) (A) (A) (A) (A) (A) (A)
                 (A) (A) (A) (A) (A) (A) (A) (A) (A) (A) (A) (A)
 The electronic state is 1-A.
 Alpha  occ. eigenvalues --  -89.99050 -19.56818 -10.58157 -10.58068 -10.56723
 Alpha  occ. eigenvalues --  -10.56531  -8.34747  -6.26791  -6.26753  -6.26374
 Alpha  occ. eigenvalues --   -1.07755  -0.95946  -0.85629  -0.81794  -0.68406
 Alpha  occ. eigenvalues --   -0.67366  -0.60388  -0.55307  -0.54906  -0.50095
 Alpha  occ. eigenvalues --   -0.47886  -0.44289  -0.43411  -0.42677  -0.41674
 Alpha  occ. eigenvalues --   -0.40372  -0.31563  -0.28186
 Alpha virt. eigenvalues --   -0.01530   0.00235   0.00639   0.01848   0.02886
 Alpha virt. eigenvalues --    0.03230   0.03667   0.03819   0.04662   0.06841
 Alpha virt. eigenvalues --    0.07153   0.09128   0.09307   0.09543   0.09682
 Alpha virt. eigenvalues --    0.10066   0.10990   0.11482   0.12169   0.12639
 Alpha virt. eigenvalues --    0.13248   0.13977   0.14480   0.15188   0.16048
 Alpha virt. eigenvalues --    0.16425   0.16697   0.16852   0.17307   0.17340
 Alpha virt. eigenvalues --    0.18116   0.21995   0.24094   0.24610   0.25967
 Alpha virt. eigenvalues --    0.26439   0.28267   0.29908   0.30678   0.31603
 Alpha virt. eigenvalues --    0.32073   0.32866   0.34853   0.35491   0.35959
 Alpha virt. eigenvalues --    0.36968   0.37230   0.38056   0.43658   0.45917
 Alpha virt. eigenvalues --    0.47380   0.48576   0.49723   0.50761   0.53485
 Alpha virt. eigenvalues --    0.56316   0.57971   0.60413   0.65823   0.66884
 Alpha virt. eigenvalues --    0.69249   0.70666   0.71156   0.72394   0.74626
 Alpha virt. eigenvalues --    0.74846   0.75346   0.75995   0.76739   0.79738
 Alpha virt. eigenvalues --    0.85284   0.87092   0.90996   0.94497   0.99291
 Alpha virt. eigenvalues --    1.00602   1.02137   1.05997   1.06785   1.11669
 Alpha virt. eigenvalues --    1.17731   1.23149   1.24461   1.26843   1.27786
 Alpha virt. eigenvalues --    1.30281   1.34698   1.39661   1.47556   1.49982
 Alpha virt. eigenvalues --    1.53641   1.55787   1.59183   1.59683   1.61696
 Alpha virt. eigenvalues --    1.61869   1.64892   1.67319   1.68442   1.69352
 Alpha virt. eigenvalues --    1.71759   1.72987   1.73866   1.77694   1.83707
 Alpha virt. eigenvalues --    1.85942   1.87444   1.90100   1.92583   1.94115
 Alpha virt. eigenvalues --    1.96318   1.99619   2.05567   2.09390   2.12527
 Alpha virt. eigenvalues --    2.15372   2.18972   2.20336   2.24384   2.27245
 Alpha virt. eigenvalues --    2.38108   2.41984   2.51364   2.53706   2.54093
 Alpha virt. eigenvalues --    2.57783   2.61139   2.63114   2.66861   2.67331
 Alpha virt. eigenvalues --    2.68855   2.72575   2.76011   2.80550   2.83935
 Alpha virt. eigenvalues --    2.86268   2.88327   2.93166   2.95996   2.98053
 Alpha virt. eigenvalues --    3.02099   3.03703   3.09596   3.14089   3.22693
 Alpha virt. eigenvalues --    3.25032   3.28884   3.50257   3.66626   3.76463
 Alpha virt. eigenvalues --    3.97579   4.02781   4.06783   4.13139   4.26587
 Alpha virt. eigenvalues --    5.21242   5.22481   5.27524   8.14967  17.57783
 Alpha virt. eigenvalues --   17.59266  17.66197  23.88798  23.89609  23.94312
 Alpha virt. eigenvalues --   23.96160  50.04372 189.43253
          Condensed to atoms (all electrons):
               1          2          3          4          5          6
     1  O    8.477894   0.342757  -0.105443  -0.072832   0.062981  -0.205478
     2  S    0.342757  17.013072  -0.295976  -1.182086   1.016146  -1.362117
     3  C   -0.105443  -0.295976   6.375377   0.111118  -0.037954  -0.209148
     4  C   -0.072832  -1.182086   0.111118   6.616437  -0.970394   1.291219
     5  C    0.062981   1.016146  -0.037954  -0.970394   7.093583  -1.619051
     6  C   -0.205478  -1.362117  -0.209148   1.291219  -1.619051   8.147606
     7  H   -0.011796  -0.161556   0.454481  -0.031128  -0.001610   0.019439
     8  H    0.022163   0.070088   0.186928   0.011158  -0.021634   0.051905
     9  H   -0.010512  -0.072793  -0.006865   0.501770  -0.168807   0.081174
    10  H    0.010147   0.098897  -0.021224   0.223875   0.144169  -0.174696
    11  H    0.019671   0.123071  -0.002056  -0.167428   0.626586  -0.248637
    12  H   -0.013606  -0.133704  -0.017395   0.177240   0.039626   0.270743
    13  H   -0.039849  -0.265756   0.035631   0.108224  -0.189148   0.638475
    14  H    0.038264   0.228227   0.054916  -0.243852   0.344581  -0.137473
               7          8          9         10         11         12
     1  O   -0.011796   0.022163  -0.010512   0.010147   0.019671  -0.013606
     2  S   -0.161556   0.070088  -0.072793   0.098897   0.123071  -0.133704
     3  C    0.454481   0.186928  -0.006865  -0.021224  -0.002056  -0.017395
     4  C   -0.031128   0.011158   0.501770   0.223875  -0.167428   0.177240
     5  C   -0.001610  -0.021634  -0.168807   0.144169   0.626586   0.039626
     6  C    0.019439   0.051905   0.081174  -0.174696  -0.248637   0.270743
     7  H    0.482229  -0.011547  -0.010164   0.017540   0.000975  -0.009282
     8  H   -0.011547   0.526074  -0.019293  -0.015845  -0.008959   0.009146
     9  H   -0.010164  -0.019293   0.534546  -0.023485  -0.018759   0.023088
    10  H    0.017540  -0.015845  -0.023485   0.556700   0.023899  -0.058282
    11  H    0.000975  -0.008959  -0.018759   0.023899   0.516341  -0.046113
    12  H   -0.009282   0.009146   0.023088  -0.058282  -0.046113   0.630473
    13  H   -0.002710   0.001828   0.008980  -0.015016  -0.039481   0.035942
    14  H    0.005317  -0.010903  -0.015664   0.039264   0.040356  -0.094311
              13         14
     1  O   -0.039849   0.038264
     2  S   -0.265756   0.228227
     3  C    0.035631   0.054916
     4  C    0.108224  -0.243852
     5  C   -0.189148   0.344581
     6  C    0.638475  -0.137473
     7  H   -0.002710   0.005317
     8  H    0.001828  -0.010903
     9  H    0.008980  -0.015664
    10  H   -0.015016   0.039264
    11  H   -0.039481   0.040356
    12  H    0.035942  -0.094311
    13  H    0.484006  -0.047137
    14  H   -0.047137   0.619561
 Mulliken charges:
               1
     1  O   -0.514360
     2  S    0.581730
     3  C   -0.522390
     4  C   -0.373320
     5  C   -0.319074
     6  C   -0.543960
     7  H    0.259812
     8  H    0.208888
     9  H    0.196786
    10  H    0.194056
    11  H    0.180533
    12  H    0.186435
    13  H    0.286012
    14  H    0.178854
 Sum of Mulliken charges =   0.00000
 Mulliken charges with hydrogens summed into heavy atoms:
               1
     1  O   -0.514360
     2  S    0.581730
     3  C   -0.053690
     4  C    0.017522
     5  C    0.047893
     6  C   -0.079095
 Electronic spatial extent (au):  <R**2>=            666.5290
 Charge=              0.0000 electrons
 Dipole moment (field-independent basis, Debye):
    X=              5.6558    Y=             -0.0514    Z=             -1.1939  Tot=              5.7807
 Quadrupole moment (field-independent basis, Debye-Ang):
   XX=            -55.8533   YY=            -40.3343   ZZ=            -44.1924
   XY=              0.0658   XZ=              3.1917   YZ=             -0.4894
 Traceless Quadrupole moment (field-independent basis, Debye-Ang):
   XX=             -9.0600   YY=              6.4590   ZZ=              2.6010
   XY=              0.0658   XZ=              3.1917   YZ=             -0.4894
 Octapole moment (field-independent basis, Debye-Ang**2):
  XXX=             21.0253  YYY=             -1.1696  ZZZ=              2.5060  XYY=             -0.7758
  XXY=             -0.1536  XXZ=             -7.8227  XZZ=              3.3563  YZZ=              0.4978
  YYZ=             -1.4173  XYZ=             -2.0471
 Hexadecapole moment (field-independent basis, Debye-Ang**3):
 XXXX=           -565.5942 YYYY=           -274.4037 ZZZZ=           -113.5135 XXXY=              1.3446
 XXXZ=             13.1321 YYYX=             -0.0513 YYYZ=              2.6258 ZZZX=             -0.7168
 ZZZY=             -1.9493 XXYY=           -132.0635 XXZZ=           -104.4653 YYZZ=            -59.4655
 XXYZ=             -5.3097 YYXZ=             -1.1430 ZZXY=             -0.9511
 N-N= 3.193838012813D+02 E-N=-2.126872152462D+03  KE= 6.290513276986D+02
 No NMR shielding tensors so no spin-rotation constants.
 Leave Link  601 at Sun Oct 13 21:38:28 2019, MaxMem= 10737418240 cpu:               3.0 elap:               0.2
 (Enter /apps/cent7/gaussian/g16-A.03/g16-haswell/g16/l701.exe)
 ... and contract with generalized density number  0.
 Compute integral first derivatives.
 Leave Link  701 at Sun Oct 13 21:38:28 2019, MaxMem= 10737418240 cpu:               2.7 elap:               0.1
 (Enter /apps/cent7/gaussian/g16-A.03/g16-haswell/g16/l702.exe)
 L702 exits ... SP integral derivatives will be done elsewhere.
 Leave Link  702 at Sun Oct 13 21:38:28 2019, MaxMem= 10737418240 cpu:               0.5 elap:               0.0
 (Enter /apps/cent7/gaussian/g16-A.03/g16-haswell/g16/l703.exe)
 Integral derivatives from FoFJK, PRISM(SPDF).
 Compute integral first derivatives, UseDBF=F ICtDFT=           0.
 Calling FoFJK, ICntrl=      2127 FMM=F ISym2X=0 I1Cent= 0 IOpClX= 0 NMat=1 NMatS=1 NMatT=0.
 FoFJK:  IHMeth= 1 ICntrl=    2127 DoSepK=F KAlg= 0 I1Cent=           0 FoldK=F
 IRaf=         0 NMat=       1 IRICut=       1 DoRegI=T DoRafI=F ISym2E= 0 IDoP0=0 IntGTp=1.
 FoFCou: FMM=F IPFlag=           0 FMFlag=      100000 FMFlg1=         800
         NFxFlg=           0 DoJE=F BraDBF=F KetDBF=F FulRan=T
         wScrn=  0.000000 ICntrl=      2127 IOpCl=  0 I1Cent=           0 NGrid=           0
         NMat0=    1 NMatS0=      1 NMatT0=    0 NMatD0=    1 NMtDS0=    0 NMtDT0=    0
 Symmetry not used in FoFCou.
 Leave Link  703 at Sun Oct 13 21:38:29 2019, MaxMem= 10737418240 cpu:              26.3 elap:               1.1
 (Enter /apps/cent7/gaussian/g16-A.03/g16-haswell/g16/l716.exe)
 Dipole        = 2.22517367D+00-2.02326425D-02-4.69704860D-01
 ***** Axes restored to original set *****
 -------------------------------------------------------------------
 Center     Atomic                   Forces (Hartrees/Bohr)
 Number     Number              X              Y              Z
 -------------------------------------------------------------------
      1        8          -0.009357830   -0.037321421   -0.038383961
      2       16          -0.008695447    0.045913719    0.059093465
      3        6           0.005453033    0.005149623   -0.041402641
      4        6          -0.003159019    0.021171389    0.003651815
      5        6          -0.009617245   -0.010362518    0.014045645
      6        6           0.028791448   -0.028854580   -0.002105569
      7        1          -0.007523222   -0.000193441    0.014678737
      8        1           0.003102581    0.008904337    0.013356456
      9        1          -0.007931113   -0.015566399   -0.008398316
     10        1           0.009935788   -0.012986198   -0.004926266
     11        1           0.003979309   -0.001654595   -0.015742063
     12        1           0.019139659    0.006311789   -0.004432527
     13        1          -0.018100418    0.005321509    0.001695836
     14        1          -0.006017525    0.014166787    0.008869390
 -------------------------------------------------------------------
 Cartesian Forces:  Max     0.059093465 RMS     0.019215556
 Leave Link  716 at Sun Oct 13 21:38:30 2019, MaxMem= 10737418240 cpu:               0.5 elap:               0.0
 (Enter /apps/cent7/gaussian/g16-A.03/g16-haswell/g16/l103.exe)

 GradGradGradGradGradGradGradGradGradGradGradGradGradGradGradGradGradGrad
 Berny optimization.
 FormGI is forming the generalized inverse of G from B-inverse, IUseBI=4.
 Internal  Forces:  Max     0.054312645 RMS     0.009387466
 Search for a local minimum.
 Step number   1 out of a maximum of   90
 All quantities printed in internal units (Hartrees-Bohrs-Radians)
 RMS Force = .93875D-02 SwitMx=.10000D-02 MixMth= 1
 Mixed Optimization -- RFO/linear search
 Second derivative matrix not updated -- first step.
 ITU=  0
     Eigenvalues ---    0.00260   0.00427   0.02447   0.02611   0.04679
     Eigenvalues ---    0.05106   0.05336   0.05534   0.05664   0.05925
     Eigenvalues ---    0.06460   0.06545   0.07025   0.07192   0.07331
     Eigenvalues ---    0.07470   0.08993   0.09389   0.11404   0.12230
     Eigenvalues ---    0.20595   0.21219   0.23875   0.24255   0.26790
     Eigenvalues ---    0.27110   0.27665   0.34803   0.34808   0.34811
     Eigenvalues ---    0.34812   0.34813   0.34817   0.34818   0.34819
     Eigenvalues ---    0.51101
 RFO step:  Lambda=-3.59689298D-02 EMin= 2.59943213D-03
 Linear search not attempted -- first point.
 Maximum step size (   0.300) exceeded in Quadratic search.
    -- Step size scaled by   0.850
 Iteration  1 RMS(Cart)=  0.05557555 RMS(Int)=  0.00272668
 Iteration  2 RMS(Cart)=  0.00211009 RMS(Int)=  0.00193091
 Iteration  3 RMS(Cart)=  0.00000354 RMS(Int)=  0.00193091
 Iteration  4 RMS(Cart)=  0.00000002 RMS(Int)=  0.00193091
 ITry= 1 IFail=0 DXMaxC= 1.58D-01 DCOld= 1.00D+10 DXMaxT= 3.00D-01 DXLimC= 3.00D+00 Rises=F
 Variable       Old X    -DE/DX   Delta X   Delta X   Delta X     New X
                                 (Linear)    (Quad)   (Total)
    R1        3.02471  -0.05431   0.00000  -0.08436  -0.08436   2.94035
    R2        3.44645  -0.00042   0.00000  -0.00365  -0.00322   3.44323
    R3        3.45249   0.00031   0.00000   0.00483   0.00500   3.45750
    R4        2.91397   0.00766   0.00000   0.01992   0.01973   2.93370
    R5        2.05972  -0.00103   0.00000  -0.00228  -0.00228   2.05744
    R6        2.05980  -0.00319   0.00000  -0.00706  -0.00706   2.05275
    R7        2.93488  -0.00367   0.00000  -0.01383  -0.01406   2.92083
    R8        2.05972  -0.00089   0.00000  -0.00197  -0.00197   2.05775
    R9        2.05983   0.00072   0.00000   0.00159   0.00159   2.06142
   R10        2.92867   0.01052   0.00000   0.03121   0.03090   2.95957
   R11        2.05981  -0.00080   0.00000  -0.00176  -0.00176   2.05805
   R12        2.05988  -0.00133   0.00000  -0.00293  -0.00293   2.05695
   R13        2.05996  -0.00305   0.00000  -0.00674  -0.00674   2.05323
   R14        2.05970  -0.00303   0.00000  -0.00669  -0.00669   2.05300
    A1        1.87240   0.00549   0.00000   0.00896   0.00764   1.88005
    A2        1.87784   0.00192   0.00000  -0.00716  -0.00786   1.86998
    A3        1.73183  -0.01937   0.00000  -0.07978  -0.07908   1.65275
    A4        1.75806   0.01798   0.00000   0.06740   0.06677   1.82483
    A5        1.93483  -0.00491   0.00000  -0.03758  -0.04242   1.89242
    A6        1.93484  -0.01120   0.00000  -0.05249  -0.05695   1.87790
    A7        1.85318   0.00529   0.00000   0.06669   0.06700   1.92017
    A8        1.85308   0.00435   0.00000   0.05823   0.05897   1.91205
    A9        2.09442  -0.00526   0.00000  -0.06302  -0.06921   2.02521
   A10        1.89700  -0.01011   0.00000  -0.03932  -0.03881   1.85819
   A11        1.86437   0.00781   0.00000   0.03675   0.03737   1.90173
   A12        1.86440   0.00337   0.00000   0.03389   0.03381   1.89822
   A13        1.86869   0.00171   0.00000   0.02274   0.02290   1.89159
   A14        1.86864   0.00806   0.00000   0.03667   0.03722   1.90586
   A15        2.09444  -0.01170   0.00000  -0.09155  -0.09155   2.00288
   A16        1.92876  -0.00800   0.00000  -0.03398  -0.03382   1.89494
   A17        1.86047   0.00488   0.00000   0.02069   0.02128   1.88175
   A18        1.86047   0.00279   0.00000   0.02922   0.02926   1.88973
   A19        1.85910   0.00242   0.00000   0.02610   0.02596   1.88506
   A20        1.85907   0.00853   0.00000   0.04905   0.04963   1.90870
   A21        2.09434  -0.01142   0.00000  -0.09313  -0.09312   2.00121
   A22        1.81241   0.01678   0.00000   0.06645   0.06583   1.87824
   A23        1.92583  -0.01064   0.00000  -0.05556  -0.06080   1.86502
   A24        1.92605  -0.00700   0.00000  -0.04598  -0.05089   1.87516
   A25        1.83968   0.00631   0.00000   0.07194   0.07254   1.91222
   A26        1.83971   0.00660   0.00000   0.07022   0.07052   1.91023
   A27        2.09437  -0.00611   0.00000  -0.06931  -0.07688   2.01748
    D1       -2.43963   0.00096   0.00000   0.01424   0.01379  -2.42584
    D2       -0.48369   0.01394   0.00000   0.10892   0.10584  -0.37785
    D3        1.88773  -0.00869   0.00000  -0.06553  -0.06244   1.82529
    D4       -0.48852  -0.00305   0.00000  -0.02278  -0.02311  -0.51163
    D5        1.46742   0.00992   0.00000   0.07189   0.06894   1.53636
    D6       -2.44434  -0.01271   0.00000  -0.10255  -0.09935  -2.54369
    D7        2.06253  -0.00191   0.00000  -0.01973  -0.01960   2.04293
    D8        0.09852  -0.01311   0.00000  -0.11231  -0.10808  -0.00956
    D9       -2.25651   0.01117   0.00000   0.07492   0.07171  -2.18480
   D10        0.11572  -0.00062   0.00000   0.00495   0.00429   0.12001
   D11       -1.84829  -0.01183   0.00000  -0.08763  -0.08420  -1.93249
   D12        2.07986   0.01245   0.00000   0.09960   0.09559   2.17545
   D13        0.72644   0.00696   0.00000   0.03897   0.03960   0.76604
   D14        2.73727   0.00799   0.00000   0.06504   0.06547   2.80274
   D15       -1.28434   0.00082   0.00000  -0.00186  -0.00126  -1.28560
   D16       -1.29140   0.00308   0.00000   0.02915   0.02862  -1.26278
   D17        0.71942   0.00411   0.00000   0.05521   0.05449   0.77391
   D18        2.98100  -0.00306   0.00000  -0.01169  -0.01224   2.96876
   D19        2.74427   0.00359   0.00000   0.02945   0.03004   2.77430
   D20       -1.52810   0.00462   0.00000   0.05552   0.05591  -1.47219
   D21        0.73348  -0.00255   0.00000  -0.01138  -0.01082   0.72266
   D22       -0.70950   0.00388   0.00000   0.00837   0.00912  -0.70038
   D23        1.30388   0.00539   0.00000   0.03347   0.03388   1.33775
   D24       -2.72283  -0.00370   0.00000  -0.04860  -0.04814  -2.77097
   D25       -2.71751  -0.00109   0.00000  -0.02673  -0.02632  -2.74383
   D26       -0.70414   0.00042   0.00000  -0.00162  -0.00156  -0.70570
   D27        1.55234  -0.00867   0.00000  -0.08369  -0.08358   1.46876
   D28        1.29853   0.00695   0.00000   0.04733   0.04765   1.34619
   D29       -2.97128   0.00846   0.00000   0.07243   0.07241  -2.89887
   D30       -0.71480  -0.00063   0.00000  -0.00964  -0.00961  -0.72440
   D31        0.30798   0.00239   0.00000   0.00628   0.00678   0.31477
   D32        2.33356   0.00027   0.00000   0.00215   0.00285   2.33641
   D33       -1.71786   0.00033   0.00000   0.00043   0.00002  -1.71784
   D34       -1.70625  -0.00068   0.00000  -0.01546  -0.01499  -1.72124
   D35        0.31933  -0.00280   0.00000  -0.01959  -0.01893   0.30040
   D36        2.55109  -0.00274   0.00000  -0.02131  -0.02175   2.52934
   D37        2.32219   0.00637   0.00000   0.05083   0.05116   2.37334
   D38       -1.93542   0.00425   0.00000   0.04670   0.04722  -1.88820
   D39        0.29635   0.00431   0.00000   0.04498   0.04439   0.34074
         Item               Value     Threshold  Converged?
 Maximum Force            0.054313     0.000450     NO 
 RMS     Force            0.009387     0.000300     NO 
 Maximum Displacement     0.157677     0.001800     NO 
 RMS     Displacement     0.055862     0.001200     NO 
 Predicted change in Energy=-2.075994D-02
 Lowest energy point so far.  Saving SCF results.
 GradGradGradGradGradGradGradGradGradGradGradGradGradGradGradGradGradGrad

 Leave Link  103 at Sun Oct 13 21:38:30 2019, MaxMem= 10737418240 cpu:               1.9 elap:               0.1
 (Enter /apps/cent7/gaussian/g16-A.03/g16-haswell/g16/l202.exe)
                          Input orientation:                          
 ---------------------------------------------------------------------
 Center     Atomic      Atomic             Coordinates (Angstroms)
 Number     Number       Type             X           Y           Z
 ---------------------------------------------------------------------
      1          8           0       -0.101470    2.909488    1.352213
      2         16           0       -0.426619    1.797055    0.314041
      3          6           0        0.878727    0.531164    0.430537
      4          6           0        1.177091    0.141712   -1.042352
      5          6           0        1.240801    1.463631   -1.840760
      6          6           0        0.108814    2.414098   -1.323063
      7          1           0        1.759377    0.985407    0.881647
      8          1           0        0.461382   -0.323561    0.955172
      9          1           0        2.154313   -0.336212   -1.090960
     10          1           0        0.352500   -0.465250   -1.418670
     11          1           0        2.199377    1.935085   -1.628763
     12          1           0        1.068858    1.236472   -2.891306
     13          1           0        0.513267    3.410447   -1.167394
     14          1           0       -0.747018    2.353865   -1.989541
 ---------------------------------------------------------------------
                    Distance matrix (angstroms):
                    1          2          3          4          5
     1  O    0.000000
     2  S    1.555966   0.000000
     3  C    2.732526   1.822081   0.000000
     4  C    3.876757   2.674294   1.552448   0.000000
     5  C    3.753301   2.744928   2.481810   1.545634   0.000000
     6  C    2.728870   1.829629   2.685762   2.526609   1.566139
     7  H    2.717770   2.399901   1.088752   2.180057   2.812316
     8  H    3.305609   2.386757   1.086266   2.172284   3.408634
     9  H    4.646743   3.631262   2.166660   1.088916   2.153170
    10  H    4.390073   2.954207   2.165485   1.090857   2.165137
    11  H    3.889676   3.269465   2.820607   2.145958   1.089073
    12  H    4.709151   3.581195   3.401213   2.151476   1.088491
    13  H    2.641454   2.383500   3.313188   3.337802   2.184678
    14  H    3.448589   2.391482   3.438323   3.081069   2.183135
                    6          7          8          9         10
     6  C    0.000000
     7  H    3.102622   0.000000
     8  H    3.579028   1.844883   0.000000
     9  H    3.435425   2.407038   2.655717   0.000000
    10  H    2.891223   3.061889   2.380558   1.835912   0.000000
    11  H    2.166416   2.719862   3.846925   2.334535   3.035902
    12  H    2.183546   3.843830   4.195012   2.625413   2.361712
    13  H    1.086520   3.410598   4.295439   4.091006   3.887160
    14  H    1.086402   4.049496   4.159348   4.057300   3.079325
                   11         12         13         14
    11  H    0.000000
    12  H    1.833071   0.000000
    13  H    2.287471   2.829615   0.000000
    14  H    2.997797   2.314985   1.838644   0.000000
 Stoichiometry    C4H8OS
 Framework group  C1[X(C4H8OS)]
 Deg. of freedom    36
 Full point group                 C1      NOp   1
 RotChk:  IX=0 Diff= 2.22D-02
 Largest Abelian subgroup         C1      NOp   1
 Largest concise Abelian subgroup C1      NOp   1
                         Standard orientation:                         
 ---------------------------------------------------------------------
 Center     Atomic      Atomic             Coordinates (Angstroms)
 Number     Number       Type             X           Y           Z
 ---------------------------------------------------------------------
      1          8           0       -2.078638    0.032191    0.562142
      2         16           0       -0.902146   -0.062088   -0.451765
      3          6           0        0.261929   -1.320855    0.165011
      4          6           0        1.666981   -0.716389   -0.100589
      5          6           0        1.595005    0.765917    0.331353
      6          6           0        0.212612    1.349595   -0.117088
      7          1           0        0.103992   -1.440522    1.235579
      8          1           0        0.130271   -2.213962   -0.439142
      9          1           0        2.395244   -1.223046    0.530813
     10          1           0        1.874903   -0.768653   -1.170171
     11          1           0        1.637276    0.798451    1.419119
     12          1           0        2.395084    1.306926   -0.170639
     13          1           0       -0.227864    1.911662    0.701806
     14          1           0        0.335369    1.895412   -1.048370
 ---------------------------------------------------------------------
 Rotational constants (GHZ):           5.2925500           2.5494653           2.0006500
 Leave Link  202 at Sun Oct 13 21:38:30 2019, MaxMem= 10737418240 cpu:               0.3 elap:               0.0
 (Enter /apps/cent7/gaussian/g16-A.03/g16-haswell/g16/l301.exe)
 Standard basis: 6-311++G(d,p) (5D, 7F)
 Ernie: Thresh=  0.10000D-02 Tol=  0.10000D-05 Strict=F.
 There are   202 symmetry adapted cartesian basis functions of A   symmetry.
 There are   196 symmetry adapted basis functions of A   symmetry.
   196 basis functions,   302 primitive gaussians,   202 cartesian basis functions
    28 alpha electrons       28 beta electrons
       nuclear repulsion energy       319.6735106364 Hartrees.
 IExCor= 4336 DFT=T Ex+Corr=M062X ExCW=0 ScaHFX=  0.540000
 ScaDFX=  1.000000  1.000000  1.000000  1.000000 ScalE2=  1.000000  1.000000
 IRadAn=      5 IRanWt=     -1 IRanGd=            0 ICorTp=0 IEmpDi=  4
 NAtoms=   14 NActive=   14 NUniq=   14 SFac= 1.00D+00 NAtFMM=   60 NAOKFM=F Big=F
 Integral buffers will be    131072 words long.
 Raffenetti 2 integral format.
 Two-electron integral symmetry is turned on.
 Leave Link  301 at Sun Oct 13 21:38:30 2019, MaxMem= 10737418240 cpu:               1.2 elap:               0.1
 (Enter /apps/cent7/gaussian/g16-A.03/g16-haswell/g16/l302.exe)
 NPDir=0 NMtPBC=     1 NCelOv=     1 NCel=       1 NClECP=     1 NCelD=      1
         NCelK=      1 NCelE2=     1 NClLst=     1 CellRange=     0.0.
 One-electron integrals computed using PRISM.
 One-electron integral symmetry used in STVInt
 NBasis=   196 RedAO= T EigKep=  1.76D-05  NBF=   196
 NBsUse=   196 1.00D-06 EigRej= -1.00D+00 NBFU=   196
 Precomputing XC quadrature grid using
 IXCGrd= 4 IRadAn=           5 IRanWt=          -1 IRanGd=           0 AccXCQ= 0.00D+00.
 Generated NRdTot=       0 NPtTot=           0 NUsed=           0 NTot=          32
 NSgBfM=   202   202   202   202   202 MxSgAt=    14 MxSgA2=    14.
 Leave Link  302 at Sun Oct 13 21:38:30 2019, MaxMem= 10737418240 cpu:               3.9 elap:               0.2
 (Enter /apps/cent7/gaussian/g16-A.03/g16-haswell/g16/l303.exe)
 DipDrv:  MaxL=1.
 Leave Link  303 at Sun Oct 13 21:38:30 2019, MaxMem= 10737418240 cpu:               0.7 elap:               0.1
 (Enter /apps/cent7/gaussian/g16-A.03/g16-haswell/g16/l401.exe)
 Initial guess from the checkpoint file:  "22.chk"
 B after Tr=     0.000000   -0.000000    0.000000
         Rot=    0.999968    0.005348   -0.005875   -0.000896 Ang=   0.92 deg.
 Guess basis will be translated and rotated to current coordinates.
 JPrj=2 DoOrth=T DoCkMO=T.
 Generating alternative initial guess.
 ExpMin= 3.60D-02 ExpMax= 9.34D+04 ExpMxC= 3.17D+03 IAcc=3 IRadAn=         5 AccDes= 0.00D+00
 Harris functional with IExCor= 1009 and IRadAn=       5 diagonalized for initial guess.
 HarFok:  IExCor= 1009 AccDes= 0.00D+00 IRadAn=         5 IDoV= 1 UseB2=F ITyADJ=14
 ICtDFT=  3500011 ScaDFX=  1.000000  1.000000  1.000000  1.000000
 FoFCou: FMM=F IPFlag=           0 FMFlag=      100000 FMFlg1=           0
         NFxFlg=           0 DoJE=T BraDBF=F KetDBF=T FulRan=T
         wScrn=  0.000000 ICntrl=       500 IOpCl=  0 I1Cent=   200000004 NGrid=           0
         NMat0=    1 NMatS0=      1 NMatT0=    0 NMatD0=    1 NMtDS0=    0 NMtDT0=    0
 Petite list used in FoFCou.
 Harris En= -630.354770190664    
 Leave Link  401 at Sun Oct 13 21:38:30 2019, MaxMem= 10737418240 cpu:               8.9 elap:               0.4
 (Enter /apps/cent7/gaussian/g16-A.03/g16-haswell/g16/l502.exe)
 Integral symmetry usage will be decided dynamically.
 Closed shell SCF:
 Using DIIS extrapolation, IDIIS=  1040.
 NGot= 10737418240 LenX= 10737329687 LenY= 10737288442
 Requested convergence on RMS density matrix=1.00D-08 within 128 cycles.
 Requested convergence on MAX density matrix=1.00D-06.
 Requested convergence on             energy=1.00D-06.
 No special actions if energy rises.
 Fock matrices will be formed incrementally for  20 cycles.

 Cycle   1  Pass 1  IDiag  1:
 FoFJK:  IHMeth= 1 ICntrl=       0 DoSepK=F KAlg= 0 I1Cent=           0 FoldK=F
 IRaf= 990000000 NMat=       1 IRICut=       1 DoRegI=T DoRafI=F ISym2E= 0 IDoP0=0 IntGTp=1.
 FoFCou: FMM=F IPFlag=           0 FMFlag=      100000 FMFlg1=           0
         NFxFlg=           0 DoJE=F BraDBF=F KetDBF=F FulRan=T
         wScrn=  0.000000 ICntrl=         0 IOpCl=  0 I1Cent=           0 NGrid=           0
         NMat0=    1 NMatS0=      1 NMatT0=    0 NMatD0=    1 NMtDS0=    0 NMtDT0=    0
 Symmetry not used in FoFCou.
 E= -630.543730302386    
 DIIS: error= 2.92D-03 at cycle   1 NSaved=   1.
 NSaved= 1 IEnMin= 1 EnMin= -630.543730302386     IErMin= 1 ErrMin= 2.92D-03
 ErrMax= 2.92D-03  0.00D+00 EMaxC= 1.00D-01 BMatC= 3.97D-03 BMatP= 3.97D-03
 IDIUse=3 WtCom= 9.71D-01 WtEn= 2.92D-02
 Coeff-Com:  0.100D+01
 Coeff-En:   0.100D+01
 Coeff:      0.100D+01
 Gap=     0.441 Goal=   None    Shift=    0.000
 GapD=    0.441 DampG=2.000 DampE=1.000 DampFc=2.0000 IDamp=-1.
 RMSDP=3.73D-03 MaxDP=1.67D-01              OVMax= 2.37D-02

 Cycle   2  Pass 1  IDiag  1:
 RMSU=  3.29D-03    CP:  9.23D-01
 E= -630.548425689480     Delta-E=       -0.004695387094 Rises=F Damp=F
 DIIS: error= 2.15D-03 at cycle   2 NSaved=   2.
 NSaved= 2 IEnMin= 2 EnMin= -630.548425689480     IErMin= 2 ErrMin= 2.15D-03
 ErrMax= 2.15D-03  0.00D+00 EMaxC= 1.00D-01 BMatC= 7.92D-04 BMatP= 3.97D-03
 IDIUse=3 WtCom= 9.78D-01 WtEn= 2.15D-02
 Coeff-Com:  0.184D+00 0.816D+00
 Coeff-En:   0.000D+00 0.100D+01
 Coeff:      0.180D+00 0.820D+00
 Gap=     0.269 Goal=   None    Shift=    0.000
 RMSDP=1.24D-03 MaxDP=5.98D-02 DE=-4.70D-03 OVMax= 1.68D-02

 Cycle   3  Pass 1  IDiag  1:
 RMSU=  9.45D-04    CP:  9.58D-01  9.57D-01
 E= -630.548420423713     Delta-E=        0.000005265767 Rises=F Damp=F
 DIIS: error= 2.98D-03 at cycle   3 NSaved=   3.
 NSaved= 3 IEnMin= 2 EnMin= -630.548425689480     IErMin= 2 ErrMin= 2.15D-03
 ErrMax= 2.98D-03  0.00D+00 EMaxC= 1.00D-01 BMatC= 9.49D-04 BMatP= 7.92D-04
 IDIUse=3 WtCom= 1.55D-01 WtEn= 8.45D-01
 Coeff-Com: -0.460D-01 0.538D+00 0.508D+00
 Coeff-En:   0.000D+00 0.502D+00 0.498D+00
 Coeff:     -0.712D-02 0.507D+00 0.500D+00
 Gap=     0.275 Goal=   None    Shift=    0.000
 RMSDP=8.75D-04 MaxDP=3.82D-02 DE= 5.27D-06 OVMax= 8.19D-03

 Cycle   4  Pass 1  IDiag  1:
 RMSU=  1.23D-04    CP:  9.32D-01  1.05D+00  4.24D-01
 E= -630.549143410840     Delta-E=       -0.000722987127 Rises=F Damp=F
 DIIS: error= 3.95D-04 at cycle   4 NSaved=   4.
 NSaved= 4 IEnMin= 4 EnMin= -630.549143410840     IErMin= 4 ErrMin= 3.95D-04
 ErrMax= 3.95D-04  0.00D+00 EMaxC= 1.00D-01 BMatC= 2.48D-05 BMatP= 7.92D-04
 IDIUse=3 WtCom= 9.96D-01 WtEn= 3.95D-03
 Coeff-Com: -0.262D-01 0.682D-01 0.178D+00 0.780D+00
 Coeff-En:   0.000D+00 0.000D+00 0.000D+00 0.100D+01
 Coeff:     -0.261D-01 0.679D-01 0.178D+00 0.781D+00
 Gap=     0.274 Goal=   None    Shift=    0.000
 RMSDP=1.66D-04 MaxDP=7.42D-03 DE=-7.23D-04 OVMax= 1.86D-03

 Cycle   5  Pass 1  IDiag  1:
 RMSU=  5.13D-05    CP:  9.36D-01  1.05D+00  5.53D-01  1.01D+00
 E= -630.549166393790     Delta-E=       -0.000022982950 Rises=F Damp=F
 DIIS: error= 7.28D-05 at cycle   5 NSaved=   5.
 NSaved= 5 IEnMin= 5 EnMin= -630.549166393790     IErMin= 5 ErrMin= 7.28D-05
 ErrMax= 7.28D-05  0.00D+00 EMaxC= 1.00D-01 BMatC= 1.24D-06 BMatP= 2.48D-05
 IDIUse=1 WtCom= 1.00D+00 WtEn= 0.00D+00
 Coeff-Com: -0.390D-02-0.247D-01 0.125D-01 0.240D+00 0.776D+00
 Coeff:     -0.390D-02-0.247D-01 0.125D-01 0.240D+00 0.776D+00
 Gap=     0.274 Goal=   None    Shift=    0.000
 RMSDP=1.88D-05 MaxDP=7.54D-04 DE=-2.30D-05 OVMax= 5.36D-04

 Cycle   6  Pass 1  IDiag  1:
 RMSU=  1.15D-05    CP:  9.36D-01  1.05D+00  5.61D-01  1.09D+00  9.92D-01
 E= -630.549168057157     Delta-E=       -0.000001663367 Rises=F Damp=F
 DIIS: error= 2.66D-05 at cycle   6 NSaved=   6.
 NSaved= 6 IEnMin= 6 EnMin= -630.549168057157     IErMin= 6 ErrMin= 2.66D-05
 ErrMax= 2.66D-05  0.00D+00 EMaxC= 1.00D-01 BMatC= 1.89D-07 BMatP= 1.24D-06
 IDIUse=1 WtCom= 1.00D+00 WtEn= 0.00D+00
 Coeff-Com:  0.251D-02-0.192D-01-0.250D-01-0.368D-01 0.266D+00 0.812D+00
 Coeff:      0.251D-02-0.192D-01-0.250D-01-0.368D-01 0.266D+00 0.812D+00
 Gap=     0.274 Goal=   None    Shift=    0.000
 RMSDP=1.33D-05 MaxDP=5.12D-04 DE=-1.66D-06 OVMax= 2.12D-04

 Cycle   7  Pass 1  IDiag  1:
 RMSU=  5.32D-06    CP:  9.37D-01  1.05D+00  5.69D-01  1.10D+00  1.10D+00
                    CP:  1.27D+00
 E= -630.549168336736     Delta-E=       -0.000000279580 Rises=F Damp=F
 DIIS: error= 6.55D-06 at cycle   7 NSaved=   7.
 NSaved= 7 IEnMin= 7 EnMin= -630.549168336736     IErMin= 7 ErrMin= 6.55D-06
 ErrMax= 6.55D-06  0.00D+00 EMaxC= 1.00D-01 BMatC= 7.72D-09 BMatP= 1.89D-07
 IDIUse=1 WtCom= 1.00D+00 WtEn= 0.00D+00
 Coeff-Com:  0.677D-03-0.199D-02-0.585D-02-0.205D-01 0.735D-02 0.147D+00
 Coeff-Com:  0.874D+00
 Coeff:      0.677D-03-0.199D-02-0.585D-02-0.205D-01 0.735D-02 0.147D+00
 Coeff:      0.874D+00
 Gap=     0.274 Goal=   None    Shift=    0.000
 RMSDP=3.32D-06 MaxDP=1.24D-04 DE=-2.80D-07 OVMax= 6.50D-05

 Cycle   8  Pass 1  IDiag  1:
 RMSU=  1.40D-06    CP:  9.37D-01  1.05D+00  5.71D-01  1.10D+00  1.12D+00
                    CP:  1.37D+00  1.22D+00
 E= -630.549168350958     Delta-E=       -0.000000014222 Rises=F Damp=F
 DIIS: error= 2.38D-06 at cycle   8 NSaved=   8.
 NSaved= 8 IEnMin= 8 EnMin= -630.549168350958     IErMin= 8 ErrMin= 2.38D-06
 ErrMax= 2.38D-06  0.00D+00 EMaxC= 1.00D-01 BMatC= 1.54D-09 BMatP= 7.72D-09
 IDIUse=1 WtCom= 1.00D+00 WtEn= 0.00D+00
 Coeff-Com: -0.916D-04 0.180D-02 0.120D-02-0.168D-02-0.296D-01-0.598D-01
 Coeff-Com:  0.287D+00 0.801D+00
 Coeff:     -0.916D-04 0.180D-02 0.120D-02-0.168D-02-0.296D-01-0.598D-01
 Coeff:      0.287D+00 0.801D+00
 Gap=     0.274 Goal=   None    Shift=    0.000
 RMSDP=1.44D-06 MaxDP=5.08D-05 DE=-1.42D-08 OVMax= 2.71D-05

 Cycle   9  Pass 1  IDiag  1:
 RMSU=  5.55D-07    CP:  9.37D-01  1.04D+00  5.71D-01  1.10D+00  1.12D+00
                    CP:  1.41D+00  1.34D+00  1.22D+00
 E= -630.549168353328     Delta-E=       -0.000000002370 Rises=F Damp=F
 DIIS: error= 4.91D-07 at cycle   9 NSaved=   9.
 NSaved= 9 IEnMin= 9 EnMin= -630.549168353328     IErMin= 9 ErrMin= 4.91D-07
 ErrMax= 4.91D-07  0.00D+00 EMaxC= 1.00D-01 BMatC= 1.02D-10 BMatP= 1.54D-09
 IDIUse=1 WtCom= 1.00D+00 WtEn= 0.00D+00
 Coeff-Com: -0.773D-04 0.621D-03 0.812D-03 0.129D-02-0.920D-02-0.305D-01
 Coeff-Com:  0.159D-02 0.205D+00 0.831D+00
 Coeff:     -0.773D-04 0.621D-03 0.812D-03 0.129D-02-0.920D-02-0.305D-01
 Coeff:      0.159D-02 0.205D+00 0.831D+00
 Gap=     0.274 Goal=   None    Shift=    0.000
 RMSDP=4.25D-07 MaxDP=1.57D-05 DE=-2.37D-09 OVMax= 8.07D-06

 Cycle  10  Pass 1  IDiag  1:
 RMSU=  1.20D-07    CP:  9.37D-01  1.04D+00  5.71D-01  1.10D+00  1.12D+00
                    CP:  1.41D+00  1.38D+00  1.37D+00  1.15D+00
 E= -630.549168353516     Delta-E=       -0.000000000189 Rises=F Damp=F
 DIIS: error= 1.79D-07 at cycle  10 NSaved=  10.
 NSaved=10 IEnMin=10 EnMin= -630.549168353516     IErMin=10 ErrMin= 1.79D-07
 ErrMax= 1.79D-07  0.00D+00 EMaxC= 1.00D-01 BMatC= 1.37D-11 BMatP= 1.02D-10
 IDIUse=1 WtCom= 1.00D+00 WtEn= 0.00D+00
 Coeff-Com: -0.158D-04 0.288D-04 0.146D-03 0.630D-03-0.331D-03-0.385D-02
 Coeff-Com: -0.235D-01-0.126D-01 0.253D+00 0.786D+00
 Coeff:     -0.158D-04 0.288D-04 0.146D-03 0.630D-03-0.331D-03-0.385D-02
 Coeff:     -0.235D-01-0.126D-01 0.253D+00 0.786D+00
 Gap=     0.274 Goal=   None    Shift=    0.000
 RMSDP=9.83D-08 MaxDP=3.31D-06 DE=-1.89D-10 OVMax= 2.25D-06

 Cycle  11  Pass 1  IDiag  1:
 RMSU=  4.41D-08    CP:  9.37D-01  1.04D+00  5.71D-01  1.10D+00  1.12D+00
                    CP:  1.41D+00  1.38D+00  1.40D+00  1.23D+00  1.11D+00
 E= -630.549168353541     Delta-E=       -0.000000000025 Rises=F Damp=F
 DIIS: error= 7.77D-08 at cycle  11 NSaved=  11.
 NSaved=11 IEnMin=11 EnMin= -630.549168353541     IErMin=11 ErrMin= 7.77D-08
 ErrMax= 7.77D-08  0.00D+00 EMaxC= 1.00D-01 BMatC= 2.20D-12 BMatP= 1.37D-11
 IDIUse=1 WtCom= 1.00D+00 WtEn= 0.00D+00
 Coeff-Com:  0.628D-05-0.873D-04-0.784D-04 0.366D-04 0.138D-02 0.368D-02
 Coeff-Com: -0.799D-02-0.384D-01-0.486D-01 0.278D+00 0.812D+00
 Coeff:      0.628D-05-0.873D-04-0.784D-04 0.366D-04 0.138D-02 0.368D-02
 Coeff:     -0.799D-02-0.384D-01-0.486D-01 0.278D+00 0.812D+00
 Gap=     0.274 Goal=   None    Shift=    0.000
 RMSDP=4.33D-08 MaxDP=1.38D-06 DE=-2.48D-11 OVMax= 1.27D-06

 Cycle  12  Pass 1  IDiag  1:
 RMSU=  1.75D-08    CP:  9.37D-01  1.04D+00  5.71D-01  1.10D+00  1.12D+00
                    CP:  1.41D+00  1.39D+00  1.42D+00  1.27D+00  1.23D+00
                    CP:  1.18D+00
 E= -630.549168353546     Delta-E=       -0.000000000005 Rises=F Damp=F
 DIIS: error= 2.93D-08 at cycle  12 NSaved=  12.
 NSaved=12 IEnMin=12 EnMin= -630.549168353546     IErMin=12 ErrMin= 2.93D-08
 ErrMax= 2.93D-08  0.00D+00 EMaxC= 1.00D-01 BMatC= 1.19D-13 BMatP= 2.20D-12
 IDIUse=1 WtCom= 1.00D+00 WtEn= 0.00D+00
 Coeff-Com:  0.205D-05-0.124D-04-0.204D-04-0.602D-04 0.222D-03 0.766D-03
 Coeff-Com:  0.126D-02-0.369D-02-0.320D-01-0.365D-01 0.110D+00 0.960D+00
 Coeff:      0.205D-05-0.124D-04-0.204D-04-0.602D-04 0.222D-03 0.766D-03
 Coeff:      0.126D-02-0.369D-02-0.320D-01-0.365D-01 0.110D+00 0.960D+00
 Gap=     0.274 Goal=   None    Shift=    0.000
 RMSDP=1.21D-08 MaxDP=3.01D-07 DE=-5.00D-12 OVMax= 4.40D-07

 Cycle  13  Pass 1  IDiag  1:
 RMSU=  4.68D-09    CP:  9.37D-01  1.04D+00  5.71D-01  1.10D+00  1.12D+00
                    CP:  1.41D+00  1.39D+00  1.42D+00  1.27D+00  1.27D+00
                    CP:  1.34D+00  1.22D+00
 E= -630.549168353545     Delta-E=        0.000000000002 Rises=F Damp=F
 DIIS: error= 8.46D-09 at cycle  13 NSaved=  13.
 NSaved=13 IEnMin=12 EnMin= -630.549168353546     IErMin=13 ErrMin= 8.46D-09
 ErrMax= 8.46D-09  0.00D+00 EMaxC= 1.00D-01 BMatC= 1.17D-14 BMatP= 1.19D-13
 IDIUse=1 WtCom= 1.00D+00 WtEn= 0.00D+00
 Coeff-Com: -0.301D-06 0.711D-05 0.534D-05-0.166D-04-0.117D-03-0.228D-03
 Coeff-Com:  0.123D-02 0.295D-02-0.218D-02-0.339D-01-0.534D-01 0.162D+00
 Coeff-Com:  0.923D+00
 Coeff:     -0.301D-06 0.711D-05 0.534D-05-0.166D-04-0.117D-03-0.228D-03
 Coeff:      0.123D-02 0.295D-02-0.218D-02-0.339D-01-0.534D-01 0.162D+00
 Coeff:      0.923D+00
 Gap=     0.274 Goal=   None    Shift=    0.000
 RMSDP=4.01D-09 MaxDP=1.17D-07 DE= 1.59D-12 OVMax= 1.52D-07

 SCF Done:  E(RM062X) =  -630.549168354     A.U. after   13 cycles
            NFock= 13  Conv=0.40D-08     -V/T= 2.0023
 KE= 6.291012707077D+02 PE=-2.127534013501D+03 EE= 5.482100638033D+02
 Leave Link  502 at Sun Oct 13 21:38:37 2019, MaxMem= 10737418240 cpu:             158.2 elap:               6.6
 (Enter /apps/cent7/gaussian/g16-A.03/g16-haswell/g16/l701.exe)
 ... and contract with generalized density number  0.
 Compute integral first derivatives.
 Leave Link  701 at Sun Oct 13 21:38:37 2019, MaxMem= 10737418240 cpu:               2.5 elap:               0.1
 (Enter /apps/cent7/gaussian/g16-A.03/g16-haswell/g16/l702.exe)
 L702 exits ... SP integral derivatives will be done elsewhere.
 Leave Link  702 at Sun Oct 13 21:38:37 2019, MaxMem= 10737418240 cpu:               0.5 elap:               0.0
 (Enter /apps/cent7/gaussian/g16-A.03/g16-haswell/g16/l703.exe)
 Integral derivatives from FoFJK, PRISM(SPDF).
 Compute integral first derivatives, UseDBF=F ICtDFT=           0.
 Calling FoFJK, ICntrl=      2127 FMM=F ISym2X=0 I1Cent= 0 IOpClX= 0 NMat=1 NMatS=1 NMatT=0.
 FoFJK:  IHMeth= 1 ICntrl=    2127 DoSepK=F KAlg= 0 I1Cent=           0 FoldK=F
 IRaf=         0 NMat=       1 IRICut=       1 DoRegI=T DoRafI=F ISym2E= 0 IDoP0=0 IntGTp=1.
 FoFCou: FMM=F IPFlag=           0 FMFlag=      100000 FMFlg1=         800
         NFxFlg=           0 DoJE=F BraDBF=F KetDBF=F FulRan=T
         wScrn=  0.000000 ICntrl=      2127 IOpCl=  0 I1Cent=           0 NGrid=           0
         NMat0=    1 NMatS0=      1 NMatT0=    0 NMatD0=    1 NMtDS0=    0 NMtDT0=    0
 Symmetry not used in FoFCou.
 Leave Link  703 at Sun Oct 13 21:38:38 2019, MaxMem= 10737418240 cpu:              25.8 elap:               1.1
 (Enter /apps/cent7/gaussian/g16-A.03/g16-haswell/g16/l716.exe)
 Dipole        = 2.08028675D+00-3.16650965D-02-4.94435209D-01
 ***** Axes restored to original set *****
 -------------------------------------------------------------------
 Center     Atomic                   Forces (Hartrees/Bohr)
 Number     Number              X              Y              Z
 -------------------------------------------------------------------
      1        8          -0.006562288   -0.023578683   -0.021924164
      2       16           0.001626887    0.028230395    0.031102577
      3        6           0.001149070   -0.005583468   -0.028233957
      4        6          -0.003124390    0.019689381    0.011934593
      5        6          -0.015909647   -0.001443940    0.013602739
      6        6           0.020604315   -0.021100692   -0.007130134
      7        1          -0.003010862    0.000084102    0.007307695
      8        1           0.004434496    0.002091315    0.008651845
      9        1          -0.004706643   -0.009899546   -0.003088827
     10        1           0.005386096   -0.006502941   -0.001701795
     11        1           0.001960626    0.000257497   -0.008554130
     12        1           0.009286737    0.005496176   -0.002894856
     13        1          -0.008852767    0.004383177   -0.000045114
     14        1          -0.002281630    0.007877225    0.000973528
 -------------------------------------------------------------------
 Cartesian Forces:  Max     0.031102577 RMS     0.012257158
 Leave Link  716 at Sun Oct 13 21:38:38 2019, MaxMem= 10737418240 cpu:               0.4 elap:               0.0
 (Enter /apps/cent7/gaussian/g16-A.03/g16-haswell/g16/l103.exe)

 GradGradGradGradGradGradGradGradGradGradGradGradGradGradGradGradGradGrad
 Berny optimization.
 Using GEDIIS/GDIIS optimizer.
 FormGI is forming the generalized inverse of G from B-inverse, IUseBI=4.
 Internal  Forces:  Max     0.032859066 RMS     0.004817889
 Search for a local minimum.
 Step number   2 out of a maximum of   90
 All quantities printed in internal units (Hartrees-Bohrs-Radians)
 RMS Force = .48179D-02 SwitMx=.10000D-02 MixMth= 1
 Mixed Optimization -- RFO/linear search
 Update second derivatives using D2CorX and points    1    2
 DE= -2.18D-02 DEPred=-2.08D-02 R= 1.05D+00
 TightC=F SS=  1.41D+00  RLast= 4.44D-01 DXNew= 5.0454D-01 1.3331D+00
 Trust test= 1.05D+00 RLast= 4.44D-01 DXMaxT set to 5.05D-01
 ITU=  1  0
 Use linear search instead of GDIIS.
     Eigenvalues ---    0.00261   0.00443   0.02336   0.02551   0.04457
     Eigenvalues ---    0.04765   0.05098   0.05267   0.05714   0.05775
     Eigenvalues ---    0.05904   0.06255   0.06988   0.07264   0.07746
     Eigenvalues ---    0.08317   0.09011   0.09612   0.11457   0.11862
     Eigenvalues ---    0.20484   0.21405   0.23872   0.24118   0.26728
     Eigenvalues ---    0.27117   0.31008   0.34806   0.34808   0.34811
     Eigenvalues ---    0.34812   0.34815   0.34817   0.34818   0.35251
     Eigenvalues ---    0.44785
 RFO step:  Lambda=-6.81886440D-03 EMin= 2.61430651D-03
[...]
 ! D20   D(8,3,4,9)           -100.2891         -DE/DX =    0.0                 !
 ! D21   D(8,3,4,10)            18.4057         -DE/DX =    0.0                 !
 ! D22   D(3,4,5,6)            -42.5008         -DE/DX =    0.0                 !
 ! D23   D(3,4,5,11)            74.7721         -DE/DX =    0.0                 !
 ! D24   D(3,4,5,12)          -164.0152         -DE/DX =    0.0                 !
 ! D25   D(9,4,5,6)           -164.6018         -DE/DX =    0.0                 !
 ! D26   D(9,4,5,11)           -47.3289         -DE/DX =    0.0                 !
 ! D27   D(9,4,5,12)            73.8839         -DE/DX =    0.0                 !
 ! D28   D(10,4,5,6)            76.477          -DE/DX =    0.0                 !
 ! D29   D(10,4,5,11)         -166.2501         -DE/DX =    0.0                 !
 ! D30   D(10,4,5,12)          -45.0373         -DE/DX =    0.0                 !
 ! D31   D(4,5,6,2)             51.0026         -DE/DX =    0.0                 !
 ! D32   D(4,5,6,13)           167.4953         -DE/DX =    0.0                 !
 ! D33   D(4,5,6,14)           -65.5792         -DE/DX =    0.0                 !
 ! D34   D(11,5,6,2)           -67.4738         -DE/DX =    0.0                 !
 ! D35   D(11,5,6,13)           49.0189         -DE/DX =    0.0                 !
 ! D36   D(11,5,6,14)          175.9445         -DE/DX =    0.0                 !
 ! D37   D(12,5,6,2)           172.6355         -DE/DX =    0.0                 !
 ! D38   D(12,5,6,13)          -70.8719         -DE/DX =    0.0                 !
 ! D39   D(12,5,6,14)           56.0537         -DE/DX =    0.0                 !
 --------------------------------------------------------------------------------
 GradGradGradGradGradGradGradGradGradGradGradGradGradGradGradGradGradGrad

 Leave Link  103 at Sun Oct 13 21:41:21 2019, MaxMem= 10737418240 cpu:               0.5 elap:               0.0
 (Enter /apps/cent7/gaussian/g16-A.03/g16-haswell/g16/l9999.exe)

 ----------------------------------------------------------------------

 Electric dipole moment (input orientation):
 (Debye = 10**-18 statcoulomb cm , SI units = C m)
                  (au)            (Debye)         (10**-30 SI)
   Tot        0.183951D+01      0.467557D+01      0.155960D+02
   x         -0.489677D+00     -0.124464D+01     -0.415166D+01
   y         -0.131887D+01     -0.335223D+01     -0.111818D+02
   z         -0.118516D+01     -0.301238D+01     -0.100482D+02

 Dipole polarizability, Alpha (input orientation).
 (esu units = cm**3 , SI units = C**2 m**2 J**-1)
 Alpha(0;0):
               (au)            (10**-24 esu)      (10**-40 SI)
   iso        0.670535D+02      0.993630D+01      0.110556D+02
   aniso      0.115372D+02      0.170964D+01      0.190223D+01
   xx         0.605592D+02      0.897394D+01      0.998486D+01
   yx        -0.209301D+01     -0.310153D+00     -0.345091D+00
   yy         0.702932D+02      0.104164D+02      0.115898D+02
   zx        -0.415569D+00     -0.615809D-01     -0.685180D-01
   zy         0.286077D+01      0.423922D+00      0.471677D+00
   zz         0.703080D+02      0.104186D+02      0.115922D+02

 ----------------------------------------------------------------------

 Dipole orientation:
     8          0.57737761         -2.36602386         -5.82366915
    16         -0.90715977         -2.10190978         -3.40025291
     6          0.95140322          0.09461022         -1.41547767
     6          2.69340483         -1.44573100          0.32839297
     6          2.80178343         -4.14622398         -0.71008108
     6          0.08839578         -4.76577760         -1.43423729
     1          1.97614713          1.20085700         -2.81958142
     1         -0.34198894          1.32825511         -0.39129574
     1          4.56565400         -0.59166544          0.44227257
     1          1.90903426         -1.48358252          2.23900602
     1          3.98146199         -4.22973539         -2.40209653
     1          3.55023334         -5.47851022          0.67486100
     1         -0.14719468         -6.46031414         -2.57881181
     1         -1.15796432         -4.84192958          0.21310857

 Electric dipole moment (dipole orientation):
 (Debye = 10**-18 statcoulomb cm , SI units = C m)
                  (au)            (Debye)         (10**-30 SI)
   Tot        0.183951D+01      0.467557D+01      0.155960D+02
   x          0.000000D+00      0.000000D+00      0.000000D+00
   y          0.000000D+00      0.000000D+00      0.000000D+00
   z          0.183951D+01      0.467557D+01      0.155960D+02

 Dipole polarizability, Alpha (dipole orientation).
 (esu units = cm**3 , SI units = C**2 m**2 J**-1)
 Alpha(0;0):
               (au)            (10**-24 esu)      (10**-40 SI)
   iso        0.670535D+02      0.993630D+01      0.110556D+02
   aniso      0.115372D+02      0.170964D+01      0.190223D+01
   xx         0.622346D+02      0.922221D+01      0.102611D+02
   yx         0.334018D+00      0.494964D-01      0.550722D-01
   yy         0.676148D+02      0.100195D+02      0.111482D+02
   zx         0.484003D+01      0.717218D+00      0.798013D+00
   zy        -0.810623D-02     -0.120122D-02     -0.133654D-02
   zz         0.713110D+02      0.105672D+02      0.117576D+02

 ----------------------------------------------------------------------
 1\1\GINC-BROWN-A356\Freq\RM062X\6-311++G(d,p)\C4H8O1S1\FINEJ\13-Oct-20
 19\0\\#P Geom=AllCheck Guess=TCheck SCRF=Check GenChk RM062X/6-311++G(
 d,p) Freq\\Title Card Required\\0,1\O,0.9674005152,3.0346751542,1.0065
 06397\S,-0.1094832003,2.1103408252,0.4895974109\C,0.6869685931,0.44418
 31896,0.3844653422\C,1.2288032544,0.2358462789,-1.0398862363\C,1.26409
 71828,1.6054770945,-1.7256697952\C,-0.045930898,2.2722468431,-1.331610
 8824\H,1.4716103713,0.5115693893,1.1385386061\H,-0.0364675869,-0.31368
 06574,0.6855254172\H,2.2132746861,-0.2330203791,-1.0184155376\H,0.5601
 534719,-0.4270975833,-1.5951573479\H,2.094672154,2.2053486397,-1.34665
 81399\H,1.3661658143,1.5186665483,-2.8087539094\H,-0.1080782992,3.3373
 492174,-1.5511049631\H,-0.9137860587,1.7514954397,-1.7465763615\\Versi
 on=ES64L-G16RevA.03\State=1-A\HF=-630.5609559\RMSD=2.801e-09\RMSF=9.16
 2e-06\ZeroPoint=0.1181183\Thermal=0.1181184\Dipole=-0.4896773,-1.31886
 8,-1.1851625\DipoleDeriv=-0.6938262,-0.4768582,-0.3996913,-0.0796409,-
 0.8629031,-0.3637191,-0.0035495,-0.2027889,-0.7029778,0.5851948,0.3680
 977,0.3120484,0.053108,0.93677,0.4131677,0.0265135,0.2878425,0.7872971
 ,-0.0221195,0.0681722,-0.0194198,0.0430689,-0.0932621,0.0077441,0.0078
 512,-0.0711909,-0.0638797,0.0588493,0.0818133,0.0618051,0.0257947,-0.0
 139322,0.041722,0.0222708,0.1046423,0.0966156,0.0473647,-0.0177088,-0.
 0543634,0.0093579,0.0434563,0.0164169,0.0352036,0.0130746,-0.0486309,-
 0.0194805,0.017978,0.0706412,0.0391233,-0.0405967,-0.0165366,0.0048346
 ,0.0178614,-0.1002722,0.0338244,0.0221612,-0.0403014,-0.0008177,0.0234
 024,-0.0229308,-0.0094994,-0.0164018,0.0079162,0.0111198,-0.0461125,0.
 0548461,-0.0504633,-0.0452736,0.0315629,0.0223968,0.0098205,0.0307318,
 -0.0603325,0.1020436,0.0226045,0.0728388,0.0048937,-0.0146309,0.004473
 7,-0.0325682,0.0424451,-0.0205943,-0.0927257,-0.058943,-0.0422559,-0.0
 183916,-0.0392201,-0.0330698,-0.0713351,-0.0246582,-0.0143408,-0.02936
 82,-0.0067755,-0.0394491,0.0052554,0.0011151,-0.0594186,-0.023199,0.06
 80636,0.0605925,0.0160559,0.0653607,0.0121976,0.0593656,-0.0308759,0.0
 46537,0.0008959,-0.1226828,0.069008,0.0210324,0.0087576,0.0380986,-0.0
 297751,0.0211676,-0.0136562,0.0118771,0.0415606,-0.0352596,-0.0345808,
 -0.0165693,-0.080961,0.0309911,-0.0449828,-0.0508877,-0.0285303,-0.011
 5285\Polar=60.5591744,-2.0930142,70.2931825,-0.4155687,2.8607677,70.30
 8004\Quadrupole=1.0411746,-0.8343167,-0.2068579,-1.8542375,-0.7080225,
 -4.0875607\PG=C01 [X(C4H8O1S1)]\NImag=0\\0.23300259,0.18111250,0.20240
 438,0.10886743,0.09756305,0.09496780,-0.25249145,-0.15439917,-0.072887
 21,0.40398513,-0.17118231,-0.17806827,-0.06711863,0.11422300,0.3379588
 8,-0.09437741,-0.07621496,-0.08584097,0.04068422,0.06681096,0.29627223
 ,0.00932961,-0.02605594,-0.00569801,-0.07187218,0.04646058,-0.00241229
 ,0.51427970,0.00370928,-0.02127899,-0.00605285,0.00848411,-0.08044526,
 0.00024781,0.12170911,0.40932085,-0.00755405,-0.01006746,0.00029965,0.
 01432268,-0.00724946,-0.03934640,0.04934473,-0.03502109,0.50191936,0.0
 0405025,-0.00099181,0.00151756,-0.01748667,0.01632405,0.00541846,-0.08
 411886,-0.00257836,0.03036404,0.60074476,-0.00323957,-0.00139987,0.000
 61379,0.01374804,-0.00877559,-0.01349320,0.00150477,-0.07405763,-0.023
 72144,-0.02113520,0.52430790,0.00056130,0.00240201,0.00027237,0.008231
 35,-0.01556029,-0.00215119,0.02973861,-0.00943173,-0.16788356,0.047241
 86,0.05001317,0.45328953,-0.00286907,-0.00033005,0.00054384,-0.0001208
 8,0.00138805,0.01772643,-0.00345037,-0.00503097,0.00568717,-0.07550743
 ,-0.00722168,-0.00443236,0.52276009,-0.00101654,0.00127350,0.00043605,
 0.00542142,-0.00137213,-0.00625716,-0.00252284,0.00281980,0.00908566,-
 0.01053395,-0.16789959,0.04150028,0.06709050,0.47162241,-0.00299975,-0
 .00142280,0.00459376,0.03133243,0.00075681,-0.03719132,0.01033938,0.02
 263828,-0.02442262,0.00021653,0.04023664,-0.09349163,0.00490636,0.0357
 0003,0.61345906,0.00091629,-0.00069038,-0.03281914,-0.05197996,-0.0156
 5023,0.04076690,0.00320454,0.00533687,-0.00903445,-0.00532080,0.010531
 48,-0.00207736,-0.17073223,0.04253792,0.02382529,0.51243932,-0.0076614
 2,-0.00271612,-0.02207616,-0.00087459,-0.04517740,0.00654244,0.0079308
 7,-0.00796093,0.01904088,0.03307123,-0.02690004,0.00275018,0.03941395,
 -0.09682144,-0.01562575,0.03039366,0.61187883,-0.00329240,-0.00477686,
 -0.00966001,-0.00280220,0.00887037,-0.11242932,-0.00236432,0.01367332,
 -0.00355691,-0.00622851,0.00298960,-0.00121641,0.01876385,-0.01496574,
 -0.07348841,0.05939894,-0.00635764,0.34482536,0.00246299,-0.00350165,0
 .00033464,-0.01233507,0.00351854,-0.00778852,-0.19517003,-0.01542854,-
 0.14180698,0.01127065,0.00144110,0.01100919,0.00004363,0.00035184,0.00
 036621,-0.00080416,0.00108888,0.00045508,0.20696878,-0.00326867,0.0054
 4484,-0.00039241,0.02502160,-0.00918595,0.01693035,-0.01541269,-0.0397
 5627,-0.00819796,-0.00210879,-0.00155477,-0.00432384,0.00033652,-0.000
 15027,-0.00027377,0.00081541,-0.00486627,-0.00043103,0.01216883,0.0470
 8953,0.00145098,-0.00015202,0.00041740,-0.00053873,-0.00026766,-0.0004
 8667,-0.13921532,-0.01108202,-0.17688595,-0.01965329,-0.00294957,-0.01
 654293,-0.00024486,-0.00020381,-0.00073489,0.00050131,0.00010263,-0.00
 053533,0.14786907,0.01345320,0.19013313,0.00003584,0.00363196,0.000802
 47,0.00994605,0.00750421,-0.00263369,-0.17092083,-0.12967835,0.0474933
 8,-0.00443562,-0.00690412,0.00134649,-0.00083573,0.00173845,0.00115183
 ,-0.00126536,0.00080681,-0.00108807,-0.01352802,-0.01745991,0.00796739
 ,0.17969610,0.00194158,-0.00738607,-0.00209699,-0.01796462,-0.00966648
 ,0.00430467,-0.13232758,-0.18110283,0.05395439,0.00452485,0.00685450,-
 0.00413109,0.00132387,-0.00112494,-0.00090188,0.00117070,-0.00099000,0
 .00093623,0.00042980,0.00113889,-0.00015997,0.14003104,0.19158859,0.00
 134358,-0.00237692,0.00037007,-0.00366194,-0.00050635,-0.00185907,0.05
 028572,0.05117070,-0.06435073,0.01697606,0.02046243,-0.00731592,0.0016
 7561,-0.00156201,-0.00439837,0.00053868,0.00043071,-0.00028003,-0.0128
 6090,-0.01614635,0.00714786,-0.05442341,-0.05333923,0.07170698,0.00049
 037,0.00021347,0.00018147,0.00009145,-0.00150840,0.00000207,-0.0075000
 8,0.00296595,0.00058062,-0.27407405,0.10523485,-0.00788856,0.00367165,
 -0.00245809,-0.00024603,0.00072765,-0.00044933,0.00007916,0.00133918,-
 0.00016541,-0.00022156,-0.00025197,0.00048443,0.00082003,0.29179855,-0
 .00094360,-0.00024128,-0.00026334,0.00153767,-0.00096025,0.00100731,0.
 00207826,-0.00159068,0.00093477,0.10222850,-0.09339207,0.00143397,0.02
 557832,-0.01087361,-0.00071907,-0.00035326,-0.00553278,0.00166045,0.00
 008056,0.00076264,-0.00006819,-0.00001673,-0.00036158,0.00000042,-0.11
 326380,0.10192114,-0.00174415,-0.00062676,-0.00033744,0.00447868,-0.00
 058742,-0.00221698,0.02653270,-0.01313154,-0.00213043,-0.00812737,0.00
 206617,-0.04529599,-0.01479882,0.00545361,0.00003544,0.00069692,0.0032
 0673,-0.00234983,-0.00037208,-0.00026334,0.00161800,0.00073444,0.00002
 928,-0.00153766,0.00738512,-0.00287041,0.05158028,0.00018662,0.0002047
 7,-0.00026210,-0.00019183,0.00003691,0.00089006,0.00703288,0.00797060,
 0.00832787,-0.15257826,-0.09685246,-0.08469692,-0.00208483,-0.00113994
 ,0.00033448,0.00115924,0.00039775,0.00031678,-0.00007856,0.00052245,0.
 00184302,0.00138586,0.00028813,-0.00024768,-0.01740049,-0.01847512,-0.
 01479665,0.16092618,0.00011963,0.00025697,-0.00013419,0.00028270,-0.00
 056807,-0.00024765,-0.00206625,-0.00144245,0.00013989,-0.09605806,-0.1
 4340126,-0.08280006,-0.02023709,-0.02032820,-0.01368996,-0.00123822,0.
 00101129,-0.00056497,0.00029359,0.00059413,0.00035751,0.00047004,0.000
 92289,0.00038636,0.00831057,0.00930585,0.00761460,0.10774853,0.1565746
 7,-0.00028415,-0.00086392,0.00042188,-0.00035385,0.00122810,-0.0015957
 8,-0.01711143,-0.01678895,-0.01957524,-0.08361137,-0.08171748,-0.11320
 264,0.01148739,0.01175391,0.00788473,0.00018543,-0.00050319,0.00003530
 ,0.00304449,-0.00164741,-0.00391596,-0.00049870,0.00040332,0.00139024,
 -0.00057623,-0.00012792,-0.00043524,0.08761880,0.08548632,0.12867783,0
 .00235726,0.00090627,-0.00099734,-0.00271367,-0.00195408,-0.00142797,0
 .00001982,-0.00012893,0.00036664,0.00226011,0.00202792,0.00120153,-0.2
 0254237,-0.11162190,-0.07035942,-0.02482912,-0.01448509,-0.00905813,-0
 .00007400,-0.00018026,0.00005522,-0.00001306,0.00005984,0.00008000,0.0
 0070834,-0.00003305,0.00052755,0.00119000,0.00110015,-0.00045207,0.222
 97764,0.00017197,-0.00065973,-0.00009374,-0.00032181,0.00033190,0.0001
 0743,0.00009849,0.00069751,-0.00020671,-0.02197499,-0.01844722,-0.0111
 6975,-0.11312604,-0.12781273,-0.05090759,0.01392221,0.00939556,0.00667
 866,-0.00016946,-0.00001404,0.00048451,0.00021634,0.00004417,0.0000106
 2,0.00030552,0.00115509,-0.00077874,-0.00010678,-0.00449604,0.00369645
 ,0.11894526,0.14126574,-0.00089653,-0.00061759,-0.00043977,0.00158140,
 0.00067476,0.00040902,-0.00020489,-0.00011028,0.00090750,0.01229510,0.
 00817930,0.00568679,-0.07327245,-0.05194710,-0.08505566,0.00661624,0.0
 0492651,0.00248537,-0.00012495,0.00015275,-0.00017352,-0.00013407,-0.0
 0013379,-0.00007909,-0.00003226,-0.00084088,0.00062401,0.00063485,0.00
 303828,-0.00065045,0.07691782,0.05411171,0.08586004,0.00265116,0.00106
 679,-0.00115771,-0.00642190,-0.00110553,0.00353757,-0.00034452,0.00156
 388,0.00097617,-0.00073191,-0.00045761,-0.00115954,-0.04804557,0.00087
 194,0.02080138,-0.00306210,0.00191882,0.02790516,-0.00009649,-0.000180
 06,0.00028906,0.00012808,-0.00009626,-0.00015082,-0.00016588,-0.000072
 02,-0.00018429,0.00024341,0.00001858,0.00049046,0.00339610,-0.00097567
 ,-0.02454933,0.05094838,-0.00019913,0.00032452,0.00030788,0.00289786,-
 0.00178127,-0.00135910,-0.00040642,-0.00497841,0.00262923,-0.00403547,
 0.00333803,0.02950262,0.00138575,-0.04750127,-0.02529814,0.00087772,-0
 .00204941,-0.01527163,-0.00019125,0.00011197,0.00049012,-0.00048871,0.
 00024602,0.00127309,0.00055494,0.00023839,-0.00032172,-0.00029754,0.00
 147334,-0.00053885,0.00257995,-0.00136311,-0.01696297,-0.00204249,0.05
 148434,0.00008940,0.00011887,0.00017812,0.00018517,0.00027632,0.000752
 60,0.00043616,0.00178420,0.00025486,0.00083786,-0.00245209,-0.01055670
 ,0.02204503,-0.02336652,-0.31509429,0.00028409,-0.00053250,-0.00496236
 ,-0.00000742,-0.00004065,-0.00010619,0.00012449,-0.00006555,-0.0005803
 8,-0.00014084,0.00035574,-0.00026911,0.00033654,0.00001245,0.00085648,
 0.00105058,-0.00066777,-0.00995639,-0.02596783,0.02468215,0.33914752,-
 0.00115229,-0.00067702,-0.00021847,-0.00006398,-0.00147661,-0.00041053
 ,-0.00036864,0.00097663,0.00136108,-0.00509972,0.00257970,0.00086364,0
 .00191241,0.02492252,-0.00832804,-0.04792293,0.01160273,-0.00162091,0.
 00013102,-0.00013528,-0.00021500,-0.00002803,0.00013246,-0.00009732,0.
 00019527,0.00155894,-0.00070432,0.00006353,0.00028387,0.00013673,0.001
 01385,-0.00050257,-0.00055867,0.00041422,-0.00028596,0.00042542,0.0491
 1575,0.00068316,0.00127775,-0.00045656,-0.00056847,-0.00221616,-0.0001
 5746,-0.00036004,0.00017767,-0.00113496,0.00250351,-0.00011716,-0.0004
 7098,-0.00154147,-0.00802954,0.00283721,0.01378584,-0.31776383,0.05613
 622,-0.00014440,0.00028313,0.00014753,0.00000438,-0.00006475,0.0000792
 0,-0.00006927,-0.00059450,0.00040037,-0.00009682,0.00028796,-0.0000395
 2,0.00001703,0.00062565,-0.00001124,0.00022162,-0.00015441,-0.00020348
 ,-0.01583752,0.33767899,0.00030104,-0.00249634,0.00451306,-0.00012514,
 0.02779752,-0.01004086,-0.00104575,0.00077697,-0.00492190,0.00329881,-
 0.00037746,-0.00176560,-0.00098568,-0.01141271,0.00287422,-0.00407942,
 0.05709004,-0.05340841,-0.00035724,0.00146650,0.00006461,-0.00028973,0
 .00049042,-0.00015899,-0.00004036,-0.00057521,0.00077753,0.00009652,0.
 00042038,-0.00002283,-0.00018160,0.00083113,0.00024270,-0.00033568,0.0
 0019295,-0.00014926,0.00251320,-0.06048508,0.05767010,0.00102983,-0.00
 048974,0.00179257,0.00165497,0.00342181,0.00002470,-0.00012103,0.00012
 873,-0.00042891,0.00102754,-0.00125722,0.00006077,-0.02219930,-0.01364
 132,-0.01134064,-0.21253039,-0.10315428,-0.08046444,-0.00012992,0.0000
 4626,0.00011270,0.00008669,0.00000175,-0.00027759,0.00037000,0.0000953
 2,0.00037226,0.00014626,0.00097195,-0.00007550,-0.00375090,0.00351752,
 0.00172775,0.00108702,-0.00034924,0.00030136,0.00178953,0.00140245,0.0
 0123102,0.23153970,-0.00022687,0.00076838,-0.00023590,0.00251224,-0.00
 007395,0.00177857,-0.00063033,-0.00040238,-0.00018576,0.00076449,0.001
 44478,0.00028551,0.01097035,0.00619801,0.00666999,-0.10143972,-0.11150
 743,-0.04857697,0.00006216,0.00010245,-0.00015226,0.00014458,-0.000098
 41,0.00011731,-0.00015544,0.00016363,-0.00019082,-0.00020048,-0.000191
 08,-0.00034088,0.00276689,-0.00072276,-0.00045947,-0.00073200,0.000611
 27,0.00009883,-0.02314188,-0.01139079,-0.01371910,0.10930601,0.1150982
 9,-0.00146530,-0.00046830,-0.00975592,-0.02044687,-0.01512502,-0.00427
 529,0.00137472,0.00132717,-0.00030762,-0.00054571,0.00015015,0.0001738
 8,0.01089848,0.00578551,0.00503000,-0.08480343,-0.04899488,-0.08545900
 ,0.00023940,-0.00028606,0.00000045,-0.00055281,0.00071018,-0.00005491,
 0.00009738,0.00007235,-0.00006258,-0.00039557,-0.00001897,0.00013168,0
 .00227720,-0.00209620,0.00013946,-0.00049461,0.00067436,0.00048511,0.0
 0685319,0.00335877,0.00432564,0.08696393,0.05491095,0.08962912\\-0.000
 00183,-0.00000214,-0.00000589,0.00001107,-0.00002348,0.00002564,-0.000
 00638,0.00003036,0.00000269,0.00000075,-0.00000762,-0.00000344,-0.0000
 0137,-0.00000145,-0.00000130,0.00000002,0.00000671,-0.00002901,0.00000
 487,-0.00000326,-0.00000092,-0.00000271,0.00000159,0.00000239,-0.00000
 186,0.00000218,0.00000160,-0.00000332,0.00000103,0.00000131,-0.0000002
 5,-0.00000444,-0.00000214,-0.00000499,-0.00000331,-0.00000122,0.000004
 31,0.00000115,0.00000503,0.00000169,0.00000267,0.00000525\\\@


 ADAM SMITH SAID, "THE REAL PRICE OF ANYTHING IS THE TOIL AND TROUBLE
 OF ACQUIRING IT."  BUT IN ALL UNDERTAKINGS WITH NATURE WE SHOULD FIRST
 READ CAREFULLY THE SMALL PRINT IN THE CONTRACT. THIS MIGHT DISCLOSE
 THAT THE REAL PRICE IS TO BE PAID BY THOSE WHO INHERIT THE DEPLETION
 AND DESPOILATION THAT FOLLOWS.
                               -- E. R. HARRISON IN "COSMOLOGY" (1980)
 Job cpu time:       0 days  0 hours 19 minutes 15.8 seconds.
 Elapsed time:       0 days  0 hours  0 minutes 48.8 seconds.
 File lengths (MBytes):  RWF=     61 Int=      0 D2E=      0 Chk=      4 Scr=      1
 Normal termination of Gaussian 16 at Sun Oct 13 21:41:21 2019.
real 181.82
user 4176.36
sys 20.42
Machine:
brown-a356
brown-a356
brown-a356
brown-a356
brown-a356
brown-a356
brown-a356
brown-a356
brown-a356
brown-a356
brown-a356
brown-a356
brown-a356
brown-a356
brown-a356
brown-a356
brown-a356
brown-a356
brown-a356
brown-a356
brown-a356
brown-a356
brown-a356
brown-a356
