Title Card Required                                                     
Freq      RM062X                                                      6-311++G(d,p)       
Number of atoms                            I               15
Info1-9                                    I   N=           9
          40          40        1002           0           0         100
           6          18        -502
Full Title                                 C   N=           2
Title Card Required     
Route                                      C   N=           6
#P opt freq m062x/6-311++g(d,p) geom=connectivity temperatur
e=0.001     
Charge                                     I                1
Multiplicity                               I                1
Number of electrons                        I               56
Number of alpha electrons                  I               28
Number of beta electrons                   I               28
Number of basis functions                  I              203
Number of independent functions            I              203
Number of point charges in /Mol/           I                0
Number of translation vectors              I                0
Atomic numbers                             I   N=          15
           8          16           6           6           6           6
           1           1           1           1           1           1
           1           1           1
Nuclear charges                            R   N=          15
  8.00000000E+00  1.60000000E+01  6.00000000E+00  6.00000000E+00  6.00000000E+00
  6.00000000E+00  1.00000000E+00  1.00000000E+00  1.00000000E+00  1.00000000E+00
  1.00000000E+00  1.00000000E+00  1.00000000E+00  1.00000000E+00  1.00000000E+00
Current cartesian coordinates              R   N=          45
 -3.37059739E+00  1.30070919E-01  1.53297527E+00 -1.73283053E+00 -2.35228529E-01
 -1.01852271E+00  6.75742716E-01 -2.56987430E+00 -1.32606652E-01  3.17652444E+00
 -1.14037675E+00  2.35171036E-01  2.54004371E+00  1.59600616E+00  9.17428028E-01
  4.73253248E-01  2.39612766E+00 -9.26542305E-01 -6.00422209E-02 -3.44641997E+00
  1.58609298E+00  7.17506284E-01 -3.99252132E+00 -1.62095269E+00  4.29793576E+00
 -2.06158805E+00  1.69654831E+00  4.26686593E+00 -1.18837429E+00 -1.51497354E+00
  1.89231121E+00  1.75654664E+00  2.87561216E+00  4.17383789E+00  2.83733333E+00
  7.29430001E-01 -6.10276644E-01  4.08265531E+00 -4.45697554E-01  1.18036592E+00
  2.57353645E+00 -2.86082840E+00 -2.36182119E+00  4.70624414E-01  3.02662926E+00
Number of symbols in /Mol/                 I                0
Force Field                                I                0
Atom Types                                 C   N=          15
                                                            
                                                            
                                                            
Int Atom Types                             I   N=          15
           0           0           0           0           0           0
           0           0           0           0           0           0
           0           0           0
MM charges                                 R   N=          15
  0.00000000E+00  0.00000000E+00  0.00000000E+00  0.00000000E+00  0.00000000E+00
  0.00000000E+00  0.00000000E+00  0.00000000E+00  0.00000000E+00  0.00000000E+00
  0.00000000E+00  0.00000000E+00  0.00000000E+00  0.00000000E+00  0.00000000E+00
Integer atomic weights                     I   N=          15
          16          32          12          12          12          12
           1           1           1           1           1           1
           1           1           1
Real atomic weights                        R   N=          15
  1.59949146E+01  3.19720718E+01  1.20000000E+01  1.20000000E+01  1.20000000E+01
  1.20000000E+01  1.00782504E+00  1.00782504E+00  1.00782504E+00  1.00782504E+00
  1.00782504E+00  1.00782504E+00  1.00782504E+00  1.00782504E+00  1.00782504E+00
Atom fragment info                         I   N=          15
           0           0           0           0           0           0
           0           0           0           0           0           0
           0           0           0
Atom residue num                           I   N=          15
           0           0           0           0           0           0
           0           0           0           0           0           0
           0           0           0
Nuclear spins                              I   N=          15
           0           0           0           0           0           0
           1           1           1           1           1           1
           1           1           1
Nuclear ZEff                               R   N=          15
 -5.60000000E+00 -1.36000000E+01 -3.60000000E+00 -3.60000000E+00 -3.60000000E+00
 -3.60000000E+00 -1.00000000E+00 -1.00000000E+00 -1.00000000E+00 -1.00000000E+00
 -1.00000000E+00 -1.00000000E+00 -1.00000000E+00 -1.00000000E+00 -1.00000000E+00
Nuclear ZNuc                               R   N=          15
  8.00000000E+00  1.60000000E+01  6.00000000E+00  6.00000000E+00  6.00000000E+00
  6.00000000E+00  1.00000000E+00  1.00000000E+00  1.00000000E+00  1.00000000E+00
  1.00000000E+00  1.00000000E+00  1.00000000E+00  1.00000000E+00  1.00000000E+00
Nuclear QMom                               R   N=          15
  0.00000000E+00  0.00000000E+00  0.00000000E+00  0.00000000E+00  0.00000000E+00
  0.00000000E+00  0.00000000E+00  0.00000000E+00  0.00000000E+00  0.00000000E+00
  0.00000000E+00  0.00000000E+00  0.00000000E+00  0.00000000E+00  0.00000000E+00
Nuclear GFac                               R   N=          15
  0.00000000E+00  0.00000000E+00  0.00000000E+00  0.00000000E+00  0.00000000E+00
  0.00000000E+00  2.79284600E+00  2.79284600E+00  2.79284600E+00  2.79284600E+00
  2.79284600E+00  2.79284600E+00  2.79284600E+00  2.79284600E+00  2.79284600E+00
MicOpt                                     I   N=          15
          -1          -1          -1          -1          -1          -1
          -1          -1          -1          -1          -1          -1
          -1          -1          -1
Number of residues                         I                0
Number of secondary structures             I                0
Redundant internal dimensions              I   N=           4
          84          15          28          41
Redundant internal coordinate indices      I   N=         336
           1           2           0           0           1          15
           0           0           2           3           0           0
           2           6           0           0           3           4
           0           0           3           7           0           0
           3           8           0           0           4           5
           0           0           4           9           0           0
           4          10           0           0           5           6
           0           0           5          11           0           0
           5          12           0           0           6          13
           0           0           6          14           0           0
           2           1          15           0           1           2
           3           0           1           2           6           0
           3           2           6           0           2           3
           4           0           2           3           7           0
           2           3           8           0           4           3
           7           0           4           3           8           0
           7           3           8           0           3           4
           5           0           3           4           9           0
           3           4          10           0           5           4
           9           0           5           4          10           0
           9           4          10           0           4           5
           6           0           4           5          11           0
           4           5          12           0           6           5
          11           0           6           5          12           0
          11           5          12           0           2           6
           5           0           2           6          13           0
           2           6          14           0           5           6
          13           0           5           6          14           0
          13           6          14           0          15           1
           2           3          15           1           2           6
           1           2           3           4           1           2
           3           7           1           2           3           8
           6           2           3           4           6           2
           3           7           6           2           3           8
           1           2           6           5           1           2
           6          13           1           2           6          14
           3           2           6           5           3           2
           6          13           3           2           6          14
           2           3           4           5           2           3
           4           9           2           3           4          10
           7           3           4           5           7           3
           4           9           7           3           4          10
           8           3           4           5           8           3
           4           9           8           3           4          10
           3           4           5           6           3           4
           5          11           3           4           5          12
           9           4           5           6           9           4
           5          11           9           4           5          12
          10           4           5           6          10           4
           5          11          10           4           5          12
           4           5           6           2           4           5
           6          13           4           5           6          14
          11           5           6           2          11           5
           6          13          11           5           6          14
          12           5           6           2          12           5
           6          13          12           5           6          14
Redundant internal coordinates             R   N=          84
  3.05382808E+00  1.83428688E+00  3.46938658E+00  3.43501112E+00  2.90389961E+00
  2.06485840E+00  2.05933064E+00  2.89108522E+00  2.05956722E+00  2.06256014E+00
  2.88306154E+00  2.06877155E+00  2.06046592E+00  2.06146167E+00  2.06711028E+00
  1.99064174E+00  1.81261141E+00  1.80330949E+00  1.63362690E+00  1.87438006E+00
  1.82432833E+00  1.86963032E+00  1.99371488E+00  1.99779687E+00  1.89181859E+00
  1.88201935E+00  1.91620835E+00  1.91381205E+00  1.95602923E+00  1.91627573E+00
  1.87951145E+00  1.84373481E+00  1.94523581E+00  1.95424014E+00  1.93843023E+00
  1.92077260E+00  1.86280533E+00  1.83893009E+00  1.87066395E+00  1.83421481E+00
  2.04278725E+00  1.95744017E+00  1.90482503E+00  8.83625721E-01 -8.12360237E-01
 -1.81672267E+00  3.07334053E-01  2.31256042E+00  1.01793025E-02  2.13423602E+00
 -2.14372292E+00  1.38018764E+00 -8.07476049E-01 -2.83254608E+00 -4.55155187E-01
 -2.64281888E+00  1.61529639E+00  4.42220496E-01  2.57784184E+00 -1.64367890E+00
 -1.57222044E+00  5.63400903E-01  2.62506546E+00  2.51536242E+00 -1.63220154E+00
  4.29463018E-01 -7.91441396E-01  1.31571822E+00 -2.88221578E+00 -2.90235531E+00
 -7.95195696E-01  1.29005560E+00  1.29289479E+00 -2.88313090E+00 -7.97879599E-01
  7.78069754E-01  2.85431240E+00 -1.20797272E+00 -1.33352126E+00  7.42721386E-01
  2.96362157E+00  2.89073767E+00 -1.31620499E+00  9.04695196E-01
ZRed-IntVec                                I   N=          84
           0           0           0           0           0           0
           0           0           0           0           0           0
           0           0           0           0           0           0
           0           0           0           0           0           0
           0           0           0           0           0           0
           0           0           0           0           0           0
           0           0           0           0           0           0
           0           0           0           0           0           0
           0           0           0           0           0           0
           0           0           0           0           0           0
           0           0           0           0           0           0
           0           0           0           0           0           0
           0           0           0           0           0           0
           0           0           0           0           0           0
ZRed-FPVec                                 R   N=          84
  0.00000000E+00  0.00000000E+00  0.00000000E+00  0.00000000E+00  0.00000000E+00
  0.00000000E+00  0.00000000E+00  0.00000000E+00  0.00000000E+00  0.00000000E+00
  0.00000000E+00  0.00000000E+00  0.00000000E+00  0.00000000E+00  0.00000000E+00
  0.00000000E+00  0.00000000E+00  0.00000000E+00  0.00000000E+00  0.00000000E+00
  0.00000000E+00  0.00000000E+00  0.00000000E+00  0.00000000E+00  0.00000000E+00
  0.00000000E+00  0.00000000E+00  0.00000000E+00  0.00000000E+00  0.00000000E+00
  0.00000000E+00  0.00000000E+00  0.00000000E+00  0.00000000E+00  0.00000000E+00
  0.00000000E+00  0.00000000E+00  0.00000000E+00  0.00000000E+00  0.00000000E+00
  0.00000000E+00  0.00000000E+00  0.00000000E+00  0.00000000E+00  0.00000000E+00
  0.00000000E+00  0.00000000E+00  0.00000000E+00  0.00000000E+00  0.00000000E+00
  0.00000000E+00  0.00000000E+00  0.00000000E+00  0.00000000E+00  0.00000000E+00
  0.00000000E+00  0.00000000E+00  0.00000000E+00  0.00000000E+00  0.00000000E+00
  0.00000000E+00  0.00000000E+00  0.00000000E+00  0.00000000E+00  0.00000000E+00
  0.00000000E+00  0.00000000E+00  0.00000000E+00  0.00000000E+00  0.00000000E+00
  0.00000000E+00  0.00000000E+00  0.00000000E+00  0.00000000E+00  0.00000000E+00
  0.00000000E+00  0.00000000E+00  0.00000000E+00  0.00000000E+00  0.00000000E+00
  0.00000000E+00  0.00000000E+00  0.00000000E+00  0.00000000E+00
ZRed-Constraint1                           R   N=          84
  3.05382808E+00  1.83428688E+00  3.46938658E+00  3.43501112E+00  2.90389961E+00
  2.06485840E+00  2.05933064E+00  2.89108522E+00  2.05956722E+00  2.06256014E+00
  2.88306154E+00  2.06877155E+00  2.06046592E+00  2.06146167E+00  2.06711028E+00
  1.99064174E+00  1.81261141E+00  1.80330949E+00  1.63362690E+00  1.87438006E+00
  1.82432833E+00  1.86963032E+00  1.99371488E+00  1.99779687E+00  1.89181859E+00
  1.88201935E+00  1.91620835E+00  1.91381205E+00  1.95602923E+00  1.91627573E+00
  1.87951145E+00  1.84373481E+00  1.94523581E+00  1.95424014E+00  1.93843023E+00
  1.92077260E+00  1.86280533E+00  1.83893009E+00  1.87066395E+00  1.83421481E+00
  2.04278725E+00  1.95744017E+00  1.90482503E+00  8.83625721E-01 -8.12360237E-01
 -1.81672267E+00  3.07334053E-01  2.31256042E+00  1.01793025E-02  2.13423602E+00
 -2.14372292E+00  1.38018764E+00 -8.07476049E-01 -2.83254608E+00 -4.55155187E-01
 -2.64281888E+00  1.61529639E+00  4.42220496E-01  2.57784184E+00 -1.64367890E+00
 -1.57222044E+00  5.63400903E-01  2.62506546E+00  2.51536242E+00 -1.63220154E+00
  4.29463018E-01 -7.91441396E-01  1.31571822E+00 -2.88221578E+00 -2.90235531E+00
 -7.95195696E-01  1.29005560E+00  1.29289479E+00 -2.88313090E+00 -7.97879599E-01
  7.78069754E-01  2.85431240E+00 -1.20797272E+00 -1.33352126E+00  7.42721386E-01
  2.96362157E+00  2.89073767E+00 -1.31620499E+00  9.04695196E-01
ZRed-Constraint2                           R   N=          84
  3.02470702E+00  1.81413708E+00  3.44645006E+00  3.45249387E+00  2.91397368E+00
  2.05972388E+00  2.05980370E+00  2.93488367E+00  2.05971775E+00  2.05982648E+00
  2.92866934E+00  2.05980892E+00  2.05988362E+00  2.05996256E+00  2.05969746E+00
  2.09439511E+00  1.87240132E+00  1.87784054E+00  1.73182719E+00  1.75806061E+00
  1.93483326E+00  1.93484464E+00  1.85317798E+00  1.85307799E+00  2.09441821E+00
  1.89700115E+00  1.86436594E+00  1.86440303E+00  1.86869103E+00  1.86864065E+00
  2.09443823E+00  1.92875962E+00  1.86047370E+00  1.86046919E+00  1.85910420E+00
  1.85907105E+00  2.09433534E+00  1.81241145E+00  1.92582745E+00  1.92605020E+00
  1.83967770E+00  1.83971057E+00  2.09436533E+00  6.31058900E-01 -1.21811232E+00
 -2.43962825E+00 -4.83693259E-01  1.88773084E+00 -4.88517303E-01  1.46741769E+00
 -2.44434352E+00  2.06252944E+00  9.85185562E-02 -2.25651360E+00  1.15718562E-01
 -1.84829232E+00  2.07986083E+00  7.26444114E-01  2.73726675E+00 -1.28433897E+00
 -1.29139997E+00  7.19422661E-01  2.98100225E+00  2.74426578E+00 -1.52809689E+00
  7.33482703E-01 -7.09496968E-01  1.30387647E+00 -2.72282873E+00 -2.71751057E+00
 -7.04137134E-01  1.55234298E+00  1.29853388E+00 -2.97127799E+00 -7.14797880E-01
  3.07981016E-01  2.33356010E+00 -1.71785990E+00 -1.70625061E+00  3.19328474E-01
  2.55109378E+00  2.32218892E+00 -1.93541730E+00  2.96348007E-01
SymInf integers                            I   N=          26
           1           1           1           1           1           0
           0           0           0           0           0           0
           0           0           0           0           0           0
           0           0           0           0           0           0
           0           0
RotTr to input orientation                 R   N=          12
  3.49323524E-01 -5.87211196E-01 -7.30175381E-01 -1.16026813E-01  7.46161977E-01
 -6.55576145E-01  9.29790758E-01  3.13728092E-01  1.92519687E-01  8.43715079E-01
  3.12222147E+00 -3.74237004E-01
Number of contracted shells                I               88
Number of primitive shells                 I              152
Pure/Cartesian d shells                    I                0
Pure/Cartesian f shells                    I                0
Highest angular momentum                   I                2
Largest degree of contraction              I                6
Shell types                                I   N=          88
           0          -1          -1          -1          -1          -2
           0           0           0           0           0           0
          -1           1           1           1           1           1
          -2           0          -1          -1          -1          -1
          -2           0          -1          -1          -1          -1
          -2           0          -1          -1          -1          -1
          -2           0          -1          -1          -1          -1
          -2           0           0           0           0           1
           0           0           0           0           1           0
           0           0           0           1           0           0
           0           0           1           0           0           0
           0           1           0           0           0           0
           1           0           0           0           0           1
           0           0           0           0           1           0
           0           0           0           1
Number of primitives per shell             I   N=          88
           6           3           1           1           1           1
           6           3           1           1           1           1
           1           4           2           1           1           1
           1           6           3           1           1           1
           1           6           3           1           1           1
           1           6           3           1           1           1
           1           6           3           1           1           1
           1           3           1           1           1           1
           3           1           1           1           1           3
           1           1           1           1           3           1
           1           1           1           3           1           1
           1           1           3           1           1           1
           1           3           1           1           1           1
           3           1           1           1           1           3
           1           1           1           1
Shell to atom map                          I   N=          88
           1           1           1           1           1           1
           2           2           2           2           2           2
           2           2           2           2           2           2
           2           3           3           3           3           3
           3           4           4           4           4           4
           4           5           5           5           5           5
           5           6           6           6           6           6
           6           7           7           7           7           7
           8           8           8           8           8           9
           9           9           9           9          10          10
          10          10          10          11          11          11
          11          11          12          12          12          12
          12          13          13          13          13          13
          14          14          14          14          14          15
          15          15          15          15
Primitive exponents                        R   N=         152
  8.58850000E+03  1.29723000E+03  2.99296000E+02  8.73771000E+01  2.56789000E+01
  3.74004000E+00  4.21175000E+01  9.62837000E+00  2.85332000E+00  9.05661000E-01
  2.55611000E-01  8.45000000E-02  1.29200000E+00  9.34134000E+04  1.39617000E+04
  3.16991000E+03  9.02456000E+02  2.97158000E+02  1.08702000E+02  1.08702000E+02
  4.31553000E+01  1.81079000E+01  5.56009000E+00  2.13183000E+00  4.20403000E-01
  1.36045000E-01  4.05000000E-02  4.95040000E+02  1.17221000E+02  3.77749000E+01
  1.40584000E+01  5.56574000E+00  2.26297000E+00  8.07994000E-01  2.77460000E-01
  7.71410000E-02  6.50000000E-01  4.56324000E+03  6.82024000E+02  1.54973000E+02
  4.44553000E+01  1.30290000E+01  1.82773000E+00  2.09642000E+01  4.80331000E+00
  1.45933000E+00  4.83456000E-01  1.45585000E-01  4.38000000E-02  6.26000000E-01
  4.56324000E+03  6.82024000E+02  1.54973000E+02  4.44553000E+01  1.30290000E+01
  1.82773000E+00  2.09642000E+01  4.80331000E+00  1.45933000E+00  4.83456000E-01
  1.45585000E-01  4.38000000E-02  6.26000000E-01  4.56324000E+03  6.82024000E+02
  1.54973000E+02  4.44553000E+01  1.30290000E+01  1.82773000E+00  2.09642000E+01
  4.80331000E+00  1.45933000E+00  4.83456000E-01  1.45585000E-01  4.38000000E-02
  6.26000000E-01  4.56324000E+03  6.82024000E+02  1.54973000E+02  4.44553000E+01
  1.30290000E+01  1.82773000E+00  2.09642000E+01  4.80331000E+00  1.45933000E+00
  4.83456000E-01  1.45585000E-01  4.38000000E-02  6.26000000E-01  3.38650000E+01
  5.09479000E+00  1.15879000E+00  3.25840000E-01  1.02741000E-01  3.60000000E-02
  7.50000000E-01  3.38650000E+01  5.09479000E+00  1.15879000E+00  3.25840000E-01
  1.02741000E-01  3.60000000E-02  7.50000000E-01  3.38650000E+01  5.09479000E+00
  1.15879000E+00  3.25840000E-01  1.02741000E-01  3.60000000E-02  7.50000000E-01
  3.38650000E+01  5.09479000E+00  1.15879000E+00  3.25840000E-01  1.02741000E-01
  3.60000000E-02  7.50000000E-01  3.38650000E+01  5.09479000E+00  1.15879000E+00
  3.25840000E-01  1.02741000E-01  3.60000000E-02  7.50000000E-01  3.38650000E+01
  5.09479000E+00  1.15879000E+00  3.25840000E-01  1.02741000E-01  3.60000000E-02
  7.50000000E-01  3.38650000E+01  5.09479000E+00  1.15879000E+00  3.25840000E-01
  1.02741000E-01  3.60000000E-02  7.50000000E-01  3.38650000E+01  5.09479000E+00
  1.15879000E+00  3.25840000E-01  1.02741000E-01  3.60000000E-02  7.50000000E-01
  3.38650000E+01  5.09479000E+00  1.15879000E+00  3.25840000E-01  1.02741000E-01
  3.60000000E-02  7.50000000E-01
Contraction coefficients                   R   N=         152
  1.89515008E-03  1.43859006E-02  7.07320031E-02  2.40001011E-01  5.94797026E-01
  2.80802012E-01  1.13889012E-01  9.20811101E-01 -3.27447036E-03  1.00000000E+00
  1.00000000E+00  1.00000000E+00  1.00000000E+00  7.42999957E-04  5.79299966E-03
  2.99539983E-02  1.19027993E-01  3.68431979E-01  5.77298966E-01  1.43186060E-01
  6.24465262E-01  2.83366119E-01  1.00000000E+00  1.00000000E+00  1.00000000E+00
  1.00000000E+00  1.00000000E+00  8.30900251E-03  6.40240194E-02  2.77614084E-01
  7.45076225E-01  6.13711672E-01  4.43817763E-01  1.00000000E+00  1.00000000E+00
  1.00000000E+00  1.00000000E+00  1.96665025E-03  1.52306019E-02  7.61269097E-02
  2.60801033E-01  6.16462078E-01  2.21006028E-01  1.14660081E-01  9.19999648E-01
 -3.03068213E-03  1.00000000E+00  1.00000000E+00  1.00000000E+00  1.00000000E+00
  1.96665025E-03  1.52306019E-02  7.61269097E-02  2.60801033E-01  6.16462078E-01
  2.21006028E-01  1.14660081E-01  9.19999648E-01 -3.03068213E-03  1.00000000E+00
  1.00000000E+00  1.00000000E+00  1.00000000E+00  1.96665025E-03  1.52306019E-02
  7.61269097E-02  2.60801033E-01  6.16462078E-01  2.21006028E-01  1.14660081E-01
  9.19999648E-01 -3.03068213E-03  1.00000000E+00  1.00000000E+00  1.00000000E+00
  1.00000000E+00  1.96665025E-03  1.52306019E-02  7.61269097E-02  2.60801033E-01
  6.16462078E-01  2.21006028E-01  1.14660081E-01  9.19999648E-01 -3.03068213E-03
  1.00000000E+00  1.00000000E+00  1.00000000E+00  1.00000000E+00  2.54938145E-02
  1.90373109E-01  8.52161486E-01  1.00000000E+00  1.00000000E+00  1.00000000E+00
  1.00000000E+00  2.54938145E-02  1.90373109E-01  8.52161486E-01  1.00000000E+00
  1.00000000E+00  1.00000000E+00  1.00000000E+00  2.54938145E-02  1.90373109E-01
  8.52161486E-01  1.00000000E+00  1.00000000E+00  1.00000000E+00  1.00000000E+00
  2.54938145E-02  1.90373109E-01  8.52161486E-01  1.00000000E+00  1.00000000E+00
  1.00000000E+00  1.00000000E+00  2.54938145E-02  1.90373109E-01  8.52161486E-01
  1.00000000E+00  1.00000000E+00  1.00000000E+00  1.00000000E+00  2.54938145E-02
  1.90373109E-01  8.52161486E-01  1.00000000E+00  1.00000000E+00  1.00000000E+00
  1.00000000E+00  2.54938145E-02  1.90373109E-01  8.52161486E-01  1.00000000E+00
  1.00000000E+00  1.00000000E+00  1.00000000E+00  2.54938145E-02  1.90373109E-01
  8.52161486E-01  1.00000000E+00  1.00000000E+00  1.00000000E+00  1.00000000E+00
  2.54938145E-02  1.90373109E-01  8.52161486E-01  1.00000000E+00  1.00000000E+00
  1.00000000E+00  1.00000000E+00
P(S=P) Contraction coefficients            R   N=         152
  0.00000000E+00  0.00000000E+00  0.00000000E+00  0.00000000E+00  0.00000000E+00
  0.00000000E+00  3.65113974E-02  2.37152983E-01  8.19701941E-01  1.00000000E+00
  1.00000000E+00  1.00000000E+00  0.00000000E+00  0.00000000E+00  0.00000000E+00
  0.00000000E+00  0.00000000E+00  0.00000000E+00  0.00000000E+00  0.00000000E+00
  0.00000000E+00  0.00000000E+00  0.00000000E+00  0.00000000E+00  0.00000000E+00
  0.00000000E+00  1.00000000E+00  0.00000000E+00  0.00000000E+00  0.00000000E+00
  0.00000000E+00  0.00000000E+00  0.00000000E+00  0.00000000E+00  0.00000000E+00
  0.00000000E+00  0.00000000E+00  0.00000000E+00  0.00000000E+00  0.00000000E+00
  0.00000000E+00  0.00000000E+00  0.00000000E+00  4.02486927E-02  2.37593957E-01
  8.15853851E-01  1.00000000E+00  1.00000000E+00  1.00000000E+00  0.00000000E+00
  0.00000000E+00  0.00000000E+00  0.00000000E+00  0.00000000E+00  0.00000000E+00
  0.00000000E+00  4.02486927E-02  2.37593957E-01  8.15853851E-01  1.00000000E+00
  1.00000000E+00  1.00000000E+00  0.00000000E+00  0.00000000E+00  0.00000000E+00
  0.00000000E+00  0.00000000E+00  0.00000000E+00  0.00000000E+00  4.02486927E-02
  2.37593957E-01  8.15853851E-01  1.00000000E+00  1.00000000E+00  1.00000000E+00
  0.00000000E+00  0.00000000E+00  0.00000000E+00  0.00000000E+00  0.00000000E+00
  0.00000000E+00  0.00000000E+00  4.02486927E-02  2.37593957E-01  8.15853851E-01
  1.00000000E+00  1.00000000E+00  1.00000000E+00  0.00000000E+00  0.00000000E+00
  0.00000000E+00  0.00000000E+00  0.00000000E+00  0.00000000E+00  0.00000000E+00
  0.00000000E+00  0.00000000E+00  0.00000000E+00  0.00000000E+00  0.00000000E+00
  0.00000000E+00  0.00000000E+00  0.00000000E+00  0.00000000E+00  0.00000000E+00
  0.00000000E+00  0.00000000E+00  0.00000000E+00  0.00000000E+00  0.00000000E+00
  0.00000000E+00  0.00000000E+00  0.00000000E+00  0.00000000E+00  0.00000000E+00
  0.00000000E+00  0.00000000E+00  0.00000000E+00  0.00000000E+00  0.00000000E+00
  0.00000000E+00  0.00000000E+00  0.00000000E+00  0.00000000E+00  0.00000000E+00
  0.00000000E+00  0.00000000E+00  0.00000000E+00  0.00000000E+00  0.00000000E+00
  0.00000000E+00  0.00000000E+00  0.00000000E+00  0.00000000E+00  0.00000000E+00
  0.00000000E+00  0.00000000E+00  0.00000000E+00  0.00000000E+00  0.00000000E+00
  0.00000000E+00  0.00000000E+00  0.00000000E+00  0.00000000E+00  0.00000000E+00
  0.00000000E+00  0.00000000E+00  0.00000000E+00  0.00000000E+00  0.00000000E+00
  0.00000000E+00  0.00000000E+00
Coordinates of each shell                  R   N=         264
 -3.37059739E+00  1.30070919E-01  1.53297527E+00 -3.37059739E+00  1.30070919E-01
  1.53297527E+00 -3.37059739E+00  1.30070919E-01  1.53297527E+00 -3.37059739E+00
  1.30070919E-01  1.53297527E+00 -3.37059739E+00  1.30070919E-01  1.53297527E+00
 -3.37059739E+00  1.30070919E-01  1.53297527E+00 -1.73283053E+00 -2.35228529E-01
 -1.01852271E+00 -1.73283053E+00 -2.35228529E-01 -1.01852271E+00 -1.73283053E+00
 -2.35228529E-01 -1.01852271E+00 -1.73283053E+00 -2.35228529E-01 -1.01852271E+00
 -1.73283053E+00 -2.35228529E-01 -1.01852271E+00 -1.73283053E+00 -2.35228529E-01