 Entering Gaussian System, Link 0=/apps/cent7/gaussian/g16-A.03/g16-haswell/g16/g16
 Initial command:
 /apps/cent7/gaussian/g16-A.03/g16-haswell/g16/l1.exe "/scratch/brown/finej/gaussian/Gau-456645.inp" -scrdir="/scratch/brown/finej/gaussian/"
 Entering Link 1 = /apps/cent7/gaussian/g16-A.03/g16-haswell/g16/l1.exe PID=    456647.
  
 Copyright (c) 1988,1990,1992,1993,1995,1998,2003,2009,2016,
            Gaussian, Inc.  All Rights Reserved.
  
 This is part of the Gaussian(R) 16 program.  It is based on
 the Gaussian(R) 09 system (copyright 2009, Gaussian, Inc.),
 the Gaussian(R) 03 system (copyright 2003, Gaussian, Inc.),
 the Gaussian(R) 98 system (copyright 1998, Gaussian, Inc.),
 the Gaussian(R) 94 system (copyright 1995, Gaussian, Inc.),
 the Gaussian 92(TM) system (copyright 1992, Gaussian, Inc.),
 the Gaussian 90(TM) system (copyright 1990, Gaussian, Inc.),
 the Gaussian 88(TM) system (copyright 1988, Gaussian, Inc.),
 the Gaussian 86(TM) system (copyright 1986, Carnegie Mellon
 University), and the Gaussian 82(TM) system (copyright 1983,
 Carnegie Mellon University). Gaussian is a federally registered
 trademark of Gaussian, Inc.
  
 This software contains proprietary and confidential information,
 including trade secrets, belonging to Gaussian, Inc.
  
 This software is provided under written license and may be
 used, copied, transmitted, or stored only in accord with that
 written license.
  
 The following legend is applicable only to US Government
 contracts under FAR:
  
                    RESTRICTED RIGHTS LEGEND
  
 Use, reproduction and disclosure by the US Government is
 subject to restrictions as set forth in subparagraphs (a)
 and (c) of the Commercial Computer Software - Restricted
 Rights clause in FAR 52.227-19.
  
 Gaussian, Inc.
 340 Quinnipiac St., Bldg. 40, Wallingford CT 06492
  
  
 ---------------------------------------------------------------
 Warning -- This program may not be used in any manner that
 competes with the business of Gaussian, Inc. or will provide
 assistance to any competitor of Gaussian, Inc.  The licensee
 of this program is prohibited from giving any competitor of
 Gaussian, Inc. access to this program.  By using this program,
 the user acknowledges that Gaussian, Inc. is engaged in the
 business of creating and licensing software in the field of
 computational chemistry and represents and warrants to the
 licensee that it is not a competitor of Gaussian, Inc. and that
 it will not use this program in any manner prohibited above.
 ---------------------------------------------------------------
  

 Cite this work as:
 Gaussian 16, Revision A.03,
 M. J. Frisch, G. W. Trucks, H. B. Schlegel, G. E. Scuseria, 
 M. A. Robb, J. R. Cheeseman, G. Scalmani, V. Barone, 
 G. A. Petersson, H. Nakatsuji, X. Li, M. Caricato, A. V. Marenich, 
 J. Bloino, B. G. Janesko, R. Gomperts, B. Mennucci, H. P. Hratchian, 
 J. V. Ortiz, A. F. Izmaylov, J. L. Sonnenberg, D. Williams-Young, 
 F. Ding, F. Lipparini, F. Egidi, J. Goings, B. Peng, A. Petrone, 
 T. Henderson, D. Ranasinghe, V. G. Zakrzewski, J. Gao, N. Rega, 
 G. Zheng, W. Liang, M. Hada, M. Ehara, K. Toyota, R. Fukuda, 
 J. Hasegawa, M. Ishida, T. Nakajima, Y. Honda, O. Kitao, H. Nakai, 
 T. Vreven, K. Throssell, J. A. Montgomery, Jr., J. E. Peralta, 
 F. Ogliaro, M. J. Bearpark, J. J. Heyd, E. N. Brothers, K. N. Kudin, 
 V. N. Staroverov, T. A. Keith, R. Kobayashi, J. Normand, 
 K. Raghavachari, A. P. Rendell, J. C. Burant, S. S. Iyengar, 
 J. Tomasi, M. Cossi, J. M. Millam, M. Klene, C. Adamo, R. Cammi, 
 J. W. Ochterski, R. L. Martin, K. Morokuma, O. Farkas, 
 J. B. Foresman, and D. J. Fox, Gaussian, Inc., Wallingford CT, 2016.
 
 ******************************************
 Gaussian 16:  ES64L-G16RevA.03 25-Dec-2016
                13-Oct-2019 
 ******************************************
 %chk=22_p.chk
 %nprocshared=24
 Will use up to   24 processors via shared memory.
 %mem=80GB
 -------------------------------------------------------------------
 #P opt freq m062x/6-311++g(d,p) geom=connectivity temperature=0.001
 -------------------------------------------------------------------
 1/18=20,19=15,26=3,38=1,57=2,112=-1000/1,3;
 2/9=110,12=2,17=6,18=5,40=1/2;
 3/5=4,6=6,7=1111,11=2,25=1,30=1,71=1,74=-55/1,2,3;
 4//1;
 5/5=2,38=5/2;
 6/7=2,8=2,9=2,10=2,28=1/1;
 7//1,2,3,16;
 1/18=20,19=15,26=3/3(2);
 2/9=110/2;
 99//99;
 2/9=110/2;
 3/5=4,6=6,7=1111,11=2,25=1,30=1,71=1,74=-55/1,2,3;
 4/5=5,16=3,69=1/1;
 5/5=2,38=5/2;
 7//1,2,3,16;
 1/18=20,19=15,26=3/3(-5);
 2/9=110/2;
 6/7=2,8=2,9=2,10=2,19=2,28=1/1;
 99/9=1/99;
 Leave Link    1 at Sun Oct 13 21:38:26 2019, MaxMem= 10737418240 cpu:               0.8 elap:               0.0
 (Enter /apps/cent7/gaussian/g16-A.03/g16-haswell/g16/l101.exe)
 -------------------
 Title Card Required
 -------------------
 Symbolic Z-matrix:
 Charge =  1 Multiplicity = 1
 O                    -0.0951    2.9154    1.3701 
 S                    -0.3951    1.7832    0.2792 
 C                     0.8845    0.4973    0.467 
 C                     1.1733    0.1618   -1.0101 
 C                     1.2142    1.485    -1.8222 
 C                     0.0923    2.4454   -1.3523 
 H                     1.8051    0.9215    0.8677 
 H                     0.4643   -0.407     0.9072 
 H                     2.1748   -0.2668   -1.0462 
 H                     0.3215   -0.4117   -1.3757 
 H                     2.1595    1.9703   -1.5793 
 H                     0.9856    1.2234   -2.8554 
 H                     0.5721    3.4176   -1.2387 
 H                    -0.7176    2.318    -2.0705 
 H                     0.81152   3.14272   1.58913 
 
 ITRead=  0  0  0  0  0  0  0  0  0  0  0  0  0  0  0
 MicOpt= -1 -1 -1 -1 -1 -1 -1 -1 -1 -1 -1 -1 -1 -1 -1
 NAtoms=     15 NQM=       15 NQMF=       0 NMMI=      0 NMMIF=      0
                NMic=       0 NMicF=      0.
                    Isotopes and Nuclear Properties:
 (Nuclear quadrupole moments (NQMom) in fm**2, nuclear magnetic moments (NMagM)
  in nuclear magnetons)

  Atom         1           2           3           4           5           6           7           8           9          10
 IAtWgt=          16          32          12          12          12          12           1           1           1           1
 AtmWgt=  15.9949146  31.9720718  12.0000000  12.0000000  12.0000000  12.0000000   1.0078250   1.0078250   1.0078250   1.0078250
 NucSpn=           0           0           0           0           0           0           1           1           1           1
 AtZEff=  -0.0000000  -0.0000000  -0.0000000  -0.0000000  -0.0000000  -0.0000000  -0.0000000  -0.0000000  -0.0000000  -0.0000000
 NQMom=    0.0000000   0.0000000   0.0000000   0.0000000   0.0000000   0.0000000   0.0000000   0.0000000   0.0000000   0.0000000
 NMagM=    0.0000000   0.0000000   0.0000000   0.0000000   0.0000000   0.0000000   2.7928460   2.7928460   2.7928460   2.7928460
 AtZNuc=   8.0000000  16.0000000   6.0000000   6.0000000   6.0000000   6.0000000   1.0000000   1.0000000   1.0000000   1.0000000

  Atom        11          12          13          14          15
 IAtWgt=           1           1           1           1           1
 AtmWgt=   1.0078250   1.0078250   1.0078250   1.0078250   1.0078250
 NucSpn=           1           1           1           1           1
 AtZEff=  -0.0000000  -0.0000000  -0.0000000  -0.0000000  -0.0000000
 NQMom=    0.0000000   0.0000000   0.0000000   0.0000000   0.0000000
 NMagM=    2.7928460   2.7928460   2.7928460   2.7928460   2.7928460
 AtZNuc=   1.0000000   1.0000000   1.0000000   1.0000000   1.0000000
 Leave Link  101 at Sun Oct 13 21:38:27 2019, MaxMem= 10737418240 cpu:               8.2 elap:               0.4
 (Enter /apps/cent7/gaussian/g16-A.03/g16-haswell/g16/l103.exe)

 GradGradGradGradGradGradGradGradGradGradGradGradGradGradGradGradGradGrad
 Berny optimization.
 Initialization pass.
                           ----------------------------
                           !    Initial Parameters    !
                           ! (Angstroms and Degrees)  !
 --------------------------                            --------------------------
 ! Name  Definition              Value          Derivative Info.                !
 --------------------------------------------------------------------------------
 ! R1    R(1,2)                  1.6006         estimate D2E/DX2                !
 ! R2    R(1,15)                 0.96           estimate D2E/DX2                !
 ! R3    R(2,3)                  1.8238         estimate D2E/DX2                !
 ! R4    R(2,6)                  1.827          estimate D2E/DX2                !
 ! R5    R(3,4)                  1.542          estimate D2E/DX2                !
 ! R6    R(3,7)                  1.09           estimate D2E/DX2                !
 ! R7    R(3,8)                  1.09           estimate D2E/DX2                !
 ! R8    R(4,5)                  1.5531         estimate D2E/DX2                !
 ! R9    R(4,9)                  1.09           estimate D2E/DX2                !
 ! R10   R(4,10)                 1.09           estimate D2E/DX2                !
 ! R11   R(5,6)                  1.5498         estimate D2E/DX2                !
 ! R12   R(5,11)                 1.09           estimate D2E/DX2                !
 ! R13   R(5,12)                 1.09           estimate D2E/DX2                !
 ! R14   R(6,13)                 1.0901         estimate D2E/DX2                !
 ! R15   R(6,14)                 1.0899         estimate D2E/DX2                !
 ! A1    A(2,1,15)             120.0            estimate D2E/DX2                !
 ! A2    A(1,2,3)              107.2807         estimate D2E/DX2                !
 ! A3    A(1,2,6)              107.5923         estimate D2E/DX2                !
 ! A4    A(3,2,6)               99.2264         estimate D2E/DX2                !
 ! A5    A(2,3,4)              100.7295         estimate D2E/DX2                !
 ! A6    A(2,3,7)              110.8578         estimate D2E/DX2                !
 ! A7    A(2,3,8)              110.8584         estimate D2E/DX2                !
 ! A8    A(4,3,7)              106.1793         estimate D2E/DX2                !
 ! A9    A(4,3,8)              106.1735         estimate D2E/DX2                !
 ! A10   A(7,3,8)              120.0013         estimate D2E/DX2                !
 ! A11   A(3,4,5)              108.6902         estimate D2E/DX2                !
 ! A12   A(3,4,9)              106.8203         estimate D2E/DX2                !
 ! A13   A(3,4,10)             106.8224         estimate D2E/DX2                !
 ! A14   A(5,4,9)              107.0681         estimate D2E/DX2                !
 ! A15   A(5,4,10)             107.0652         estimate D2E/DX2                !
 ! A16   A(9,4,10)             120.0025         estimate D2E/DX2                !
 ! A17   A(4,5,6)              110.5098         estimate D2E/DX2                !
 ! A18   A(4,5,11)             106.5973         estimate D2E/DX2                !
 ! A19   A(4,5,12)             106.597          estimate D2E/DX2                !
 ! A20   A(6,5,11)             106.5188         estimate D2E/DX2                !
 ! A21   A(6,5,12)             106.5169         estimate D2E/DX2                !
 ! A22   A(11,5,12)            119.9966         estimate D2E/DX2                !
 ! A23   A(2,6,5)              103.8435         estimate D2E/DX2                !
 ! A24   A(2,6,13)             110.3418         estimate D2E/DX2                !
 ! A25   A(2,6,14)             110.3545         estimate D2E/DX2                !
 ! A26   A(5,6,13)             105.4058         estimate D2E/DX2                !
 ! A27   A(5,6,14)             105.4077         estimate D2E/DX2                !
 ! A28   A(13,6,14)            119.9983         estimate D2E/DX2                !
 ! D1    D(15,1,2,3)            36.157          estimate D2E/DX2                !
 ! D2    D(15,1,2,6)           -69.7927         estimate D2E/DX2                !
 ! D3    D(1,2,3,4)           -139.7804         estimate D2E/DX2                !
 ! D4    D(1,2,3,7)            -27.7136         estimate D2E/DX2                !
 ! D5    D(1,2,3,8)            108.159          estimate D2E/DX2                !
 ! D6    D(6,2,3,4)            -27.99           estimate D2E/DX2                !
 ! D7    D(6,2,3,7)             84.0768         estimate D2E/DX2                !
 ! D8    D(6,2,3,8)           -140.0506         estimate D2E/DX2                !
 ! D9    D(1,2,6,5)            118.1742         estimate D2E/DX2                !
 ! D10   D(1,2,6,13)             5.6447         estimate D2E/DX2                !
 ! D11   D(1,2,6,14)          -129.2887         estimate D2E/DX2                !
 ! D12   D(3,2,6,5)              6.6302         estimate D2E/DX2                !
 ! D13   D(3,2,6,13)          -105.8993         estimate D2E/DX2                !
 ! D14   D(3,2,6,14)           119.1672         estimate D2E/DX2                !
 ! D15   D(2,3,4,5)             41.6222         estimate D2E/DX2                !
 ! D16   D(2,3,4,9)            156.8338         estimate D2E/DX2                !
 ! D17   D(2,3,4,10)           -73.5872         estimate D2E/DX2                !
 ! D18   D(7,3,4,5)            -73.9918         estimate D2E/DX2                !
 ! D19   D(7,3,4,9)             41.2199         estimate D2E/DX2                !
 ! D20   D(7,3,4,10)           170.7988         estimate D2E/DX2                !
 ! D21   D(8,3,4,5)            157.2348         estimate D2E/DX2                !
 ! D22   D(8,3,4,9)            -87.5535         estimate D2E/DX2                !
 ! D23   D(8,3,4,10)            42.0255         estimate D2E/DX2                !
 ! D24   D(3,4,5,6)            -40.6512         estimate D2E/DX2                !
 ! D25   D(3,4,5,11)            74.7066         estimate D2E/DX2                !
 ! D26   D(3,4,5,12)          -156.0066         estimate D2E/DX2                !
 ! D27   D(9,4,5,6)           -155.7019         estimate D2E/DX2                !
 ! D28   D(9,4,5,11)           -40.3441         estimate D2E/DX2                !
 ! D29   D(9,4,5,12)            88.9427         estimate D2E/DX2                !
 ! D30   D(10,4,5,6)            74.4005         estimate D2E/DX2                !
 ! D31   D(10,4,5,11)         -170.2417         estimate D2E/DX2                !
 ! D32   D(10,4,5,12)          -40.9549         estimate D2E/DX2                !
 ! D33   D(4,5,6,2)             17.646          estimate D2E/DX2                !
 ! D34   D(4,5,6,13)           133.7031         estimate D2E/DX2                !
 ! D35   D(4,5,6,14)           -98.4261         estimate D2E/DX2                !
 ! D36   D(11,5,6,2)           -97.761          estimate D2E/DX2                !
 ! D37   D(11,5,6,13)           18.2962         estimate D2E/DX2                !
 ! D38   D(11,5,6,14)          146.1669         estimate D2E/DX2                !
 ! D39   D(12,5,6,2)           133.0516         estimate D2E/DX2                !
 ! D40   D(12,5,6,13)         -110.8912         estimate D2E/DX2                !
 ! D41   D(12,5,6,14)           16.9795         estimate D2E/DX2                !
 --------------------------------------------------------------------------------
 Trust Radius=3.00D-01 FncErr=1.00D-07 GrdErr=1.00D-06 EigMax=2.50D+02 EigMin=1.00D-04
 Number of steps in this run=     94 maximum allowed number of steps=    100.
 GradGradGradGradGradGradGradGradGradGradGradGradGradGradGradGradGradGrad

 Leave Link  103 at Sun Oct 13 21:38:27 2019, MaxMem= 10737418240 cpu:               0.7 elap:               0.1
 (Enter /apps/cent7/gaussian/g16-A.03/g16-haswell/g16/l202.exe)
                          Input orientation:                          
 ---------------------------------------------------------------------
 Center     Atomic      Atomic             Coordinates (Angstroms)
 Number     Number       Type             X           Y           Z
 ---------------------------------------------------------------------
      1          8           0       -0.095100    2.915400    1.370100
      2         16           0       -0.395100    1.783200    0.279200
      3          6           0        0.884500    0.497300    0.467000
      4          6           0        1.173300    0.161800   -1.010100
      5          6           0        1.214200    1.485000   -1.822200
      6          6           0        0.092300    2.445400   -1.352300
      7          1           0        1.805100    0.921500    0.867700
      8          1           0        0.464300   -0.407000    0.907200
      9          1           0        2.174800   -0.266800   -1.046200
     10          1           0        0.321500   -0.411700   -1.375700
     11          1           0        2.159500    1.970300   -1.579300
     12          1           0        0.985600    1.223400   -2.855400
     13          1           0        0.572100    3.417600   -1.238700
     14          1           0       -0.717600    2.318000   -2.070500
     15          1           0        0.811517    3.142718    1.589126
 ---------------------------------------------------------------------
                    Distance matrix (angstroms):
                    1          2          3          4          5
     1  O    0.000000
     2  S    1.600606   0.000000
     3  C    2.760872   1.823783   0.000000
     4  C    3.854414   2.598290   1.542008   0.000000
     5  C    3.735116   2.663579   2.514894   1.553074   0.000000
     6  C    2.769022   1.826981   2.780742   2.549606   1.549785
     7  H    2.799786   2.435106   1.089959   2.121897   2.811095
     8  H    3.400816   2.435144   1.090001   2.121851   3.404650
     9  H    4.595362   3.544513   2.130375   1.089956   2.143299
    10  H    4.333886   2.840739   2.130444   1.090013   2.143303
    11  H    3.830848   3.164650   2.825367   2.137113   1.090004
    12  H    4.678208   3.470652   3.402320   2.137138   1.090043
    13  H    2.739197   2.431205   3.396345   3.318725   2.118421
    14  H    3.547129   2.431277   3.510068   3.057638   2.118347
    15  H    0.960000   2.240563   2.874497   3.971491   3.814097
                    6          7          8          9         10
     6  C    0.000000
     7  H    3.191294   0.000000
     8  H    3.657856   1.887913   0.000000
     9  H    3.433152   2.282925   2.600238   0.000000
    10  H    2.866374   3.001889   2.287367   1.887932   0.000000
    11  H    2.133205   2.685775   3.835093   2.299793   3.015563
    12  H    2.133208   3.824160   4.133657   2.628326   2.303062
    13  H    1.090085   3.491092   4.386807   4.022500   3.839936
    14  H    1.089945   4.116703   4.205854   4.012027   3.002289
    15  H    3.107332   2.538006   3.631265   4.519768   4.654482
                   11         12         13         14         15
    11  H    0.000000
    12  H    1.887944   0.000000
    13  H    2.174977   2.756667   0.000000
    14  H    2.939367   2.171430   1.887945   0.000000
    15  H    3.637382   4.844368   2.851225   4.051077   0.000000
 Stoichiometry    C4H9OS(1+)
 Framework group  C1[X(C4H9OS)]
 Deg. of freedom    39
 Full point group                 C1      NOp   1
 Largest Abelian subgroup         C1      NOp   1
 Largest concise Abelian subgroup C1      NOp   1
                         Standard orientation:                         
 ---------------------------------------------------------------------
 Center     Atomic      Atomic             Coordinates (Angstroms)
 Number     Number       Type             X           Y           Z
 ---------------------------------------------------------------------
      1          8           0       -2.083607    0.032834    0.449044
      2         16           0       -0.802644   -0.040110   -0.507905
      3          6           0        0.269991   -1.373200    0.123372
      4          6           0        1.660659   -0.731120   -0.054300
      5          6           0        1.579530    0.758919    0.376094
      6          6           0        0.257680    1.396696   -0.121689
      7          1           0        0.132089   -1.507026    1.196258
      8          1           0        0.247290   -2.237033   -0.540991
      9          1           0        2.330342   -1.230355    0.645908
     10          1           0        1.880086   -0.744201   -1.121919
     11          1           0        1.536409    0.766504    1.465218
     12          1           0        2.387429    1.276779   -0.140932
     13          1           0       -0.140611    1.942527    0.733716
     14          1           0        0.519778    1.930819   -1.034924
     15          1           0       -1.988819   -0.126692    1.390940
 ---------------------------------------------------------------------
 Rotational constants (GHZ):           4.9878898           2.5459929           1.9857638
 Leave Link  202 at Sun Oct 13 21:38:27 2019, MaxMem= 10737418240 cpu:               0.3 elap:               0.0
 (Enter /apps/cent7/gaussian/g16-A.03/g16-haswell/g16/l301.exe)
 Standard basis: 6-311++G(d,p) (5D, 7F)
 Ernie: Thresh=  0.10000D-02 Tol=  0.10000D-05 Strict=F.
 There are   209 symmetry adapted cartesian basis functions of A   symmetry.
 There are   203 symmetry adapted basis functions of A   symmetry.
   203 basis functions,   311 primitive gaussians,   209 cartesian basis functions
    28 alpha electrons       28 beta electrons
       nuclear repulsion energy       332.4867211711 Hartrees.
 IExCor= 4336 DFT=T Ex+Corr=M062X ExCW=0 ScaHFX=  0.540000
 ScaDFX=  1.000000  1.000000  1.000000  1.000000 ScalE2=  1.000000  1.000000
 IRadAn=      5 IRanWt=     -1 IRanGd=            0 ICorTp=0 IEmpDi=  4
 NAtoms=   15 NActive=   15 NUniq=   15 SFac= 1.00D+00 NAtFMM=   60 NAOKFM=F Big=F
 Integral buffers will be    131072 words long.
 Raffenetti 2 integral format.
 Two-electron integral symmetry is turned on.
 Leave Link  301 at Sun Oct 13 21:38:27 2019, MaxMem= 10737418240 cpu:               1.4 elap:               0.1
 (Enter /apps/cent7/gaussian/g16-A.03/g16-haswell/g16/l302.exe)
 NPDir=0 NMtPBC=     1 NCelOv=     1 NCel=       1 NClECP=     1 NCelD=      1
         NCelK=      1 NCelE2=     1 NClLst=     1 CellRange=     0.0.
 One-electron integrals computed using PRISM.
 One-electron integral symmetry used in STVInt
 NBasis=   203 RedAO= T EigKep=  1.63D-05  NBF=   203
 NBsUse=   203 1.00D-06 EigRej= -1.00D+00 NBFU=   203
 Precomputing XC quadrature grid using
 IXCGrd= 4 IRadAn=           5 IRanWt=          -1 IRanGd=           0 AccXCQ= 0.00D+00.
 Generated NRdTot=       0 NPtTot=           0 NUsed=           0 NTot=          32
 NSgBfM=   209   209   209   209   209 MxSgAt=    15 MxSgA2=    15.
 Leave Link  302 at Sun Oct 13 21:38:27 2019, MaxMem= 10737418240 cpu:               3.6 elap:               0.2
 (Enter /apps/cent7/gaussian/g16-A.03/g16-haswell/g16/l303.exe)
 DipDrv:  MaxL=1.
 Leave Link  303 at Sun Oct 13 21:38:27 2019, MaxMem= 10737418240 cpu:               1.5 elap:               0.1
 (Enter /apps/cent7/gaussian/g16-A.03/g16-haswell/g16/l401.exe)
 ExpMin= 3.60D-02 ExpMax= 9.34D+04 ExpMxC= 3.17D+03 IAcc=3 IRadAn=         5 AccDes= 0.00D+00
 Harris functional with IExCor= 1009 and IRadAn=       5 diagonalized for initial guess.
 HarFok:  IExCor= 1009 AccDes= 0.00D+00 IRadAn=         5 IDoV= 1 UseB2=F ITyADJ=14
 ICtDFT=  3500011 ScaDFX=  1.000000  1.000000  1.000000  1.000000
 FoFCou: FMM=F IPFlag=           0 FMFlag=      100000 FMFlg1=           0
         NFxFlg=           0 DoJE=T BraDBF=F KetDBF=T FulRan=T
         wScrn=  0.000000 ICntrl=       500 IOpCl=  0 I1Cent=   200000004 NGrid=           0
         NMat0=    1 NMatS0=      1 NMatT0=    0 NMatD0=    1 NMtDS0=    0 NMtDT0=    0
 Petite list used in FoFCou.
 Harris En= -630.726675597084    
 JPrj=0 DoOrth=F DoCkMO=F.
 Leave Link  401 at Sun Oct 13 21:38:28 2019, MaxMem= 10737418240 cpu:               7.7 elap:               0.4
 (Enter /apps/cent7/gaussian/g16-A.03/g16-haswell/g16/l502.exe)
 Integral symmetry usage will be decided dynamically.
 Closed shell SCF:
 Using DIIS extrapolation, IDIIS=  1040.
 NGot= 10737418240 LenX= 10737323680 LenY= 10737279558
 Requested convergence on RMS density matrix=1.00D-08 within 128 cycles.
 Requested convergence on MAX density matrix=1.00D-06.
 Requested convergence on             energy=1.00D-06.
 No special actions if energy rises.
 Fock matrices will be formed incrementally for  20 cycles.

 Cycle   1  Pass 1  IDiag  1:
 FoFJK:  IHMeth= 1 ICntrl=       0 DoSepK=F KAlg= 0 I1Cent=           0 FoldK=F
 IRaf= 990000000 NMat=       1 IRICut=       1 DoRegI=T DoRafI=F ISym2E= 0 IDoP0=0 IntGTp=1.
 FoFCou: FMM=F IPFlag=           0 FMFlag=      100000 FMFlg1=           0
         NFxFlg=           0 DoJE=F BraDBF=F KetDBF=F FulRan=T
         wScrn=  0.000000 ICntrl=         0 IOpCl=  0 I1Cent=           0 NGrid=           0
         NMat0=    1 NMatS0=      1 NMatT0=    0 NMatD0=    1 NMtDS0=    0 NMtDT0=    0
 Symmetry not used in FoFCou.
 E= -630.631452026272    
 DIIS: error= 3.47D-02 at cycle   1 NSaved=   1.
 NSaved= 1 IEnMin= 1 EnMin= -630.631452026272     IErMin= 1 ErrMin= 3.47D-02
 ErrMax= 3.47D-02  0.00D+00 EMaxC= 1.00D-01 BMatC= 3.50D-01 BMatP= 3.50D-01
 IDIUse=3 WtCom= 6.53D-01 WtEn= 3.47D-01
 Coeff-Com:  0.100D+01
 Coeff-En:   0.100D+01
 Coeff:      0.100D+01
 Gap=     0.404 Goal=   None    Shift=    0.000
 GapD=    0.404 DampG=2.000 DampE=0.500 DampFc=1.0000 IDamp=-1.
 RMSDP=8.91D-03 MaxDP=2.12D-01              OVMax= 1.60D-01

 Cycle   2  Pass 1  IDiag  1:
 RMSU=  8.90D-03    CP:  1.02D+00
 E= -630.638506391269     Delta-E=       -0.007054364997 Rises=F Damp=F
 DIIS: error= 3.80D-02 at cycle   2 NSaved=   2.
 NSaved= 2 IEnMin= 2 EnMin= -630.638506391269     IErMin= 1 ErrMin= 3.47D-02
 ErrMax= 3.80D-02  0.00D+00 EMaxC= 1.00D-01 BMatC= 3.00D-01 BMatP= 3.50D-01
 IDIUse=3 WtCom= 6.20D-01 WtEn= 3.80D-01
 Coeff-Com:  0.479D+00 0.521D+00
 Coeff-En:   0.493D+00 0.507D+00
 Coeff:      0.484D+00 0.516D+00
 Gap=     0.401 Goal=   None    Shift=    0.000
 RMSDP=6.00D-03 MaxDP=1.86D-01 DE=-7.05D-03 OVMax= 9.41D-02

 Cycle   3  Pass 1  IDiag  1:
 RMSU=  2.47D-03    CP:  9.68D-01  3.95D-01
 E= -630.887467928862     Delta-E=       -0.248961537593 Rises=F Damp=F
 DIIS: error= 2.94D-03 at cycle   3 NSaved=   3.
 NSaved= 3 IEnMin= 3 EnMin= -630.887467928862     IErMin= 3 ErrMin= 2.94D-03
 ErrMax= 2.94D-03  0.00D+00 EMaxC= 1.00D-01 BMatC= 2.94D-03 BMatP= 3.00D-01
 IDIUse=3 WtCom= 9.71D-01 WtEn= 2.94D-02
 Coeff-Com:  0.464D-01 0.104D+00 0.850D+00
 Coeff-En:   0.000D+00 0.000D+00 0.100D+01
 Coeff:      0.450D-01 0.101D+00 0.854D+00
 Gap=     0.363 Goal=   None    Shift=    0.000
 RMSDP=7.03D-04 MaxDP=1.97D-02 DE=-2.49D-01 OVMax= 1.46D-02

 Cycle   4  Pass 1  IDiag  1:
 RMSU=  5.98D-04    CP:  9.65D-01  4.34D-01  9.55D-01
 E= -630.889050002501     Delta-E=       -0.001582073639 Rises=F Damp=F
 DIIS: error= 1.79D-03 at cycle   4 NSaved=   4.
 NSaved= 4 IEnMin= 4 EnMin= -630.889050002501     IErMin= 4 ErrMin= 1.79D-03
 ErrMax= 1.79D-03  0.00D+00 EMaxC= 1.00D-01 BMatC= 1.06D-03 BMatP= 2.94D-03
 IDIUse=3 WtCom= 9.82D-01 WtEn= 1.79D-02
 Coeff-Com: -0.100D-02 0.213D-01 0.429D+00 0.551D+00
 Coeff-En:   0.000D+00 0.000D+00 0.194D+00 0.806D+00
 Coeff:     -0.983D-03 0.209D-01 0.424D+00 0.556D+00
 Gap=     0.361 Goal=   None    Shift=    0.000
 RMSDP=3.50D-04 MaxDP=1.28D-02 DE=-1.58D-03 OVMax= 6.94D-03

 Cycle   5  Pass 1  IDiag  1:
 RMSU=  1.94D-04    CP:  9.61D-01  4.14D-01  1.01D+00  6.93D-01
 E= -630.889824766271     Delta-E=       -0.000774763769 Rises=F Damp=F
 DIIS: error= 4.28D-04 at cycle   5 NSaved=   5.
 NSaved= 5 IEnMin= 5 EnMin= -630.889824766271     IErMin= 5 ErrMin= 4.28D-04
 ErrMax= 4.28D-04  0.00D+00 EMaxC= 1.00D-01 BMatC= 4.94D-05 BMatP= 1.06D-03
 IDIUse=3 WtCom= 9.96D-01 WtEn= 4.28D-03
 Coeff-Com: -0.423D-02-0.133D-02 0.102D+00 0.231D+00 0.673D+00
 Coeff-En:   0.000D+00 0.000D+00 0.000D+00 0.000D+00 0.100D+01
 Coeff:     -0.421D-02-0.133D-02 0.101D+00 0.230D+00 0.674D+00
 Gap=     0.361 Goal=   None    Shift=    0.000
 RMSDP=8.93D-05 MaxDP=4.82D-03 DE=-7.75D-04 OVMax= 1.52D-03

 Cycle   6  Pass 1  IDiag  1:
 RMSU=  5.15D-05    CP:  9.62D-01  4.15D-01  1.01D+00  6.95D-01  6.50D-01
 E= -630.889869157839     Delta-E=       -0.000044391569 Rises=F Damp=F
 DIIS: error= 6.00D-05 at cycle   6 NSaved=   6.
 NSaved= 6 IEnMin= 6 EnMin= -630.889869157839     IErMin= 6 ErrMin= 6.00D-05
 ErrMax= 6.00D-05  0.00D+00 EMaxC= 1.00D-01 BMatC= 1.21D-06 BMatP= 4.94D-05
 IDIUse=1 WtCom= 1.00D+00 WtEn= 0.00D+00
 Coeff-Com: -0.664D-03-0.225D-02-0.112D-01 0.348D-02 0.113D+00 0.897D+00
 Coeff:     -0.664D-03-0.225D-02-0.112D-01 0.348D-02 0.113D+00 0.897D+00
 Gap=     0.361 Goal=   None    Shift=    0.000
 RMSDP=2.24D-05 MaxDP=7.85D-04 DE=-4.44D-05 OVMax= 4.29D-04

 Cycle   7  Pass 1  IDiag  1:
 RMSU=  1.09D-05    CP:  9.61D-01  4.14D-01  1.02D+00  7.02D-01  6.86D-01
                    CP:  1.13D+00
 E= -630.889870718215     Delta-E=       -0.000001560375 Rises=F Damp=F
 DIIS: error= 2.13D-05 at cycle   7 NSaved=   7.
 NSaved= 7 IEnMin= 7 EnMin= -630.889870718215     IErMin= 7 ErrMin= 2.13D-05
 ErrMax= 2.13D-05  0.00D+00 EMaxC= 1.00D-01 BMatC= 1.47D-07 BMatP= 1.21D-06
 IDIUse=1 WtCom= 1.00D+00 WtEn= 0.00D+00
 Coeff-Com:  0.645D-04-0.614D-03-0.101D-01-0.138D-01-0.827D-02 0.279D+00
 Coeff-Com:  0.754D+00
 Coeff:      0.645D-04-0.614D-03-0.101D-01-0.138D-01-0.827D-02 0.279D+00
 Coeff:      0.754D+00
 Gap=     0.361 Goal=   None    Shift=    0.000
 RMSDP=5.30D-06 MaxDP=1.90D-04 DE=-1.56D-06 OVMax= 1.49D-04

 Cycle   8  Pass 1  IDiag  1:
 RMSU=  3.06D-06    CP:  9.61D-01  4.14D-01  1.02D+00  7.02D-01  6.83D-01
                    CP:  1.20D+00  1.04D+00
 E= -630.889870901877     Delta-E=       -0.000000183663 Rises=F Damp=F
 DIIS: error= 7.35D-06 at cycle   8 NSaved=   8.
 NSaved= 8 IEnMin= 8 EnMin= -630.889870901877     IErMin= 8 ErrMin= 7.35D-06
 ErrMax= 7.35D-06  0.00D+00 EMaxC= 1.00D-01 BMatC= 1.75D-08 BMatP= 1.47D-07
 IDIUse=1 WtCom= 1.00D+00 WtEn= 0.00D+00
 Coeff-Com:  0.866D-04-0.419D-05-0.293D-02-0.565D-02-0.148D-01-0.458D-02
 Coeff-Com:  0.256D+00 0.772D+00
 Coeff:      0.866D-04-0.419D-05-0.293D-02-0.565D-02-0.148D-01-0.458D-02
 Coeff:      0.256D+00 0.772D+00
 Gap=     0.361 Goal=   None    Shift=    0.000
 RMSDP=2.15D-06 MaxDP=5.84D-05 DE=-1.84D-07 OVMax= 4.88D-05

 Cycle   9  Pass 1  IDiag  1:
 RMSU=  8.05D-07    CP:  9.61D-01  4.13D-01  1.02D+00  7.01D-01  6.83D-01
                    CP:  1.23D+00  1.11D+00  1.00D+00
 E= -630.889870921974     Delta-E=       -0.000000020097 Rises=F Damp=F
 DIIS: error= 1.38D-06 at cycle   9 NSaved=   9.
 NSaved= 9 IEnMin= 9 EnMin= -630.889870921974     IErMin= 9 ErrMin= 1.38D-06
 ErrMax= 1.38D-06  0.00D+00 EMaxC= 1.00D-01 BMatC= 5.83D-10 BMatP= 1.75D-08
 IDIUse=1 WtCom= 1.00D+00 WtEn= 0.00D+00
 Coeff-Com:  0.162D-04 0.222D-04-0.173D-03-0.493D-03-0.263D-02-0.155D-01
 Coeff-Com:  0.277D-01 0.183D+00 0.808D+00
 Coeff:      0.162D-04 0.222D-04-0.173D-03-0.493D-03-0.263D-02-0.155D-01
 Coeff:      0.277D-01 0.183D+00 0.808D+00
 Gap=     0.361 Goal=   None    Shift=    0.000
 RMSDP=4.56D-07 MaxDP=1.06D-05 DE=-2.01D-08 OVMax= 8.79D-06

 Cycle  10  Pass 1  IDiag  1:
 RMSU=  2.38D-07    CP:  9.61D-01  4.13D-01  1.02D+00  7.01D-01  6.83D-01
                    CP:  1.23D+00  1.14D+00  1.04D+00  9.51D-01
 E= -630.889870922730     Delta-E=       -0.000000000756 Rises=F Damp=F
 DIIS: error= 3.92D-07 at cycle  10 NSaved=  10.
 NSaved=10 IEnMin=10 EnMin= -630.889870922730     IErMin=10 ErrMin= 3.92D-07
 ErrMax= 3.92D-07  0.00D+00 EMaxC= 1.00D-01 BMatC= 6.56D-11 BMatP= 5.83D-10
 IDIUse=1 WtCom= 1.00D+00 WtEn= 0.00D+00
 Coeff-Com: -0.942D-06 0.750D-05 0.204D-03 0.324D-03 0.286D-03-0.574D-02
 Coeff-Com: -0.118D-01-0.836D-02 0.231D+00 0.794D+00
 Coeff:     -0.942D-06 0.750D-05 0.204D-03 0.324D-03 0.286D-03-0.574D-02
 Coeff:     -0.118D-01-0.836D-02 0.231D+00 0.794D+00
 Gap=     0.361 Goal=   None    Shift=    0.000
 RMSDP=1.48D-07 MaxDP=4.56D-06 DE=-7.56D-10 OVMax= 2.82D-06

 Cycle  11  Pass 1  IDiag  1:
 RMSU=  5.34D-08    CP:  9.61D-01  4.13D-01  1.02D+00  7.00D-01  6.83D-01
                    CP:  1.23D+00  1.14D+00  1.05D+00  1.03D+00  1.02D+00
 E= -630.889870922813     Delta-E=       -0.000000000083 Rises=F Damp=F
 DIIS: error= 1.02D-07 at cycle  11 NSaved=  11.
 NSaved=11 IEnMin=11 EnMin= -630.889870922813     IErMin=11 ErrMin= 1.02D-07
 ErrMax= 1.02D-07  0.00D+00 EMaxC= 1.00D-01 BMatC= 3.72D-12 BMatP= 6.56D-11
 IDIUse=1 WtCom= 1.00D+00 WtEn= 0.00D+00
 Coeff-Com: -0.111D-05-0.446D-06 0.498D-04 0.977D-04 0.254D-03-0.116D-03
 Coeff-Com: -0.400D-02-0.131D-01-0.203D-02 0.166D+00 0.853D+00
 Coeff:     -0.111D-05-0.446D-06 0.498D-04 0.977D-04 0.254D-03-0.116D-03
 Coeff:     -0.400D-02-0.131D-01-0.203D-02 0.166D+00 0.853D+00
 Gap=     0.361 Goal=   None    Shift=    0.000
 RMSDP=4.56D-08 MaxDP=1.05D-06 DE=-8.30D-11 OVMax= 1.09D-06

 Cycle  12  Pass 1  IDiag  1:
 RMSU=  2.46D-08    CP:  9.61D-01  4.13D-01  1.02D+00  7.00D-01  6.83D-01
                    CP:  1.23D+00  1.14D+00  1.05D+00  1.05D+00  1.09D+00
                    CP:  1.06D+00
 E= -630.889870922816     Delta-E=       -0.000000000003 Rises=F Damp=F
 DIIS: error= 5.68D-08 at cycle  12 NSaved=  12.
 NSaved=12 IEnMin=12 EnMin= -630.889870922816     IErMin=12 ErrMin= 5.68D-08
 ErrMax= 5.68D-08  0.00D+00 EMaxC= 1.00D-01 BMatC= 8.71D-13 BMatP= 3.72D-12
 IDIUse=1 WtCom= 1.00D+00 WtEn= 0.00D+00
 Coeff-Com: -0.171D-06-0.894D-06-0.777D-05-0.592D-05 0.518D-04 0.643D-03
 Coeff-Com:  0.635D-04-0.313D-02-0.304D-01-0.463D-01 0.338D+00 0.741D+00
 Coeff:     -0.171D-06-0.894D-06-0.777D-05-0.592D-05 0.518D-04 0.643D-03
 Coeff:      0.635D-04-0.313D-02-0.304D-01-0.463D-01 0.338D+00 0.741D+00
 Gap=     0.361 Goal=   None    Shift=    0.000
 RMSDP=1.19D-08 MaxDP=2.77D-07 DE=-2.50D-12 OVMax= 3.45D-07

 Cycle  13  Pass 1  IDiag  1:
 RMSU=  7.11D-09    CP:  9.61D-01  4.13D-01  1.02D+00  7.00D-01  6.83D-01
                    CP:  1.23D+00  1.14D+00  1.05D+00  1.05D+00  1.12D+00
                    CP:  1.14D+00  9.12D-01
 E= -630.889870922818     Delta-E=       -0.000000000003 Rises=F Damp=F
 DIIS: error= 1.07D-08 at cycle  13 NSaved=  13.
 NSaved=13 IEnMin=13 EnMin= -630.889870922818     IErMin=13 ErrMin= 1.07D-08
 ErrMax= 1.07D-08  0.00D+00 EMaxC= 1.00D-01 BMatC= 4.54D-14 BMatP= 8.71D-13
 IDIUse=1 WtCom= 1.00D+00 WtEn= 0.00D+00
 Coeff-Com:  0.549D-07-0.132D-06-0.567D-05-0.916D-05-0.762D-05 0.151D-03
 Coeff-Com:  0.321D-03 0.400D-03-0.761D-02-0.258D-01 0.304D-01 0.202D+00
 Coeff-Com:  0.800D+00
 Coeff:      0.549D-07-0.132D-06-0.567D-05-0.916D-05-0.762D-05 0.151D-03
 Coeff:      0.321D-03 0.400D-03-0.761D-02-0.258D-01 0.304D-01 0.202D+00
 Coeff:      0.800D+00
 Gap=     0.361 Goal=   None    Shift=    0.000
 RMSDP=2.82D-09 MaxDP=6.53D-08 DE=-2.50D-12 OVMax= 1.06D-07

 SCF Done:  E(RM062X) =  -630.889870923     A.U. after   13 cycles
            NFock= 13  Conv=0.28D-08     -V/T= 2.0021
 KE= 6.295846955494D+02 PE=-2.141915749102D+03 EE= 5.489544614587D+02
 Leave Link  502 at Sun Oct 13 21:38:35 2019, MaxMem= 10737418240 cpu:             176.6 elap:               7.4
 (Enter /apps/cent7/gaussian/g16-A.03/g16-haswell/g16/l601.exe)
 Copying SCF densities to generalized density rwf, IOpCl= 0 IROHF=0.

 **********************************************************************

            Population analysis using the SCF density.

 **********************************************************************

 Orbital symmetries:
       Occupied  (A) (A) (A) (A) (A) (A) (A) (A) (A) (A) (A) (A)
                 (A) (A) (A) (A) (A) (A) (A) (A) (A) (A) (A) (A)
                 (A) (A) (A) (A)
       Virtual   (A) (A) (A) (A) (A) (A) (A) (A) (A) (A) (A) (A)
                 (A) (A) (A) (A) (A) (A) (A) (A) (A) (A) (A) (A)
                 (A) (A) (A) (A) (A) (A) (A) (A) (A) (A) (A) (A)
                 (A) (A) (A) (A) (A) (A) (A) (A) (A) (A) (A) (A)
                 (A) (A) (A) (A) (A) (A) (A) (A) (A) (A) (A) (A)
                 (A) (A) (A) (A) (A) (A) (A) (A) (A) (A) (A) (A)
                 (A) (A) (A) (A) (A) (A) (A) (A) (A) (A) (A) (A)
                 (A) (A) (A) (A) (A) (A) (A) (A) (A) (A) (A) (A)
                 (A) (A) (A) (A) (A) (A) (A) (A) (A) (A) (A) (A)
                 (A) (A) (A) (A) (A) (A) (A) (A) (A) (A) (A) (A)
                 (A) (A) (A) (A) (A) (A) (A) (A) (A) (A) (A) (A)
                 (A) (A) (A) (A) (A) (A) (A) (A) (A) (A) (A) (A)
                 (A) (A) (A) (A) (A) (A) (A) (A) (A) (A) (A) (A)
                 (A) (A) (A) (A) (A) (A) (A) (A) (A) (A) (A) (A)
                 (A) (A) (A) (A) (A) (A) (A)
 The electronic state is 1-A.
 Alpha  occ. eigenvalues --  -90.22261 -19.87780 -10.77772 -10.77163 -10.73221
 Alpha  occ. eigenvalues --  -10.72814  -8.58113  -6.50287  -6.49938  -6.49628
 Alpha  occ. eigenvalues --   -1.41090  -1.16561  -1.04069  -1.03728  -0.91287
 Alpha  occ. eigenvalues --   -0.85216  -0.82439  -0.78482  -0.73055  -0.71827
 Alpha  occ. eigenvalues --   -0.70362  -0.69728  -0.64654  -0.61912  -0.59973
 Alpha  occ. eigenvalues --   -0.59390  -0.58094  -0.55410
 Alpha virt. eigenvalues --   -0.19319  -0.15550  -0.13273  -0.12463  -0.11185
 Alpha virt. eigenvalues --   -0.10665  -0.09810  -0.08883  -0.08328  -0.07959
 Alpha virt. eigenvalues --   -0.07617  -0.06085  -0.05009  -0.04469  -0.03558
 Alpha virt. eigenvalues --   -0.03169  -0.02344  -0.02034  -0.01328  -0.01191
 Alpha virt. eigenvalues --    0.00341   0.01461   0.02053   0.02326   0.02754
 Alpha virt. eigenvalues --    0.02786   0.03161   0.03935   0.04133   0.05019
 Alpha virt. eigenvalues --    0.05509   0.05617   0.06610   0.07417   0.08362
 Alpha virt. eigenvalues --    0.09441   0.11004   0.11112   0.12285   0.13331
 Alpha virt. eigenvalues --    0.15191   0.15388   0.15958   0.18888   0.19008
 Alpha virt. eigenvalues --    0.19547   0.20522   0.21024   0.21389   0.22861
 Alpha virt. eigenvalues --    0.25833   0.28175   0.30431   0.31912   0.35000
 Alpha virt. eigenvalues --    0.35193   0.37287   0.38717   0.41722   0.42431
 Alpha virt. eigenvalues --    0.46149   0.50528   0.51192   0.53351   0.54208
 Alpha virt. eigenvalues --    0.54859   0.55880   0.57997   0.58878   0.60034
 Alpha virt. eigenvalues --    0.60750   0.61530   0.62922   0.67224   0.68608
 Alpha virt. eigenvalues --    0.70806   0.74707   0.76242   0.82015   0.82939
 Alpha virt. eigenvalues --    0.86746   0.89676   0.90403   0.96150   0.98204
 Alpha virt. eigenvalues --    0.98882   1.04316   1.08954   1.13667   1.17971
 Alpha virt. eigenvalues --    1.21950   1.24481   1.29325   1.31364   1.36347
 Alpha virt. eigenvalues --    1.38016   1.39241   1.42473   1.43328   1.44895
 Alpha virt. eigenvalues --    1.46174   1.48248   1.49237   1.50464   1.51570
 Alpha virt. eigenvalues --    1.55415   1.55821   1.57424   1.60270   1.65169
 Alpha virt. eigenvalues --    1.68400   1.70574   1.73627   1.73949   1.76602
 Alpha virt. eigenvalues --    1.78456   1.81603   1.88287   1.91325   1.92687
 Alpha virt. eigenvalues --    1.96006   1.98740   2.02479   2.04079   2.07625
 Alpha virt. eigenvalues --    2.10646   2.21113   2.25383   2.34559   2.36987
 Alpha virt. eigenvalues --    2.37057   2.37684   2.41108   2.44086   2.46919
 Alpha virt. eigenvalues --    2.50503   2.51831   2.52854   2.56337   2.60135
 Alpha virt. eigenvalues --    2.64601   2.67792   2.69964   2.72600   2.73198
 Alpha virt. eigenvalues --    2.78803   2.81581   2.92427   2.95020   2.96600
 Alpha virt. eigenvalues --    3.01353   3.07140   3.10055   3.23391   3.49712
 Alpha virt. eigenvalues --    3.58666   3.65822   3.80586   3.85193   3.90038
 Alpha virt. eigenvalues --    3.96883   4.09520   4.91055   4.97781   5.37564
 Alpha virt. eigenvalues --    7.93837  17.35160  17.37017  17.43960  23.70270
 Alpha virt. eigenvalues --   23.70931  23.77487  23.79421  49.78095 189.22794
          Condensed to atoms (all electrons):
               1          2          3          4          5          6
     1  O    7.859015   0.127185   0.006475  -0.014077  -0.003770  -0.034520
     2  S    0.127185  16.249188  -0.294432  -0.297821   0.210823  -0.345694
     3  C    0.006475  -0.294432   6.328476  -0.065535   0.008344  -0.178613
     4  C   -0.014077  -0.297821  -0.065535   6.038901  -0.271028   0.394741
     5  C   -0.003770   0.210823   0.008344  -0.271028   6.071788  -0.443026
     6  C   -0.034520  -0.345694  -0.178613   0.394741  -0.443026   6.569768
     7  H   -0.005962  -0.063778   0.342875   0.022488  -0.045646   0.049167
     8  H    0.009842  -0.044244   0.347619  -0.042705   0.014991   0.014007
     9  H    0.000543  -0.035521   0.026200   0.426199  -0.095508   0.016145
    10  H    0.001662   0.021772  -0.079060   0.396858  -0.022200  -0.013594
    11  H   -0.000536   0.043965  -0.018771  -0.039055   0.439281  -0.071937
    12  H   -0.001786  -0.021644   0.031990  -0.057248   0.421581  -0.027455
    13  H   -0.007790  -0.171858   0.078424   0.012893  -0.061821   0.437430
    14  H    0.012888   0.048260  -0.009082  -0.059705   0.048255   0.265909
    15  H    0.268455   0.003332  -0.010638  -0.020843   0.022349  -0.016468
               7          8          9         10         11         12
     1  O   -0.005962   0.009842   0.000543   0.001662  -0.000536  -0.001786
     2  S   -0.063778  -0.044244  -0.035521   0.021772   0.043965  -0.021644
     3  C    0.342875   0.347619   0.026200  -0.079060  -0.018771   0.031990
     4  C    0.022488  -0.042705   0.426199   0.396858  -0.039055  -0.057248
     5  C   -0.045646   0.014991  -0.095508  -0.022200   0.439281   0.421581
     6  C    0.049167   0.014007   0.016145  -0.013594  -0.071937  -0.027455
     7  H    0.446608   0.010058  -0.013830   0.009992  -0.003851  -0.004853
     8  H    0.010058   0.393790  -0.003277  -0.004334  -0.004497   0.001999
     9  H   -0.013830  -0.003277   0.421845   0.002698  -0.002073   0.007869
    10  H    0.009992  -0.004334   0.002698   0.433104   0.001810  -0.011961
    11  H   -0.003851  -0.004497  -0.002073   0.001810   0.420128   0.011256
    12  H   -0.004853   0.001999   0.007869  -0.011961   0.011256   0.425605
    13  H   -0.006300   0.000930   0.006145  -0.007526  -0.010432   0.006482
    14  H    0.004328  -0.004445  -0.008944   0.011760   0.006094  -0.021129
    15  H   -0.005951   0.006255   0.000726  -0.000562  -0.003204   0.000664
              13         14         15
     1  O   -0.007790   0.012888   0.268455
     2  S   -0.171858   0.048260   0.003332
     3  C    0.078424  -0.009082  -0.010638
     4  C    0.012893  -0.059705  -0.020843
     5  C   -0.061821   0.048255   0.022349
     6  C    0.437430   0.265909  -0.016468
     7  H   -0.006300   0.004328  -0.005951
     8  H    0.000930  -0.004445   0.006255
     9  H    0.006145  -0.008944   0.000726
    10  H   -0.007526   0.011760  -0.000562
    11  H   -0.010432   0.006094  -0.003204
    12  H    0.006482  -0.021129   0.000664
    13  H    0.414123   0.001898  -0.003548
    14  H    0.001898   0.418469   0.001817
    15  H   -0.003548   0.001817   0.405916
 Mulliken charges:
               1
     1  O   -0.217623
     2  S    0.570469
     3  C   -0.514272
     4  C   -0.424061
     5  C   -0.294412
     6  C   -0.615861
     7  H    0.264656
     8  H    0.304009
     9  H    0.250782
    10  H    0.259583
    11  H    0.231821
    12  H    0.238630
    13  H    0.310950
    14  H    0.283627
    15  H    0.351700
 Sum of Mulliken charges =   1.00000
 Mulliken charges with hydrogens summed into heavy atoms:
               1
     1  O    0.134077
     2  S    0.570469
     3  C    0.054394
     4  C    0.086304
     5  C    0.176039
     6  C   -0.021284
 Electronic spatial extent (au):  <R**2>=            663.5425
 Charge=              1.0000 electrons
 Dipole moment (field-independent basis, Debye):
    X=              1.3167    Y=             -0.3283    Z=              1.4314  Tot=              1.9724
 Quadrupole moment (field-independent basis, Debye-Ang):
   XX=            -37.8717   YY=            -34.3596   ZZ=            -35.2567
   XY=              0.5882   XZ=             -3.6017   YZ=             -0.9874
 Traceless Quadrupole moment (field-independent basis, Debye-Ang):
   XX=             -2.0424   YY=              1.4697   ZZ=              0.5726
   XY=              0.5882   XZ=             -3.6017   YZ=             -0.9874
 Octapole moment (field-independent basis, Debye-Ang**2):
  XXX=              1.3628  YYY=             -1.0560  ZZZ=              9.1624  XYY=              1.5290
  XXY=             -1.1151  XXZ=              7.1464  XZZ=             -7.9653  YZZ=             -0.3776
  YYZ=             -1.3900  XYZ=             -1.4581
 Hexadecapole moment (field-independent basis, Debye-Ang**3):
 XXXX=           -465.9350 YYYY=           -238.7889 ZZZZ=            -91.6225 XXXY=              4.0683
 XXXZ=            -17.9751 YYYX=              0.1462 YYYZ=              1.7790 ZZZX=            -18.4787
 ZZZY=             -3.0854 XXYY=           -118.1805 XXZZ=            -75.7960 YYZZ=            -52.5099
 XXYZ=             -7.4624 YYXZ=             -3.1180 ZZXY=              0.2689
 N-N= 3.324867211711D+02 E-N=-2.141915751818D+03  KE= 6.295846955494D+02
 No NMR shielding tensors so no spin-rotation constants.
 Leave Link  601 at Sun Oct 13 21:38:35 2019, MaxMem= 10737418240 cpu:               3.0 elap:               0.2
 (Enter /apps/cent7/gaussian/g16-A.03/g16-haswell/g16/l701.exe)
 ... and contract with generalized density number  0.
 Compute integral first derivatives.
 Leave Link  701 at Sun Oct 13 21:38:35 2019, MaxMem= 10737418240 cpu:               2.7 elap:               0.1
 (Enter /apps/cent7/gaussian/g16-A.03/g16-haswell/g16/l702.exe)
 L702 exits ... SP integral derivatives will be done elsewhere.
 Leave Link  702 at Sun Oct 13 21:38:35 2019, MaxMem= 10737418240 cpu:               0.5 elap:               0.0
 (Enter /apps/cent7/gaussian/g16-A.03/g16-haswell/g16/l703.exe)
 Integral derivatives from FoFJK, PRISM(SPDF).
 Compute integral first derivatives, UseDBF=F ICtDFT=           0.
 Calling FoFJK, ICntrl=      2127 FMM=F ISym2X=0 I1Cent= 0 IOpClX= 0 NMat=1 NMatS=1 NMatT=0.
 FoFJK:  IHMeth= 1 ICntrl=    2127 DoSepK=F KAlg= 0 I1Cent=           0 FoldK=F
 IRaf=         0 NMat=       1 IRICut=       1 DoRegI=T DoRafI=F ISym2E= 0 IDoP0=0 IntGTp=1.
 FoFCou: FMM=F IPFlag=           0 FMFlag=      100000 FMFlg1=         800
         NFxFlg=           0 DoJE=F BraDBF=F KetDBF=F FulRan=T
         wScrn=  0.000000 ICntrl=      2127 IOpCl=  0 I1Cent=           0 NGrid=           0
         NMat0=    1 NMatS0=      1 NMatT0=    0 NMatD0=    1 NMtDS0=    0 NMtDT0=    0
 Symmetry not used in FoFCou.
 Leave Link  703 at Sun Oct 13 21:38:37 2019, MaxMem= 10737418240 cpu:              29.4 elap:               1.3
 (Enter /apps/cent7/gaussian/g16-A.03/g16-haswell/g16/l716.exe)
 Dipole        = 5.18038680D-01-1.29172670D-01 5.63163589D-01
 ***** Axes restored to original set *****
 -------------------------------------------------------------------
 Center     Atomic                   Forces (Hartrees/Bohr)
 Number     Number              X              Y              Z
 -------------------------------------------------------------------
      1        8          -0.014574085    0.003609619    0.004641936
      2       16          -0.009980421    0.000347670    0.009369423
      3        6           0.004527343    0.001887677   -0.033668252
      4        6          -0.007754885    0.024304556    0.000004335
      5        6          -0.005952339   -0.011173169    0.016677912
      6        6           0.028262681   -0.025024414   -0.002778735
      7        1          -0.005514713   -0.000791038    0.013932246
      8        1           0.002152458    0.009454005    0.014955750
      9        1          -0.008514651   -0.014945170   -0.006287398
     10        1           0.010820090   -0.013689692   -0.004461426
     11        1           0.003929717   -0.001477572   -0.016784379
     12        1           0.017882692    0.007353111   -0.003270757
     13        1          -0.018241240    0.006628335    0.000012327
     14        1          -0.008610416    0.014534935    0.011315891
     15        1           0.011567768   -0.001018851   -0.003658873
 -------------------------------------------------------------------
 Cartesian Forces:  Max     0.033668252 RMS     0.012417708
 Leave Link  716 at Sun Oct 13 21:38:37 2019, MaxMem= 10737418240 cpu:               0.6 elap:               0.0
 (Enter /apps/cent7/gaussian/g16-A.03/g16-haswell/g16/l103.exe)

 GradGradGradGradGradGradGradGradGradGradGradGradGradGradGradGradGradGrad
 Berny optimization.
 FormGI is forming the generalized inverse of G from B-inverse, IUseBI=4.
 Internal  Forces:  Max     0.012780830 RMS     0.006461302
 Search for a local minimum.
 Step number   1 out of a maximum of   94
 All quantities printed in internal units (Hartrees-Bohrs-Radians)
 RMS Force = .64613D-02 SwitMx=.10000D-02 MixMth= 1
 Mixed Optimization -- RFO/linear search
 Second derivative matrix not updated -- first step.
 ITU=  0
     Eigenvalues ---    0.00260   0.00428   0.02448   0.02611   0.02611
     Eigenvalues ---    0.04676   0.05056   0.05312   0.05534   0.05634
     Eigenvalues ---    0.05897   0.06459   0.06540   0.07020   0.07192
     Eigenvalues ---    0.07331   0.07470   0.08929   0.09388   0.11403
     Eigenvalues ---    0.12230   0.16000   0.20104   0.20600   0.23691
     Eigenvalues ---    0.23915   0.26635   0.27103   0.27581   0.34803
     Eigenvalues ---    0.34808   0.34811   0.34812   0.34813   0.34817
     Eigenvalues ---    0.34818   0.34819   0.51101   0.55473
 RFO step:  Lambda=-2.99992608D-02 EMin= 2.60323748D-03
 Linear search not attempted -- first point.
 Maximum step size (   0.300) exceeded in Quadratic search.
    -- Step size scaled by   0.857
 Iteration  1 RMS(Cart)=  0.05553380 RMS(Int)=  0.00303051
 Iteration  2 RMS(Cart)=  0.00243080 RMS(Int)=  0.00196654
 Iteration  3 RMS(Cart)=  0.00000491 RMS(Int)=  0.00196653
 Iteration  4 RMS(Cart)=  0.00000003 RMS(Int)=  0.00196653
 ITry= 1 IFail=0 DXMaxC= 1.72D-01 DCOld= 1.00D+10 DXMaxT= 3.00D-01 DXLimC= 3.00D+00 Rises=F
 Variable       Old X    -DE/DX   Delta X   Delta X   Delta X     New X
                                 (Linear)    (Quad)   (Total)
    R1        3.02471   0.00194   0.00000   0.00307   0.00307   3.02778
    R2        1.81414   0.00985   0.00000   0.01443   0.01443   1.82857
    R3        3.44645  -0.00389   0.00000  -0.01234  -0.01209   3.43436
    R4        3.45249  -0.00291   0.00000  -0.00479  -0.00481   3.44769
    R5        2.91397   0.00853   0.00000   0.02278   0.02266   2.93663
    R6        2.05972   0.00016   0.00000   0.00036   0.00036   2.06008
    R7        2.05980  -0.00263   0.00000  -0.00597  -0.00597   2.05383
    R8        2.93488  -0.00072   0.00000  -0.00695  -0.00690   2.92798
    R9        2.05972  -0.00174   0.00000  -0.00394  -0.00394   2.05578
   R10        2.05983   0.00024   0.00000   0.00055   0.00055   2.06037
   R11        2.92867   0.01170   0.00000   0.03366   0.03348   2.96215
   R12        2.05981  -0.00099   0.00000  -0.00224  -0.00224   2.05756
   R13        2.05988  -0.00241   0.00000  -0.00548  -0.00548   2.05441
   R14        2.05996  -0.00212   0.00000  -0.00480  -0.00480   2.05516
   R15        2.05970  -0.00275   0.00000  -0.00624  -0.00624   2.05345
    A1        2.09440  -0.01250   0.00000  -0.05642  -0.05642   2.03798
    A2        1.87240   0.00325   0.00000   0.00696   0.00626   1.87866
    A3        1.87784  -0.00046   0.00000  -0.01249  -0.01262   1.86522
    A4        1.73183  -0.00921   0.00000  -0.05016  -0.05014   1.68169
    A5        1.75806   0.00953   0.00000   0.03973   0.03927   1.79733
    A6        1.93483  -0.00283   0.00000  -0.02889  -0.03214   1.90269
    A7        1.93484  -0.00938   0.00000  -0.05454  -0.05815   1.87669
    A8        1.85318   0.00618   0.00000   0.06807   0.06773   1.92091
    A9        1.85308   0.00776   0.00000   0.07758   0.07796   1.93104
   A10        2.09442  -0.00644   0.00000  -0.06657  -0.07346   2.02096
   A11        1.89700  -0.00558   0.00000  -0.02728  -0.02725   1.86976
   A12        1.86437   0.00449   0.00000   0.02287   0.02346   1.88783
   A13        1.86440   0.00314   0.00000   0.03615   0.03589   1.90029
   A14        1.86869   0.00226   0.00000   0.02676   0.02669   1.89538
   A15        1.86864   0.00648   0.00000   0.04131   0.04169   1.91033
   A16        2.09444  -0.01102   0.00000  -0.09848  -0.09831   1.99612
   A17        1.92876  -0.00776   0.00000  -0.03354  -0.03318   1.89558
   A18        1.86047   0.00568   0.00000   0.03016   0.03060   1.89107
   A19        1.86047   0.00276   0.00000   0.02963   0.02973   1.89019
   A20        1.85910   0.00330   0.00000   0.03243   0.03231   1.89141
   A21        1.85907   0.00662   0.00000   0.03952   0.04008   1.89915
   A22        2.09434  -0.01137   0.00000  -0.09999  -0.09990   1.99444
   A23        1.81241   0.01028   0.00000   0.04630   0.04589   1.85830
   A24        1.92583  -0.00775   0.00000  -0.04324  -0.04825   1.87758
   A25        1.92605  -0.00813   0.00000  -0.06504  -0.06945   1.85660
   A26        1.83968   0.00827   0.00000   0.08487   0.08438   1.92406
   A27        1.83971   0.00989   0.00000   0.09225   0.09253   1.93224
   A28        2.09437  -0.00740   0.00000  -0.07716  -0.08734   2.00703
    D1        0.63106  -0.00309   0.00000  -0.00622  -0.00623   0.62483
    D2       -1.21811   0.00613   0.00000   0.05261   0.05262  -1.16549
    D3       -2.43963   0.00088   0.00000   0.00637   0.00605  -2.43358
    D4       -0.48369   0.01149   0.00000   0.09222   0.08964  -0.39406
    D5        1.88773  -0.00917   0.00000  -0.08102  -0.07810   1.80963
    D6       -0.48852  -0.00233   0.00000  -0.02521  -0.02544  -0.51396
    D7        1.46742   0.00828   0.00000   0.06064   0.05815   1.52557
    D8       -2.44434  -0.01238   0.00000  -0.11260  -0.10959  -2.55393
    D9        2.06253  -0.00064   0.00000  -0.00898  -0.00862   2.05391
   D10        0.09852  -0.01203   0.00000  -0.11141  -0.10708  -0.00856
   D11       -2.25651   0.01246   0.00000   0.09276   0.08873  -2.16778
   D12        0.11572  -0.00032   0.00000   0.00748   0.00730   0.12302
   D13       -1.84829  -0.01171   0.00000  -0.09495  -0.09117  -1.93946
   D14        2.07986   0.01278   0.00000   0.10922   0.10465   2.18451
   D15        0.72644   0.00564   0.00000   0.04151   0.04205   0.76849
   D16        2.73727   0.00784   0.00000   0.07104   0.07141   2.80867
   D17       -1.28434  -0.00077   0.00000  -0.01183  -0.01147  -1.29581
   D18       -1.29140   0.00266   0.00000   0.03306   0.03334  -1.25806
   D19        0.71942   0.00486   0.00000   0.06259   0.06270   0.78212
   D20        2.98100  -0.00375   0.00000  -0.02028  -0.02018   2.96082
   D21        2.74427   0.00198   0.00000   0.02509   0.02524   2.76950
   D22       -1.52810   0.00418   0.00000   0.05462   0.05460  -1.47350
   D23        0.73348  -0.00444   0.00000  -0.02825  -0.02828   0.70520
   D24       -0.70950   0.00143   0.00000  -0.00551  -0.00486  -0.71436
   D25        1.30388   0.00455   0.00000   0.03256   0.03285   1.33673
   D26       -2.72283  -0.00399   0.00000  -0.05166  -0.05134  -2.77417
   D27       -2.71751  -0.00220   0.00000  -0.03247  -0.03205  -2.74956
   D28       -0.70414   0.00092   0.00000   0.00560   0.00566  -0.69848
   D29        1.55234  -0.00762   0.00000  -0.07862  -0.07853   1.47381
   D30        1.29853   0.00566   0.00000   0.04446   0.04487   1.34341
   D31       -2.97128   0.00879   0.00000   0.08253   0.08258  -2.88870
   D32       -0.71480   0.00024   0.00000  -0.00169  -0.00161  -0.71640
   D33        0.30798   0.00218   0.00000   0.00805   0.00831   0.31629
   D34        2.33356   0.00131   0.00000   0.01434   0.01434   2.34790
   D35       -1.71786   0.00280   0.00000   0.02304   0.02319  -1.69467
   D36       -1.70625  -0.00245   0.00000  -0.02861  -0.02833  -1.73458
   D37        0.31933  -0.00332   0.00000  -0.02233  -0.02230   0.29703
   D38        2.55109  -0.00182   0.00000  -0.01362  -0.01345   2.53764
   D39        2.32219   0.00519   0.00000   0.04803   0.04822   2.37041
   D40       -1.93542   0.00432   0.00000   0.05431   0.05425  -1.88117
   D41        0.29635   0.00581   0.00000   0.06301   0.06310   0.35945
         Item               Value     Threshold  Converged?
 Maximum Force            0.012781     0.000450     NO 
 RMS     Force            0.006461     0.000300     NO 
 Maximum Displacement     0.172139     0.001800     NO 
 RMS     Displacement     0.055923     0.001200     NO 
 Predicted change in Energy=-1.749517D-02
 Lowest energy point so far.  Saving SCF results.
 GradGradGradGradGradGradGradGradGradGradGradGradGradGradGradGradGradGrad

 Leave Link  103 at Sun Oct 13 21:38:37 2019, MaxMem= 10737418240 cpu:               1.0 elap:               0.1
 (Enter /apps/cent7/gaussian/g16-A.03/g16-haswell/g16/l202.exe)
                          Input orientation:                          
 ---------------------------------------------------------------------
 Center     Atomic      Atomic             Coordinates (Angstroms)
 Number     Number       Type             X           Y           Z
 ---------------------------------------------------------------------
      1          8           0       -0.106291    2.922936    1.371459
      2         16           0       -0.418372    1.778382    0.294544
      3          6           0        0.880409    0.515599    0.440927
      4          6           0        1.175392    0.145091   -1.039147
      5          6           0        1.247087    1.471884   -1.836131
      6          6           0        0.107812    2.421868   -1.329534
      7          1           0        1.762833    0.964823    0.896942
      8          1           0        0.454210   -0.332406    0.970517
      9          1           0        2.149539   -0.337414   -1.080293
     10          1           0        0.355302   -0.463775   -1.420584
     11          1           0        2.205692    1.944834   -1.628969
     12          1           0        1.076476    1.248867   -2.886388
     13          1           0        0.496117    3.425883   -1.174868
     14          1           0       -0.760924    2.360631   -1.979408
     15          1           0        0.825636    3.128915    1.530857
 ---------------------------------------------------------------------
                    Distance matrix (angstroms):
                    1          2          3          4          5
     1  O    0.000000
     2  S    1.602231   0.000000
     3  C    2.763103   1.817383   0.000000
     4  C    3.894888   2.643190   1.553998   0.000000
     5  C    3.771713   2.721667   2.496783   1.549420   0.000000
     6  C    2.755408   1.824438   2.713909   2.531356   1.567501
     7  H    2.748272   2.404665   1.090148   2.182999   2.827152
     8  H    3.327487   2.381966   1.086841   2.187889   3.429488
     9  H    4.661517   3.600130   2.156950   1.087872   2.158534
    10  H    4.413432   2.927029   2.167979   1.090303   2.171344
    11  H    3.912099   3.257809   2.843160   2.156033   1.088816
    12  H    4.725538   3.554333   3.412792   2.154160   1.087146
    13  H    2.664513   2.389502   3.350855   3.353123   2.195299
    14  H    3.460208   2.372175   3.457764   3.089017   2.200570
    15  H    0.967638   2.213587   2.832025   3.953536   3.776239
                    6          7          8          9         10
     6  C    0.000000
     7  H    3.133572   0.000000
     8  H    3.605031   1.844100   0.000000
     9  H    3.441571   2.398921   2.660824   0.000000
    10  H    2.897667   3.064794   2.396749   1.830588   0.000000
    11  H    2.172171   2.745318   3.874382   2.347947   3.044464
    12  H    2.176703   3.855562   4.214660   2.632439   2.366815
    13  H    1.087543   3.457425   4.327721   4.111588   3.899954
    14  H    1.086640   4.073207   4.175051   4.069232   3.087962
    15  H    3.032660   2.442024   3.526000   4.537208   4.673290
                   11         12         13         14         15
    11  H    0.000000
    12  H    1.827732   0.000000
    13  H    2.307025   2.829403   0.000000
    14  H    3.016041   2.331238   1.833630   0.000000
    15  H    3.645696   4.807240   2.741846   3.928026   0.000000
 Stoichiometry    C4H9OS(1+)
 Framework group  C1[X(C4H9OS)]
 Deg. of freedom    39
 Full point group                 C1      NOp   1
 RotChk:  IX=0 Diff= 2.64D-02
 Largest Abelian subgroup         C1      NOp   1
 Largest concise Abelian subgroup C1      NOp   1
                         Standard orientation:                         
 ---------------------------------------------------------------------
 Center     Atomic      Atomic             Coordinates (Angstroms)
 Number     Number       Type             X           Y           Z
 ---------------------------------------------------------------------
      1          8           0       -2.088753    0.040096    0.468927
      2         16           0       -0.826778   -0.057733   -0.513415
      3          6           0        0.284453   -1.337081    0.143328
      4          6           0        1.693770   -0.717486   -0.068425
      5          6           0        1.611307    0.765460    0.372905
      6          6           0        0.252695    1.362675   -0.131639
      7          1           0        0.088499   -1.465330    1.208024
      8          1           0        0.160190   -2.225182   -0.470723
      9          1           0        2.393422   -1.235276    0.584144
     10          1           0        1.945563   -0.767534   -1.128074
     11          1           0        1.618315    0.800143    1.461146
     12          1           0        2.428415    1.307334   -0.096769
     13          1           0       -0.224564    1.934170    0.661056
     14          1           0        0.392609    1.900779   -1.065264
     15          1           0       -1.917325   -0.087553    1.412665
 ---------------------------------------------------------------------
 Rotational constants (GHZ):           5.0909337           2.4801334           1.9679466
 Leave Link  202 at Sun Oct 13 21:38:37 2019, MaxMem= 10737418240 cpu:               0.3 elap:               0.0
 (Enter /apps/cent7/gaussian/g16-A.03/g16-haswell/g16/l301.exe)
 Standard basis: 6-311++G(d,p) (5D, 7F)
 Ernie: Thresh=  0.10000D-02 Tol=  0.10000D-05 Strict=F.
 There are   209 symmetry adapted cartesian basis functions of A   symmetry.
 There are   203 symmetry adapted basis functions of A   symmetry.
   203 basis functions,   311 primitive gaussians,   209 cartesian basis functions
    28 alpha electrons       28 beta electrons
       nuclear repulsion energy       331.6055539003 Hartrees.
 IExCor= 4336 DFT=T Ex+Corr=M062X ExCW=0 ScaHFX=  0.540000
 ScaDFX=  1.000000  1.000000  1.000000  1.000000 ScalE2=  1.000000  1.000000
 IRadAn=      5 IRanWt=     -1 IRanGd=            0 ICorTp=0 IEmpDi=  4
 NAtoms=   15 NActive=   15 NUniq=   15 SFac= 1.00D+00 NAtFMM=   60 NAOKFM=F Big=F
 Integral buffers will be    131072 words long.
 Raffenetti 2 integral format.
 Two-electron integral symmetry is turned on.
 Leave Link  301 at Sun Oct 13 21:38:37 2019, MaxMem= 10737418240 cpu:               1.3 elap:               0.1
 (Enter /apps/cent7/gaussian/g16-A.03/g16-haswell/g16/l302.exe)
 NPDir=0 NMtPBC=     1 NCelOv=     1 NCel=       1 NClECP=     1 NCelD=      1
         NCelK=      1 NCelE2=     1 NClLst=     1 CellRange=     0.0.
 One-electron integrals computed using PRISM.
 One-electron integral symmetry used in STVInt
 NBasis=   203 RedAO= T EigKep=  1.69D-05  NBF=   203
 NBsUse=   203 1.00D-06 EigRej= -1.00D+00 NBFU=   203
 Precomputing XC quadrature grid using
 IXCGrd= 4 IRadAn=           5 IRanWt=          -1 IRanGd=           0 AccXCQ= 0.00D+00.
 Generated NRdTot=       0 NPtTot=           0 NUsed=           0 NTot=          32
 NSgBfM=   209   209   209   209   209 MxSgAt=    15 MxSgA2=    15.
 Leave Link  302 at Sun Oct 13 21:38:37 2019, MaxMem= 10737418240 cpu:               3.3 elap:               0.2
 (Enter /apps/cent7/gaussian/g16-A.03/g16-haswell/g16/l303.exe)
 DipDrv:  MaxL=1.
 Leave Link  303 at Sun Oct 13 21:38:37 2019, MaxMem= 10737418240 cpu:               0.6 elap:               0.0
 (Enter /apps/cent7/gaussian/g16-A.03/g16-haswell/g16/l401.exe)
 Initial guess from the checkpoint file:  "22_p.chk"
 B after Tr=     0.000000   -0.000000   -0.000000
         Rot=    0.999966    0.006688   -0.004308   -0.002059 Ang=   0.94 deg.
 Guess basis will be translated and rotated to current coordinates.
 JPrj=2 DoOrth=T DoCkMO=T.
 Generating alternative initial guess.
 ExpMin= 3.60D-02 ExpMax= 9.34D+04 ExpMxC= 3.17D+03 IAcc=3 IRadAn=         5 AccDes= 0.00D+00
 Harris functional with IExCor= 1009 and IRadAn=       5 diagonalized for initial guess.
 HarFok:  IExCor= 1009 AccDes= 0.00D+00 IRadAn=         5 IDoV= 1 UseB2=F ITyADJ=14
 ICtDFT=  3500011 ScaDFX=  1.000000  1.000000  1.000000  1.000000
 FoFCou: FMM=F IPFlag=           0 FMFlag=      100000 FMFlg1=           0
         NFxFlg=           0 DoJE=T BraDBF=F KetDBF=T FulRan=T
         wScrn=  0.000000 ICntrl=       500 IOpCl=  0 I1Cent=   200000004 NGrid=           0
         NMat0=    1 NMatS0=      1 NMatT0=    0 NMatD0=    1 NMtDS0=    0 NMtDT0=    0
 Petite list used in FoFCou.
 Harris En= -630.740925412422    
 Leave Link  401 at Sun Oct 13 21:38:38 2019, MaxMem= 10737418240 cpu:              10.0 elap:               0.4
 (Enter /apps/cent7/gaussian/g16-A.03/g16-haswell/g16/l502.exe)
 Integral symmetry usage will be decided dynamically.
 Closed shell SCF:
 Using DIIS extrapolation, IDIIS=  1040.
 NGot= 10737418240 LenX= 10737323680 LenY= 10737279558
 Requested convergence on RMS density matrix=1.00D-08 within 128 cycles.
 Requested convergence on MAX density matrix=1.00D-06.
 Requested convergence on             energy=1.00D-06.
 No special actions if energy rises.
 Fock matrices will be formed incrementally for  20 cycles.

 Cycle   1  Pass 1  IDiag  1:
 FoFJK:  IHMeth= 1 ICntrl=       0 DoSepK=F KAlg= 0 I1Cent=           0 FoldK=F
 IRaf= 990000000 NMat=       1 IRICut=       1 DoRegI=T DoRafI=F ISym2E= 0 IDoP0=0 IntGTp=1.
 FoFCou: FMM=F IPFlag=           0 FMFlag=      100000 FMFlg1=           0
         NFxFlg=           0 DoJE=F BraDBF=F KetDBF=F FulRan=T
         wScrn=  0.000000 ICntrl=         0 IOpCl=  0 I1Cent=           0 NGrid=           0
         NMat0=    1 NMatS0=      1 NMatT0=    0 NMatD0=    1 NMtDS0=    0 NMtDT0=    0
 Symmetry not used in FoFCou.
 E= -630.903357108753    
 DIIS: error= 2.76D-03 at cycle   1 NSaved=   1.
 NSaved= 1 IEnMin= 1 EnMin= -630.903357108753     IErMin= 1 ErrMin= 2.76D-03
 ErrMax= 2.76D-03  0.00D+00 EMaxC= 1.00D-01 BMatC= 3.29D-03 BMatP= 3.29D-03
 IDIUse=3 WtCom= 9.72D-01 WtEn= 2.76D-02
 Coeff-Com:  0.100D+01
 Coeff-En:   0.100D+01
 Coeff:      0.100D+01
 Gap=     0.539 Goal=   None    Shift=    0.000
 GapD=    0.539 DampG=2.000 DampE=1.000 DampFc=2.0000 IDamp=-1.
 RMSDP=2.51D-03 MaxDP=6.71D-02              OVMax= 1.34D-02

 Cycle   2  Pass 1  IDiag  1:
 RMSU=  2.50D-03    CP:  9.91D-01
 E= -630.907314522980     Delta-E=       -0.003957414227 Rises=F Damp=F
 DIIS: error= 6.52D-04 at cycle   2 NSaved=   2.
 NSaved= 2 IEnMin= 2 EnMin= -630.907314522980     IErMin= 2 ErrMin= 6.52D-04
 ErrMax= 6.52D-04  0.00D+00 EMaxC= 1.00D-01 BMatC= 1.24D-04 BMatP= 3.29D-03
 IDIUse=3 WtCom= 9.93D-01 WtEn= 6.52D-03
 Coeff-Com: -0.122D-01 0.101D+01
 Coeff-En:   0.000D+00 0.100D+01
 Coeff:     -0.121D-01 0.101D+01
 Gap=     0.373 Goal=   None    Shift=    0.000
 RMSDP=2.86D-04 MaxDP=1.59D-02 DE=-3.96D-03 OVMax= 4.56D-03

 Cycle   3  Pass 1  IDiag  1:
 RMSU=  1.84D-04    CP:  9.93D-01  1.09D+00
 E= -630.907451748896     Delta-E=       -0.000137225916 Rises=F Damp=F
 DIIS: error= 4.22D-04 at cycle   3 NSaved=   3.
 NSaved= 3 IEnMin= 3 EnMin= -630.907451748896     IErMin= 3 ErrMin= 4.22D-04
 ErrMax= 4.22D-04  0.00D+00 EMaxC= 1.00D-01 BMatC= 3.93D-05 BMatP= 1.24D-04
 IDIUse=3 WtCom= 9.96D-01 WtEn= 4.22D-03
 Coeff-Com: -0.383D-01 0.343D+00 0.696D+00
 Coeff-En:   0.000D+00 0.000D+00 0.100D+01
 Coeff:     -0.381D-01 0.341D+00 0.697D+00
 Gap=     0.372 Goal=   None    Shift=    0.000
 RMSDP=6.72D-05 MaxDP=2.73D-03 DE=-1.37D-04 OVMax= 1.72D-03

 Cycle   4  Pass 1  IDiag  1:
 RMSU=  5.08D-05    CP:  9.92D-01  1.09D+00  7.79D-01
 E= -630.907488154336     Delta-E=       -0.000036405439 Rises=F Damp=F
 DIIS: error= 1.37D-04 at cycle   4 NSaved=   4.
 NSaved= 4 IEnMin= 4 EnMin= -630.907488154336     IErMin= 4 ErrMin= 1.37D-04
 ErrMax= 1.37D-04  0.00D+00 EMaxC= 1.00D-01 BMatC= 4.34D-06 BMatP= 3.93D-05
 IDIUse=3 WtCom= 9.99D-01 WtEn= 1.37D-03
 Coeff-Com: -0.138D-01 0.529D-01 0.275D+00 0.686D+00
 Coeff-En:   0.000D+00 0.000D+00 0.000D+00 0.100D+01
 Coeff:     -0.138D-01 0.528D-01 0.275D+00 0.686D+00
 Gap=     0.373 Goal=   None    Shift=    0.000
 RMSDP=1.57D-05 MaxDP=6.28D-04 DE=-3.64D-05 OVMax= 6.15D-04

 Cycle   5  Pass 1  IDiag  1:
 RMSU=  1.21D-05    CP:  9.93D-01  1.09D+00  8.29D-01  9.65D-01
 E= -630.907492711753     Delta-E=       -0.000004557417 Rises=F Damp=F
 DIIS: error= 2.59D-05 at cycle   5 NSaved=   5.
 NSaved= 5 IEnMin= 5 EnMin= -630.907492711753     IErMin= 5 ErrMin= 2.59D-05
 ErrMax= 2.59D-05  0.00D+00 EMaxC= 1.00D-01 BMatC= 1.98D-07 BMatP= 4.34D-06
 IDIUse=1 WtCom= 1.00D+00 WtEn= 0.00D+00
 Coeff-Com: -0.373D-03-0.154D-01 0.111D-01 0.156D+00 0.849D+00
 Coeff:     -0.373D-03-0.154D-01 0.111D-01 0.156D+00 0.849D+00
 Gap=     0.373 Goal=   None    Shift=    0.000
 RMSDP=8.06D-06 MaxDP=2.71D-04 DE=-4.56D-06 OVMax= 2.55D-04

 Cycle   6  Pass 1  IDiag  1:
 RMSU=  7.04D-06    CP:  9.92D-01  1.09D+00  8.23D-01  1.03D+00  9.92D-01
 E= -630.907492927286     Delta-E=       -0.000000215533 Rises=F Damp=F
 DIIS: error= 2.18D-05 at cycle   6 NSaved=   6.
 NSaved= 6 IEnMin= 6 EnMin= -630.907492927286     IErMin= 6 ErrMin= 2.18D-05
 ErrMax= 2.18D-05  0.00D+00 EMaxC= 1.00D-01 BMatC= 8.39D-08 BMatP= 1.98D-07
 IDIUse=1 WtCom= 1.00D+00 WtEn= 0.00D+00
 Coeff-Com:  0.133D-02-0.140D-01-0.260D-01 0.335D-02 0.448D+00 0.587D+00
 Coeff:      0.133D-02-0.140D-01-0.260D-01 0.335D-02 0.448D+00 0.587D+00
 Gap=     0.373 Goal=   None    Shift=    0.000
 RMSDP=2.87D-06 MaxDP=9.48D-05 DE=-2.16D-07 OVMax= 7.81D-05

 Cycle   7  Pass 1  IDiag  1:
 RMSU=  1.77D-06    CP:  9.92D-01  1.09D+00  8.27D-01  1.04D+00  1.11D+00
                    CP:  8.13D-01
 E= -630.907492993884     Delta-E=       -0.000000066598 Rises=F Damp=F
 DIIS: error= 2.95D-06 at cycle   7 NSaved=   7.
 NSaved= 7 IEnMin= 7 EnMin= -630.907492993884     IErMin= 7 ErrMin= 2.95D-06
 ErrMax= 2.95D-06  0.00D+00 EMaxC= 1.00D-01 BMatC= 2.75D-09 BMatP= 8.39D-08
 IDIUse=1 WtCom= 1.00D+00 WtEn= 0.00D+00
 Coeff-Com:  0.339D-03-0.194D-02-0.713D-02-0.145D-01 0.298D-01 0.160D+00
 Coeff-Com:  0.834D+00
 Coeff:      0.339D-03-0.194D-02-0.713D-02-0.145D-01 0.298D-01 0.160D+00
 Coeff:      0.834D+00
 Gap=     0.373 Goal=   None    Shift=    0.000
 RMSDP=8.41D-07 MaxDP=2.02D-05 DE=-6.66D-08 OVMax= 3.96D-05

 Cycle   8  Pass 1  IDiag  1:
 RMSU=  5.70D-07    CP:  9.92D-01  1.09D+00  8.26D-01  1.04D+00  1.14D+00
                    CP:  8.75D-01  9.64D-01
 E= -630.907492997899     Delta-E=       -0.000000004015 Rises=F Damp=F
 DIIS: error= 7.31D-07 at cycle   8 NSaved=   8.
 NSaved= 8 IEnMin= 8 EnMin= -630.907492997899     IErMin= 8 ErrMin= 7.31D-07
 ErrMax= 7.31D-07  0.00D+00 EMaxC= 1.00D-01 BMatC= 2.27D-10 BMatP= 2.75D-09
 IDIUse=1 WtCom= 1.00D+00 WtEn= 0.00D+00
 Coeff-Com: -0.734D-04 0.118D-02 0.142D-02-0.360D-02-0.439D-01-0.316D-01
 Coeff-Com:  0.184D+00 0.893D+00
 Coeff:     -0.734D-04 0.118D-02 0.142D-02-0.360D-02-0.439D-01-0.316D-01
 Coeff:      0.184D+00 0.893D+00
 Gap=     0.373 Goal=   None    Shift=    0.000
 RMSDP=3.43D-07 MaxDP=1.05D-05 DE=-4.02D-09 OVMax= 1.45D-05

 Cycle   9  Pass 1  IDiag  1:
 RMSU=  2.27D-07    CP:  9.92D-01  1.09D+00  8.26D-01  1.05D+00  1.14D+00
                    CP:  8.78D-01  1.07D+00  9.41D-01
 E= -630.907492998331     Delta-E=       -0.000000000432 Rises=F Damp=F
 DIIS: error= 2.04D-07 at cycle   9 NSaved=   9.
 NSaved= 9 IEnMin= 9 EnMin= -630.907492998331     IErMin= 9 ErrMin= 2.04D-07
 ErrMax= 2.04D-07  0.00D+00 EMaxC= 1.00D-01 BMatC= 1.98D-11 BMatP= 2.27D-10
 IDIUse=1 WtCom= 1.00D+00 WtEn= 0.00D+00
 Coeff-Com: -0.455D-04 0.492D-03 0.962D-03-0.141D-03-0.152D-01-0.200D-01
 Coeff-Com: -0.115D-01 0.247D+00 0.798D+00
 Coeff:     -0.455D-04 0.492D-03 0.962D-03-0.141D-03-0.152D-01-0.200D-01
 Coeff:     -0.115D-01 0.247D+00 0.798D+00
 Gap=     0.373 Goal=   None    Shift=    0.000
 RMSDP=6.44D-08 MaxDP=1.65D-06 DE=-4.32D-10 OVMax= 3.08D-06

 Cycle  10  Pass 1  IDiag  1:
 RMSU=  4.21D-08    CP:  9.92D-01  1.09D+00  8.26D-01  1.05D+00  1.15D+00
                    CP:  8.79D-01  1.07D+00  9.98D-01  1.06D+00
 E= -630.907492998360     Delta-E=       -0.000000000029 Rises=F Damp=F
 DIIS: error= 6.17D-08 at cycle  10 NSaved=  10.
 NSaved=10 IEnMin=10 EnMin= -630.907492998360     IErMin=10 ErrMin= 6.17D-08
 ErrMax= 6.17D-08  0.00D+00 EMaxC= 1.00D-01 BMatC= 1.70D-12 BMatP= 1.98D-11
 IDIUse=1 WtCom= 1.00D+00 WtEn= 0.00D+00
 Coeff-Com: -0.584D-05 0.294D-04 0.141D-03 0.221D-03-0.260D-03-0.191D-02
 Coeff-Com: -0.174D-01-0.123D-01 0.201D+00 0.830D+00
 Coeff:     -0.584D-05 0.294D-04 0.141D-03 0.221D-03-0.260D-03-0.191D-02
 Coeff:     -0.174D-01-0.123D-01 0.201D+00 0.830D+00
 Gap=     0.373 Goal=   None    Shift=    0.000
 RMSDP=2.21D-08 MaxDP=7.91D-07 DE=-2.90D-11 OVMax= 7.62D-07

 Cycle  11  Pass 1  IDiag  1:
 RMSU=  1.19D-08    CP:  9.92D-01  1.09D+00  8.27D-01  1.05D+00  1.15D+00
                    CP:  8.78D-01  1.07D+00  1.01D+00  1.11D+00  1.06D+00
 E= -630.907492998366     Delta-E=       -0.000000000006 Rises=F Damp=F
 DIIS: error= 2.66D-08 at cycle  11 NSaved=  11.
 NSaved=11 IEnMin=11 EnMin= -630.907492998366     IErMin=11 ErrMin= 2.66D-08
 ErrMax= 2.66D-08  0.00D+00 EMaxC= 1.00D-01 BMatC= 2.58D-13 BMatP= 1.70D-12
 IDIUse=1 WtCom= 1.00D+00 WtEn= 0.00D+00
 Coeff-Com:  0.234D-05-0.370D-04-0.442D-04 0.822D-04 0.137D-02 0.138D-02
 Coeff-Com: -0.433D-02-0.283D-01-0.908D-02 0.296D+00 0.743D+00
 Coeff:      0.234D-05-0.370D-04-0.442D-04 0.822D-04 0.137D-02 0.138D-02
 Coeff:     -0.433D-02-0.283D-01-0.908D-02 0.296D+00 0.743D+00
 Gap=     0.373 Goal=   None    Shift=    0.000
 RMSDP=5.91D-09 MaxDP=1.59D-07 DE=-5.91D-12 OVMax= 1.82D-07

 SCF Done:  E(RM062X) =  -630.907492998     A.U. after   11 cycles
            NFock= 11  Conv=0.59D-08     -V/T= 2.0022
 KE= 6.295535087664D+02 PE=-2.140159303379D+03 EE= 5.480927477142D+02
 Leave Link  502 at Sun Oct 13 21:38:44 2019, MaxMem= 10737418240 cpu:             150.1 elap:               6.3
 (Enter /apps/cent7/gaussian/g16-A.03/g16-haswell/g16/l701.exe)
 ... and contract with generalized density number  0.
 Compute integral first derivatives.
 Leave Link  701 at Sun Oct 13 21:38:44 2019, MaxMem= 10737418240 cpu:               2.7 elap:               0.1
 (Enter /apps/cent7/gaussian/g16-A.03/g16-haswell/g16/l702.exe)
 L702 exits ... SP integral derivatives will be done elsewhere.
 Leave Link  702 at Sun Oct 13 21:38:44 2019, MaxMem= 10737418240 cpu:               0.4 elap:               0.0
 (Enter /apps/cent7/gaussian/g16-A.03/g16-haswell/g16/l703.exe)
 Integral derivatives from FoFJK, PRISM(SPDF).
 Compute integral first derivatives, UseDBF=F ICtDFT=           0.
 Calling FoFJK, ICntrl=      2127 FMM=F ISym2X=0 I1Cent= 0 IOpClX= 0 NMat=1 NMatS=1 NMatT=0.
 FoFJK:  IHMeth= 1 ICntrl=    2127 DoSepK=F KAlg= 0 I1Cent=           0 FoldK=F
 IRaf=         0 NMat=       1 IRICut=       1 DoRegI=T DoRafI=F ISym2E= 0 IDoP0=0 IntGTp=1.
 FoFCou: FMM=F IPFlag=           0 FMFlag=      100000 FMFlg1=         800
         NFxFlg=           0 DoJE=F BraDBF=F KetDBF=F FulRan=T
         wScrn=  0.000000 ICntrl=      2127 IOpCl=  0 I1Cent=           0 NGrid=           0
         NMat0=    1 NMatS0=      1 NMatT0=    0 NMatD0=    1 NMtDS0=    0 NMtDT0=    0
 Symmetry not used in FoFCou.
 Leave Link  703 at Sun Oct 13 21:38:45 2019, MaxMem= 10737418240 cpu:              28.3 elap:               1.2
 (Enter /apps/cent7/gaussian/g16-A.03/g16-haswell/g16/l716.exe)
 Dipole        = 5.19347629D-01-1.12808611D-01 5.30623245D-01
 ***** Axes restored to original set *****
 -------------------------------------------------------------------
 Center     Atomic                   Forces (Hartrees/Bohr)
 Number     Number              X              Y              Z
 -------------------------------------------------------------------
      1        8          -0.002011276    0.002559123    0.005239056
      2       16          -0.005542350   -0.001975385   -0.000008465
      3        6           0.000732593   -0.004414965   -0.022125418
      4        6          -0.004929736    0.020966794    0.007975505
      5        6          -0.013844640   -0.003197614    0.015726700
      6        6           0.020528909   -0.017575541   -0.004811111
      7        1          -0.001576291   -0.001254357    0.006242367
      8        1           0.003943212    0.002544806    0.008090951
      9        1          -0.004226974   -0.009064192   -0.002087581
     10        1           0.005462466   -0.006529006   -0.001240597
     11        1           0.001564627    0.000511952   -0.008185384
     12        1           0.007934134    0.005426680   -0.002529163
     13        1          -0.008622938    0.004744885   -0.001761070
     14        1          -0.002631984    0.007118191    0.001807927
     15        1           0.003220249    0.000138630   -0.002333718
 -------------------------------------------------------------------
 Cartesian Forces:  Max     0.022125418 RMS     0.008119296
 Leave Link  716 at Sun Oct 13 21:38:45 2019, MaxMem= 10737418240 cpu:               0.5 elap:               0.0
 (Enter /apps/cent7/gaussian/g16-A.03/g16-haswell/g16/l103.exe)

 GradGradGradGradGradGradGradGradGradGradGradGradGradGradGradGradGradGrad
 Berny optimization.
 Using GEDIIS/GDIIS optimizer.
 FormGI is forming the generalized inverse of G from B-inverse, IUseBI=4.
 Internal  Forces:  Max     0.007908946 RMS     0.002781901
 Search for a local minimum.
 Step number   2 out of a maximum of   94
 All quantities printed in internal units (Hartrees-Bohrs-Radians)
 RMS Force = .27819D-02 SwitMx=.10000D-02 MixMth= 1
 Mixed Optimization -- RFO/linear search
 Update second derivatives using D2CorX and points    1    2
 DE= -1.76D-02 DEPred=-1.75D-02 R= 1.01D+00
 TightC=F SS=  1.41D+00  RLast= 4.61D-01 DXNew= 5.0454D-01 1.3842D+00
 Trust test= 1.01D+00 RLast= 4.61D-01 DXMaxT set to 5.05D-01
 ITU=  1  0
 Use linear search instead of GDIIS.
     Eigenvalues ---    0.00262   0.00448   0.02373   0.02506   0.02602
     Eigenvalues ---    0.04420   0.04805   0.05039   0.05221   0.05521
     Eigenvalues ---    0.05780   0.05844   0.05959   0.07009   0.07262
     Eigenvalues ---    0.07778   0.08246   0.09096   0.09398   0.11454
     Eigenvalues ---    0.11972   0.15910   0.20389   0.20449   0.23841
     Eigenvalues ---    0.23848   0.26620   0.27100   0.30957   0.34803
     Eigenvalues ---    0.34809   0.34811   0.34812   0.34814   0.34816
     Eigenvalues ---    0.34818   0.35152   0.51141   0.55416
 RFO step:  Lambda=-5.38814392D-03 EMin= 2.62331686D-03
 Quartic linear search produced a step of  0.57393.
 Iteration  1 RMS(Cart)=  0.05064205 RMS(Int)=  0.00272233
 Iteration  2 RMS(Cart)=  0.00219389 RMS(Int)=  0.00161922
 Iteration  3 RMS(Cart)=  0.00000201 RMS(Int)=  0.00161922
 Iteration  4 RMS(Cart)=  0.00000001 RMS(Int)=  0.00161922
 ITry= 1 IFail=0 DXMaxC= 1.99D-01 DCOld= 1.00D+10 DXMaxT= 5.05D-01 DXLimC= 3.00D+00 Rises=F
 Variable       Old X    -DE/DX   Delta X   Delta X   Delta X     New X
                                 (Linear)    (Quad)   (Total)
    R1        3.02778   0.00412   0.00176   0.01073   0.01249   3.04027
    R2        1.82857   0.00275   0.00828  -0.00009   0.00820   1.83677
    R3        3.43436  -0.00046  -0.00694   0.01024   0.00361   3.43797
[...]

 ----------------------------------------------------------------------

 Electric dipole moment (input orientation):
 (Debye = 10**-18 statcoulomb cm , SI units = C m)
                  (au)            (Debye)         (10**-30 SI)
   Tot        0.729825D+00      0.185503D+01      0.618771D+01
   x          0.294556D+00      0.748686D+00      0.249735D+01
   y         -0.367586D+00     -0.934310D+00     -0.311652D+01
   z         -0.557460D+00     -0.141692D+01     -0.472634D+01

 Dipole polarizability, Alpha (input orientation).
 (esu units = cm**3 , SI units = C**2 m**2 J**-1)
 Alpha(0;0):
               (au)            (10**-24 esu)      (10**-40 SI)
   iso        0.607862D+02      0.900759D+01      0.100223D+02
   aniso      0.104781D+02      0.155269D+01      0.172760D+01
   xx         0.554540D+02      0.821743D+01      0.914312D+01
   yx        -0.305919D+01     -0.453325D+00     -0.504392D+00
   yy         0.630203D+02      0.933864D+01      0.103906D+02
   zx        -0.174253D+01     -0.258216D+00     -0.287304D+00
   zy         0.164020D+01      0.243052D+00      0.270432D+00
   zz         0.638844D+02      0.946669D+01      0.105331D+02

 ----------------------------------------------------------------------

 Dipole orientation:
     8          2.55863083         -3.82991593         -4.18036656
    16          0.14436058         -2.61430257         -2.75929329
     6          1.54656591         -0.40197607         -0.48419442
     6          1.37966310         -1.63371962          2.14022632
     6          1.28507533         -4.49929609          1.76887956
     6         -0.61455930         -4.94564749         -0.35343109
     1          3.47489864         -0.11316789         -1.16372581
     1          0.52306431          1.37650381         -0.65825321
     1          2.99007019         -1.05454181          3.28607064
     1         -0.33236722         -0.99661775          3.09793595
     1          3.14435589         -5.26002154          1.27472539
     1          0.67856677         -5.47839707          3.47739601
     1         -0.58373890         -6.79411171         -1.26549160
     1         -2.54958748         -4.50892579          0.22784769
     1          3.84683125         -4.47623244         -3.04571992

 Electric dipole moment (dipole orientation):
 (Debye = 10**-18 statcoulomb cm , SI units = C m)
                  (au)            (Debye)         (10**-30 SI)
   Tot        0.729825D+00      0.185503D+01      0.618771D+01
   x          0.000000D+00      0.000000D+00      0.000000D+00
   y          0.000000D+00      0.000000D+00      0.000000D+00
   z          0.729825D+00      0.185503D+01      0.618771D+01

 Dipole polarizability, Alpha (dipole orientation).
 (esu units = cm**3 , SI units = C**2 m**2 J**-1)
 Alpha(0;0):
               (au)            (10**-24 esu)      (10**-40 SI)
   iso        0.607862D+02      0.900759D+01      0.100223D+02
   aniso      0.104781D+02      0.155269D+01      0.172760D+01
   xx         0.551636D+02      0.817440D+01      0.909525D+01
   yx         0.219797D+01      0.325706D+00      0.362397D+00
   yy         0.613230D+02      0.908712D+01      0.101108D+02
   zx        -0.133548D+01     -0.197898D+00     -0.220191D+00
   zy         0.104799D+01      0.155296D+00      0.172790D+00
   zz         0.658720D+02      0.976123D+01      0.108608D+02

 ----------------------------------------------------------------------
 1\1\GINC-BROWN-A257\Freq\RM062X\6-311++G(d,p)\C4H9O1S1(1+)\FINEJ\13-Oc
 t-2019\0\\#P Geom=AllCheck Guess=TCheck SCRF=Check GenChk RM062X/6-311
 ++G(d,p) Freq\\Title Card Required\\1,1\O,0.5696807778,3.0054436453,1.
 2153860454\S,-0.3605409087,1.928692807,0.4493549193\C,0.6639299609,0.4
 054941339,0.418881438\C,1.2193957092,0.2539017347,-1.005848456\C,1.269
 4160605,1.6454137855,-1.6397058585\C,-0.0690427868,2.2974434254,-1.306
 5473408\H,1.4273775454,0.5733599691,1.1823666738\H,0.0266967756,-0.416
 3101988,0.7446549992\H,2.2022871591,-0.2156917199,-0.9706893317\H,0.56
 27834627,-0.3944166494,-1.588796292\H,2.1032968493,2.2351724479,-1.245
 6271609\H,1.40271404,1.5966599697,-2.7207800217\H,-0.1363011588,3.3798
 956232,-1.4239761897\H,-0.9009381616,1.8266404563,-1.8383754055\H,1.47
 01613152,3.0744190401,0.859628411\\Version=ES64L-G16RevA.03\State=1-A\
 HF=-630.9175727\RMSD=3.593e-09\RMSF=1.878e-05\ZeroPoint=0.1299152\Ther
 mal=0.1299152\Dipole=0.2945558,-0.367586,-0.5574597\DipoleDeriv=-0.527
 3079,-0.3930542,-0.4038369,-0.0476405,-0.6641262,-0.1705445,-0.0399383
 ,-0.0199485,-0.4855961,0.7213547,0.3593905,0.2601114,0.1275662,0.80366
 59,0.2449031,0.0691508,0.1534269,0.6589833,0.0180665,-0.0753673,-0.031
 9301,-0.1276612,0.1298795,0.0518821,-0.015243,0.0367682,-0.0513473,-0.
 0205825,0.103522,0.0433652,0.0403412,-0.0311721,0.0135718,-0.0297905,0
 .0844578,0.126537,0.1025408,0.0045089,-0.0063466,0.0123496,0.0663201,0
 .0383988,0.082146,0.0263102,-0.1570592,-0.0418189,-0.0360495,-0.015014
 2,0.0208845,-0.0974257,0.0031815,-0.0818304,-0.0192462,0.1989641,0.060
 5763,0.0068596,-0.0133584,0.0072783,0.0150654,-0.0494726,0.0166863,-0.
 0652046,0.0661968,0.0697632,0.0210518,0.0290606,-0.0066211,0.0739725,-
 0.0031973,0.0129819,-0.0185186,0.0740002,0.0375856,0.0359438,-0.001900
 6,0.0269999,0.0702678,0.0024172,0.0051021,-0.019979,0.0641866,0.016783
 2,-0.0610568,-0.0336721,-0.0302215,0.0499672,-0.0026388,-0.0145844,-0.
 0224124,0.0171391,-0.0025829,-0.0339952,-0.0433303,-0.0363085,-0.01556
 34,-0.0374607,-0.0829733,-0.0590403,0.0479744,0.0791817,0.0046463,0.03
 0755,0.0047648,0.0892493,-0.0166989,0.0073367,0.0099803,0.0368689,0.09
 51278,0.0124682,0.0366604,0.0131747,0.0763772,-0.0325941,0.0150545,-0.
 0163604,0.0563991,0.0668928,-0.0178063,0.0534735,-0.041389,0.0834861,-
 0.0066463,0.0000991,-0.0190986,0.0544526,0.3244197,0.0689381,0.0959632
 ,0.0364828,0.3500362,-0.0351015,0.0558026,-0.0511348,0.2923005\Polar=5
 5.4539516,-3.0591896,63.0202609,-1.7425286,1.6401987,63.8843804\Quadru
 pole=0.1577012,0.4311552,-0.5888563,0.4451302,0.9477127,-1.670232\PG=C
 01 [X(C4H9O1S1)]\NImag=0\\0.56013717,0.11995747,0.16727475,-0.11544268
 ,0.08901183,0.19148343,-0.14228740,-0.06191223,-0.01704256,0.32201860,
 -0.11582253,-0.12947856,-0.05029001,0.06852013,0.30209120,-0.07972257,
 -0.07701227,-0.08406519,0.02151332,0.05680108,0.28472398,0.00482356,-0
 .01918432,-0.00613808,-0.07196018,0.03887148,-0.00185693,0.47703452,0.
 01133617,-0.01769857,-0.00491058,-0.00069407,-0.06905131,-0.00365301,0
 .14193806,0.42996263,0.00254371,-0.01142459,-0.00097557,-0.00006693,-0
 .00127918,-0.04127004,0.04786248,-0.03339636,0.50543624,0.00140120,-0.
 00016239,0.00181394,-0.02119872,0.02230164,0.00859951,-0.08053944,-0.0
 0589909,0.02690391,0.60681094,-0.00049693,-0.00334363,0.00015164,0.012
 20617,-0.01027596,-0.01222041,-0.00253572,-0.07426147,-0.01601657,-0.0
 2153369,0.53214822,0.00061404,0.00240991,-0.00073524,0.01050227,-0.016
 48070,-0.00020779,0.02661003,-0.00710100,-0.16835569,0.05623545,0.0509
 2219,0.46153868,-0.00230956,-0.00021513,-0.00044165,-0.00493692,-0.001
 70442,0.02027516,-0.00587970,-0.00413073,0.00695326,-0.07646976,-0.008
 29517,-0.00634658,0.52389200,0.00013799,0.00044219,0.00027665,0.002545
 35,-0.00006473,-0.00484015,-0.00292092,0.00055549,0.00782877,-0.013436
 91,-0.17299565,0.04147451,0.06918639,0.46845768,-0.00128597,0.00045015
 ,0.00279532,0.03225482,0.00394185,-0.03744101,0.01307992,0.02444704,-0
 .02344922,-0.00007231,0.03619081,-0.09174873,0.00538563,0.02384059,0.6
 1394784,-0.00051592,-0.00206914,-0.02766095,-0.05373323,-0.01703024,0.
 04102713,0.00571999,0.00235082,-0.01039677,-0.00573562,0.01152347,0.00
 021447,-0.17129502,0.03793367,0.01346960,0.49994333,-0.00274582,-0.001
 34086,-0.02416688,-0.00742666,-0.05231497,0.01585572,0.00687852,-0.008
 58636,0.01594193,0.03292872,-0.02578977,0.00343408,0.03556610,-0.09570
 810,-0.01145014,0.02191922,0.61013802,0.00203982,0.00048037,-0.0143984
 2,-0.00143460,0.00489750,-0.09435110,-0.00447849,0.01713041,-0.0010785
 5,-0.00394476,0.00087952,-0.00249499,0.01095533,-0.01132031,-0.0677673
 6,0.07984303,0.02168840,0.34304161,0.00349450,-0.00394688,-0.00053347,
 -0.01674590,0.00271361,-0.00904530,-0.18353725,-0.03275094,-0.13641519
 ,0.01198789,0.00267222,0.01039562,0.00025262,0.00042412,0.00003672,-0.
 00078165,0.00089217,0.00046411,0.19556721,-0.00188769,0.00466419,0.000
 51402,0.02503922,-0.00826192,0.01644318,-0.03514534,-0.04741524,-0.027
 67333,-0.00115388,-0.00207201,-0.00346012,0.00046640,0.00011129,-0.000
 32323,0.00082325,-0.00399849,-0.00094180,0.03142528,0.05698471,0.00082
 536,-0.00071644,0.00042566,0.00074346,0.00047902,-0.00056559,-0.136492
 67,-0.03042617,-0.17654193,-0.01882634,-0.00601434,-0.01627418,-0.0004
 9989,-0.00006406,0.00014418,0.00065813,0.00022073,-0.00082556,0.144083
 31,0.03304048,0.18871784,0.00018077,0.00486805,0.00124515,0.01063965,0
 .01316717,-0.00464867,-0.14621086,-0.12943668,0.04757868,-0.00339318,-
 0.00774112,0.00191559,-0.00114009,0.00192779,0.00135988,-0.00185569,0.
 00163118,-0.00082079,-0.01162262,-0.01862931,0.00753142,0.15278319,0.0
 0144587,-0.00479201,-0.00132006,-0.01252404,-0.01584479,0.00469578,-0.
 12685973,-0.20709263,0.06277784,0.00297644,0.00834271,-0.00281921,0.00
 120472,-0.00106161,-0.00150612,0.00134367,-0.00119640,0.00030348,-0.00
 193336,-0.00059643,0.00091749,0.13322889,0.22153251,0.00092841,-0.0032
 3861,-0.00012252,-0.00350076,0.00043174,-0.00142135,0.05062914,0.06151
 287,-0.06858129,0.01376851,0.02145724,-0.00619269,0.00164461,-0.001317
 17,-0.00474117,0.00088168,0.00066757,-0.00073186,-0.01180618,-0.017459
 33,0.00697986,-0.05250866,-0.06452253,0.07527633,-0.00004082,-0.000076
 70,-0.00004072,0.00112777,-0.00196435,0.00024574,-0.00870353,0.0037110
 4,0.00133549,-0.27810015,0.10820392,-0.01031740,0.00456154,-0.00230940
 ,-0.00043012,0.00097831,-0.00100077,-0.00001946,0.00117258,-0.00021577
 ,-0.00036028,-0.00018775,0.00029766,0.00061978,0.29431811,-0.00035654,
 -0.00014379,-0.00034633,0.00065250,-0.00124414,0.00076439,0.00141081,-
 0.00165564,0.00052985,0.10443276,-0.09430598,0.00309638,0.02531592,-0.
 01093593,-0.00025221,-0.00009378,-0.00530500,0.00143489,0.00005006,0.0
 0085741,0.00002500,0.00004903,-0.00038759,-0.00000241,-0.11509754,0.10
 284300,-0.00053617,-0.00094868,-0.00005169,0.00465530,-0.00210161,-0.0
 0286816,0.02620219,-0.01248166,-0.00163070,-0.01110241,0.00431222,-0.0
 4609966,-0.01413923,0.00494955,-0.00034108,0.00075908,0.00323927,-0.00
 263925,-0.00031502,-0.00055864,0.00157312,0.00032724,0.00036598,-0.001
 00588,0.00966204,-0.00411772,0.05216147,0.00006296,0.00043781,-0.00020
 575,0.00029125,-0.00022152,0.00062938,0.00781442,0.00861918,0.00986455
 ,-0.15215485,-0.09635465,-0.09025409,-0.00201668,-0.00080210,0.0006711
 0,0.00104960,0.00033657,0.00031155,-0.00034946,0.00045716,0.00226816,0
 .00107743,0.00021754,-0.00040139,-0.01628614,-0.01804954,-0.01549488,0
 .15908046,0.00014365,0.00017368,0.00000949,0.00005044,-0.00072683,-0.0
 0029369,-0.00045940,-0.00045537,0.00059142,-0.09572335,-0.14303851,-0.
 08717386,-0.01954075,-0.01963080,-0.01416556,-0.00082466,0.00104158,-0
 .00062638,-0.00008014,0.00094894,0.00082572,0.00045741,0.00068055,0.00
 048928,0.00813505,0.00927946,0.00797908,0.10584819,0.15500767,0.000027
 29,-0.00083905,0.00034144,-0.00094689,0.00062081,-0.00153267,-0.016693
 91,-0.01633242,-0.02045742,-0.08854475,-0.08549470,-0.12395939,0.01113
 893,0.01087061,0.00854016,0.00038296,-0.00047812,-0.00003376,0.0031995
 3,-0.00132711,-0.00383564,-0.00059342,0.00010563,0.00125076,-0.0005420
 4,-0.00023633,-0.00011179,0.09230825,0.08956123,0.13946132,0.00227367,
 0.00082317,-0.00034815,-0.00239244,-0.00149079,-0.00178681,0.00023103,
 0.00001729,0.00038553,0.00216863,0.00142597,0.00129639,-0.19914308,-0.
 10671405,-0.07360360,-0.02249085,-0.01383727,-0.01055145,-0.00011704,-
 0.00029792,0.00016134,-0.00000045,0.00003710,0.00013353,0.00064580,-0.
 00000204,0.00050142,0.00119697,0.00104906,-0.00033781,0.21749455,0.000
 29497,-0.00020153,-0.00037958,-0.00061401,-0.00021179,0.00057037,0.000
 31436,0.00064642,-0.00041858,-0.02216100,-0.01834105,-0.01311008,-0.10
 756348,-0.12370821,-0.05329314,0.01463918,0.00935071,0.00761446,-0.000
 21196,0.00006344,0.00064328,0.00017993,0.00003573,0.00009654,0.0001529
 1,0.00111635,-0.00061666,-0.00008159,-0.00445070,0.00400840,0.11413242
 ,0.13629427,0.00013575,-0.00053929,-0.00036499,0.00002411,0.00021670,0
 .00081165,-0.00022424,-0.00036821,0.00115595,0.01123588,0.00703965,0.0
 0477389,-0.07262833,-0.05143918,-0.08688822,0.00694974,0.00466149,0.00
 151650,-0.00021374,0.00010038,-0.00008285,-0.00012805,0.00002492,-0.00
 000491,-0.00011008,-0.00079376,0.00063942,0.00033818,0.00234807,-0.000
 29172,0.07856503,0.05689073,0.08975476,0.00159115,0.00049482,-0.000204
 51,-0.00577974,-0.00090359,0.00478751,-0.00046935,0.00208125,0.0008184
 2,-0.00059830,-0.00034799,-0.00150989,-0.04912749,0.00141229,0.0290128
 2,-0.00414632,0.00137601,0.02674197,-0.00009508,-0.00021369,0.00036779
 ,0.00022109,-0.00013404,-0.00013792,-0.00010479,-0.00008180,-0.0001935
 5,0.00019598,-0.00007669,0.00053999,0.00295449,-0.00186022,-0.02526312
 ,0.05454069,0.00024102,0.00056036,0.00008234,0.00256831,-0.00170891,-0
 .00150926,-0.00064796,-0.00558392,0.00287804,-0.00468579,0.00258875,0.
 02942839,0.00190481,-0.04540713,-0.01670621,0.00232963,-0.00193660,-0.
 01440715,-0.00011263,0.00006053,0.00029676,-0.00055816,0.00042318,0.00
 133957,0.00046270,0.00028536,-0.00024478,-0.00030596,0.00134133,-0.000
 36832,0.00173170,-0.00131294,-0.01735941,-0.00192602,0.05003671,0.0003
 9264,0.00021216,0.00025879,-0.00094329,-0.00043653,0.00207864,0.000077
 47,0.00189050,0.00061493,0.00100643,-0.00087126,-0.00925879,0.03181117
 ,-0.01440818,-0.32191641,0.00162851,-0.00074431,-0.00510651,-0.0000361
 0,-0.00008462,0.00000074,0.00005144,-0.00012101,-0.00037452,-0.0000369
 7,0.00020681,-0.00017129,0.00010975,-0.00020036,0.00081390,0.00093394,
 -0.00079201,-0.01065568,-0.03523957,0.01514930,0.34295825,-0.00012041,
 -0.00046139,-0.00070329,-0.00119411,-0.00475794,-0.00146145,-0.0006931
 7,0.00145173,0.00168583,-0.00536341,0.00212610,0.00108895,0.00370861,0
 .02484255,-0.00620530,-0.04737992,0.01392280,0.00149172,0.00013984,-0.
 00028863,-0.00027555,0.00006134,-0.00001791,-0.00015690,0.00035334,0.0
 0148806,-0.00074553,-0.00000037,0.00022235,0.00009082,0.00100845,-0.00
 070781,-0.00072148,0.00013709,-0.00016961,0.00039335,0.04825817,0.0002
 0435,0.00089079,-0.00114872,-0.00060001,-0.00340234,0.00173862,-0.0004
 3498,-0.00010879,-0.00139832,0.00189995,0.00004571,-0.00047658,-0.0012
 8957,-0.00560313,0.00094163,0.01476915,-0.32620020,0.03011615,-0.00018
 955,0.00036621,0.00014797,0.00001535,-0.00004379,0.00007663,-0.0001599
 9,-0.00037569,0.00026555,-0.00005780,0.00020080,-0.00001996,-0.0000258
 5,0.00073385,0.00010516,0.00032280,-0.00022309,-0.00001921,-0.01593034
 ,0.34440971,-0.00012802,-0.00134938,0.00510617,0.00071288,0.02934526,-
 0.01175455,-0.00013176,0.00075742,-0.00423718,0.00313656,-0.00000823,-
 0.00182906,-0.00184676,-0.00954224,0.00233435,-0.00250464,0.02793325,-
 0.04537793,-0.00026297,0.00121803,0.00003035,-0.00062073,0.00057650,-0
 .00016833,-0.00013643,-0.00051116,0.00075995,0.00004474,0.00043118,-0.
 00000145,-0.00002453,0.00069226,0.00016086,-0.00015334,0.00011030,-0.0
 0014189,0.00157096,-0.03255860,0.05137573,0.00212392,0.00030803,0.0047
 8922,0.00428717,0.00523253,-0.00063120,-0.00042578,0.00023684,-0.00011
 760,0.00119808,-0.00107947,0.00007460,-0.02186285,-0.01228948,-0.01302
 945,-0.20181082,-0.09261143,-0.10105577,-0.00011565,0.00004989,0.00004
 970,0.00022397,-0.00011207,-0.00022847,0.00022628,0.00005652,0.0003084
 8,0.00015332,0.00088046,-0.00017466,-0.00338467,0.00353551,0.00123221,
 0.00116528,-0.00056751,0.00000141,0.00130399,0.00121911,0.00120051,0.2
 1744661,0.00065755,0.00102566,0.00135042,0.00438930,0.00124556,0.00303
 874,-0.00113873,-0.00053531,-0.00015765,0.00065079,0.00136356,0.000250
 49,0.00992037,0.00565200,0.00807214,-0.08935990,-0.09938553,-0.0586025
 2,0.00005521,0.00008850,-0.00012871,0.00028672,-0.00019559,0.00005415,
 -0.00015661,0.00005447,-0.00020244,-0.00002334,-0.00039882,-0.00029452
 ,0.00248846,-0.00074948,-0.00040274,-0.00068941,0.00077102,0.00000044,
 -0.02236720,-0.01081026,-0.01713990,0.09520019,0.10210320,-0.00073816,
 -0.00023131,-0.00862219,-0.02002652,-0.01342408,-0.01415562,0.00142968
 ,0.00099511,-0.00093752,-0.00027174,0.00015414,0.00018102,0.00931244,0
 .00493128,0.00587880,-0.10343044,-0.05761756,-0.11033962,0.00009847,-0
 .00016146,0.00003109,-0.00062583,0.00045200,0.00005110,0.00010391,0.00
 011275,-0.00003919,-0.00036343,-0.00000376,0.00019469,0.00240022,-0.00
 185007,0.00055150,-0.00008889,0.00048455,0.00073164,0.00424622,0.00188
 355,0.00452208,0.10690516,0.06367900,0.12206608,-0.43081478,-0.0388611
 8,0.16091350,-0.01813579,-0.00691118,0.00207518,0.00279574,0.00116915,
 0.00106464,-0.00001331,0.00022689,-0.00051946,0.00176639,0.00006271,-0
 .00064374,0.00205381,0.00217068,0.00045779,0.00075000,-0.00042898,-0.0
 0023395,-0.00077680,0.00082926,0.00013461,0.00003946,0.00022558,0.0001
 1104,-0.00011489,-0.00008165,0.00014571,-0.00044506,-0.00004922,0.0008
 0815,-0.00048469,-0.00026452,-0.00015015,-0.00021944,0.00025738,-0.000
 85649,-0.00052885,0.00008659,0.00104891,0.44412823,-0.01310952,-0.0180
 3268,-0.00883421,-0.03220039,-0.01075052,-0.00037908,-0.00008613,0.001
 28006,0.00121673,-0.00043419,-0.00006493,-0.00039439,-0.00082547,-0.00
 010336,-0.00018761,0.00174564,0.00123197,0.00135298,0.00099278,-0.0018
 0113,0.00075328,0.00055374,0.00019616,0.00041445,0.00001785,-0.0000822
 9,0.00016056,-0.00001995,0.00002702,0.00022383,0.00066275,0.00073493,-
 0.00048449,0.00054629,0.00010535,0.00021828,0.00064725,0.00012021,0.00
 004531,-0.00005914,-0.00022898,0.00059587,0.04156849,0.02736820,0.1903
 4654,0.00373519,-0.09107501,-0.02644461,-0.01272184,0.00201879,0.00012
 518,0.00193607,0.00030798,0.00006212,-0.00048191,0.00066262,-0.0015740
 9,-0.00124067,0.00065255,-0.00182153,0.00081456,0.00058681,0.00035021,
 0.00067356,0.00022291,-0.00006325,0.00006931,-0.00021352,0.00002654,0.
 00008986,-0.00017526,0.00017388,0.00022813,-0.00037842,0.00227494,-0.0
 0005589,-0.00107617,0.00052229,0.00082588,0.00016821,-0.00029835,0.000
 34613,-0.00077910,0.00067587,0.00048312,-0.00011387,-0.16435575,0.0052
 9850,0.08919147\\0.00000730,0.00000050,0.00002505,0.00002057,-0.000049
 85,0.00000510,-0.00005865,0.00004097,0.00001820,0.00004267,0.00000579,
 0.00001364,-0.00003909,-0.00000016,-0.00001249,0.00002600,0.00000452,-
 0.00003779,0.00000391,-0.00000309,-0.00000581,0.00000175,-0.00000797,-
 0.00000804,-0.00000003,-0.00000048,-0.00000334,0.00000351,-0.00000414,
 -0.00000855,0.00000640,0.00000630,0.00000893,0.00000812,0.00000017,0.0
 0000485,-0.00000176,-0.00000032,0.00000768,-0.00000513,0.00000236,-0.0
 0000270,-0.00001559,0.00000542,-0.00000472\\\@


 FROM WHENCE IT HAPPENS, THAT THEY WHICH TRUST TO BOOKS, DO AS THEY THAT CAST UP MANY LITTLE SUMMS INTO GREATER,
 WITHOUT CONSIDERING WETHER THOSE LITTLE SUMMES WERE RIGHTLY CAST UP OR NOT...
 AND AT LAST FINDING THE ERROUR VISIBLE, AND NOT MISTRUSTING THEIR FIRST GROUNDS,
 KNOW NOT WHICH WAY TO CLEERE THEMSELVES...
 BUT SPEND TIME IN FLUTTERING OVER THEIR BOOKES....
 AS BIRDS THAT ENTERING BY THE CHIMNEY, AND FINDING THEMSELVES INCLOSED IN A CHAMBER,
 FLUTTER AT THE FALSE LIGHT OF A GLASSE WINDOW,
 FOR WANT OF WIT TO CONSIDER WHICH WAY THEY CAME IN....
           LEVIATHAN
 Job cpu time:       0 days  0 hours 21 minutes 44.4 seconds.
 Elapsed time:       0 days  0 hours  0 minutes 55.0 seconds.
 File lengths (MBytes):  RWF=     67 Int=      0 D2E=      0 Chk=      5 Scr=      1
 Normal termination of Gaussian 16 at Sun Oct 13 21:41:08 2019.
real 161.34
user 3715.01
sys 17.50
Machine:
brown-a257
brown-a257
brown-a257
brown-a257
brown-a257
brown-a257
brown-a257
brown-a257
brown-a257
brown-a257
brown-a257
brown-a257
brown-a257
brown-a257
brown-a257
brown-a257
brown-a257
brown-a257
brown-a257
brown-a257
brown-a257
brown-a257
brown-a257
brown-a257
