Title Card Required                                                     
Freq      RM062X                                                      6-311++G(d,p)       
Number of atoms                            I               15
Info1-9                                    I   N=           9
          40          40        1002           0           0         100
           6          18        -502
Full Title                                 C   N=           2
Title Card Required     
Route                                      C   N=           6
#P opt freq m062x/6-311++g(d,p) geom=connectivity temperatur
e=0.001     
Charge                                     I                0
Multiplicity                               I                1
Number of electrons                        I               64
Number of alpha electrons                  I               32
Number of beta electrons                   I               32
Number of basis functions                  I              218
Number of independent functions            I              218
Number of point charges in /Mol/           I                0
Number of translation vectors              I                0
Atomic numbers                             I   N=          15
           8          16           6           6           6           6
           8           1           1           1           1           1
           1           1           1
Nuclear charges                            R   N=          15
  8.00000000E+00  1.60000000E+01  6.00000000E+00  6.00000000E+00  6.00000000E+00
  6.00000000E+00  8.00000000E+00  1.00000000E+00  1.00000000E+00  1.00000000E+00
  1.00000000E+00  1.00000000E+00  1.00000000E+00  1.00000000E+00  1.00000000E+00
Current cartesian coordinates              R   N=          45
 -2.83481963E+00  6.85220751E-01 -2.28943441E+00 -1.46546630E+00  4.31801044E-05
 -1.08786409E-05  8.32759842E-01  2.44935870E+00  7.34787669E-01  3.33498306E+00
  1.42677128E+00 -2.75151297E-01  3.33507939E+00 -1.42677253E+00  2.75101913E-01
  8.32647496E-01 -2.44954523E+00 -7.34237039E-01 -2.83563756E+00 -6.85081541E-01
  2.28892435E+00  1.77739053E-01  4.18271364E+00 -1.57116424E-01  8.34963735E-01
  2.63973189E+00  2.78627643E+00  3.45153986E+00  1.74338934E+00 -2.31355472E+00
  4.93484202E+00  2.37833281E+00  6.07482154E-01  4.93473534E+00 -2.37830739E+00
 -6.07925279E-01  3.45214788E+00 -1.74333497E+00  2.31347474E+00  8.34601271E-01
 -2.64056596E+00 -2.78565818E+00  1.77730411E-01 -4.18263726E+00  1.58268328E-01
Number of symbols in /Mol/                 I                0
Force Field                                I                0
Atom Types                                 C   N=          15
                                                            
                                                            
                                                            
Int Atom Types                             I   N=          15
           0           0           0           0           0           0
           0           0           0           0           0           0
           0           0           0
MM charges                                 R   N=          15
  0.00000000E+00  0.00000000E+00  0.00000000E+00  0.00000000E+00  0.00000000E+00
  0.00000000E+00  0.00000000E+00  0.00000000E+00  0.00000000E+00  0.00000000E+00
  0.00000000E+00  0.00000000E+00  0.00000000E+00  0.00000000E+00  0.00000000E+00
Integer atomic weights                     I   N=          15
          16          32          12          12          12          12
          16           1           1           1           1           1
           1           1           1
Real atomic weights                        R   N=          15
  1.59949146E+01  3.19720718E+01  1.20000000E+01  1.20000000E+01  1.20000000E+01
  1.20000000E+01  1.59949146E+01  1.00782504E+00  1.00782504E+00  1.00782504E+00
  1.00782504E+00  1.00782504E+00  1.00782504E+00  1.00782504E+00  1.00782504E+00
Atom fragment info                         I   N=          15
           0           0           0           0           0           0
           0           0           0           0           0           0
           0           0           0
Atom residue num                           I   N=          15
           0           0           0           0           0           0
           0           0           0           0           0           0
           0           0           0
Nuclear spins                              I   N=          15
           0           0           0           0           0           0
           0           1           1           1           1           1
           1           1           1
Nuclear ZEff                               R   N=          15
 -5.60000000E+00 -1.36000000E+01 -3.60000000E+00 -3.60000000E+00 -3.60000000E+00
 -3.60000000E+00 -5.60000000E+00 -1.00000000E+00 -1.00000000E+00 -1.00000000E+00
 -1.00000000E+00 -1.00000000E+00 -1.00000000E+00 -1.00000000E+00 -1.00000000E+00
Nuclear ZNuc                               R   N=          15
  8.00000000E+00  1.60000000E+01  6.00000000E+00  6.00000000E+00  6.00000000E+00
  6.00000000E+00  8.00000000E+00  1.00000000E+00  1.00000000E+00  1.00000000E+00
  1.00000000E+00  1.00000000E+00  1.00000000E+00  1.00000000E+00  1.00000000E+00
Nuclear QMom                               R   N=          15
  0.00000000E+00  0.00000000E+00  0.00000000E+00  0.00000000E+00  0.00000000E+00
  0.00000000E+00  0.00000000E+00  0.00000000E+00  0.00000000E+00  0.00000000E+00
  0.00000000E+00  0.00000000E+00  0.00000000E+00  0.00000000E+00  0.00000000E+00
Nuclear GFac                               R   N=          15
  0.00000000E+00  0.00000000E+00  0.00000000E+00  0.00000000E+00  0.00000000E+00
  0.00000000E+00  0.00000000E+00  2.79284600E+00  2.79284600E+00  2.79284600E+00
  2.79284600E+00  2.79284600E+00  2.79284600E+00  2.79284600E+00  2.79284600E+00
MicOpt                                     I   N=          15
          -1          -1          -1          -1          -1          -1
          -1          -1          -1          -1          -1          -1
          -1          -1          -1
Number of residues                         I                0
Number of secondary structures             I                0
Redundant internal dimensions              I   N=           4
          90          15          30          45
Redundant internal coordinate indices      I   N=         360
           1           2           0           0           2           3
           0           0           2           6           0           0
           2           7           0           0           3           4
           0           0           3           8           0           0
           3           9           0           0           4           5
           0           0           4          10           0           0
           4          11           0           0           5           6
           0           0           5          12           0           0
           5          13           0           0           6          14
           0           0           6          15           0           0
           1           2           3           0           1           2
           6           0           1           2           7           0
           3           2           6           0           3           2
           7           0           6           2           7           0
           2           3           4           0           2           3
           8           0           2           3           9           0
           4           3           8           0           4           3
           9           0           8           3           9           0
           3           4           5           0           3           4
          10           0           3           4          11           0
           5           4          10           0           5           4
          11           0          10           4          11           0
           4           5           6           0           4           5
          12           0           4           5          13           0
           6           5          12           0           6           5
          13           0          12           5          13           0
           2           6           5           0           2           6
          14           0           2           6          15           0
           5           6          14           0           5           6
          15           0          14           6          15           0
           1           2           3           4           1           2
           3           8           1           2           3           9
           6           2           3           4           6           2
           3           8           6           2           3           9
           7           2           3           4           7           2
           3           8           7           2           3           9
           1           2           6           5           1           2
           6          14           1           2           6          15
           3           2           6           5           3           2
           6          14           3           2           6          15
           7           2           6           5           7           2
           6          14           7           2           6          15
           2           3           4           5           2           3
           4          10           2           3           4          11
           8           3           4           5           8           3
           4          10           8           3           4          11
           9           3           4           5           9           3
           4          10           9           3           4          11
           3           4           5           6           3           4
           5          12           3           4           5          13
          10           4           5           6          10           4
           5          12          10           4           5          13
          11           4           5           6          11           4
           5          12          11           4           5          13
           4           5           6           2           4           5
           6          14           4           5           6          15
          12           5           6           2          12           5
           6          14          12           5           6          15
          13           5           6           2          13           5
           6          14          13           5           6          15
Redundant internal coordinates             R   N=          90
  2.75427975E+00  3.43815631E+00  3.43815335E+00  2.75426753E+00  2.88561653E+00
  2.05646894E+00  2.06030409E+00  2.90611268E+00  2.06613673E+00  2.06011162E+00
  2.88565322E+00  2.06011037E+00  2.06612695E+00  2.06029644E+00  2.05647520E+00
  1.91002674E+00  1.90927076E+00  2.10057297E+00  1.67739755E+00  1.90935773E+00
  1.91002854E+00  1.82593763E+00  1.87010253E+00  1.85390799E+00  2.00765924E+00
  1.96092778E+00  1.93297148E+00  1.85638675E+00  1.91761298E+00  1.93882160E+00
  1.91481136E+00  1.95238440E+00  1.88398857E+00  1.85642983E+00  1.95238743E+00
  1.91478597E+00  1.93878249E+00  1.91761884E+00  1.88400070E+00  1.82598498E+00
  1.85388568E+00  1.87013294E+00  1.96092841E+00  2.00762542E+00  1.93295582E+00
 -1.72968057E+00  4.09276743E-01  2.47610569E+00  2.43795332E-01  2.38275264E+00
 -1.83360371E+00  2.21792136E+00 -1.92630664E+00  1.40522313E-01  2.21741259E+00
  1.40000475E-01 -1.92681412E+00  2.43311712E-01 -1.83410040E+00  2.38227032E+00
 -1.73025976E+00  2.47551343E+00  4.08698842E-01 -6.65839550E-01  1.40547657E+00
 -2.79427593E+00 -2.71249266E+00 -6.41176540E-01  1.44225627E+00  1.33773998E+00
 -2.87412921E+00 -7.90696397E-01  8.84552720E-01  3.00433261E+00 -1.18862052E+00
 -1.18860249E+00  9.31177393E-01  3.02140957E+00  3.00435086E+00 -1.15905456E+00
  9.31177619E-01 -6.65497823E-01  1.33808279E+00 -2.71220138E+00 -2.79394242E+00
 -7.90361810E-01  1.44253933E+00  1.40581590E+00 -2.87378879E+00 -6.40887655E-01
ZRed-IntVec                                I   N=          90
           0           0           0           0           0           0
           0           0           0           0           0           0
           0           0           0           0           0           0
           0           0           0           0           0           0
           0           0           0           0           0           0
           0           0           0           0           0           0
           0           0           0           0           0           0
           0           0           0           0           0           0
           0           0           0           0           0           0
           0           0           0           0           0           0
           0           0           0           0           0           0
           0           0           0           0           0           0
           0           0           0           0           0           0
           0           0           0           0           0           0
           0           0           0           0           0           0
ZRed-FPVec                                 R   N=          90
  0.00000000E+00  0.00000000E+00  0.00000000E+00  0.00000000E+00  0.00000000E+00
  0.00000000E+00  0.00000000E+00  0.00000000E+00  0.00000000E+00  0.00000000E+00
  0.00000000E+00  0.00000000E+00  0.00000000E+00  0.00000000E+00  0.00000000E+00
  0.00000000E+00  0.00000000E+00  0.00000000E+00  0.00000000E+00  0.00000000E+00
  0.00000000E+00  0.00000000E+00  0.00000000E+00  0.00000000E+00  0.00000000E+00
  0.00000000E+00  0.00000000E+00  0.00000000E+00  0.00000000E+00  0.00000000E+00
  0.00000000E+00  0.00000000E+00  0.00000000E+00  0.00000000E+00  0.00000000E+00
  0.00000000E+00  0.00000000E+00  0.00000000E+00  0.00000000E+00  0.00000000E+00
  0.00000000E+00  0.00000000E+00  0.00000000E+00  0.00000000E+00  0.00000000E+00
  0.00000000E+00  0.00000000E+00  0.00000000E+00  0.00000000E+00  0.00000000E+00
  0.00000000E+00  0.00000000E+00  0.00000000E+00  0.00000000E+00  0.00000000E+00
  0.00000000E+00  0.00000000E+00  0.00000000E+00  0.00000000E+00  0.00000000E+00
  0.00000000E+00  0.00000000E+00  0.00000000E+00  0.00000000E+00  0.00000000E+00
  0.00000000E+00  0.00000000E+00  0.00000000E+00  0.00000000E+00  0.00000000E+00
  0.00000000E+00  0.00000000E+00  0.00000000E+00  0.00000000E+00  0.00000000E+00
  0.00000000E+00  0.00000000E+00  0.00000000E+00  0.00000000E+00  0.00000000E+00
  0.00000000E+00  0.00000000E+00  0.00000000E+00  0.00000000E+00  0.00000000E+00
  0.00000000E+00  0.00000000E+00  0.00000000E+00  0.00000000E+00  0.00000000E+00
ZRed-Constraint1                           R   N=          90
  2.75427975E+00  3.43815631E+00  3.43815335E+00  2.75426753E+00  2.88561653E+00
  2.05646894E+00  2.06030409E+00  2.90611268E+00  2.06613673E+00  2.06011162E+00
  2.88565322E+00  2.06011037E+00  2.06612695E+00  2.06029644E+00  2.05647520E+00
  1.91002674E+00  1.90927076E+00  2.10057297E+00  1.67739755E+00  1.90935773E+00
  1.91002854E+00  1.82593763E+00  1.87010253E+00  1.85390799E+00  2.00765924E+00
  1.96092778E+00  1.93297148E+00  1.85638675E+00  1.91761298E+00  1.93882160E+00
  1.91481136E+00  1.95238440E+00  1.88398857E+00  1.85642983E+00  1.95238743E+00
  1.91478597E+00  1.93878249E+00  1.91761884E+00  1.88400070E+00  1.82598498E+00
  1.85388568E+00  1.87013294E+00  1.96092841E+00  2.00762542E+00  1.93295582E+00
 -1.72968057E+00  4.09276743E-01  2.47610569E+00  2.43795332E-01  2.38275264E+00
 -1.83360371E+00  2.21792136E+00 -1.92630664E+00  1.40522313E-01  2.21741259E+00
  1.40000475E-01 -1.92681412E+00  2.43311712E-01 -1.83410040E+00  2.38227032E+00
 -1.73025976E+00  2.47551343E+00  4.08698842E-01 -6.65839550E-01  1.40547657E+00
 -2.79427593E+00 -2.71249266E+00 -6.41176540E-01  1.44225627E+00  1.33773998E+00
 -2.87412921E+00 -7.90696397E-01  8.84552720E-01  3.00433261E+00 -1.18862052E+00
 -1.18860249E+00  9.31177393E-01  3.02140957E+00  3.00435086E+00 -1.15905456E+00
  9.31177619E-01 -6.65497823E-01  1.33808279E+00 -2.71220138E+00 -2.79394242E+00
 -7.90361810E-01  1.44253933E+00  1.40581590E+00 -2.87378879E+00 -6.40887655E-01
ZRed-Constraint2                           R   N=          90
  3.02654866E+00  3.45255895E+00  3.45123861E+00  3.02650466E+00  2.92266439E+00
  2.05980395E+00  2.05982350E+00  2.93902517E+00  2.05977288E+00  2.05983429E+00
  2.91831001E+00  2.05986206E+00  2.05973054E+00  2.05983182E+00  2.05990263E+00
  1.94227369E+00  1.93124216E+00  1.95113554E+00  1.76115981E+00  1.93120810E+00
  1.93868580E+00  1.78603343E+00  1.93033472E+00  1.93026579E+00  1.84615464E+00
  1.84613338E+00  2.09451190E+00  1.91275054E+00  1.86159144E+00  1.86151466E+00
  1.86481352E+00  1.86487765E+00  2.09434293E+00  1.90857350E+00  1.86617603E+00
  1.86607947E+00  1.86193824E+00  1.86203050E+00  2.09446824E+00  1.77072712E+00
  1.93294320E+00  1.93284402E+00  1.84997161E+00  1.84988457E+00  2.09434046E+00
 -1.91169770E+00  4.83545890E-02  2.41148641E+00  1.37701830E-01  2.09775412E+00
 -1.82229937E+00  2.19104080E+00 -2.13209222E+00  2.31039603E-01  2.33061227E+00
  3.72790144E-01 -1.99488651E+00  2.73144353E-01 -1.68467777E+00  2.23083088E+00
 -1.77471742E+00  2.55064576E+00  1.82969108E-01 -5.21376390E-01  1.49127230E+00
 -2.53405921E+00 -2.54334433E+00 -5.30695634E-01  1.72715816E+00  1.50050720E+00
 -2.77002941E+00 -5.12175613E-01  7.87694423E-01  2.79732575E+00 -1.22199380E+00
 -1.22289835E+00  7.86732982E-01  3.05059873E+00  2.79823140E+00 -1.47532258E+00
  7.88543172E-01 -6.15780838E-01  1.40408897E+00 -2.63550977E+00 -2.62812900E+00
 -6.08259198E-01  1.63532738E+00  1.39650318E+00 -2.86681233E+00 -6.23225751E-01
SymInf integers                            I   N=          26
           1           1           1           1           1           0
           0           0           0           0           0           0
           0           0           0           0           0           0
           0           0           0           0           0           0
           0           0
RotTr to input orientation                 R   N=          12
  7.29983063E-01  6.39735336E-01  2.40548183E-01  4.77379473E-01 -7.29120104E-01
  4.90400563E-01  4.89115085E-01 -2.43151340E-01 -8.37641844E-01  1.50615947E+00
 -1.79704989E-02  1.32190666E+00
Number of contracted shells                I               89
Number of primitive shells                 I              158
Pure/Cartesian d shells                    I                0
Pure/Cartesian f shells                    I                0
Highest angular momentum                   I                2
Largest degree of contraction              I                6
Shell types                                I   N=          89
           0          -1          -1          -1          -1          -2
           0           0           0           0           0           0
          -1           1           1           1           1           1
          -2           0          -1          -1          -1          -1
          -2           0          -1          -1          -1          -1
          -2           0          -1          -1          -1          -1
          -2           0          -1          -1          -1          -1
          -2           0          -1          -1          -1          -1
          -2           0           0           0           0           1
           0           0           0           0           1           0
           0           0           0           1           0           0
           0           0           1           0           0           0
           0           1           0           0           0           0
           1           0           0           0           0           1
           0           0           0           0           1
Number of primitives per shell             I   N=          89
           6           3           1           1           1           1
           6           3           1           1           1           1
           1           4           2           1           1           1
           1           6           3           1           1           1
           1           6           3           1           1           1
           1           6           3           1           1           1
           1           6           3           1           1           1
           1           6           3           1           1           1
           1           3           1           1           1           1
           3           1           1           1           1           3
           1           1           1           1           3           1
           1           1           1           3           1           1
           1           1           3           1           1           1
           1           3           1           1           1           1
           3           1           1           1           1
Shell to atom map                          I   N=          89
           1           1           1           1           1           1
           2           2           2           2           2           2
           2           2           2           2           2           2
           2           3           3           3           3           3
           3           4           4           4           4           4
           4           5           5           5           5           5
           5           6           6           6           6           6
           6           7           7           7           7           7
           7           8           8           8           8           8
           9           9           9           9           9          10
          10          10          10          10          11          11
          11          11          11          12          12          12
          12          12          13          13          13          13
          13          14          14          14          14          14
          15          15          15          15          15
Primitive exponents                        R   N=         158
  8.58850000E+03  1.29723000E+03  2.99296000E+02  8.73771000E+01  2.56789000E+01
  3.74004000E+00  4.21175000E+01  9.62837000E+00  2.85332000E+00  9.05661000E-01
  2.55611000E-01  8.45000000E-02  1.29200000E+00  9.34134000E+04  1.39617000E+04
  3.16991000E+03  9.02456000E+02  2.97158000E+02  1.08702000E+02  1.08702000E+02
  4.31553000E+01  1.81079000E+01  5.56009000E+00  2.13183000E+00  4.20403000E-01
  1.36045000E-01  4.05000000E-02  4.95040000E+02  1.17221000E+02  3.77749000E+01
  1.40584000E+01  5.56574000E+00  2.26297000E+00  8.07994000E-01  2.77460000E-01
  7.71410000E-02  6.50000000E-01  4.56324000E+03  6.82024000E+02  1.54973000E+02
  4.44553000E+01  1.30290000E+01  1.82773000E+00  2.09642000E+01  4.80331000E+00
  1.45933000E+00  4.83456000E-01  1.45585000E-01  4.38000000E-02  6.26000000E-01
  4.56324000E+03  6.82024000E+02  1.54973000E+02  4.44553000E+01  1.30290000E+01
  1.82773000E+00  2.09642000E+01  4.80331000E+00  1.45933000E+00  4.83456000E-01
  1.45585000E-01  4.38000000E-02  6.26000000E-01  4.56324000E+03  6.82024000E+02
  1.54973000E+02  4.44553000E+01  1.30290000E+01  1.82773000E+00  2.09642000E+01
  4.80331000E+00  1.45933000E+00  4.83456000E-01  1.45585000E-01  4.38000000E-02
  6.26000000E-01  4.56324000E+03  6.82024000E+02  1.54973000E+02  4.44553000E+01
  1.30290000E+01  1.82773000E+00  2.09642000E+01  4.80331000E+00  1.45933000E+00
  4.83456000E-01  1.45585000E-01  4.38000000E-02  6.26000000E-01  8.58850000E+03
  1.29723000E+03  2.99296000E+02  8.73771000E+01  2.56789000E+01  3.74004000E+00
  4.21175000E+01  9.62837000E+00  2.85332000E+00  9.05661000E-01  2.55611000E-01
  8.45000000E-02  1.29200000E+00  3.38650000E+01  5.09479000E+00  1.15879000E+00
  3.25840000E-01  1.02741000E-01  3.60000000E-02  7.50000000E-01  3.38650000E+01
  5.09479000E+00  1.15879000E+00  3.25840000E-01  1.02741000E-01  3.60000000E-02
  7.50000000E-01  3.38650000E+01  5.09479000E+00  1.15879000E+00  3.25840000E-01
  1.02741000E-01  3.60000000E-02  7.50000000E-01  3.38650000E+01  5.09479000E+00
  1.15879000E+00  3.25840000E-01  1.02741000E-01  3.60000000E-02  7.50000000E-01
  3.38650000E+01  5.09479000E+00  1.15879000E+00  3.25840000E-01  1.02741000E-01
  3.60000000E-02  7.50000000E-01  3.38650000E+01  5.09479000E+00  1.15879000E+00
  3.25840000E-01  1.02741000E-01  3.60000000E-02  7.50000000E-01  3.38650000E+01
  5.09479000E+00  1.15879000E+00  3.25840000E-01  1.02741000E-01  3.60000000E-02
  7.50000000E-01  3.38650000E+01  5.09479000E+00  1.15879000E+00  3.25840000E-01
  1.02741000E-01  3.60000000E-02  7.50000000E-01
Contraction coefficients                   R   N=         158
  1.89515008E-03  1.43859006E-02  7.07320031E-02  2.40001011E-01  5.94797026E-01
  2.80802012E-01  1.13889012E-01  9.20811101E-01 -3.27447036E-03  1.00000000E+00
  1.00000000E+00  1.00000000E+00  1.00000000E+00  7.42999957E-04  5.79299966E-03
  2.99539983E-02  1.19027993E-01  3.68431979E-01  5.77298966E-01  1.43186060E-01
  6.24465262E-01  2.83366119E-01  1.00000000E+00  1.00000000E+00  1.00000000E+00
  1.00000000E+00  1.00000000E+00  8.30900251E-03  6.40240194E-02  2.77614084E-01
  7.45076225E-01  6.13711672E-01  4.43817763E-01  1.00000000E+00  1.00000000E+00
  1.00000000E+00  1.00000000E+00  1.96665025E-03  1.52306019E-02  7.61269097E-02
  2.60801033E-01  6.16462078E-01  2.21006028E-01  1.14660081E-01  9.19999648E-01
 -3.03068213E-03  1.00000000E+00  1.00000000E+00  1.00000000E+00  1.00000000E+00
  1.96665025E-03  1.52306019E-02  7.61269097E-02  2.60801033E-01  6.16462078E-01
  2.21006028E-01  1.14660081E-01  9.19999648E-01 -3.03068213E-03  1.00000000E+00
  1.00000000E+00  1.00000000E+00  1.00000000E+00  1.96665025E-03  1.52306019E-02
  7.61269097E-02  2.60801033E-01  6.16462078E-01  2.21006028E-01  1.14660081E-01
  9.19999648E-01 -3.03068213E-03  1.00000000E+00  1.00000000E+00  1.00000000E+00
  1.00000000E+00  1.96665025E-03  1.52306019E-02  7.61269097E-02  2.60801033E-01
  6.16462078E-01  2.21006028E-01  1.14660081E-01  9.19999648E-01 -3.03068213E-03
  1.00000000E+00  1.00000000E+00  1.00000000E+00  1.00000000E+00  1.89515008E-03
  1.43859006E-02  7.07320031E-02  2.40001011E-01  5.94797026E-01  2.80802012E-01
  1.13889012E-01  9.20811101E-01 -3.27447036E-03  1.00000000E+00  1.00000000E+00
  1.00000000E+00  1.00000000E+00  2.54938145E-02  1.90373109E-01  8.52161486E-01
  1.00000000E+00  1.00000000E+00  1.00000000E+00  1.00000000E+00  2.54938145E-02
  1.90373109E-01  8.52161486E-01  1.00000000E+00  1.00000000E+00  1.00000000E+00
  1.00000000E+00  2.54938145E-02  1.90373109E-01  8.52161486E-01  1.00000000E+00
  1.00000000E+00  1.00000000E+00  1.00000000E+00  2.54938145E-02  1.90373109E-01
  8.52161486E-01  1.00000000E+00  1.00000000E+00  1.00000000E+00  1.00000000E+00
  2.54938145E-02  1.90373109E-01  8.52161486E-01  1.00000000E+00  1.00000000E+00
  1.00000000E+00  1.00000000E+00  2.54938145E-02  1.90373109E-01  8.52161486E-01
  1.00000000E+00  1.00000000E+00  1.00000000E+00  1.00000000E+00  2.54938145E-02
  1.90373109E-01  8.52161486E-01  1.00000000E+00  1.00000000E+00  1.00000000E+00
  1.00000000E+00  2.54938145E-02  1.90373109E-01  8.52161486E-01  1.00000000E+00
  1.00000000E+00  1.00000000E+00  1.00000000E+00
P(S=P) Contraction coefficients            R   N=         158
  0.00000000E+00  0.00000000E+00  0.00000000E+00  0.00000000E+00  0.00000000E+00
  0.00000000E+00  3.65113974E-02  2.37152983E-01  8.19701941E-01  1.00000000E+00
  1.00000000E+00  1.00000000E+00  0.00000000E+00  0.00000000E+00  0.00000000E+00
  0.00000000E+00  0.00000000E+00  0.00000000E+00  0.00000000E+00  0.00000000E+00
  0.00000000E+00  0.00000000E+00  0.00000000E+00  0.00000000E+00  0.00000000E+00
  0.00000000E+00  1.00000000E+00  0.00000000E+00  0.00000000E+00  0.00000000E+00
  0.00000000E+00  0.00000000E+00  0.00000000E+00  0.00000000E+00  0.00000000E+00
  0.00000000E+00  0.00000000E+00  0.00000000E+00  0.00000000E+00  0.00000000E+00
  0.00000000E+00  0.00000000E+00  0.00000000E+00  4.02486927E-02  2.37593957E-01
  8.15853851E-01  1.00000000E+00  1.00000000E+00  1.00000000E+00  0.00000000E+00
  0.00000000E+00  0.00000000E+00  0.00000000E+00  0.00000000E+00  0.00000000E+00
  0.00000000E+00  4.02486927E-02  2.37593957E-01  8.15853851E-01  1.00000000E+00
  1.00000000E+00  1.00000000E+00  0.00000000E+00  0.00000000E+00  0.00000000E+00
  0.00000000E+00  0.00000000E+00  0.00000000E+00  0.00000000E+00  4.02486927E-02
  2.37593957E-01  8.15853851E-01  1.00000000E+00  1.00000000E+00  1.00000000E+00
  0.00000000E+00  0.00000000E+00  0.00000000E+00  0.00000000E+00  0.00000000E+00
  0.00000000E+00  0.00000000E+00  4.02486927E-02  2.37593957E-01  8.15853851E-01
  1.00000000E+00  1.00000000E+00  1.00000000E+00  0.00000000E+00  0.00000000E+00
  0.00000000E+00  0.00000000E+00  0.00000000E+00  0.00000000E+00  0.00000000E+00
  3.65113974E-02  2.37152983E-01  8.19701941E-01  1.00000000E+00  1.00000000E+00
  1.00000000E+00  0.00000000E+00  0.00000000E+00  0.00000000E+00  0.00000000E+00
  0.00000000E+00  0.00000000E+00  0.00000000E+00  0.00000000E+00  0.00000000E+00
  0.00000000E+00  0.00000000E+00  0.00000000E+00  0.00000000E+00  0.00000000E+00
  0.00000000E+00  0.00000000E+00  0.00000000E+00  0.00000000E+00  0.00000000E+00
  0.00000000E+00  0.00000000E+00  0.00000000E+00  0.00000000E+00  0.00000000E+00
  0.00000000E+00  0.00000000E+00  0.00000000E+00  0.00000000E+00  0.00000000E+00