 Entering Gaussian System, Link 0=/apps/cent7/gaussian/g16-A.03/g16-haswell/g16/g16
 Initial command:
 /apps/cent7/gaussian/g16-A.03/g16-haswell/g16/l1.exe "/scratch/brown/finej/gaussian/Gau-3029.inp" -scrdir="/scratch/brown/finej/gaussian/"
 Entering Link 1 = /apps/cent7/gaussian/g16-A.03/g16-haswell/g16/l1.exe PID=      3032.
  
 Copyright (c) 1988,1990,1992,1993,1995,1998,2003,2009,2016,
            Gaussian, Inc.  All Rights Reserved.
  
 This is part of the Gaussian(R) 16 program.  It is based on
 the Gaussian(R) 09 system (copyright 2009, Gaussian, Inc.),
 the Gaussian(R) 03 system (copyright 2003, Gaussian, Inc.),
 the Gaussian(R) 98 system (copyright 1998, Gaussian, Inc.),
 the Gaussian(R) 94 system (copyright 1995, Gaussian, Inc.),
 the Gaussian 92(TM) system (copyright 1992, Gaussian, Inc.),
 the Gaussian 90(TM) system (copyright 1990, Gaussian, Inc.),
 the Gaussian 88(TM) system (copyright 1988, Gaussian, Inc.),
 the Gaussian 86(TM) system (copyright 1986, Carnegie Mellon
 University), and the Gaussian 82(TM) system (copyright 1983,
 Carnegie Mellon University). Gaussian is a federally registered
 trademark of Gaussian, Inc.
  
 This software contains proprietary and confidential information,
 including trade secrets, belonging to Gaussian, Inc.
  
 This software is provided under written license and may be
 used, copied, transmitted, or stored only in accord with that
 written license.
  
 The following legend is applicable only to US Government
 contracts under FAR:
  
                    RESTRICTED RIGHTS LEGEND
  
 Use, reproduction and disclosure by the US Government is
 subject to restrictions as set forth in subparagraphs (a)
 and (c) of the Commercial Computer Software - Restricted
 Rights clause in FAR 52.227-19.
  
 Gaussian, Inc.
 340 Quinnipiac St., Bldg. 40, Wallingford CT 06492
  
  
 ---------------------------------------------------------------
 Warning -- This program may not be used in any manner that
 competes with the business of Gaussian, Inc. or will provide
 assistance to any competitor of Gaussian, Inc.  The licensee
 of this program is prohibited from giving any competitor of
 Gaussian, Inc. access to this program.  By using this program,
 the user acknowledges that Gaussian, Inc. is engaged in the
 business of creating and licensing software in the field of
 computational chemistry and represents and warrants to the
 licensee that it is not a competitor of Gaussian, Inc. and that
 it will not use this program in any manner prohibited above.
 ---------------------------------------------------------------
  

 Cite this work as:
 Gaussian 16, Revision A.03,
 M. J. Frisch, G. W. Trucks, H. B. Schlegel, G. E. Scuseria, 
 M. A. Robb, J. R. Cheeseman, G. Scalmani, V. Barone, 
 G. A. Petersson, H. Nakatsuji, X. Li, M. Caricato, A. V. Marenich, 
 J. Bloino, B. G. Janesko, R. Gomperts, B. Mennucci, H. P. Hratchian, 
 J. V. Ortiz, A. F. Izmaylov, J. L. Sonnenberg, D. Williams-Young, 
 F. Ding, F. Lipparini, F. Egidi, J. Goings, B. Peng, A. Petrone, 
 T. Henderson, D. Ranasinghe, V. G. Zakrzewski, J. Gao, N. Rega, 
 G. Zheng, W. Liang, M. Hada, M. Ehara, K. Toyota, R. Fukuda, 
 J. Hasegawa, M. Ishida, T. Nakajima, Y. Honda, O. Kitao, H. Nakai, 
 T. Vreven, K. Throssell, J. A. Montgomery, Jr., J. E. Peralta, 
 F. Ogliaro, M. J. Bearpark, J. J. Heyd, E. N. Brothers, K. N. Kudin, 
 V. N. Staroverov, T. A. Keith, R. Kobayashi, J. Normand, 
 K. Raghavachari, A. P. Rendell, J. C. Burant, S. S. Iyengar, 
 J. Tomasi, M. Cossi, J. M. Millam, M. Klene, C. Adamo, R. Cammi, 
 J. W. Ochterski, R. L. Martin, K. Morokuma, O. Farkas, 
 J. B. Foresman, and D. J. Fox, Gaussian, Inc., Wallingford CT, 2016.
 
 ******************************************
 Gaussian 16:  ES64L-G16RevA.03 25-Dec-2016
                13-Oct-2019 
 ******************************************
 %chk=23.chk
 %nprocshared=24
 Will use up to   24 processors via shared memory.
 %mem=80GB
 -------------------------------------------------------------------
 #P opt freq m062x/6-311++g(d,p) geom=connectivity temperature=0.001
 -------------------------------------------------------------------
 1/18=20,19=15,26=3,38=1,57=2,112=-1000/1,3;
 2/9=110,12=2,17=6,18=5,40=1/2;
 3/5=4,6=6,7=1111,11=2,25=1,30=1,71=1,74=-55/1,2,3;
 4//1;
 5/5=2,38=5/2;
 6/7=2,8=2,9=2,10=2,28=1/1;
 7//1,2,3,16;
 1/18=20,19=15,26=3/3(2);
 2/9=110/2;
 99//99;
 2/9=110/2;
 3/5=4,6=6,7=1111,11=2,25=1,30=1,71=1,74=-55/1,2,3;
 4/5=5,16=3,69=1/1;
 5/5=2,38=5/2;
 7//1,2,3,16;
 1/18=20,19=15,26=3/3(-5);
 2/9=110/2;
 6/7=2,8=2,9=2,10=2,19=2,28=1/1;
 99/9=1/99;
 Leave Link    1 at Sun Oct 13 21:39:29 2019, MaxMem= 10737418240 cpu:               0.9 elap:               0.0
 (Enter /apps/cent7/gaussian/g16-A.03/g16-haswell/g16/l101.exe)
 -------------------
 Title Card Required
 -------------------
 Symbolic Z-matrix:
 Charge =  0 Multiplicity = 1
 O                    -0.872    -1.0507    1.4734 
 S                     0.2655   -0.483     0.4993 
 C                     1.9346   -0.821     1.161 
 C                     2.4174    0.5887    1.5753 
 C                     1.7624    1.6562    0.6532 
 C                     0.2583    1.3433    0.4962 
 O                     0.1191   -1.0621   -0.9867 
 H                     1.8717   -1.3961    2.0848 
 H                     2.6054   -1.1416    0.3639 
 H                     2.0385    0.7655    2.5819 
 H                     3.4899    0.6206    1.3833 
 H                     1.8306    2.6109    1.1748 
 H                     2.2107    1.541    -0.3336 
 H                    -0.2241    1.7291    1.3943 
 H                    -0.0275    1.7266   -0.4834 
 
 ITRead=  0  0  0  0  0  0  0  0  0  0  0  0  0  0  0
 MicOpt= -1 -1 -1 -1 -1 -1 -1 -1 -1 -1 -1 -1 -1 -1 -1
 NAtoms=     15 NQM=       15 NQMF=       0 NMMI=      0 NMMIF=      0
                NMic=       0 NMicF=      0.
                    Isotopes and Nuclear Properties:
 (Nuclear quadrupole moments (NQMom) in fm**2, nuclear magnetic moments (NMagM)
  in nuclear magnetons)

  Atom         1           2           3           4           5           6           7           8           9          10
 IAtWgt=          16          32          12          12          12          12          16           1           1           1
 AtmWgt=  15.9949146  31.9720718  12.0000000  12.0000000  12.0000000  12.0000000  15.9949146   1.0078250   1.0078250   1.0078250
 NucSpn=           0           0           0           0           0           0           0           1           1           1
 AtZEff=  -0.0000000  -0.0000000  -0.0000000  -0.0000000  -0.0000000  -0.0000000  -0.0000000  -0.0000000  -0.0000000  -0.0000000
 NQMom=    0.0000000   0.0000000   0.0000000   0.0000000   0.0000000   0.0000000   0.0000000   0.0000000   0.0000000   0.0000000
 NMagM=    0.0000000   0.0000000   0.0000000   0.0000000   0.0000000   0.0000000   0.0000000   2.7928460   2.7928460   2.7928460
 AtZNuc=   8.0000000  16.0000000   6.0000000   6.0000000   6.0000000   6.0000000   8.0000000   1.0000000   1.0000000   1.0000000

  Atom        11          12          13          14          15
 IAtWgt=           1           1           1           1           1
 AtmWgt=   1.0078250   1.0078250   1.0078250   1.0078250   1.0078250
 NucSpn=           1           1           1           1           1
 AtZEff=  -0.0000000  -0.0000000  -0.0000000  -0.0000000  -0.0000000
 NQMom=    0.0000000   0.0000000   0.0000000   0.0000000   0.0000000
 NMagM=    2.7928460   2.7928460   2.7928460   2.7928460   2.7928460
 AtZNuc=   1.0000000   1.0000000   1.0000000   1.0000000   1.0000000
 Leave Link  101 at Sun Oct 13 21:39:29 2019, MaxMem= 10737418240 cpu:               8.3 elap:               0.4
 (Enter /apps/cent7/gaussian/g16-A.03/g16-haswell/g16/l103.exe)

 GradGradGradGradGradGradGradGradGradGradGradGradGradGradGradGradGradGrad
 Berny optimization.
 Initialization pass.
                           ----------------------------
                           !    Initial Parameters    !
                           ! (Angstroms and Degrees)  !
 --------------------------                            --------------------------
 ! Name  Definition              Value          Derivative Info.                !
 --------------------------------------------------------------------------------
 ! R1    R(1,2)                  1.6016         estimate D2E/DX2                !
 ! R2    R(2,3)                  1.827          estimate D2E/DX2                !
 ! R3    R(2,6)                  1.8263         estimate D2E/DX2                !
 ! R4    R(2,7)                  1.6016         estimate D2E/DX2                !
 ! R5    R(3,4)                  1.5466         estimate D2E/DX2                !
 ! R6    R(3,8)                  1.09           estimate D2E/DX2                !
 ! R7    R(3,9)                  1.09           estimate D2E/DX2                !
 ! R8    R(4,5)                  1.5553         estimate D2E/DX2                !
 ! R9    R(4,10)                 1.09           estimate D2E/DX2                !
 ! R10   R(4,11)                 1.09           estimate D2E/DX2                !
 ! R11   R(5,6)                  1.5443         estimate D2E/DX2                !
 ! R12   R(5,12)                 1.09           estimate D2E/DX2                !
 ! R13   R(5,13)                 1.09           estimate D2E/DX2                !
 ! R14   R(6,14)                 1.09           estimate D2E/DX2                !
 ! R15   R(6,15)                 1.0901         estimate D2E/DX2                !
 ! A1    A(1,2,3)              111.2841         estimate D2E/DX2                !
 ! A2    A(1,2,6)              110.652          estimate D2E/DX2                !
 ! A3    A(1,2,7)              111.7918         estimate D2E/DX2                !
 ! A4    A(3,2,6)              100.907          estimate D2E/DX2                !
 ! A5    A(3,2,7)              110.6501         estimate D2E/DX2                !
 ! A6    A(6,2,7)              111.0785         estimate D2E/DX2                !
 ! A7    A(2,3,4)              102.3322         estimate D2E/DX2                !
 ! A8    A(2,3,8)              110.6            estimate D2E/DX2                !
 ! A9    A(2,3,9)              110.5961         estimate D2E/DX2                !
 ! A10   A(4,3,8)              105.7769         estimate D2E/DX2                !
 ! A11   A(4,3,9)              105.7757         estimate D2E/DX2                !
 ! A12   A(8,3,9)              120.0067         estimate D2E/DX2                !
 ! A13   A(3,4,5)              109.5925         estimate D2E/DX2                !
 ! A14   A(3,4,10)             106.6613         estimate D2E/DX2                !
 ! A15   A(3,4,11)             106.6569         estimate D2E/DX2                !
 ! A16   A(5,4,10)             106.8459         estimate D2E/DX2                !
 ! A17   A(5,4,11)             106.8496         estimate D2E/DX2                !
 ! A18   A(10,4,11)            119.997          estimate D2E/DX2                !
 ! A19   A(4,5,6)              109.3532         estimate D2E/DX2                !
 ! A20   A(4,5,12)             106.924          estimate D2E/DX2                !
 ! A21   A(4,5,13)             106.9185         estimate D2E/DX2                !
 ! A22   A(6,5,12)             106.6812         estimate D2E/DX2                !
 ! A23   A(6,5,13)             106.6865         estimate D2E/DX2                !
 ! A24   A(12,5,13)            120.0042         estimate D2E/DX2                !
 ! A25   A(2,6,5)              101.4552         estimate D2E/DX2                !
 ! A26   A(2,6,14)             110.7495         estimate D2E/DX2                !
 ! A27   A(2,6,15)             110.7438         estimate D2E/DX2                !
 ! A28   A(5,6,14)             105.9956         estimate D2E/DX2                !
 ! A29   A(5,6,15)             105.9906         estimate D2E/DX2                !
 ! A30   A(14,6,15)            119.9969         estimate D2E/DX2                !
 ! D1    D(1,2,3,4)           -109.5322         estimate D2E/DX2                !
 ! D2    D(1,2,3,8)              2.7705         estimate D2E/DX2                !
 ! D3    D(1,2,3,9)            138.168          estimate D2E/DX2                !
 ! D4    D(6,2,3,4)              7.8897         estimate D2E/DX2                !
 ! D5    D(6,2,3,8)            120.1925         estimate D2E/DX2                !
 ! D6    D(6,2,3,9)           -104.4101         estimate D2E/DX2                !
 ! D7    D(7,2,3,4)            125.5374         estimate D2E/DX2                !
 ! D8    D(7,2,3,8)           -122.1599         estimate D2E/DX2                !
 ! D9    D(7,2,3,9)             13.2376         estimate D2E/DX2                !
 ! D10   D(1,2,6,5)            133.5342         estimate D2E/DX2                !
 ! D11   D(1,2,6,14)            21.3593         estimate D2E/DX2                !
 ! D12   D(1,2,6,15)          -114.2986         estimate D2E/DX2                !
 ! D13   D(3,2,6,5)             15.65           estimate D2E/DX2                !
 ! D14   D(3,2,6,14)           -96.5249         estimate D2E/DX2                !
 ! D15   D(3,2,6,15)           127.8172         estimate D2E/DX2                !
 ! D16   D(7,2,6,5)           -101.6838         estimate D2E/DX2                !
 ! D17   D(7,2,6,14)           146.1412         estimate D2E/DX2                !
 ! D18   D(7,2,6,15)            10.4834         estimate D2E/DX2                !
 ! D19   D(2,3,4,5)            -29.8727         estimate D2E/DX2                !
 ! D20   D(2,3,4,10)            85.4436         estimate D2E/DX2                !
 ! D21   D(2,3,4,11)          -145.1909         estimate D2E/DX2                !
 ! D22   D(8,3,4,5)           -145.7229         estimate D2E/DX2                !
 ! D23   D(8,3,4,10)           -30.4066         estimate D2E/DX2                !
 ! D24   D(8,3,4,11)            98.9589         estimate D2E/DX2                !
 ! D25   D(9,3,4,5)             85.9727         estimate D2E/DX2                !
 ! D26   D(9,3,4,10)          -158.711          estimate D2E/DX2                !
 ! D27   D(9,3,4,11)           -29.3455         estimate D2E/DX2                !
 ! D28   D(3,4,5,6)             45.1316         estimate D2E/DX2                !
 ! D29   D(3,4,5,12)           160.275          estimate D2E/DX2                !
 ! D30   D(3,4,5,13)           -70.0151         estimate D2E/DX2                !
 ! D31   D(10,4,5,6)           -70.0669         estimate D2E/DX2                !
 ! D32   D(10,4,5,12)           45.0765         estimate D2E/DX2                !
 ! D33   D(10,4,5,13)          174.7864         estimate D2E/DX2                !
 ! D34   D(11,4,5,6)           160.3268         estimate D2E/DX2                !
 ! D35   D(11,4,5,12)          -84.5298         estimate D2E/DX2                !
 ! D36   D(11,4,5,13)           45.1802         estimate D2E/DX2                !
 ! D37   D(4,5,6,2)            -35.2816         estimate D2E/DX2                !
 ! D38   D(4,5,6,14)            80.4484         estimate D2E/DX2                !
 ! D39   D(4,5,6,15)          -151.0036         estimate D2E/DX2                !
 ! D40   D(12,5,6,2)          -150.5807         estimate D2E/DX2                !
 ! D41   D(12,5,6,14)          -34.8507         estimate D2E/DX2                !
 ! D42   D(12,5,6,15)           93.6974         estimate D2E/DX2                !
 ! D43   D(13,5,6,2)            80.0137         estimate D2E/DX2                !
 ! D44   D(13,5,6,14)         -164.2562         estimate D2E/DX2                !
 ! D45   D(13,5,6,15)          -35.7082         estimate D2E/DX2                !
 --------------------------------------------------------------------------------
 Trust Radius=3.00D-01 FncErr=1.00D-07 GrdErr=1.00D-06 EigMax=2.50D+02 EigMin=1.00D-04
 Number of steps in this run=    100 maximum allowed number of steps=    100.
 GradGradGradGradGradGradGradGradGradGradGradGradGradGradGradGradGradGrad

 Leave Link  103 at Sun Oct 13 21:39:29 2019, MaxMem= 10737418240 cpu:               0.3 elap:               0.0
 (Enter /apps/cent7/gaussian/g16-A.03/g16-haswell/g16/l202.exe)
                          Input orientation:                          
 ---------------------------------------------------------------------
 Center     Atomic      Atomic             Coordinates (Angstroms)
 Number     Number       Type             X           Y           Z
 ---------------------------------------------------------------------
      1          8           0       -0.872000   -1.050700    1.473400
      2         16           0        0.265500   -0.483000    0.499300
      3          6           0        1.934600   -0.821000    1.161000
      4          6           0        2.417400    0.588700    1.575300
      5          6           0        1.762400    1.656200    0.653200
      6          6           0        0.258300    1.343300    0.496200
      7          8           0        0.119100   -1.062100   -0.986700
      8          1           0        1.871700   -1.396100    2.084800
      9          1           0        2.605400   -1.141600    0.363900
     10          1           0        2.038500    0.765500    2.581900
     11          1           0        3.489900    0.620600    1.383300
     12          1           0        1.830600    2.610900    1.174800
     13          1           0        2.210700    1.541000   -0.333600
     14          1           0       -0.224100    1.729100    1.394300
     15          1           0       -0.027500    1.726600   -0.483400
 ---------------------------------------------------------------------
                    Distance matrix (angstroms):
                    1          2          3          4          5
     1  O    0.000000
     2  S    1.601581   0.000000
     3  C    2.833260   1.827016   0.000000
     4  C    3.676706   2.633817   1.546607   0.000000
     5  C    3.865242   2.615449   2.534568   1.555265   0.000000
     6  C    2.822009   1.826317   2.817115   2.528951   1.544303
     7  O    2.652263   1.601557   2.822549   3.817220   3.574753
     8  H    2.832137   2.434634   1.090001   2.120568   3.373123
     9  H    3.651241   2.434588   1.090012   2.120559   2.936329
    10  H    3.605325   3.006577   2.132307   1.089985   2.142303
    11  H    4.671995   3.520816   2.132272   1.090017   2.142375
    12  H    4.560759   3.532429   3.433503   2.143368   1.090032
    13  H    4.414204   2.928157   2.808755   2.143245   1.089962
    14  H    2.855402   2.436005   3.349242   2.882845   2.121491
    15  H    3.500806   2.435956   3.611669   3.392727   2.121452
                    6          7          8          9         10
     6  C    0.000000
     7  O    2.829190   0.000000
     8  H    3.554015   3.552080   0.000000
     9  H    3.420688   2.830570   1.888010   0.000000
    10  H    2.802340   4.445124   2.224285   2.979586   0.000000
    11  H    3.428189   4.450918   2.679133   2.219654   1.887909
    12  H    2.130595   4.592629   4.109238   3.916520   2.329947
    13  H    2.130615   3.402567   3.819704   2.799757   3.021786
    14  H    1.090016   3.684799   3.825708   4.160374   2.730985
    15  H    1.090054   2.837543   4.466975   3.984552   3.819441
                   11         12         13         14         15
    11  H    0.000000
    12  H    2.599624   0.000000
    13  H    2.330501   1.887970   0.000000
    14  H    3.875911   2.246674   2.991533   0.000000
    15  H    4.132784   2.642754   2.250872   1.887966   0.000000
 Stoichiometry    C4H8O2S
 Framework group  C1[X(C4H8O2S)]
 Deg. of freedom    39
 Full point group                 C1      NOp   1
 Largest Abelian subgroup         C1      NOp   1
 Largest concise Abelian subgroup C1      NOp   1
                         Standard orientation:                         
 ---------------------------------------------------------------------
 Center     Atomic      Atomic             Coordinates (Angstroms)
 Number     Number       Type             X           Y           Z
 ---------------------------------------------------------------------
      1          8           0       -1.664069    0.312789   -1.251360
      2         16           0       -0.715600    0.002042    0.001199
      3          6           0        0.449404    1.375632    0.307792
      4          6           0        1.803926    0.760599   -0.115292
      5          6           0        1.778435   -0.775131    0.129109
      6          6           0        0.443896   -1.353801   -0.389561
      7          8           0       -1.561790   -0.326053    1.320783
      8          1           0        0.266556    2.195786   -0.386483
      9          1           0        0.535042    1.574570    1.376069
     10          1           0        1.891330    0.907730   -1.191759
     11          1           0        2.557818    1.174621    0.554312
     12          1           0        2.567254   -1.207541   -0.486486
     13          1           0        1.785832   -0.924663    1.208741
     14          1           0        0.562266   -1.462020   -1.467713
     15          1           0        0.236414   -2.228834    0.226463
 ---------------------------------------------------------------------
 Rotational constants (GHZ):           3.4808087           1.9059747           1.7870883
 Leave Link  202 at Sun Oct 13 21:39:29 2019, MaxMem= 10737418240 cpu:               0.5 elap:               0.0
 (Enter /apps/cent7/gaussian/g16-A.03/g16-haswell/g16/l301.exe)
 Standard basis: 6-311++G(d,p) (5D, 7F)
 Ernie: Thresh=  0.10000D-02 Tol=  0.10000D-05 Strict=F.
 There are   225 symmetry adapted cartesian basis functions of A   symmetry.
 There are   218 symmetry adapted basis functions of A   symmetry.
   218 basis functions,   338 primitive gaussians,   225 cartesian basis functions
    32 alpha electrons       32 beta electrons
       nuclear repulsion energy       415.0693172630 Hartrees.
 IExCor= 4336 DFT=T Ex+Corr=M062X ExCW=0 ScaHFX=  0.540000
 ScaDFX=  1.000000  1.000000  1.000000  1.000000 ScalE2=  1.000000  1.000000
 IRadAn=      5 IRanWt=     -1 IRanGd=            0 ICorTp=0 IEmpDi=  4
 NAtoms=   15 NActive=   15 NUniq=   15 SFac= 1.00D+00 NAtFMM=   60 NAOKFM=F Big=F
 Integral buffers will be    131072 words long.
 Raffenetti 2 integral format.
 Two-electron integral symmetry is turned on.
 Leave Link  301 at Sun Oct 13 21:39:29 2019, MaxMem= 10737418240 cpu:               1.7 elap:               0.1
 (Enter /apps/cent7/gaussian/g16-A.03/g16-haswell/g16/l302.exe)
 NPDir=0 NMtPBC=     1 NCelOv=     1 NCel=       1 NClECP=     1 NCelD=      1
         NCelK=      1 NCelE2=     1 NClLst=     1 CellRange=     0.0.
 One-electron integrals computed using PRISM.
 One-electron integral symmetry used in STVInt
 NBasis=   218 RedAO= T EigKep=  1.56D-05  NBF=   218
 NBsUse=   218 1.00D-06 EigRej= -1.00D+00 NBFU=   218
 Precomputing XC quadrature grid using
 IXCGrd= 4 IRadAn=           5 IRanWt=          -1 IRanGd=           0 AccXCQ= 0.00D+00.
 Generated NRdTot=       0 NPtTot=           0 NUsed=           0 NTot=          32
 NSgBfM=   225   225   225   225   225 MxSgAt=    15 MxSgA2=    15.
 Leave Link  302 at Sun Oct 13 21:39:29 2019, MaxMem= 10737418240 cpu:               4.0 elap:               0.2
 (Enter /apps/cent7/gaussian/g16-A.03/g16-haswell/g16/l303.exe)
 DipDrv:  MaxL=1.
 Leave Link  303 at Sun Oct 13 21:39:30 2019, MaxMem= 10737418240 cpu:               0.8 elap:               0.1
 (Enter /apps/cent7/gaussian/g16-A.03/g16-haswell/g16/l401.exe)
 ExpMin= 3.60D-02 ExpMax= 9.34D+04 ExpMxC= 3.17D+03 IAcc=3 IRadAn=         5 AccDes= 0.00D+00
 Harris functional with IExCor= 1009 and IRadAn=       5 diagonalized for initial guess.
 HarFok:  IExCor= 1009 AccDes= 0.00D+00 IRadAn=         5 IDoV= 1 UseB2=F ITyADJ=14
 ICtDFT=  3500011 ScaDFX=  1.000000  1.000000  1.000000  1.000000
 FoFCou: FMM=F IPFlag=           0 FMFlag=      100000 FMFlg1=           0
         NFxFlg=           0 DoJE=T BraDBF=F KetDBF=T FulRan=T
         wScrn=  0.000000 ICntrl=       500 IOpCl=  0 I1Cent=   200000004 NGrid=           0
         NMat0=    1 NMatS0=      1 NMatT0=    0 NMatD0=    1 NMtDS0=    0 NMtDT0=    0
 Petite list used in FoFCou.
 Harris En= -705.528748057794    
 JPrj=0 DoOrth=F DoCkMO=F.
 Leave Link  401 at Sun Oct 13 21:39:30 2019, MaxMem= 10737418240 cpu:               8.2 elap:               0.4
 (Enter /apps/cent7/gaussian/g16-A.03/g16-haswell/g16/l502.exe)
 Integral symmetry usage will be decided dynamically.
 Closed shell SCF:
 Using DIIS extrapolation, IDIIS=  1040.
 NGot= 10737418240 LenX= 10737309296 LenY= 10737258230
 Requested convergence on RMS density matrix=1.00D-08 within 128 cycles.
 Requested convergence on MAX density matrix=1.00D-06.
 Requested convergence on             energy=1.00D-06.
 No special actions if energy rises.
 Fock matrices will be formed incrementally for  20 cycles.

 Cycle   1  Pass 1  IDiag  1:
 FoFJK:  IHMeth= 1 ICntrl=       0 DoSepK=F KAlg= 0 I1Cent=           0 FoldK=F
 IRaf= 990000000 NMat=       1 IRICut=       1 DoRegI=T DoRafI=F ISym2E= 0 IDoP0=0 IntGTp=1.
 FoFCou: FMM=F IPFlag=           0 FMFlag=      100000 FMFlg1=           0
         NFxFlg=           0 DoJE=F BraDBF=F KetDBF=F FulRan=T
         wScrn=  0.000000 ICntrl=         0 IOpCl=  0 I1Cent=           0 NGrid=           0
         NMat0=    1 NMatS0=      1 NMatT0=    0 NMatD0=    1 NMtDS0=    0 NMtDT0=    0
 Symmetry not used in FoFCou.
 E= -705.307567998815    
 DIIS: error= 6.51D-02 at cycle   1 NSaved=   1.
 NSaved= 1 IEnMin= 1 EnMin= -705.307567998815     IErMin= 1 ErrMin= 6.51D-02
 ErrMax= 6.51D-02  0.00D+00 EMaxC= 1.00D-01 BMatC= 5.81D-01 BMatP= 5.81D-01
 IDIUse=3 WtCom= 3.49D-01 WtEn= 6.51D-01
 Coeff-Com:  0.100D+01
 Coeff-En:   0.100D+01
 Coeff:      0.100D+01
 Gap=     0.281 Goal=   None    Shift=    0.000
 GapD=    0.281 DampG=1.000 DampE=0.500 DampFc=0.5000 IDamp=-1.
 Damping current iteration by 5.00D-01
 RMSDP=4.54D-02 MaxDP=2.50D+00              OVMax= 2.67D-01

 Cycle   2  Pass 1  IDiag  1:
 RMSU=  2.03D-02    CP:  1.54D+00
 E= -705.430094682451     Delta-E=       -0.122526683635 Rises=F Damp=T
 DIIS: error= 2.20D-02 at cycle   2 NSaved=   2.
 NSaved= 2 IEnMin= 2 EnMin= -705.430094682451     IErMin= 2 ErrMin= 2.20D-02
 ErrMax= 2.20D-02  0.00D+00 EMaxC= 1.00D-01 BMatC= 6.24D-02 BMatP= 5.81D-01
 IDIUse=3 WtCom= 7.80D-01 WtEn= 2.20D-01
 Coeff-Com:  0.157D+00 0.843D+00
 Coeff-En:   0.314D+00 0.686D+00
 Coeff:      0.192D+00 0.808D+00
 Gap=     0.333 Goal=   None    Shift=    0.000
 RMSDP=1.45D-02 MaxDP=8.85D-01 DE=-1.23D-01 OVMax= 1.80D-01

 Cycle   3  Pass 1  IDiag  1:
 RMSU=  3.70D-03    CP:  1.18D+00  3.98D-01
 E= -705.682811322908     Delta-E=       -0.252716640457 Rises=F Damp=F
 DIIS: error= 1.50D-02 at cycle   3 NSaved=   3.
 NSaved= 3 IEnMin= 3 EnMin= -705.682811322908     IErMin= 3 ErrMin= 1.50D-02
 ErrMax= 1.50D-02  0.00D+00 EMaxC= 1.00D-01 BMatC= 2.96D-02 BMatP= 6.24D-02
 IDIUse=3 WtCom= 8.50D-01 WtEn= 1.50D-01
 Coeff-Com:  0.188D-01 0.396D+00 0.586D+00
 Coeff-En:   0.000D+00 0.000D+00 0.100D+01
 Coeff:      0.159D-01 0.336D+00 0.648D+00
 Gap=     0.329 Goal=   None    Shift=    0.000
 RMSDP=4.98D-03 MaxDP=2.75D-01 DE=-2.53D-01 OVMax= 5.26D-02

 Cycle   4  Pass 1  IDiag  1:
 RMSU=  1.10D-03    CP:  1.30D+00  6.08D-01  9.16D-01
 E= -705.704764674236     Delta-E=       -0.021953351328 Rises=F Damp=F
 DIIS: error= 5.28D-03 at cycle   4 NSaved=   4.
 NSaved= 4 IEnMin= 4 EnMin= -705.704764674236     IErMin= 4 ErrMin= 5.28D-03
 ErrMax= 5.28D-03  0.00D+00 EMaxC= 1.00D-01 BMatC= 5.20D-03 BMatP= 2.96D-02
 IDIUse=3 WtCom= 9.47D-01 WtEn= 5.28D-02
 Coeff-Com: -0.591D-02 0.297D-01 0.308D+00 0.668D+00
 Coeff-En:   0.000D+00 0.000D+00 0.136D+00 0.864D+00
 Coeff:     -0.560D-02 0.281D-01 0.299D+00 0.678D+00
 Gap=     0.324 Goal=   None    Shift=    0.000
 RMSDP=1.45D-03 MaxDP=7.95D-02 DE=-2.20D-02 OVMax= 1.87D-02

 Cycle   5  Pass 1  IDiag  1:
 RMSU=  1.80D-04    CP:  1.27D+00  5.48D-01  9.61D-01  7.17D-01
 E= -705.709394558793     Delta-E=       -0.004629884556 Rises=F Damp=F
 DIIS: error= 5.61D-04 at cycle   5 NSaved=   5.
 NSaved= 5 IEnMin= 5 EnMin= -705.709394558793     IErMin= 5 ErrMin= 5.61D-04
 ErrMax= 5.61D-04  0.00D+00 EMaxC= 1.00D-01 BMatC= 4.94D-05 BMatP= 5.20D-03
 IDIUse=3 WtCom= 9.94D-01 WtEn= 5.61D-03
 Coeff-Com: -0.680D-03-0.454D-02 0.475D-01 0.164D+00 0.794D+00
 Coeff-En:   0.000D+00 0.000D+00 0.000D+00 0.000D+00 0.100D+01
 Coeff:     -0.676D-03-0.451D-02 0.472D-01 0.163D+00 0.795D+00
 Gap=     0.321 Goal=   None    Shift=    0.000
 RMSDP=7.69D-05 MaxDP=2.43D-03 DE=-4.63D-03 OVMax= 2.45D-03

 Cycle   6  Pass 1  IDiag  1:
 RMSU=  6.57D-05    CP:  1.27D+00  5.49D-01  9.61D-01  7.52D-01  9.88D-01
 E= -705.709448169721     Delta-E=       -0.000053610929 Rises=F Damp=F
 DIIS: error= 2.37D-04 at cycle   6 NSaved=   6.
 NSaved= 6 IEnMin= 6 EnMin= -705.709448169721     IErMin= 6 ErrMin= 2.37D-04
 ErrMax= 2.37D-04  0.00D+00 EMaxC= 1.00D-01 BMatC= 5.07D-06 BMatP= 4.94D-05
 IDIUse=3 WtCom= 9.98D-01 WtEn= 2.37D-03
 Coeff-Com:  0.398D-03-0.392D-02-0.972D-02-0.229D-02 0.229D+00 0.786D+00
 Coeff-En:   0.000D+00 0.000D+00 0.000D+00 0.000D+00 0.000D+00 0.100D+01
 Coeff:      0.397D-03-0.391D-02-0.970D-02-0.229D-02 0.229D+00 0.787D+00
 Gap=     0.322 Goal=   None    Shift=    0.000
 RMSDP=5.13D-05 MaxDP=1.87D-03 DE=-5.36D-05 OVMax= 9.55D-04

 Cycle   7  Pass 1  IDiag  1:
 RMSU=  2.32D-05    CP:  1.26D+00  5.47D-01  9.61D-01  7.52D-01  1.10D+00
                    CP:  1.06D+00
 E= -705.709455086198     Delta-E=       -0.000006916477 Rises=F Damp=F
 DIIS: error= 6.61D-05 at cycle   7 NSaved=   7.
 NSaved= 7 IEnMin= 7 EnMin= -705.709455086198     IErMin= 7 ErrMin= 6.61D-05
 ErrMax= 6.61D-05  0.00D+00 EMaxC= 1.00D-01 BMatC= 5.19D-07 BMatP= 5.07D-06
 IDIUse=1 WtCom= 1.00D+00 WtEn= 0.00D+00
 Coeff-Com:  0.113D-03-0.179D-03-0.914D-02-0.225D-01-0.446D-01 0.180D+00
 Coeff-Com:  0.896D+00
 Coeff:      0.113D-03-0.179D-03-0.914D-02-0.225D-01-0.446D-01 0.180D+00
 Coeff:      0.896D+00
 Gap=     0.322 Goal=   None    Shift=    0.000
 RMSDP=2.87D-05 MaxDP=1.00D-03 DE=-6.92D-06 OVMax= 5.26D-04

 Cycle   8  Pass 1  IDiag  1:
 RMSU=  9.24D-06    CP:  1.26D+00  5.46D-01  9.61D-01  7.51D-01  1.14D+00
                    CP:  1.14D+00  1.32D+00
 E= -705.709456124154     Delta-E=       -0.000001037955 Rises=F Damp=F
 DIIS: error= 2.36D-05 at cycle   8 NSaved=   8.
 NSaved= 8 IEnMin= 8 EnMin= -705.709456124154     IErMin= 8 ErrMin= 2.36D-05
 ErrMax= 2.36D-05  0.00D+00 EMaxC= 1.00D-01 BMatC= 6.66D-08 BMatP= 5.19D-07
 IDIUse=1 WtCom= 1.00D+00 WtEn= 0.00D+00
 Coeff-Com: -0.394D-04 0.336D-03-0.241D-02-0.708D-02-0.332D-01-0.521D-02
 Coeff-Com:  0.252D+00 0.796D+00
 Coeff:     -0.394D-04 0.336D-03-0.241D-02-0.708D-02-0.332D-01-0.521D-02
 Coeff:      0.252D+00 0.796D+00
 Gap=     0.322 Goal=   None    Shift=    0.000
 RMSDP=7.55D-06 MaxDP=2.40D-04 DE=-1.04D-06 OVMax= 1.63D-04

 Cycle   9  Pass 1  IDiag  1:
 RMSU=  3.84D-06    CP:  1.26D+00  5.46D-01  9.61D-01  7.51D-01  1.15D+00
                    CP:  1.17D+00  1.48D+00  1.00D+00
 E= -705.709456216967     Delta-E=       -0.000000092813 Rises=F Damp=F
 DIIS: error= 1.30D-05 at cycle   9 NSaved=   9.
 NSaved= 9 IEnMin= 9 EnMin= -705.709456216967     IErMin= 9 ErrMin= 1.30D-05
 ErrMax= 1.30D-05  0.00D+00 EMaxC= 1.00D-01 BMatC= 2.62D-08 BMatP= 6.66D-08
 IDIUse=1 WtCom= 1.00D+00 WtEn= 0.00D+00
 Coeff-Com: -0.371D-04 0.209D-03-0.286D-03-0.126D-02-0.140D-01-0.224D-01
 Coeff-Com:  0.270D-01 0.435D+00 0.576D+00
 Coeff:     -0.371D-04 0.209D-03-0.286D-03-0.126D-02-0.140D-01-0.224D-01
 Coeff:      0.270D-01 0.435D+00 0.576D+00
 Gap=     0.322 Goal=   None    Shift=    0.000
 RMSDP=3.30D-06 MaxDP=9.04D-05 DE=-9.28D-08 OVMax= 6.79D-05

 Cycle  10  Pass 1  IDiag  1:
 RMSU=  1.79D-06    CP:  1.26D+00  5.46D-01  9.61D-01  7.51D-01  1.16D+00
                    CP:  1.18D+00  1.51D+00  1.17D+00  6.02D-01
 E= -705.709456239843     Delta-E=       -0.000000022876 Rises=F Damp=F
 DIIS: error= 5.77D-06 at cycle  10 NSaved=  10.
 NSaved=10 IEnMin=10 EnMin= -705.709456239843     IErMin=10 ErrMin= 5.77D-06
 ErrMax= 5.77D-06  0.00D+00 EMaxC= 1.00D-01 BMatC= 5.03D-09 BMatP= 2.62D-08
 IDIUse=1 WtCom= 1.00D+00 WtEn= 0.00D+00
 Coeff-Com: -0.489D-05 0.257D-04 0.377D-03 0.892D-03-0.256D-03-0.850D-02
 Coeff-Com: -0.446D-01 0.301D-01 0.325D+00 0.697D+00
 Coeff:     -0.489D-05 0.257D-04 0.377D-03 0.892D-03-0.256D-03-0.850D-02
 Coeff:     -0.446D-01 0.301D-01 0.325D+00 0.697D+00
 Gap=     0.322 Goal=   None    Shift=    0.000
 RMSDP=2.07D-06 MaxDP=8.73D-05 DE=-2.29D-08 OVMax= 3.39D-05

 Cycle  11  Pass 1  IDiag  1:
 RMSU=  3.58D-07    CP:  1.26D+00  5.46D-01  9.61D-01  7.51D-01  1.16D+00
                    CP:  1.18D+00  1.54D+00  1.19D+00  8.64D-01  8.95D-01
 E= -705.709456244767     Delta-E=       -0.000000004924 Rises=F Damp=F
 DIIS: error= 1.14D-06 at cycle  11 NSaved=  11.
 NSaved=11 IEnMin=11 EnMin= -705.709456244767     IErMin=11 ErrMin= 1.14D-06
 ErrMax= 1.14D-06  0.00D+00 EMaxC= 1.00D-01 BMatC= 3.80D-10 BMatP= 5.03D-09
 IDIUse=1 WtCom= 1.00D+00 WtEn= 0.00D+00
 Coeff-Com:  0.505D-05-0.138D-04 0.183D-03 0.450D-03 0.132D-02-0.735D-03
 Coeff-Com: -0.210D-01-0.382D-01 0.687D-01 0.292D+00 0.698D+00
 Coeff:      0.505D-05-0.138D-04 0.183D-03 0.450D-03 0.132D-02-0.735D-03
 Coeff:     -0.210D-01-0.382D-01 0.687D-01 0.292D+00 0.698D+00
 Gap=     0.322 Goal=   None    Shift=    0.000
 RMSDP=7.49D-07 MaxDP=3.96D-05 DE=-4.92D-09 OVMax= 9.43D-06

 Cycle  12  Pass 1  IDiag  1:
 RMSU=  1.36D-07    CP:  1.26D+00  5.46D-01  9.61D-01  7.51D-01  1.16D+00
                    CP:  1.18D+00  1.55D+00  1.21D+00  8.74D-01  9.73D-01
                    CP:  1.04D+00
 E= -705.709456245211     Delta-E=       -0.000000000444 Rises=F Damp=F
 DIIS: error= 4.13D-07 at cycle  12 NSaved=  12.
 NSaved=12 IEnMin=12 EnMin= -705.709456245211     IErMin=12 ErrMin= 4.13D-07
 ErrMax= 4.13D-07  0.00D+00 EMaxC= 1.00D-01 BMatC= 1.52D-11 BMatP= 3.80D-10
 IDIUse=1 WtCom= 1.00D+00 WtEn= 0.00D+00
 Coeff-Com:  0.626D-06-0.259D-05-0.177D-04-0.671D-04 0.734D-04 0.549D-03
 Coeff-Com:  0.364D-02-0.228D-02-0.290D-01-0.550D-01 0.596D-01 0.102D+01
 Coeff:      0.626D-06-0.259D-05-0.177D-04-0.671D-04 0.734D-04 0.549D-03
 Coeff:      0.364D-02-0.228D-02-0.290D-01-0.550D-01 0.596D-01 0.102D+01
 Gap=     0.322 Goal=   None    Shift=    0.000
 RMSDP=2.32D-07 MaxDP=1.45D-05 DE=-4.44D-10 OVMax= 3.54D-06

 Cycle  13  Pass 1  IDiag  1:
 RMSU=  3.65D-08    CP:  1.26D+00  5.46D-01  9.61D-01  7.51D-01  1.16D+00
                    CP:  1.18D+00  1.55D+00  1.22D+00  8.87D-01  1.00D+00
                    CP:  1.21D+00  1.24D+00
 E= -705.709456245244     Delta-E=       -0.000000000033 Rises=F Damp=F
 DIIS: error= 6.70D-08 at cycle  13 NSaved=  13.
 NSaved=13 IEnMin=13 EnMin= -705.709456245244     IErMin=13 ErrMin= 6.70D-08
 ErrMax= 6.70D-08  0.00D+00 EMaxC= 1.00D-01 BMatC= 6.64D-13 BMatP= 1.52D-11
 IDIUse=1 WtCom= 1.00D+00 WtEn= 0.00D+00
 Coeff-Com: -0.809D-06 0.166D-05-0.959D-05-0.200D-04-0.795D-04 0.260D-04
 Coeff-Com:  0.103D-02 0.286D-02-0.338D-02-0.176D-01-0.486D-01-0.271D-01
 Coeff-Com:  0.109D+01
 Coeff:     -0.809D-06 0.166D-05-0.959D-05-0.200D-04-0.795D-04 0.260D-04
 Coeff:      0.103D-02 0.286D-02-0.338D-02-0.176D-01-0.486D-01-0.271D-01
 Coeff:      0.109D+01
 Gap=     0.322 Goal=   None    Shift=    0.000
 RMSDP=5.24D-08 MaxDP=2.90D-06 DE=-3.30D-11 OVMax= 9.79D-07

 Cycle  14  Pass 1  IDiag  1:
 RMSU=  8.96D-09    CP:  1.26D+00  5.46D-01  9.61D-01  7.51D-01  1.16D+00
                    CP:  1.18D+00  1.55D+00  1.22D+00  8.89D-01  1.01D+00
                    CP:  1.26D+00  1.34D+00  1.31D+00
 E= -705.709456245244     Delta-E=       -0.000000000000 Rises=F Damp=F
 DIIS: error= 1.23D-08 at cycle  14 NSaved=  14.
 NSaved=14 IEnMin=14 EnMin= -705.709456245244     IErMin=14 ErrMin= 1.23D-08
 ErrMax= 1.23D-08  0.00D+00 EMaxC= 1.00D-01 BMatC= 3.89D-14 BMatP= 6.64D-13
 IDIUse=1 WtCom= 1.00D+00 WtEn= 0.00D+00
 Coeff-Com: -0.168D-06 0.419D-06-0.111D-05-0.684D-06-0.118D-04-0.202D-04
 Coeff-Com: -0.233D-04 0.401D-03 0.811D-03 0.210D-03-0.816D-02-0.464D-01
 Coeff-Com:  0.116D+00 0.937D+00
 Coeff:     -0.168D-06 0.419D-06-0.111D-05-0.684D-06-0.118D-04-0.202D-04
 Coeff:     -0.233D-04 0.401D-03 0.811D-03 0.210D-03-0.816D-02-0.464D-01
 Coeff:      0.116D+00 0.937D+00
 Gap=     0.322 Goal=   None    Shift=    0.000
 RMSDP=6.08D-09 MaxDP=2.67D-07 DE=-2.27D-13 OVMax= 1.60D-07

 SCF Done:  E(RM062X) =  -705.709456245     A.U. after   14 cycles
            NFock= 14  Conv=0.61D-08     -V/T= 2.0031
 KE= 7.035453185253D+02 PE=-2.494333240665D+03 EE= 6.700091486320D+02
 Leave Link  502 at Sun Oct 13 21:39:39 2019, MaxMem= 10737418240 cpu:             216.2 elap:               9.1
 (Enter /apps/cent7/gaussian/g16-A.03/g16-haswell/g16/l601.exe)
 Copying SCF densities to generalized density rwf, IOpCl= 0 IROHF=0.

 **********************************************************************

            Population analysis using the SCF density.

 **********************************************************************

 Orbital symmetries:
       Occupied  (A) (A) (A) (A) (A) (A) (A) (A) (A) (A) (A) (A)
                 (A) (A) (A) (A) (A) (A) (A) (A) (A) (A) (A) (A)
                 (A) (A) (A) (A) (A) (A) (A) (A)
       Virtual   (A) (A) (A) (A) (A) (A) (A) (A) (A) (A) (A) (A)
                 (A) (A) (A) (A) (A) (A) (A) (A) (A) (A) (A) (A)
                 (A) (A) (A) (A) (A) (A) (A) (A) (A) (A) (A) (A)
                 (A) (A) (A) (A) (A) (A) (A) (A) (A) (A) (A) (A)
                 (A) (A) (A) (A) (A) (A) (A) (A) (A) (A) (A) (A)
                 (A) (A) (A) (A) (A) (A) (A) (A) (A) (A) (A) (A)
                 (A) (A) (A) (A) (A) (A) (A) (A) (A) (A) (A) (A)
                 (A) (A) (A) (A) (A) (A) (A) (A) (A) (A) (A) (A)
                 (A) (A) (A) (A) (A) (A) (A) (A) (A) (A) (A) (A)
                 (A) (A) (A) (A) (A) (A) (A) (A) (A) (A) (A) (A)
                 (A) (A) (A) (A) (A) (A) (A) (A) (A) (A) (A) (A)
                 (A) (A) (A) (A) (A) (A) (A) (A) (A) (A) (A) (A)
                 (A) (A) (A) (A) (A) (A) (A) (A) (A) (A) (A) (A)
                 (A) (A) (A) (A) (A) (A) (A) (A) (A) (A) (A) (A)
                 (A) (A) (A) (A) (A) (A) (A) (A) (A) (A) (A) (A)
                 (A) (A) (A) (A) (A) (A)
 The electronic state is 1-A.
 Alpha  occ. eigenvalues --  -90.10256 -19.61323 -19.61182 -10.60929 -10.60917
 Alpha  occ. eigenvalues --  -10.58740 -10.58691  -8.44588  -6.36670  -6.36665
 Alpha  occ. eigenvalues --   -6.36664  -1.15536  -1.05513  -0.98266  -0.88325
 Alpha  occ. eigenvalues --   -0.83416  -0.70301  -0.69991  -0.62655  -0.58211
 Alpha  occ. eigenvalues --   -0.57311  -0.53751  -0.52012  -0.49356  -0.47569
 Alpha  occ. eigenvalues --   -0.45508  -0.45075  -0.44230  -0.37040  -0.36223
 Alpha  occ. eigenvalues --   -0.34875  -0.34362
 Alpha virt. eigenvalues --   -0.02131  -0.00419   0.00227   0.00992   0.02686
 Alpha virt. eigenvalues --    0.02937   0.03043   0.03646   0.04265   0.04752
 Alpha virt. eigenvalues --    0.06528   0.07139   0.08038   0.08747   0.08901
 Alpha virt. eigenvalues --    0.09353   0.10954   0.11066   0.11334   0.11592
 Alpha virt. eigenvalues --    0.11951   0.12439   0.13277   0.13413   0.14948
 Alpha virt. eigenvalues --    0.15375   0.15860   0.16072   0.16194   0.16345
 Alpha virt. eigenvalues --    0.16436   0.17101   0.22269   0.22801   0.23155
 Alpha virt. eigenvalues --    0.24831   0.26203   0.27612   0.27943   0.28313
 Alpha virt. eigenvalues --    0.30108   0.30276   0.32271   0.33069   0.33365
 Alpha virt. eigenvalues --    0.34454   0.34886   0.35885   0.36202   0.37636
 Alpha virt. eigenvalues --    0.38477   0.39737   0.42047   0.43489   0.44421
 Alpha virt. eigenvalues --    0.47551   0.47770   0.48386   0.52601   0.53587
 Alpha virt. eigenvalues --    0.55983   0.56462   0.64185   0.65090   0.65608
 Alpha virt. eigenvalues --    0.67893   0.69650   0.71054   0.72688   0.73058
 Alpha virt. eigenvalues --    0.73735   0.74233   0.74800   0.77181   0.80083
 Alpha virt. eigenvalues --    0.84505   0.86632   0.90618   0.95037   0.95681
 Alpha virt. eigenvalues --    0.98349   1.00943   1.03542   1.06443   1.06594
 Alpha virt. eigenvalues --    1.17585   1.17790   1.19614   1.24301   1.25912
 Alpha virt. eigenvalues --    1.26743   1.28005   1.28427   1.29198   1.37498
 Alpha virt. eigenvalues --    1.37911   1.46371   1.50545   1.53996   1.54824
 Alpha virt. eigenvalues --    1.57451   1.58933   1.60349   1.60767   1.62917
 Alpha virt. eigenvalues --    1.64699   1.65781   1.66436   1.70037   1.70926
 Alpha virt. eigenvalues --    1.71617   1.76368   1.77918   1.82931   1.83745
 Alpha virt. eigenvalues --    1.88875   1.90009   1.90819   1.92629   1.96438
 Alpha virt. eigenvalues --    2.02092   2.03307   2.07623   2.11422   2.13160
 Alpha virt. eigenvalues --    2.17407   2.20259   2.21863   2.25258   2.37592
 Alpha virt. eigenvalues --    2.38960   2.50232   2.52183   2.52680   2.56421
 Alpha virt. eigenvalues --    2.60768   2.61437   2.64817   2.67221   2.70231
 Alpha virt. eigenvalues --    2.72937   2.76732   2.81246   2.84000   2.85106
 Alpha virt. eigenvalues --    2.85437   2.90517   2.94578   2.94685   2.94985
 Alpha virt. eigenvalues --    2.95123   2.97770   3.00181   3.02734   3.04978
 Alpha virt. eigenvalues --    3.12583   3.14794   3.16379   3.25121   3.27331
 Alpha virt. eigenvalues --    3.47715   3.52935   3.69547   3.72425   3.97223
 Alpha virt. eigenvalues --    4.02738   4.03502   4.08074   4.24353   5.14592
 Alpha virt. eigenvalues --    5.16632   5.20175   5.22547   5.24390   5.31297
 Alpha virt. eigenvalues --    8.15514  17.50427  17.59359  17.60501  23.86933
 Alpha virt. eigenvalues --   23.88496  23.92592  23.94812  49.98764  50.02030
 Alpha virt. eigenvalues --  189.40643
          Condensed to atoms (all electrons):
               1          2          3          4          5          6
     1  O    8.615361   0.503211  -0.337645  -0.095261   0.140256  -0.319355
     2  S    0.503211  19.059433  -2.676760   0.420951   0.309324  -2.484476
     3  C   -0.337645  -2.676760   8.795707  -0.721415  -0.082217   1.345270
     4  C   -0.095261   0.420951  -0.721415   6.324952  -0.260740  -0.154624
     5  C    0.140256   0.309324  -0.082217  -0.260740   6.313145  -0.561243
     6  C   -0.319355  -2.484476   1.345270  -0.154624  -0.561243   8.449947
     7  O   -0.268904   0.499071  -0.301940   0.146043  -0.122771  -0.285152
     8  H   -0.025797  -0.159425   0.448659  -0.031578  -0.031255   0.105210
     9  H    0.025185   0.103632   0.157576   0.055321  -0.027826  -0.027140
    10  H    0.032547   0.344281  -0.374314   0.468919   0.107084  -0.295862
    11  H   -0.015005  -0.295381   0.309538   0.230550  -0.096603   0.201174
    12  H   -0.011998  -0.334184   0.247030  -0.111090   0.211929   0.333402
    13  H    0.014391   0.356002  -0.319791   0.109388   0.446024  -0.352294
    14  H    0.001774   0.189060  -0.081541  -0.016141   0.078995   0.056014
    15  H   -0.007625  -0.219859   0.134002  -0.026179  -0.050856   0.512257
               7          8          9         10         11         12
     1  O   -0.268904  -0.025797   0.025185   0.032547  -0.015005  -0.011998
     2  S    0.499071  -0.159425   0.103632   0.344281  -0.295381  -0.334184
     3  C   -0.301940   0.448659   0.157576  -0.374314   0.309538   0.247030
     4  C    0.146043  -0.031578   0.055321   0.468919   0.230550  -0.111090
     5  C   -0.122771  -0.031255  -0.027826   0.107084  -0.096603   0.211929
     6  C   -0.285152   0.105210  -0.027140  -0.295862   0.201174   0.333402
     7  O    8.562248   0.007687  -0.011030   0.009086  -0.007891  -0.015958
     8  H    0.007687   0.449853   0.002993  -0.040040   0.014731   0.010388
     9  H   -0.011030   0.002993   0.474870   0.027915  -0.042503  -0.012914
    10  H    0.009086  -0.040040   0.027915   0.592866  -0.066587  -0.073446
    11  H   -0.007891   0.014731  -0.042503  -0.066587   0.573472   0.057380
    12  H   -0.015958   0.010388  -0.012914  -0.073446   0.057380   0.603436
    13  H    0.031489  -0.012459   0.024708   0.049458  -0.071220  -0.082304
    14  H    0.029960  -0.011553   0.002565   0.033239  -0.017537  -0.061255
    15  H   -0.023607   0.002743  -0.010038  -0.017103   0.013539   0.025618
              13         14         15
     1  O    0.014391   0.001774  -0.007625
     2  S    0.356002   0.189060  -0.219859
     3  C   -0.319791  -0.081541   0.134002
     4  C    0.109388  -0.016141  -0.026179
     5  C    0.446024   0.078995  -0.050856
     6  C   -0.352294   0.056014   0.512257
     7  O    0.031489   0.029960  -0.023607
     8  H   -0.012459  -0.011553   0.002743
     9  H    0.024708   0.002565  -0.010038
    10  H    0.049458   0.033239  -0.017103
    11  H   -0.071220  -0.017537   0.013539
    12  H   -0.082304  -0.061255   0.025618
    13  H    0.600588   0.040090  -0.045850
    14  H    0.040090   0.508945  -0.005456
    15  H   -0.045850  -0.005456   0.445857
 Mulliken charges:
               1
     1  O   -0.251136
     2  S    0.385120
     3  C   -0.542158
     4  C   -0.339097
     5  C   -0.373246
     6  C   -0.523127
     7  O   -0.248330
     8  H    0.269843
     9  H    0.256685
    10  H    0.201957
    11  H    0.212343
    12  H    0.213967
    13  H    0.211780
    14  H    0.252841
    15  H    0.272557
 Sum of Mulliken charges =  -0.00000
 Mulliken charges with hydrogens summed into heavy atoms:
               1
     1  O   -0.251136
     2  S    0.385120
     3  C   -0.015630
     4  C    0.075204
     5  C    0.052501
     6  C    0.002271
     7  O   -0.248330
 Electronic spatial extent (au):  <R**2>=            821.5383
 Charge=              0.0000 electrons
 Dipole moment (field-independent basis, Debye):
    X=              7.5190    Y=              0.0416    Z=             -0.2010  Tot=              7.5218
 Quadrupole moment (field-independent basis, Debye-Ang):
   XX=            -58.4136   YY=            -44.2562   ZZ=            -55.2172
   XY=              0.0699   XZ=             -0.1657   YZ=              3.0629
 Traceless Quadrupole moment (field-independent basis, Debye-Ang):
   XX=             -5.7846   YY=              8.3728   ZZ=             -2.5882
   XY=              0.0699   XZ=             -0.1657   YZ=              3.0629
 Octapole moment (field-independent basis, Debye-Ang**2):
  XXX=             15.0586  YYY=             -0.3005  ZZZ=             -0.8728  XYY=              1.0989
  XXY=             -0.3093  XXZ=              0.6611  XZZ=             14.2753  YZZ=              0.5322
  YYZ=             -0.0604  XYZ=             -0.8356
 Hexadecapole moment (field-independent basis, Debye-Ang**3):
 XXXX=           -602.9637 YYYY=           -267.4640 ZZZZ=           -220.1014 XXXY=             -0.1412
 XXXZ=             -1.7405 YYYX=              0.2802 YYYZ=             -4.0057 ZZZX=              0.2153
 ZZZY=              7.0228 XXYY=           -145.9028 XXZZ=           -144.8604 YYZZ=            -78.6628
 XXYZ=              9.8823 YYXZ=             -0.0759 ZZXY=              0.1448
 N-N= 4.150693172630D+02 E-N=-2.494333240755D+03  KE= 7.035453185253D+02
 No NMR shielding tensors so no spin-rotation constants.
 Leave Link  601 at Sun Oct 13 21:39:39 2019, MaxMem= 10737418240 cpu:               2.6 elap:               0.1
 (Enter /apps/cent7/gaussian/g16-A.03/g16-haswell/g16/l701.exe)
 ... and contract with generalized density number  0.
 Compute integral first derivatives.
 Leave Link  701 at Sun Oct 13 21:39:39 2019, MaxMem= 10737418240 cpu:               3.4 elap:               0.2
 (Enter /apps/cent7/gaussian/g16-A.03/g16-haswell/g16/l702.exe)
 L702 exits ... SP integral derivatives will be done elsewhere.
 Leave Link  702 at Sun Oct 13 21:39:39 2019, MaxMem= 10737418240 cpu:               0.4 elap:               0.0
 (Enter /apps/cent7/gaussian/g16-A.03/g16-haswell/g16/l703.exe)
 Integral derivatives from FoFJK, PRISM(SPDF).
 Compute integral first derivatives, UseDBF=F ICtDFT=           0.
 Calling FoFJK, ICntrl=      2127 FMM=F ISym2X=0 I1Cent= 0 IOpClX= 0 NMat=1 NMatS=1 NMatT=0.
 FoFJK:  IHMeth= 1 ICntrl=    2127 DoSepK=F KAlg= 0 I1Cent=           0 FoldK=F
 IRaf=         0 NMat=       1 IRICut=       1 DoRegI=T DoRafI=F ISym2E= 0 IDoP0=0 IntGTp=1.
 FoFCou: FMM=F IPFlag=           0 FMFlag=      100000 FMFlg1=         800
         NFxFlg=           0 DoJE=F BraDBF=F KetDBF=F FulRan=T
         wScrn=  0.000000 ICntrl=      2127 IOpCl=  0 I1Cent=           0 NGrid=           0
         NMat0=    1 NMatS0=      1 NMatT0=    0 NMatD0=    1 NMtDS0=    0 NMtDT0=    0
 Symmetry not used in FoFCou.
 Leave Link  703 at Sun Oct 13 21:39:41 2019, MaxMem= 10737418240 cpu:              33.2 elap:               1.4
 (Enter /apps/cent7/gaussian/g16-A.03/g16-haswell/g16/l716.exe)
 Dipole        = 2.95819120D+00 1.63651695D-02-7.90981688D-02
 ***** Axes restored to original set *****
 -------------------------------------------------------------------
 Center     Atomic                   Forces (Hartrees/Bohr)
 Number     Number              X              Y              Z
 -------------------------------------------------------------------
      1        8           0.077425163    0.042531265   -0.049069524
      2       16          -0.105864896   -0.092440361   -0.038890063
      3        6           0.004362483    0.035100968    0.005209129
      4        6          -0.016655318    0.001776973   -0.015837582
      5        6          -0.005063042   -0.019494228    0.009620978
      6        6           0.036362774   -0.001691172    0.005402869
      7        8           0.021556924    0.045304480    0.087764738
      8        1          -0.003777351   -0.012848606   -0.012409690
      9        1          -0.010586645   -0.014146394    0.000340095
     10        1           0.015089052    0.003126238    0.005065639
     11        1           0.001327740    0.004277096    0.018183933
     12        1           0.009769677    0.005585625   -0.014745089
     13        1           0.005748244    0.015100019    0.000589922
     14        1          -0.013948281   -0.006454690   -0.007386759
     15        1          -0.015746523   -0.005727214    0.006161403
 -------------------------------------------------------------------
 Cartesian Forces:  Max     0.105864896 RMS     0.032602956
 Leave Link  716 at Sun Oct 13 21:39:41 2019, MaxMem= 10737418240 cpu:               0.6 elap:               0.0
 (Enter /apps/cent7/gaussian/g16-A.03/g16-haswell/g16/l103.exe)

 GradGradGradGradGradGradGradGradGradGradGradGradGradGradGradGradGradGrad
 Berny optimization.
 FormGI is forming the generalized inverse of G from B-inverse, IUseBI=4.
 Internal  Forces:  Max     0.099911101 RMS     0.016066984
 Search for a local minimum.
 Step number   1 out of a maximum of  100
 All quantities printed in internal units (Hartrees-Bohrs-Radians)
 RMS Force = .16067D-01 SwitMx=.10000D-02 MixMth= 1
 Mixed Optimization -- RFO/linear search
 Second derivative matrix not updated -- first step.
 ITU=  0
     Eigenvalues ---    0.00257   0.00399   0.02279   0.02313   0.04613
     Eigenvalues ---    0.04959   0.05032   0.05204   0.05379   0.05616
     Eigenvalues ---    0.05867   0.05998   0.06546   0.06620   0.07293
     Eigenvalues ---    0.07329   0.08391   0.08850   0.09475   0.09731
     Eigenvalues ---    0.11241   0.13847   0.20462   0.21262   0.23903
     Eigenvalues ---    0.24178   0.26505   0.27259   0.27622   0.34806
     Eigenvalues ---    0.34809   0.34811   0.34811   0.34811   0.34812
     Eigenvalues ---    0.34814   0.34817   0.50913   0.50918
 RFO step:  Lambda=-5.92470070D-02 EMin= 2.57321869D-03
 Linear search not attempted -- first point.
 Maximum step size (   0.300) exceeded in Quadratic search.
    -- Step size scaled by   0.830
 Iteration  1 RMS(Cart)=  0.04432533 RMS(Int)=  0.00163168
 Iteration  2 RMS(Cart)=  0.00133742 RMS(Int)=  0.00104620
 Iteration  3 RMS(Cart)=  0.00000153 RMS(Int)=  0.00104620
 Iteration  4 RMS(Cart)=  0.00000000 RMS(Int)=  0.00104620
 ITry= 1 IFail=0 DXMaxC= 1.27D-01 DCOld= 1.00D+10 DXMaxT= 3.00D-01 DXLimC= 3.00D+00 Rises=F
 Variable       Old X    -DE/DX   Delta X   Delta X   Delta X     New X
                                 (Linear)    (Quad)   (Total)
    R1        3.02655  -0.09991   0.00000  -0.14581  -0.14581   2.88073
    R2        3.45256  -0.00995   0.00000  -0.02382  -0.02371   3.42885
    R3        3.45124  -0.01037   0.00000  -0.02531  -0.02514   3.42610
    R4        3.02650  -0.09978   0.00000  -0.14562  -0.14562   2.88089
    R5        2.92266   0.00815   0.00000   0.01895   0.01878   2.94145
    R6        2.05980  -0.00352   0.00000  -0.00717  -0.00717   2.05263
    R7        2.05982  -0.00260   0.00000  -0.00530  -0.00530   2.05452
    R8        2.93903  -0.00065   0.00000  -0.00708  -0.00712   2.93191
    R9        2.05977  -0.00006   0.00000  -0.00012  -0.00012   2.05965
   R10        2.05983  -0.00177   0.00000  -0.00361  -0.00361   2.05623
   R11        2.91831   0.00709   0.00000   0.01636   0.01624   2.93455
   R12        2.05986  -0.00155   0.00000  -0.00316  -0.00316   2.05670
   R13        2.05973   0.00023   0.00000   0.00048   0.00048   2.06021
   R14        2.05983  -0.00220   0.00000  -0.00447  -0.00447   2.05536
   R15        2.05990  -0.00342   0.00000  -0.00697  -0.00697   2.05293
    A1        1.94227  -0.00372   0.00000  -0.01720  -0.01759   1.92468
    A2        1.93124  -0.00040   0.00000  -0.00494  -0.00556   1.92568
    A3        1.95114   0.01214   0.00000   0.07259   0.07291   2.02405
    A4        1.76116  -0.00456   0.00000  -0.03113  -0.03174   1.72942
    A5        1.93121  -0.00125   0.00000  -0.01045  -0.01125   1.91995
    A6        1.93869  -0.00412   0.00000  -0.02057  -0.02118   1.91750
    A7        1.78603   0.00716   0.00000   0.03254   0.03275   1.81878
    A8        1.93033  -0.00807   0.00000  -0.04316  -0.04548   1.88485
    A9        1.93027  -0.00498   0.00000  -0.03657  -0.03878   1.89149
   A10        1.84615   0.00667   0.00000   0.05333   0.05382   1.89998
   A11        1.84613   0.00659   0.00000   0.05457   0.05492   1.90106
   A12        2.09451  -0.00365   0.00000  -0.03609  -0.04114   2.05337
   A13        1.91275  -0.00617   0.00000  -0.02312  -0.02308   1.88967
   A14        1.86159   0.00330   0.00000   0.02417   0.02408   1.88567
   A15        1.86151   0.00573   0.00000   0.02738   0.02774   1.88925
   A16        1.86481   0.00514   0.00000   0.02293   0.02322   1.88803
   A17        1.86488   0.00222   0.00000   0.01796   0.01801   1.88288
   A18        2.09434  -0.01066   0.00000  -0.06970  -0.06968   2.02467
   A19        1.90857  -0.00659   0.00000  -0.02507  -0.02501   1.88356
   A20        1.86618   0.00254   0.00000   0.01917   0.01921   1.88538
   A21        1.86608   0.00523   0.00000   0.02376   0.02411   1.89018
   A22        1.86194   0.00582   0.00000   0.02769   0.02808   1.89002
   A23        1.86203   0.00320   0.00000   0.02323   0.02317   1.88520
   A24        2.09447  -0.01068   0.00000  -0.06927  -0.06927   2.02520
   A25        1.77073   0.00782   0.00000   0.03464   0.03487   1.80560
   A26        1.93294  -0.00492   0.00000  -0.03522  -0.03744   1.89550
   A27        1.93284  -0.00800   0.00000  -0.04339  -0.04575   1.88710
   A28        1.84997   0.00628   0.00000   0.05293   0.05328   1.90325
   A29        1.84988   0.00603   0.00000   0.05082   0.05139   1.90128
   A30        2.09434  -0.00338   0.00000  -0.03470  -0.03954   2.05480
    D1       -1.91170   0.00603   0.00000   0.03766   0.03750  -1.87419
    D2        0.04835   0.01402   0.00000   0.09760   0.09591   0.14426
    D3        2.41149  -0.00307   0.00000  -0.02627  -0.02510   2.38638
    D4        0.13770   0.00155   0.00000   0.00797   0.00811   0.14581
    D5        2.09775   0.00954   0.00000   0.06791   0.06651   2.16427
    D6       -1.82230  -0.00755   0.00000  -0.05595  -0.05450  -1.87680
    D7        2.19104  -0.00609   0.00000  -0.03633  -0.03607   2.15497
    D8       -2.13209   0.00190   0.00000   0.02361   0.02233  -2.10976
    D9        0.23104  -0.01519   0.00000  -0.10025  -0.09868   0.13236
   D10        2.33061  -0.00564   0.00000  -0.03282  -0.03263   2.29799
   D11        0.37279  -0.01476   0.00000  -0.09666  -0.09519   0.27760
   D12       -1.99489   0.00205   0.00000   0.02557   0.02427  -1.97061
   D13        0.27314   0.00121   0.00000   0.00543   0.00561   0.27875
   D14       -1.68468  -0.00791   0.00000  -0.05841  -0.05695  -1.74163
   D15        2.23083   0.00890   0.00000   0.06382   0.06251   2.29334
   D16       -1.77472   0.00679   0.00000   0.04261   0.04242  -1.73230
   D17        2.55065  -0.00233   0.00000  -0.02123  -0.02015   2.53050
   D18        0.18297   0.01448   0.00000   0.10100   0.09932   0.28228
   D19       -0.52138  -0.00356   0.00000  -0.01754  -0.01779  -0.53917
   D20        1.49127   0.00115   0.00000   0.01075   0.01050   1.50177
   D21       -2.53406  -0.00615   0.00000  -0.04172  -0.04190  -2.57595
   D22       -2.54334  -0.00018   0.00000  -0.00370  -0.00365  -2.54699
   D23       -0.53070   0.00453   0.00000   0.02458   0.02465  -0.50605
   D24        1.72716  -0.00277   0.00000  -0.02788  -0.02775   1.69941
   D25        1.50051  -0.00357   0.00000  -0.02362  -0.02378   1.47672
   D26       -2.77003   0.00115   0.00000   0.00467   0.00451  -2.76552
   D27       -0.51218  -0.00616   0.00000  -0.04780  -0.04788  -0.56006
   D28        0.78769  -0.00158   0.00000  -0.00104  -0.00149   0.78621
   D29        2.79733   0.00330   0.00000   0.02904   0.02877   2.82609
   D30       -1.22199  -0.00480   0.00000  -0.02834  -0.02855  -1.25055
   D31       -1.22290  -0.00511   0.00000  -0.03010  -0.03031  -1.25321
   D32        0.78673  -0.00024   0.00000  -0.00002  -0.00006   0.78668
   D33        3.05060  -0.00834   0.00000  -0.05739  -0.05738   2.99322
   D34        2.79823   0.00325   0.00000   0.02912   0.02887   2.82710
   D35       -1.47532   0.00812   0.00000   0.05920   0.05912  -1.41620
   D36        0.78854   0.00002   0.00000   0.00183   0.00180   0.79034
   D37       -0.61578  -0.00327   0.00000  -0.01619  -0.01653  -0.63231
   D38        1.40409  -0.00316   0.00000  -0.02137  -0.02152   1.38256
   D39       -2.63551   0.00011   0.00000  -0.00123  -0.00125  -2.63676
   D40       -2.62813  -0.00605   0.00000  -0.04084  -0.04106  -2.66919
   D41       -0.60826  -0.00594   0.00000  -0.04602  -0.04605  -0.65431
   D42        1.63533  -0.00267   0.00000  -0.02589  -0.02578   1.60954
   D43        1.39650   0.00127   0.00000   0.01147   0.01118   1.40768
   D44       -2.86681   0.00138   0.00000   0.00630   0.00618  -2.86063
   D45       -0.62323   0.00465   0.00000   0.02643   0.02645  -0.59677
         Item               Value     Threshold  Converged?
 Maximum Force            0.099911     0.000450     NO 
 RMS     Force            0.016067     0.000300     NO 
 Maximum Displacement     0.127315     0.001800     NO 
 RMS     Displacement     0.044496     0.001200     NO 
 Predicted change in Energy=-3.373925D-02
 Lowest energy point so far.  Saving SCF results.
 GradGradGradGradGradGradGradGradGradGradGradGradGradGradGradGradGradGrad

 Leave Link  103 at Sun Oct 13 21:39:41 2019, MaxMem= 10737418240 cpu:               0.9 elap:               0.1
 (Enter /apps/cent7/gaussian/g16-A.03/g16-haswell/g16/l202.exe)
                          Input orientation:                          
 ---------------------------------------------------------------------
 Center     Atomic      Atomic             Coordinates (Angstroms)
 Number     Number       Type             X           Y           Z
 ---------------------------------------------------------------------
      1          8           0       -0.804628   -1.015015    1.465285
      2         16           0        0.250685   -0.495027    0.495862
      3          6           0        1.913917   -0.803410    1.152253
      4          6           0        2.420653    0.603219    1.585208
      5          6           0        1.779716    1.660754    0.648211
      6          6           0        0.272308    1.317848    0.501139
      7          8           0        0.151906   -1.007747   -0.936431
      8          1           0        1.815646   -1.428345    2.035228
      9          1           0        2.539636   -1.169598    0.342066
     10          1           0        2.069779    0.790818    2.599910
     11          1           0        3.498397    0.636896    1.439214
     12          1           0        1.863396    2.632835    1.130478
     13          1           0        2.242960    1.572780   -0.334760
     14          1           0       -0.259193    1.668637    1.382861
     15          1           0       -0.074678    1.662754   -0.468824
 ---------------------------------------------------------------------
                    Distance matrix (angstroms):
                    1          2          3          4          5
     1  O    0.000000
     2  S    1.524419   0.000000
     3  C    2.744677   1.814467   0.000000
     4  C    3.610471   2.664880   1.556547   0.000000
     5  C    3.808698   2.647365   2.518764   1.551498   0.000000
     6  C    2.744379   1.813012   2.760175   2.510237   1.552898
     7  O    2.585198   1.524500   2.740262   3.755142   3.504532
     8  H    2.713210   2.385337   1.086207   2.166981   3.386390
     9  H    3.531234   2.391233   1.087208   2.168511   2.946539
    10  H    3.579193   3.064233   2.159067   1.089920   2.156399
    11  H    4.609286   3.566343   2.160418   1.088108   2.151240
    12  H    4.531805   3.575906   3.436686   2.153289   1.088360
    13  H    4.384591   2.989134   2.822368   2.158218   1.090214
    14  H    2.739759   2.393363   3.299485   2.890957   2.167238
    15  H    3.382905   2.385896   3.558703   3.401227   2.164844
                    6          7          8          9         10
     6  C    0.000000
     7  O    2.736694   0.000000
     8  H    3.503840   3.431572   0.000000
     9  H    3.369491   2.713301   1.859545   0.000000
    10  H    2.813094   4.406674   2.303939   3.026856   0.000000
    11  H    3.428021   4.421260   2.729855   2.320857   1.847122
    12  H    2.157967   4.522737   4.161014   3.941750   2.365343
    13  H    2.155734   3.375446   3.847882   2.840203   3.041997
    14  H    1.087649   3.565269   3.784420   4.119742   2.770538
    15  H    1.086365   2.720583   4.404372   3.938832   3.843969
                   11         12         13         14         15
    11  H    0.000000
    12  H    2.598522   0.000000
    13  H    2.366217   1.847893   0.000000
    14  H    3.897069   2.344943   3.036475   0.000000
    15  H    4.178500   2.693503   2.323256   1.860865   0.000000
 Stoichiometry    C4H8O2S
 Framework group  C1[X(C4H8O2S)]
 Deg. of freedom    39
 Full point group                 C1      NOp   1
 RotChk:  IX=0 Diff= 2.71D-02
 Largest Abelian subgroup         C1      NOp   1
 Largest concise Abelian subgroup C1      NOp   1
                         Standard orientation:                         
 ---------------------------------------------------------------------
 Center     Atomic      Atomic             Coordinates (Angstroms)
 Number     Number       Type             X           Y           Z
 ---------------------------------------------------------------------
      1          8           0       -1.609938    0.335979   -1.208897
      2         16           0       -0.747181    0.000718    0.002343
      3          6           0        0.429738    1.343022    0.326955
      4          6           0        1.804273    0.761013   -0.114358
      5          6           0        1.782008   -0.772114    0.122649
      6          6           0        0.427991   -1.317836   -0.406801
      7          8           0       -1.499311   -0.353826    1.280115
      8          1           0        0.176248    2.175933   -0.322543
      9          1           0        0.452450    1.527315    1.398188
     10          1           0        1.918155    0.938104   -1.183749
     11          1           0        2.575418    1.186677    0.524488
     12          1           0        2.582715   -1.215574   -0.466196
     13          1           0        1.821488   -0.953012    1.197025
     14          1           0        0.481727   -1.411220   -1.489100
     15          1           0        0.156627   -2.201441    0.163981
 ---------------------------------------------------------------------
 Rotational constants (GHZ):           3.6097772           1.9618217           1.8289652
 Leave Link  202 at Sun Oct 13 21:39:41 2019, MaxMem= 10737418240 cpu:               0.3 elap:               0.0
 (Enter /apps/cent7/gaussian/g16-A.03/g16-haswell/g16/l301.exe)
 Standard basis: 6-311++G(d,p) (5D, 7F)
 Ernie: Thresh=  0.10000D-02 Tol=  0.10000D-05 Strict=F.
 There are   225 symmetry adapted cartesian basis functions of A   symmetry.
 There are   218 symmetry adapted basis functions of A   symmetry.
   218 basis functions,   338 primitive gaussians,   225 cartesian basis functions
    32 alpha electrons       32 beta electrons
       nuclear repulsion energy       421.7235635876 Hartrees.
 IExCor= 4336 DFT=T Ex+Corr=M062X ExCW=0 ScaHFX=  0.540000
 ScaDFX=  1.000000  1.000000  1.000000  1.000000 ScalE2=  1.000000  1.000000
 IRadAn=      5 IRanWt=     -1 IRanGd=            0 ICorTp=0 IEmpDi=  4
 NAtoms=   15 NActive=   15 NUniq=   15 SFac= 1.00D+00 NAtFMM=   60 NAOKFM=F Big=F
 Integral buffers will be    131072 words long.
 Raffenetti 2 integral format.
 Two-electron integral symmetry is turned on.
 Leave Link  301 at Sun Oct 13 21:39:41 2019, MaxMem= 10737418240 cpu:               1.3 elap:               0.1
 (Enter /apps/cent7/gaussian/g16-A.03/g16-haswell/g16/l302.exe)
 NPDir=0 NMtPBC=     1 NCelOv=     1 NCel=       1 NClECP=     1 NCelD=      1
         NCelK=      1 NCelE2=     1 NClLst=     1 CellRange=     0.0.
 One-electron integrals computed using PRISM.
 One-electron integral symmetry used in STVInt
 NBasis=   218 RedAO= T EigKep=  1.53D-05  NBF=   218
 NBsUse=   218 1.00D-06 EigRej= -1.00D+00 NBFU=   218
 Precomputing XC quadrature grid using
 IXCGrd= 4 IRadAn=           5 IRanWt=          -1 IRanGd=           0 AccXCQ= 0.00D+00.
 Generated NRdTot=       0 NPtTot=           0 NUsed=           0 NTot=          32
 NSgBfM=   225   225   225   225   225 MxSgAt=    15 MxSgA2=    15.
 Leave Link  302 at Sun Oct 13 21:39:41 2019, MaxMem= 10737418240 cpu:               3.5 elap:               0.2
 (Enter /apps/cent7/gaussian/g16-A.03/g16-haswell/g16/l303.exe)
 DipDrv:  MaxL=1.
 Leave Link  303 at Sun Oct 13 21:39:41 2019, MaxMem= 10737418240 cpu:               1.3 elap:               0.1
 (Enter /apps/cent7/gaussian/g16-A.03/g16-haswell/g16/l401.exe)
 Initial guess from the checkpoint file:  "23.chk"
 B after Tr=     0.000000    0.000000   -0.000000
         Rot=    0.999948   -0.010089   -0.001057   -0.000738 Ang=  -1.17 deg.
 Guess basis will be translated and rotated to current coordinates.
 JPrj=2 DoOrth=T DoCkMO=T.
 Generating alternative initial guess.
 ExpMin= 3.60D-02 ExpMax= 9.34D+04 ExpMxC= 3.17D+03 IAcc=3 IRadAn=         5 AccDes= 0.00D+00
 Harris functional with IExCor= 1009 and IRadAn=       5 diagonalized for initial guess.
 HarFok:  IExCor= 1009 AccDes= 0.00D+00 IRadAn=         5 IDoV= 1 UseB2=F ITyADJ=14
 ICtDFT=  3500011 ScaDFX=  1.000000  1.000000  1.000000  1.000000
 FoFCou: FMM=F IPFlag=           0 FMFlag=      100000 FMFlg1=           0
         NFxFlg=           0 DoJE=T BraDBF=F KetDBF=T FulRan=T
         wScrn=  0.000000 ICntrl=       500 IOpCl=  0 I1Cent=   200000004 NGrid=           0
         NMat0=    1 NMatS0=      1 NMatT0=    0 NMatD0=    1 NMtDS0=    0 NMtDT0=    0
 Petite list used in FoFCou.
 Harris En= -705.551096081683    
 Leave Link  401 at Sun Oct 13 21:39:42 2019, MaxMem= 10737418240 cpu:               9.8 elap:               0.4
 (Enter /apps/cent7/gaussian/g16-A.03/g16-haswell/g16/l502.exe)
 Integral symmetry usage will be decided dynamically.
 Closed shell SCF:
 Using DIIS extrapolation, IDIIS=  1040.
 NGot= 10737418240 LenX= 10737309296 LenY= 10737258230
 Requested convergence on RMS density matrix=1.00D-08 within 128 cycles.
 Requested convergence on MAX density matrix=1.00D-06.
 Requested convergence on             energy=1.00D-06.
 No special actions if energy rises.
 Fock matrices will be formed incrementally for  20 cycles.

 Cycle   1  Pass 1  IDiag  1:
 FoFJK:  IHMeth= 1 ICntrl=       0 DoSepK=F KAlg= 0 I1Cent=           0 FoldK=F
 IRaf= 990000000 NMat=       1 IRICut=       1 DoRegI=T DoRafI=F ISym2E= 0 IDoP0=0 IntGTp=1.
 FoFCou: FMM=F IPFlag=           0 FMFlag=      100000 FMFlg1=           0
         NFxFlg=           0 DoJE=F BraDBF=F KetDBF=F FulRan=T
         wScrn=  0.000000 ICntrl=         0 IOpCl=  0 I1Cent=           0 NGrid=           0
         NMat0=    1 NMatS0=      1 NMatT0=    0 NMatD0=    1 NMtDS0=    0 NMtDT0=    0
 Symmetry not used in FoFCou.
 E= -705.737096037846    
 DIIS: error= 5.81D-03 at cycle   1 NSaved=   1.
 NSaved= 1 IEnMin= 1 EnMin= -705.737096037846     IErMin= 1 ErrMin= 5.81D-03
 ErrMax= 5.81D-03  0.00D+00 EMaxC= 1.00D-01 BMatC= 8.65D-03 BMatP= 8.65D-03
 IDIUse=3 WtCom= 9.42D-01 WtEn= 5.81D-02
 Coeff-Com:  0.100D+01
 Coeff-En:   0.100D+01
 Coeff:      0.100D+01
 Gap=     0.512 Goal=   None    Shift=    0.000
 GapD=    0.512 DampG=2.000 DampE=1.000 DampFc=2.0000 IDamp=-1.
 RMSDP=4.27D-03 MaxDP=1.75D-01              OVMax= 3.41D-02

 Cycle   2  Pass 1  IDiag  1:
 RMSU=  3.48D-03    CP:  9.05D-01
 E= -705.747404842654     Delta-E=       -0.010308804808 Rises=F Damp=F
 DIIS: error= 4.39D-03 at cycle   2 NSaved=   2.
 NSaved= 2 IEnMin= 2 EnMin= -705.747404842654     IErMin= 2 ErrMin= 4.39D-03
 ErrMax= 4.39D-03  0.00D+00 EMaxC= 1.00D-01 BMatC= 1.69D-03 BMatP= 8.65D-03
 IDIUse=3 WtCom= 9.56D-01 WtEn= 4.39D-02
 Coeff-Com:  0.186D+00 0.814D+00
 Coeff-En:   0.000D+00 0.100D+01
 Coeff:      0.178D+00 0.822D+00
 Gap=     0.328 Goal=   None    Shift=    0.000
 RMSDP=1.27D-03 MaxDP=6.93D-02 DE=-1.03D-02 OVMax= 1.91D-02

 Cycle   3  Pass 1  IDiag  1:
 RMSU=  8.92D-04    CP:  9.40D-01  9.73D-01
 E= -705.747924699353     Delta-E=       -0.000519856699 Rises=F Damp=F
 DIIS: error= 3.79D-03 at cycle   3 NSaved=   3.
 NSaved= 3 IEnMin= 3 EnMin= -705.747924699353     IErMin= 3 ErrMin= 3.79D-03
 ErrMax= 3.79D-03  0.00D+00 EMaxC= 1.00D-01 BMatC= 1.37D-03 BMatP= 1.69D-03
 IDIUse=3 WtCom= 9.62D-01 WtEn= 3.79D-02
 Coeff-Com: -0.453D-01 0.480D+00 0.566D+00
 Coeff-En:   0.000D+00 0.377D+00 0.623D+00
 Coeff:     -0.435D-01 0.476D+00 0.568D+00
 Gap=     0.333 Goal=   None    Shift=    0.000
 RMSDP=8.25D-04 MaxDP=4.81D-02 DE=-5.20D-04 OVMax= 8.20D-03

 Cycle   4  Pass 1  IDiag  1:
 RMSU=  1.91D-04    CP:  9.16D-01  1.06D+00  5.66D-01
 E= -705.748919331900     Delta-E=       -0.000994632547 Rises=F Damp=F
 DIIS: error= 8.23D-04 at cycle   4 NSaved=   4.
 NSaved= 4 IEnMin= 4 EnMin= -705.748919331900     IErMin= 4 ErrMin= 8.23D-04
 ErrMax= 8.23D-04  0.00D+00 EMaxC= 1.00D-01 BMatC= 6.34D-05 BMatP= 1.37D-03
 IDIUse=3 WtCom= 9.92D-01 WtEn= 8.23D-03
 Coeff-Com: -0.349D-01 0.939D-01 0.227D+00 0.714D+00
 Coeff-En:   0.000D+00 0.000D+00 0.000D+00 0.100D+01
 Coeff:     -0.346D-01 0.931D-01 0.225D+00 0.716D+00
 Gap=     0.334 Goal=   None    Shift=    0.000
 RMSDP=2.43D-04 MaxDP=1.31D-02 DE=-9.95D-04 OVMax= 2.66D-03

 Cycle   5  Pass 1  IDiag  1:
 RMSU=  6.60D-05    CP:  9.23D-01  1.05D+00  7.23D-01  1.03D+00
 E= -705.748979512237     Delta-E=       -0.000060180338 Rises=F Damp=F
 DIIS: error= 1.89D-04 at cycle   5 NSaved=   5.
 NSaved= 5 IEnMin= 5 EnMin= -705.748979512237     IErMin= 5 ErrMin= 1.89D-04
 ErrMax= 1.89D-04  0.00D+00 EMaxC= 1.00D-01 BMatC= 4.98D-06 BMatP= 6.34D-05
 IDIUse=3 WtCom= 9.98D-01 WtEn= 1.89D-03
 Coeff-Com: -0.301D-02-0.301D-01-0.629D-02 0.226D+00 0.813D+00
 Coeff-En:   0.000D+00 0.000D+00 0.000D+00 0.000D+00 0.100D+01
 Coeff:     -0.300D-02-0.300D-01-0.628D-02 0.226D+00 0.814D+00
 Gap=     0.333 Goal=   None    Shift=    0.000
 RMSDP=4.07D-05 MaxDP=1.02D-03 DE=-6.02D-05 OVMax= 1.14D-03

 Cycle   6  Pass 1  IDiag  1:
 RMSU=  1.91D-05    CP:  9.23D-01  1.05D+00  7.44D-01  1.18D+00  1.01D+00
 E= -705.748986043894     Delta-E=       -0.000006531656 Rises=F Damp=F
 DIIS: error= 4.19D-05 at cycle   6 NSaved=   6.
 NSaved= 6 IEnMin= 6 EnMin= -705.748986043894     IErMin= 6 ErrMin= 4.19D-05
 ErrMax= 4.19D-05  0.00D+00 EMaxC= 1.00D-01 BMatC= 4.80D-07 BMatP= 4.98D-06
 IDIUse=1 WtCom= 1.00D+00 WtEn= 0.00D+00
 Coeff-Com:  0.215D-02-0.192D-01-0.278D-01 0.228D-02 0.245D+00 0.798D+00
 Coeff:      0.215D-02-0.192D-01-0.278D-01 0.228D-02 0.245D+00 0.798D+00
 Gap=     0.333 Goal=   None    Shift=    0.000
 RMSDP=1.79D-05 MaxDP=5.16D-04 DE=-6.53D-06 OVMax= 4.85D-04

 Cycle   7  Pass 1  IDiag  1:
 RMSU=  1.18D-05    CP:  9.23D-01  1.06D+00  7.52D-01  1.23D+00  1.11D+00
                    CP:  9.69D-01
 E= -705.748986561098     Delta-E=       -0.000000517204 Rises=F Damp=F
 DIIS: error= 3.90D-05 at cycle   7 NSaved=   7.
 NSaved= 7 IEnMin= 7 EnMin= -705.748986561098     IErMin= 7 ErrMin= 3.90D-05
 ErrMax= 3.90D-05  0.00D+00 EMaxC= 1.00D-01 BMatC= 2.14D-07 BMatP= 4.80D-07
 IDIUse=1 WtCom= 1.00D+00 WtEn= 0.00D+00
 Coeff-Com:  0.158D-02-0.882D-02-0.168D-01-0.215D-01 0.647D-01 0.480D+00
 Coeff-Com:  0.501D+00
 Coeff:      0.158D-02-0.882D-02-0.168D-01-0.215D-01 0.647D-01 0.480D+00
 Coeff:      0.501D+00
 Gap=     0.333 Goal=   None    Shift=    0.000
 RMSDP=6.99D-06 MaxDP=2.20D-04 DE=-5.17D-07 OVMax= 1.45D-04

 Cycle   8  Pass 1  IDiag  1:
 RMSU=  3.68D-06    CP:  9.23D-01  1.06D+00  7.54D-01  1.24D+00  1.12D+00
                    CP:  1.12D+00  6.68D-01
 E= -705.748986731408     Delta-E=       -0.000000170310 Rises=F Damp=F
 DIIS: error= 7.18D-06 at cycle   8 NSaved=   8.
 NSaved= 8 IEnMin= 8 EnMin= -705.748986731408     IErMin= 8 ErrMin= 7.18D-06
 ErrMax= 7.18D-06  0.00D+00 EMaxC= 1.00D-01 BMatC= 1.05D-08 BMatP= 2.14D-07
 IDIUse=1 WtCom= 1.00D+00 WtEn= 0.00D+00
 Coeff-Com:  0.180D-03 0.405D-03-0.108D-02-0.771D-02-0.221D-01 0.185D-01
 Coeff-Com:  0.178D+00 0.834D+00
 Coeff:      0.180D-03 0.405D-03-0.108D-02-0.771D-02-0.221D-01 0.185D-01
 Coeff:      0.178D+00 0.834D+00
 Gap=     0.333 Goal=   None    Shift=    0.000
 RMSDP=2.13D-06 MaxDP=6.59D-05 DE=-1.70D-07 OVMax= 5.61D-05

 Cycle   9  Pass 1  IDiag  1:
 RMSU=  7.72D-07    CP:  9.23D-01  1.06D+00  7.55D-01  1.24D+00  1.12D+00
                    CP:  1.13D+00  7.96D-01  1.02D+00
 E= -705.748986742876     Delta-E=       -0.000000011468 Rises=F Damp=F
 DIIS: error= 2.09D-06 at cycle   9 NSaved=   9.
 NSaved= 9 IEnMin= 9 EnMin= -705.748986742876     IErMin= 9 ErrMin= 2.09D-06
 ErrMax= 2.09D-06  0.00D+00 EMaxC= 1.00D-01 BMatC= 9.84D-10 BMatP= 1.05D-08
 IDIUse=1 WtCom= 1.00D+00 WtEn= 0.00D+00
 Coeff-Com: -0.645D-04 0.871D-03 0.973D-03-0.817D-03-0.136D-01-0.328D-01
 Coeff-Com:  0.263D-01 0.316D+00 0.703D+00
 Coeff:     -0.645D-04 0.871D-03 0.973D-03-0.817D-03-0.136D-01-0.328D-01
 Coeff:      0.263D-01 0.316D+00 0.703D+00
 Gap=     0.333 Goal=   None    Shift=    0.000
 RMSDP=4.86D-07 MaxDP=1.65D-05 DE=-1.15D-08 OVMax= 1.27D-05

 Cycle  10  Pass 1  IDiag  1:
 RMSU=  2.25D-07    CP:  9.23D-01  1.06D+00  7.55D-01  1.24D+00  1.12D+00
                    CP:  1.13D+00  7.98D-01  1.06D+00  1.10D+00
 E= -705.748986743986     Delta-E=       -0.000000001110 Rises=F Damp=F
 DIIS: error= 5.34D-07 at cycle  10 NSaved=  10.
 NSaved=10 IEnMin=10 EnMin= -705.748986743986     IErMin=10 ErrMin= 5.34D-07
 ErrMax= 5.34D-07  0.00D+00 EMaxC= 1.00D-01 BMatC= 6.65D-11 BMatP= 9.84D-10
 IDIUse=1 WtCom= 1.00D+00 WtEn= 0.00D+00
 Coeff-Com: -0.308D-04 0.208D-03 0.387D-03 0.527D-03-0.213D-02-0.110D-01
 Coeff-Com: -0.845D-02 0.142D-01 0.213D+00 0.793D+00
 Coeff:     -0.308D-04 0.208D-03 0.387D-03 0.527D-03-0.213D-02-0.110D-01
 Coeff:     -0.845D-02 0.142D-01 0.213D+00 0.793D+00
 Gap=     0.333 Goal=   None    Shift=    0.000
 RMSDP=3.31D-07 MaxDP=1.77D-05 DE=-1.11D-09 OVMax= 3.73D-06

 Cycle  11  Pass 1  IDiag  1:
 RMSU=  1.10D-07    CP:  9.23D-01  1.06D+00  7.55D-01  1.24D+00  1.12D+00
                    CP:  1.13D+00  8.00D-01  1.07D+00  1.12D+00  1.16D+00
 E= -705.748986744073     Delta-E=       -0.000000000087 Rises=F Damp=F
 DIIS: error= 1.10D-07 at cycle  11 NSaved=  11.
 NSaved=11 IEnMin=11 EnMin= -705.748986744073     IErMin=11 ErrMin= 1.10D-07
 ErrMax= 1.10D-07  0.00D+00 EMaxC= 1.00D-01 BMatC= 2.25D-12 BMatP= 6.65D-11
 IDIUse=1 WtCom= 1.00D+00 WtEn= 0.00D+00
 Coeff-Com:  0.212D-05-0.513D-04-0.444D-04 0.138D-03 0.736D-03 0.152D-02
 Coeff-Com: -0.294D-02-0.241D-01-0.278D-01 0.698D-01 0.983D+00
 Coeff:      0.212D-05-0.513D-04-0.444D-04 0.138D-03 0.736D-03 0.152D-02
 Coeff:     -0.294D-02-0.241D-01-0.278D-01 0.698D-01 0.983D+00
 Gap=     0.333 Goal=   None    Shift=    0.000
 RMSDP=7.50D-08 MaxDP=4.52D-06 DE=-8.69D-11 OVMax= 1.48D-06

 Cycle  12  Pass 1  IDiag  1:
 RMSU=  2.37D-08    CP:  9.23D-01  1.06D+00  7.55D-01  1.24D+00  1.12D+00
                    CP:  1.13D+00  8.00D-01  1.07D+00  1.15D+00  1.27D+00
                    CP:  1.16D+00
 E= -705.748986744083     Delta-E=       -0.000000000010 Rises=F Damp=F
 DIIS: error= 2.73D-08 at cycle  12 NSaved=  12.
 NSaved=12 IEnMin=12 EnMin= -705.748986744083     IErMin=12 ErrMin= 2.73D-08
 ErrMax= 2.73D-08  0.00D+00 EMaxC= 1.00D-01 BMatC= 1.77D-13 BMatP= 2.25D-12
 IDIUse=1 WtCom= 1.00D+00 WtEn= 0.00D+00
 Coeff-Com:  0.121D-05-0.148D-04-0.206D-04 0.184D-05 0.227D-03 0.622D-03
 Coeff-Com: -0.198D-03-0.422D-02-0.121D-01-0.200D-01 0.130D+00 0.905D+00
 Coeff:      0.121D-05-0.148D-04-0.206D-04 0.184D-05 0.227D-03 0.622D-03
 Coeff:     -0.198D-03-0.422D-02-0.121D-01-0.200D-01 0.130D+00 0.905D+00
 Gap=     0.333 Goal=   None    Shift=    0.000
 RMSDP=2.21D-08 MaxDP=1.28D-06 DE=-1.05D-11 OVMax= 3.49D-07

 Cycle  13  Pass 1  IDiag  1:
 RMSU=  4.42D-09    CP:  9.23D-01  1.06D+00  7.55D-01  1.24D+00  1.12D+00
                    CP:  1.13D+00  8.00D-01  1.07D+00  1.15D+00  1.29D+00
                    CP:  1.22D+00  1.26D+00
 E= -705.748986744082     Delta-E=        0.000000000002 Rises=F Damp=F
 DIIS: error= 1.68D-08 at cycle  13 NSaved=  13.
 NSaved=13 IEnMin=12 EnMin= -705.748986744083     IErMin=13 ErrMin= 1.68D-08
 ErrMax= 1.68D-08  0.00D+00 EMaxC= 1.00D-01 BMatC= 6.44D-14 BMatP= 1.77D-13
 IDIUse=1 WtCom= 1.00D+00 WtEn= 0.00D+00
 Coeff-Com:  0.353D-06 0.104D-05-0.293D-05-0.242D-04-0.498D-05 0.913D-04
 Coeff-Com:  0.403D-03 0.183D-02-0.185D-02-0.225D-01-0.104D+00 0.387D+00
 Coeff-Com:  0.739D+00
 Coeff:      0.353D-06 0.104D-05-0.293D-05-0.242D-04-0.498D-05 0.913D-04
 Coeff:      0.403D-03 0.183D-02-0.185D-02-0.225D-01-0.104D+00 0.387D+00
 Coeff:      0.739D+00
 Gap=     0.333 Goal=   None    Shift=    0.000
 RMSDP=9.85D-09 MaxDP=5.21D-07 DE= 1.59D-12 OVMax= 1.46D-07

 SCF Done:  E(RM062X) =  -705.748986744     A.U. after   13 cycles
            NFock= 13  Conv=0.98D-08     -V/T= 2.0027
 KE= 7.038373848360D+02 PE=-2.507926080274D+03 EE= 6.766161451064D+02
 Leave Link  502 at Sun Oct 13 21:39:50 2019, MaxMem= 10737418240 cpu:             195.9 elap:               8.2
 (Enter /apps/cent7/gaussian/g16-A.03/g16-haswell/g16/l701.exe)
 ... and contract with generalized density number  0.
 Compute integral first derivatives.
 Leave Link  701 at Sun Oct 13 21:39:50 2019, MaxMem= 10737418240 cpu:               3.2 elap:               0.2
 (Enter /apps/cent7/gaussian/g16-A.03/g16-haswell/g16/l702.exe)
 L702 exits ... SP integral derivatives will be done elsewhere.
 Leave Link  702 at Sun Oct 13 21:39:50 2019, MaxMem= 10737418240 cpu:               0.4 elap:               0.0
 (Enter /apps/cent7/gaussian/g16-A.03/g16-haswell/g16/l703.exe)
 Integral derivatives from FoFJK, PRISM(SPDF).
 Compute integral first derivatives, UseDBF=F ICtDFT=           0.
 Calling FoFJK, ICntrl=      2127 FMM=F ISym2X=0 I1Cent= 0 IOpClX= 0 NMat=1 NMatS=1 NMatT=0.
 FoFJK:  IHMeth= 1 ICntrl=    2127 DoSepK=F KAlg= 0 I1Cent=           0 FoldK=F
 IRaf=         0 NMat=       1 IRICut=       1 DoRegI=T DoRafI=F ISym2E= 0 IDoP0=0 IntGTp=1.
[...]
 --------------------------------------------------------------------------------
 GradGradGradGradGradGradGradGradGradGradGradGradGradGradGradGradGradGrad

 Leave Link  103 at Sun Oct 13 21:42:18 2019, MaxMem= 10737418240 cpu:               0.5 elap:               0.0
 (Enter /apps/cent7/gaussian/g16-A.03/g16-haswell/g16/l9999.exe)

 ----------------------------------------------------------------------

 Electric dipole moment (input orientation):
 (Debye = 10**-18 statcoulomb cm , SI units = C m)
                  (au)            (Debye)         (10**-30 SI)
   Tot        0.226037D+01      0.574528D+01      0.191642D+02
   x          0.165015D+01      0.419427D+01      0.139906D+02
   y          0.144600D+01      0.367537D+01      0.122597D+02
   z          0.543458D+00      0.138133D+01      0.460763D+01

 Dipole polarizability, Alpha (input orientation).
 (esu units = cm**3 , SI units = C**2 m**2 J**-1)
 Alpha(0;0):
               (au)            (10**-24 esu)      (10**-40 SI)
   iso        0.675335D+02      0.100074D+02      0.111348D+02
   aniso      0.931640D+01      0.138055D+01      0.153607D+01
   xx         0.692594D+02      0.102632D+02      0.114193D+02
   yx         0.397867D+01      0.589577D+00      0.655993D+00
   yy         0.687927D+02      0.101940D+02      0.113424D+02
   zx         0.245322D+01      0.363530D+00      0.404482D+00
   zy         0.588007D+00      0.871336D-01      0.969493D-01
   zz         0.645483D+02      0.956507D+01      0.106426D+02

 ----------------------------------------------------------------------

 Dipole orientation:
     8         -2.21781026         -2.52971323         -1.42925098
    16         -0.09906194         -1.42473397         -0.05958557
     6          1.08460595         -3.69140504          2.23868582
     6         -0.10052233         -2.87796455          4.74079859
     6         -0.09883517          0.02814763          4.74102523
     6         -1.28278892          0.84210737          2.23848301
     8          2.01955637         -0.31977615         -1.42944480
     1          0.53602998         -5.56193381          1.58351330
     1          3.13514745         -3.49108927          2.24115283
     1         -2.04252207         -3.57369138          4.85708356
     1          0.94567309         -3.64587167          6.34075286
     1         -1.14580877          0.79581099          6.34058580
     1          1.84311607          0.72380359          4.85836555
     1         -3.33338677          0.64244008          2.24017370
     1         -0.73341050          2.71255011          1.58371774

 Electric dipole moment (dipole orientation):
 (Debye = 10**-18 statcoulomb cm , SI units = C m)
                  (au)            (Debye)         (10**-30 SI)
   Tot        0.226037D+01      0.574528D+01      0.191642D+02
   x          0.000000D+00      0.000000D+00      0.000000D+00
   y          0.000000D+00      0.000000D+00      0.000000D+00
   z          0.226037D+01      0.574528D+01      0.191642D+02

 Dipole polarizability, Alpha (dipole orientation).
 (esu units = cm**3 , SI units = C**2 m**2 J**-1)
 Alpha(0;0):
               (au)            (10**-24 esu)      (10**-40 SI)
   iso        0.675335D+02      0.100074D+02      0.111348D+02
   aniso      0.931640D+01      0.138055D+01      0.153607D+01
   xx         0.632540D+02      0.937328D+01      0.104292D+02
   yx        -0.364717D+00     -0.540454D-01     -0.601337D-01
   yy         0.657920D+02      0.974936D+01      0.108476D+02
   zx        -0.146664D-02     -0.217333D-03     -0.241816D-03
   zy        -0.110559D-02     -0.163831D-03     -0.182287D-03
   zz         0.735544D+02      0.108996D+02      0.121275D+02

 ----------------------------------------------------------------------
 1\1\GINC-BROWN-A423\Freq\RM062X\6-311++G(d,p)\C4H8O2S1\FINEJ\13-Oct-20
 19\0\\#P Geom=AllCheck Guess=TCheck SCRF=Check GenChk RM062X/6-311++G(
 d,p) Freq\\Title Card Required\\0,1\O,-0.7175100184,-0.9389900181,1.53
 13090157\S,0.2309377964,-0.5056340701,0.5129958694\C,1.9276493581,-0.7
 671830638,1.1154545043\C,2.3745087881,0.6044006965,1.6162651402\C,1.79
 61097501,1.6346256398,0.6318518921\C,0.3098274461,1.3119609685,0.49529
 28388\O,0.1210205222,-0.9996561501,-0.8538083711\H,1.881648111,-1.5429
 548474,1.8772423369\H,2.5075763345,-1.1038547345,0.2557936531\H,1.9719
 200764,0.7839788037,2.6168118238\H,3.4613515854,0.6652932064,1.6756170
 037\H,1.9451136798,2.6569160381,0.9799561065\H,2.2889518034,1.53411996
 26,-0.3389280187\H,-0.2686395408,1.6502812907,1.3552849136\H,-0.149965
 6922,1.6440962776,-0.4334387084\\Version=ES64L-G16RevA.03\State=1-A\HF
 =-705.766956\RMSD=3.715e-09\RMSF=5.720e-06\ZeroPoint=0.1238376\Thermal
 =0.1238376\Dipole=1.6501529,1.4460003,0.5434584\DipoleDeriv=-1.0339872
 ,-0.2666513,0.2152599,-0.2214627,-0.7427027,0.0972294,0.4155509,0.2569
 383,-0.8341991,1.8014102,0.3166098,-0.0684322,0.3164444,1.6543401,0.10
 88963,-0.0680845,0.1084546,1.9746235,-0.1817284,0.0187356,-0.0494933,0
 .0209881,-0.1551448,0.003374,-0.0618172,0.0225356,-0.1151754,0.0027417
 ,-0.0170745,-0.0707881,0.0623581,0.0843045,0.0432281,0.0065053,0.03533
 94,0.0867748,0.1113698,0.0607581,-0.0095406,-0.0360323,-0.0171184,0.03
 31493,-0.0406288,-0.0116382,0.0796807,-0.1419572,-0.0009749,-0.0108577
 ,0.0075354,-0.2147515,0.0213163,-0.0272012,0.0349108,-0.0953791,-0.654
 5684,-0.0656962,-0.0703152,-0.1111734,-0.7613087,-0.2261598,-0.2696905
 ,-0.3869236,-1.195091,0.0515008,-0.0032645,-0.0145272,-0.0023848,0.009
 117,0.0275243,-0.0096027,0.0440897,0.0469716,-0.0084588,0.0125904,0.02
 30348,-0.0073241,0.0609749,-0.0151753,0.0094817,-0.0376371,0.0075245,0
 .0446015,0.0159394,0.0796784,0.0008866,0.016515,-0.0190956,0.0289798,-
 0.0209691,-0.0667362,-0.1022597,-0.0151709,-0.0457949,-0.0318093,0.048
 1948,-0.0135525,-0.0239157,-0.0017776,0.066032,0.0402259,-0.0474004,-0
 .0090325,-0.0353085,-0.0925877,-0.0236634,-0.0188884,-0.0491752,0.0643
 078,-0.0032724,0.0002526,0.0395861,0.0285282,0.0637441,-0.031321,0.055
 1685,0.0106265,-0.0661516,0.0378124,-0.0149499,0.0211437,-0.0010537,0.
 0067454,-0.0281244,0.0507074,-0.0239444,0.0155105,0.0365698,0.0062967,
 -0.0299214,0.009808,0.0396779,0.0223743,-0.0465646,0.0191702,0.0313072
 \Polar=69.2594104,3.9786661,68.7926817,2.4532216,0.588007,64.5482818\Q
 uadrupole=0.2345274,2.2052575,-2.4397848,-3.7873096,1.2318844,-1.49588
 71\PG=C01 [X(C4H8O2S1)]\NImag=0\\0.29649781,0.11547251,0.10650417,-0.2
 5368573,-0.11498748,0.32241192,-0.29785283,-0.09949421,0.21709231,0.61
 632566,-0.09459596,-0.13065507,0.10053651,0.09590300,0.52567122,0.2283
 0631,0.10895421,-0.31735046,-0.14547612,0.04616009,0.97147701,-0.00917
 128,0.00088872,-0.00270047,-0.12470583,0.01860619,-0.02499003,0.382812
 19,-0.00863228,0.01017411,0.00103293,0.02113352,-0.07234085,0.00762229
 ,-0.02336451,0.53461289,0.02586085,0.00321838,0.00306906,-0.02029183,0
 .00752759,-0.06581042,-0.09416512,-0.04539273,0.57573523,-0.00344298,0
 .00266004,0.00217616,-0.01633986,-0.02516826,-0.01510715,-0.08383337,-
 0.03142196,-0.00999672,0.61817405,0.00273904,-0.00186616,-0.00170818,-
 0.02207021,0.00492740,-0.00764581,-0.02533859,-0.16824737,-0.03780782,
 0.00728343,0.42577970,0.00110573,-0.00011970,-0.00073039,-0.00856358,-
 0.00669195,-0.00509511,-0.00595077,-0.04000764,-0.09428424,-0.02412774
 ,0.03204336,0.55686452,-0.00046193,0.00278674,-0.00307992,-0.00454724,
 -0.02622492,0.00028845,0.00316933,-0.00009800,0.00352923,-0.08869576,0
 .02927243,-0.02221583,0.46358032,-0.00048585,-0.00602215,0.00393403,-0
 .03064130,-0.01256846,-0.00039388,0.00519869,-0.03518859,0.02014391,0.
 02422846,-0.11968133,0.04325921,0.03098733,0.58610375,-0.00183864,0.00
 127467,-0.00001912,-0.00273813,-0.00535465,0.00061196,0.00423171,-0.00
 165718,0.00785207,-0.02023007,0.04666637,-0.12740116,-0.05833159,0.054
 56362,0.55112063,0.00591772,-0.01957058,0.00818628,-0.06539963,0.01025
 615,-0.00246133,0.00053346,0.01477187,-0.00318990,-0.02314871,0.006340
 58,-0.00867370,-0.18811581,-0.02642481,-0.00379009,0.50200645,0.000402
 46,0.00033774,-0.00391027,0.00653230,-0.13800466,0.00544927,0.00041379
 ,-0.00438982,0.00258715,0.01889748,0.00268703,0.00089955,-0.01902219,-
 0.07822395,-0.00389207,-0.06792527,0.36495723,0.01088977,0.01678532,-0
 .00063269,-0.00399703,0.00194106,-0.05945478,-0.00507051,0.00566279,0.
 00738430,-0.02727533,0.00112360,-0.00369789,-0.00324555,-0.00210547,-0
 .08000681,0.00199385,-0.01017799,0.62618087,0.01447240,0.00563630,0.02
 867418,-0.08734645,-0.01542887,-0.04618257,0.00372823,-0.00886886,-0.0
 1988749,-0.00352746,0.00249679,-0.00173177,-0.00192495,0.00312436,0.00
 065509,0.01067259,-0.00058072,-0.00251424,0.06100888,-0.00567472,0.018
 42197,0.01276996,-0.01059884,-0.14501816,-0.16303383,0.00236344,0.0131
 2649,-0.00232959,0.00091757,-0.00269740,0.00163358,0.00230817,-0.00300
 757,-0.00106774,-0.00098689,0.00035243,-0.02798331,0.02035271,0.120611
 27,-0.00679396,-0.01458239,-0.01275602,-0.03477503,-0.15483965,-0.5134
 9024,0.00607617,-0.00817919,-0.01122069,-0.00499935,0.00411883,-0.0002
 8254,0.00197069,-0.00220092,-0.00110967,0.00178325,0.00188885,-0.00694
 866,0.04369488,0.18222480,0.54378148,0.00238740,-0.00178170,0.00219599
 ,0.00165117,0.02208306,-0.01956062,-0.04335560,-0.00754842,0.01082191,
 0.00081598,-0.00684908,0.00940467,-0.00252447,-0.00188371,-0.00216372,
 -0.00380436,0.00164342,-0.00008880,-0.00297336,-0.00303337,-0.00290001
 ,0.04590086,-0.00073980,0.00099838,-0.00136827,0.00075498,-0.00384014,
 0.00246210,-0.00811596,-0.18694351,0.14211742,0.00196771,-0.01454701,0
 .01839097,-0.00130970,-0.00442605,-0.00241003,-0.00071546,-0.00087716,
 0.00038400,-0.00088430,-0.00035836,-0.00041562,0.00849360,0.20074948,0
 .00127450,-0.00123577,0.00106538,0.00260134,0.00592706,-0.00815935,0.0
 0959792,0.14531250,-0.19087619,0.00129887,-0.00991125,0.01131410,-0.00
 111258,-0.00305616,-0.00093203,-0.00089556,-0.00038819,0.00026370,-0.0
 0262537,-0.00089963,-0.00066401,-0.00943496,-0.15235415,0.20007821,-0.
 00761924,-0.00072841,-0.00041082,-0.01500788,0.00837303,0.02452348,-0.
 12470237,0.04684347,0.12093378,0.00777480,-0.00435741,-0.01193200,-0.0
 0019021,0.00042398,-0.00012539,-0.00170648,0.00010811,-0.00261220,0.00
 445511,-0.00094176,-0.00159767,0.00090802,-0.00058924,-0.00113273,0.13
 481581,-0.00111495,0.00071600,-0.00046670,0.00203611,-0.00311004,-0.00
 181493,0.04657974,-0.07302751,-0.06361310,0.01567775,-0.00822724,-0.02
 264425,0.00024328,0.00135696,-0.00106119,0.00035635,-0.00047323,0.0008
 2969,-0.00090877,0.00007083,-0.00025338,-0.01364173,0.00897116,0.01633
 204,-0.04739683,0.07733746,-0.00332645,-0.00128588,0.00157802,-0.00516
 647,0.00413016,0.00590556,0.12129048,-0.06292026,-0.22048585,0.0040562
 2,-0.00304973,-0.00854479,-0.00004520,0.00038604,0.00067050,-0.0007624
 2,-0.00020090,-0.00131601,-0.00035144,0.00026572,0.00011530,0.01171424
 ,-0.00796900,-0.01381674,-0.12688750,0.07222395,0.23419606,0.00017850,
 0.00007197,0.00043964,0.00087171,-0.00028880,-0.00083354,0.00319085,-0
 .00214882,-0.00973007,-0.08965321,0.01642497,0.09113630,0.00409842,-0.
 00247013,-0.01173682,0.00105310,-0.00024752,-0.00041033,-0.00008580,0.
 00034782,0.00023238,0.00053829,0.00058129,0.00030828,0.00015209,-0.001
 53747,-0.00081906,0.09023645,-0.00033547,0.00011749,0.00102914,0.00229
 239,-0.00097252,-0.00156971,0.01208216,-0.00842280,-0.02909497,0.01569
 279,-0.05334240,-0.03907542,-0.00947237,0.00297080,0.02399711,-0.00111
 821,0.00049322,-0.00082047,-0.00072761,0.00051293,-0.00007712,0.000910
 76,0.00127208,0.00037674,-0.00354936,-0.00470526,-0.00198904,-0.017518
 25,0.06405236,-0.00042158,-0.00001164,0.00068025,0.00151300,-0.0004485
 1,-0.00147368,0.00272824,-0.00240787,-0.00779339,0.08999316,-0.0406340
 2,-0.26927871,0.00787708,-0.00192242,-0.01950992,0.00042073,-0.0003905
 3,0.00072008,-0.00037809,0.00019313,0.00013190,-0.00032273,0.00020085,
 0.00091617,-0.00078269,-0.00100789,0.00079900,-0.09710494,0.04263538,0
 .29241803,-0.00009166,-0.00013628,-0.00012089,0.00159516,-0.00011672,0
 .00062869,-0.00620755,-0.00090154,-0.00029074,-0.32166081,-0.01512330,
 -0.01132537,-0.00874780,-0.00074090,0.00025956,0.00064712,0.00185034,-
 0.00192264,-0.00017051,-0.00019571,-0.00017105,-0.00030545,-0.00035361
 ,-0.00028930,0.00081958,0.00003308,-0.00011707,-0.01060297,-0.00050022
 ,-0.00053391,0.34448722,-0.00193878,0.00113291,0.00057389,0.00263329,-
 0.00760508,0.00038303,-0.03090567,-0.00266990,-0.00293769,-0.01542761,
 -0.04618497,-0.00113988,0.02325826,0.00229838,-0.00050355,0.00131541,-
 0.00281946,0.00402455,-0.00152158,0.00100850,-0.00190079,0.00000344,-0
 .00029858,0.00029250,0.00066771,0.00154303,0.00017244,0.00536885,-0.00
 000592,0.00062180,0.01631916,0.05170551,-0.00070060,-0.00006363,0.0006
 8401,-0.00073724,-0.00117317,-0.00137155,-0.01025863,-0.00051140,-0.00
 120882,-0.00826641,-0.00169583,-0.04762011,-0.02121567,-0.00196494,-0.
 00136738,-0.00086220,0.00298221,-0.00267867,-0.00047965,-0.00021530,-0
 .00071477,0.00010704,-0.00005492,-0.00004822,-0.00023641,0.00041577,0.
 00044409,0.02974530,0.00205045,0.00246991,0.01382338,0.00150141,0.0501
 3417,-0.00002349,-0.00227540,0.00150272,-0.00690234,0.00349199,-0.0014
 3576,-0.00035862,0.00199904,-0.00249026,0.00188503,0.01224674,0.006070
 30,-0.05079791,-0.03346761,-0.01087532,-0.00583096,-0.03118971,-0.0095
 7110,0.00109257,-0.00187817,-0.00108770,0.00062723,0.00071342,0.000249
 07,0.00000142,-0.00027529,-0.00002961,0.00045218,-0.00072303,0.0001169
 6,-0.00005643,-0.00021567,0.00053278,0.05639325,-0.00041790,0.00003880
 ,-0.00011241,0.00093483,0.00059744,0.00047067,0.00177915,-0.00151186,0
 .00397022,-0.00287283,-0.01738806,-0.00709872,-0.03433636,-0.28691236,
 -0.08525018,-0.00073980,-0.00306898,-0.00123783,-0.00032812,0.00010902
 ,-0.00008503,-0.00051566,-0.00081625,-0.00067018,0.00006548,0.00014290
 ,-0.00003713,-0.00044850,0.00071633,0.00004181,0.00031493,0.00021671,-
 0.00020660,0.03695645,0.30919632,0.00039191,-0.00018026,0.00010777,-0.
 00057905,0.00261184,-0.00107470,-0.00154475,0.00272322,-0.00298215,0.0
 0394147,0.02129375,0.00768726,-0.01081733,-0.08825089,-0.07775622,-0.0
 0079204,-0.00230947,-0.00118854,0.00016839,-0.00021863,0.00052229,0.00
 044055,0.00104360,0.00066259,-0.00000102,0.00035322,0.00012800,0.00060
 222,-0.00044854,0.00083073,0.00006499,-0.00079161,0.00050582,0.0127458
 8,0.09061236,0.08073914,0.00047488,-0.00087122,-0.00010163,-0.00155022
 ,0.00212058,0.00242473,0.00004262,-0.00099489,0.00028128,0.00662323,-0
 .00122384,-0.01451943,-0.10016713,0.01063251,0.10542308,-0.01818566,0.
 00383031,0.02865627,0.00050460,-0.00006269,-0.00120992,-0.00003996,-0.
 00012783,-0.00005483,0.00013087,-0.00005303,0.00030939,-0.00035873,0.0
 0267976,-0.00214770,0.00054072,-0.00071022,0.00006648,0.00210237,0.000
 09409,-0.00448609,0.11371304,0.00036316,-0.00002984,-0.00017305,-0.000
 49153,0.00055816,0.00106899,-0.00032973,0.00130526,0.00033889,-0.01017
 895,0.00150213,0.02059555,0.01108342,-0.05438873,-0.02504941,-0.003213
 50,-0.00016896,0.00568520,0.00019823,0.00021687,-0.00033555,0.00018563
 ,0.00007534,-0.00017381,0.00028158,-0.00042542,-0.00015935,0.00150113,
 -0.00277919,0.00288735,-0.00014585,0.00092489,-0.00075334,0.01410553,-
 0.00158784,-0.02680811,-0.01304742,0.05386567,0.00008681,0.00003669,0.
 00011391,0.00015909,-0.00014088,-0.00058110,-0.00000269,-0.00071699,0.
 00091829,0.00828585,-0.00188317,-0.02056955,0.10731053,-0.02434210,-0.
 25772576,-0.00290922,0.00080042,0.00532964,0.00004376,0.00025738,0.000
 25335,-0.00026917,0.00002170,0.00019442,0.00020858,0.00078123,0.000273
 78,-0.00207482,0.00334032,-0.00109681,-0.00021891,-0.00036447,0.000533
 80,0.00414892,-0.00068403,-0.00865287,-0.11339021,0.02306481,0.2791361
 5,-0.00005855,-0.00074569,0.00005735,-0.00020276,-0.00006411,-0.002353
 21,-0.00042598,0.00009101,-0.00029699,0.00108011,-0.00030860,0.0011850
 3,-0.01611667,0.00945200,0.02508118,-0.12167833,0.04896242,0.11451597,
 0.00000989,-0.00253378,-0.00098027,0.00008561,0.00015159,0.00009482,-0
 .00005506,-0.00011844,-0.00001739,-0.00010658,0.00040067,-0.00085195,0
 .00023038,-0.00015678,-0.00038693,0.00163228,-0.00007670,0.00002390,-0
 .00533651,-0.00085288,-0.00161271,0.13270316,-0.00097549,0.00365423,0.
 00247747,0.01677618,-0.00897235,-0.02478467,-0.00105972,-0.00271523,0.
 00202278,0.00033358,-0.00018260,-0.00024918,-0.00630888,0.00295511,0.0
 0945230,0.04932942,-0.07123665,-0.06927578,-0.00158639,-0.00713545,-0.
 00332216,0.00109876,0.00006442,0.00028916,-0.00020660,-0.00002001,-0.0
 0000894,0.00033501,0.00020137,0.00004807,0.00001598,0.00002727,0.00004
 479,0.00036146,0.00055520,0.00051730,-0.00296591,0.00062229,-0.0006195
 9,-0.04837228,0.07741690,-0.00066315,0.00136125,0.00104721,-0.00057329
 ,0.00110605,-0.00304040,0.00025325,0.00031556,-0.00035800,-0.00012408,
 -0.00029277,0.00093803,-0.00228568,0.00284851,0.00416662,0.11388694,-0
 .06965652,-0.22530917,0.00043287,-0.00079031,0.00180068,-0.00009348,-0
 .00001493,0.00000287,-0.00007279,-0.00002841,-0.00002581,0.00011095,-0
 .00022538,-0.00011582,0.00008780,-0.00007389,0.00001430,0.00042453,0.0
 0016697,0.00062047,-0.00130881,0.00005629,0.00096030,-0.12403095,0.075
 08897,0.23624066,-0.00120673,-0.00191277,-0.00022518,-0.00058864,0.001
 05365,0.00222868,-0.00071608,-0.00085964,-0.00108792,-0.00605102,-0.00
 153294,0.00013816,-0.00855819,0.01206698,-0.02382084,-0.09296049,0.036
 32478,-0.09934812,0.00008426,-0.00038378,0.00075759,0.00008864,0.00017
 331,0.00012054,0.00022353,0.00012021,0.00015227,0.00003569,-0.00011403
 ,-0.00010557,-0.00047700,0.00131021,-0.00113123,-0.00021657,-0.0004090
 5,-0.00015905,0.00150589,0.00054119,0.00023419,0.00823901,-0.00677512,
 0.01395590,0.10059770,-0.00406595,-0.00352260,0.00037243,0.01429948,-0
 .00866687,0.02667218,0.00120231,-0.00376130,-0.00075042,-0.00258919,-0
 .00253172,0.00020454,-0.00316720,0.00473419,-0.00970808,0.03832475,-0.
 06956478,0.07516463,-0.00097316,0.00378664,-0.00204069,0.00083501,-0.0
 0002381,0.00015915,0.00100622,-0.00014961,0.00044191,0.00002846,-0.000
 10849,0.00019449,-0.00031934,0.00072671,-0.00035550,0.00015026,-0.0002
 8736,-0.00014777,0.00069978,0.00030938,0.00044867,-0.00582842,0.004765
 52,-0.00986137,-0.03960299,0.07429410,-0.00048576,0.00083623,0.0007311
 2,0.00153203,-0.00129154,-0.00109273,0.00050521,-0.00087604,0.00006081
 ,0.00037511,-0.00061732,0.00070060,0.00137336,-0.00089852,0.00140629,-
 0.10193459,0.07631849,-0.25864537,0.00048145,-0.00080624,0.00058162,0.
 00014910,-0.00003373,-0.00000089,0.00012538,-0.00004605,0.00007889,0.0
 0013450,-0.00012848,0.00030224,0.00012547,0.00014228,0.00022343,-0.000
 30140,0.00012008,-0.00014961,0.00005739,-0.00024445,0.00091245,-0.0104
 2785,0.00831948,-0.01694195,0.10829059,-0.08079416,0.27183310\\-0.0000
 0804,0.00000256,0.00000427,0.00001289,-0.00000274,0.00000230,-0.000004
 16,0.00000993,-0.00000813,-0.00001186,0.00000540,-0.00000192,0.0000108
 1,-0.00001526,-0.00000429,-0.00000302,-0.00001486,0.00000863,-0.000003
 01,0.00000336,-0.00000425,0.00000145,0.00000037,-0.00000203,-0.0000005
 0,-0.00000020,-0.00000120,0.00000518,-0.00000078,-0.00000089,0.0000042
 5,0.00000155,0.00000216,-0.00000044,0.00000404,0.00000116,-0.00000178,
 0.00000400,0.00000476,-0.00000065,-0.00000086,-0.00000109,-0.00000113,
 0.00000349,0.00000052\\\@


 WE HAVE LEFT UNDONE THOSE THINGS WHICH WE OUGHT TO HAVE DONE,
 AND WE HAVE DONE THOSE THINGS WHICH WE OUGHT NOT TO HAVE DONE.
                   BOOK OF COMMON PRAYER                      
 Job cpu time:       0 days  0 hours 24 minutes 19.6 seconds.
 Elapsed time:       0 days  0 hours  1 minutes  1.5 seconds.
 File lengths (MBytes):  RWF=     79 Int=      0 D2E=      0 Chk=      5 Scr=      1
 Normal termination of Gaussian 16 at Sun Oct 13 21:42:18 2019.
real 169.43
user 3919.55
sys 15.99
Machine:
brown-a423
brown-a423
brown-a423
brown-a423
brown-a423
brown-a423
brown-a423
brown-a423
brown-a423
brown-a423
brown-a423
brown-a423
brown-a423
brown-a423
brown-a423
brown-a423
brown-a423
brown-a423
brown-a423
brown-a423
brown-a423
brown-a423
brown-a423
brown-a423
