Title Card Required                                                     
Freq      RM062X                                                      6-311++G(d,p)       
Number of atoms                            I               16
Info1-9                                    I   N=           9
          42          42        1002           0           0         100
           6          18        -502
Full Title                                 C   N=           2
Title Card Required     
Route                                      C   N=           6
#P opt freq m062x/6-311++g(d,p) geom=connectivity temperatur
e=0.001     
Charge                                     I                1
Multiplicity                               I                1
Number of electrons                        I               64
Number of alpha electrons                  I               32
Number of beta electrons                   I               32
Number of basis functions                  I              225
Number of independent functions            I              225
Number of point charges in /Mol/           I                0
Number of translation vectors              I                0
Atomic numbers                             I   N=          16
           8          16           6           6           6           6
           8           1           1           1           1           1
           1           1           1           1
Nuclear charges                            R   N=          16
  8.00000000E+00  1.60000000E+01  6.00000000E+00  6.00000000E+00  6.00000000E+00
  6.00000000E+00  8.00000000E+00  1.00000000E+00  1.00000000E+00  1.00000000E+00
  1.00000000E+00  1.00000000E+00  1.00000000E+00  1.00000000E+00  1.00000000E+00
  1.00000000E+00
Current cartesian coordinates              R   N=          48
 -3.15780837E+00  8.46889453E-01 -2.06552537E+00 -1.32324306E+00  8.79097100E-02
 -2.11223660E-01  9.14398787E-01  2.48283843E+00  7.69907794E-01  3.45808198E+00
  1.40463544E+00 -1.12209726E-01  3.33531625E+00 -1.48040628E+00  2.21758782E-01
  8.83049096E-01 -2.35870318E+00 -1.03570046E+00 -2.51520858E+00 -1.03394906E+00
  2.30949682E+00  3.21759706E-01  4.24322810E+00 -1.20883613E-01  7.65534233E-01
  2.60675009E+00  2.82330522E+00  3.77588010E+00  1.88435096E+00 -2.09410251E+00
  4.98125306E+00  2.23605202E+00  9.94220085E-01  4.94209817E+00 -2.41292330E+00
 -6.64713712E-01  3.32648564E+00 -1.98645784E+00  2.22300222E+00  9.64020253E-01
 -2.28892141E+00 -3.09996064E+00  1.03758838E-01 -4.15519641E+00 -3.99582084E-01
 -4.16984219E+00 -3.27147182E-01  2.70398364E+00
Number of symbols in /Mol/                 I                0
Force Field                                I                0
Atom Types                                 C   N=          16
                                                            
                                                            
                                                            
            
Int Atom Types                             I   N=          16
           0           0           0           0           0           0
           0           0           0           0           0           0
           0           0           0           0
MM charges                                 R   N=          16
  0.00000000E+00  0.00000000E+00  0.00000000E+00  0.00000000E+00  0.00000000E+00
  0.00000000E+00  0.00000000E+00  0.00000000E+00  0.00000000E+00  0.00000000E+00
  0.00000000E+00  0.00000000E+00  0.00000000E+00  0.00000000E+00  0.00000000E+00
  0.00000000E+00
Integer atomic weights                     I   N=          16
          16          32          12          12          12          12
          16           1           1           1           1           1
           1           1           1           1
Real atomic weights                        R   N=          16
  1.59949146E+01  3.19720718E+01  1.20000000E+01  1.20000000E+01  1.20000000E+01
  1.20000000E+01  1.59949146E+01  1.00782504E+00  1.00782504E+00  1.00782504E+00
  1.00782504E+00  1.00782504E+00  1.00782504E+00  1.00782504E+00  1.00782504E+00
  1.00782504E+00
Atom fragment info                         I   N=          16
           0           0           0           0           0           0
           0           0           0           0           0           0
           0           0           0           0
Atom residue num                           I   N=          16
           0           0           0           0           0           0
           0           0           0           0           0           0
           0           0           0           0
Nuclear spins                              I   N=          16
           0           0           0           0           0           0
           0           1           1           1           1           1
           1           1           1           1
Nuclear ZEff                               R   N=          16
 -5.60000000E+00 -1.36000000E+01 -3.60000000E+00 -3.60000000E+00 -3.60000000E+00
 -3.60000000E+00 -5.60000000E+00 -1.00000000E+00 -1.00000000E+00 -1.00000000E+00
 -1.00000000E+00 -1.00000000E+00 -1.00000000E+00 -1.00000000E+00 -1.00000000E+00
 -1.00000000E+00
Nuclear ZNuc                               R   N=          16
  8.00000000E+00  1.60000000E+01  6.00000000E+00  6.00000000E+00  6.00000000E+00
  6.00000000E+00  8.00000000E+00  1.00000000E+00  1.00000000E+00  1.00000000E+00
  1.00000000E+00  1.00000000E+00  1.00000000E+00  1.00000000E+00  1.00000000E+00
  1.00000000E+00
Nuclear QMom                               R   N=          16
  0.00000000E+00  0.00000000E+00  0.00000000E+00  0.00000000E+00  0.00000000E+00
  0.00000000E+00  0.00000000E+00  0.00000000E+00  0.00000000E+00  0.00000000E+00
  0.00000000E+00  0.00000000E+00  0.00000000E+00  0.00000000E+00  0.00000000E+00
  0.00000000E+00
Nuclear GFac                               R   N=          16
  0.00000000E+00  0.00000000E+00  0.00000000E+00  0.00000000E+00  0.00000000E+00
  0.00000000E+00  0.00000000E+00  2.79284600E+00  2.79284600E+00  2.79284600E+00
  2.79284600E+00  2.79284600E+00  2.79284600E+00  2.79284600E+00  2.79284600E+00
  2.79284600E+00
MicOpt                                     I   N=          16
          -1          -1          -1          -1          -1          -1
          -1          -1          -1          -1          -1          -1
          -1          -1          -1          -1
Number of residues                         I                0
Number of secondary structures             I                0
Redundant internal dimensions              I   N=           4
          95          16          31          48
Redundant internal coordinate indices      I   N=         380
           1           2           0           0           2           3
           0           0           2           6           0           0
           2           7           0           0           3           4
           0           0           3           8           0           0
           3           9           0           0           4           5
           0           0           4          10           0           0
           4          11           0           0           5           6
           0           0           5          12           0           0
           5          13           0           0           6          14
           0           0           6          15           0           0
           7          16           0           0           1           2
           3           0           1           2           6           0
           1           2           7           0           3           2
           6           0           3           2           7           0
           6           2           7           0           2           3
           4           0           2           3           8           0
           2           3           9           0           4           3
           8           0           4           3           9           0
           8           3           9           0           3           4
           5           0           3           4          10           0
           3           4          11           0           5           4
          10           0           5           4          11           0
          10           4          11           0           4           5
           6           0           4           5          12           0
           4           5          13           0           6           5
          12           0           6           5          13           0
          12           5          13           0           2           6
           5           0           2           6          14           0
           2           6          15           0           5           6
          14           0           5           6          15           0
          14           6          15           0           2           7
          16           0           1           2           3           4
           1           2           3           8           1           2
           3           9           6           2           3           4
           6           2           3           8           6           2
           3           9           7           2           3           4
           7           2           3           8           7           2
           3           9           1           2           6           5
           1           2           6          14           1           2
           6          15           3           2           6           5
           3           2           6          14           3           2
           6          15           7           2           6           5
           7           2           6          14           7           2
           6          15           1           2           7          16
           3           2           7          16           6           2
           7          16           2           3           4           5
           2           3           4          10           2           3
           4          11           8           3           4           5
           8           3           4          10           8           3
           4          11           9           3           4           5
           9           3           4          10           9           3
           4          11           3           4           5           6
           3           4           5          12           3           4
           5          13          10           4           5           6
          10           4           5          12          10           4
           5          13          11           4           5           6
          11           4           5          12          11           4
           5          13           4           5           6           2
           4           5           6          14           4           5
           6          15          12           5           6           2
          12           5           6          14          12           5
           6          15          13           5           6           2
          13           5           6          14          13           5
           6          15
Redundant internal coordinates             R   N=          95
  2.71663670E+00  3.42130729E+00  3.39608624E+00  3.00555829E+00  2.90016848E+00
  2.06002481E+00  2.06251200E+00  2.90690078E+00  2.06373972E+00  2.05803075E+00
  2.89244246E+00  2.05843863E+00  2.06425324E+00  2.06702587E+00  2.05896280E+00
  1.84201008E+00  2.02845129E+00  2.06494390E+00  1.99207599E+00  1.72037524E+00
  1.85475078E+00  1.76435295E+00  1.79894213E+00  1.86087412E+00  1.85495808E+00
  2.02472121E+00  1.96975230E+00  1.93735329E+00  1.87233635E+00  1.91850283E+00
  1.91285230E+00  1.92573928E+00  1.95027864E+00  1.88432478E+00  1.86212800E+00
  1.94676320E+00  1.93356967E+00  1.91453558E+00  1.92133340E+00  1.88576695E+00
  1.79927006E+00  1.81684714E+00  1.88356369E+00  1.97218316E+00  2.03926316E+00
  1.93137937E+00  1.97428978E+00 -2.03166423E+00  1.08495258E-01  2.17634415E+00
  1.93786135E-01  2.33394562E+00 -1.88139079E+00  2.01377204E+00 -2.12925378E+00
 -6.14048892E-02  2.48085047E+00  4.18525978E-01 -1.63425444E+00  2.80554443E-01
 -1.78177004E+00  2.44863485E+00 -1.61412313E+00  2.60673769E+00  5.53957271E-01
 -5.20364375E-01  1.73863864E+00 -2.75665287E+00 -6.20799627E-01  1.47342291E+00
 -2.74142469E+00 -2.64720311E+00 -5.52980578E-01  1.51535714E+00  1.37269401E+00
 -2.81626876E+00 -7.47931051E-01  8.78547289E-01  2.96904939E+00 -1.21271730E+00
 -1.21105473E+00  8.79447374E-01  2.98086600E+00  2.97550714E+00 -1.21717607E+00
  8.84242553E-01 -6.81230099E-01  1.26896323E+00 -2.74326437E+00 -2.79242511E+00
 -8.42231778E-01  1.42872593E+00  1.41791638E+00 -2.91507560E+00 -6.44117897E-01
ZRed-IntVec                                I   N=          95
           0           0           0           0           0           0
           0           0           0           0           0           0
           0           0           0           0           0           0
           0           0           0           0           0           0
           0           0           0           0           0           0
           0           0           0           0           0           0
           0           0           0           0           0           0
           0           0           0           0           0           0
           0           0           0           0           0           0
           0           0           0           0           0           0
           0           0           0           0           0           0
           0           0           0           0           0           0
           0           0           0           0           0           0
           0           0           0           0           0           0
           0           0           0           0           0           0
           0           0           0           0           0
ZRed-FPVec                                 R   N=          95
  0.00000000E+00  0.00000000E+00  0.00000000E+00  0.00000000E+00  0.00000000E+00
  0.00000000E+00  0.00000000E+00  0.00000000E+00  0.00000000E+00  0.00000000E+00
  0.00000000E+00  0.00000000E+00  0.00000000E+00  0.00000000E+00  0.00000000E+00
  0.00000000E+00  0.00000000E+00  0.00000000E+00  0.00000000E+00  0.00000000E+00
  0.00000000E+00  0.00000000E+00  0.00000000E+00  0.00000000E+00  0.00000000E+00
  0.00000000E+00  0.00000000E+00  0.00000000E+00  0.00000000E+00  0.00000000E+00
  0.00000000E+00  0.00000000E+00  0.00000000E+00  0.00000000E+00  0.00000000E+00
  0.00000000E+00  0.00000000E+00  0.00000000E+00  0.00000000E+00  0.00000000E+00
  0.00000000E+00  0.00000000E+00  0.00000000E+00  0.00000000E+00  0.00000000E+00
  0.00000000E+00  0.00000000E+00  0.00000000E+00  0.00000000E+00  0.00000000E+00
  0.00000000E+00  0.00000000E+00  0.00000000E+00  0.00000000E+00  0.00000000E+00
  0.00000000E+00  0.00000000E+00  0.00000000E+00  0.00000000E+00  0.00000000E+00
  0.00000000E+00  0.00000000E+00  0.00000000E+00  0.00000000E+00  0.00000000E+00
  0.00000000E+00  0.00000000E+00  0.00000000E+00  0.00000000E+00  0.00000000E+00
  0.00000000E+00  0.00000000E+00  0.00000000E+00  0.00000000E+00  0.00000000E+00
  0.00000000E+00  0.00000000E+00  0.00000000E+00  0.00000000E+00  0.00000000E+00
  0.00000000E+00  0.00000000E+00  0.00000000E+00  0.00000000E+00  0.00000000E+00
  0.00000000E+00  0.00000000E+00  0.00000000E+00  0.00000000E+00  0.00000000E+00
  0.00000000E+00  0.00000000E+00  0.00000000E+00  0.00000000E+00  0.00000000E+00
ZRed-Constraint1                           R   N=          95
  2.71663670E+00  3.42130729E+00  3.39608624E+00  3.00555829E+00  2.90016848E+00
  2.06002481E+00  2.06251200E+00  2.90690078E+00  2.06373972E+00  2.05803075E+00
  2.89244246E+00  2.05843863E+00  2.06425324E+00  2.06702587E+00  2.05896280E+00
  1.84201008E+00  2.02845129E+00  2.06494390E+00  1.99207599E+00  1.72037524E+00
  1.85475078E+00  1.76435295E+00  1.79894213E+00  1.86087412E+00  1.85495808E+00
  2.02472121E+00  1.96975230E+00  1.93735329E+00  1.87233635E+00  1.91850283E+00
  1.91285230E+00  1.92573928E+00  1.95027864E+00  1.88432478E+00  1.86212800E+00
  1.94676320E+00  1.93356967E+00  1.91453558E+00  1.92133340E+00  1.88576695E+00
  1.79927006E+00  1.81684714E+00  1.88356369E+00  1.97218316E+00  2.03926316E+00
  1.93137937E+00  1.97428978E+00 -2.03166423E+00  1.08495258E-01  2.17634415E+00
  1.93786135E-01  2.33394562E+00 -1.88139079E+00  2.01377204E+00 -2.12925378E+00
 -6.14048892E-02  2.48085047E+00  4.18525978E-01 -1.63425444E+00  2.80554443E-01
 -1.78177004E+00  2.44863485E+00 -1.61412313E+00  2.60673769E+00  5.53957271E-01
 -5.20364375E-01  1.73863864E+00 -2.75665287E+00 -6.20799627E-01  1.47342291E+00
 -2.74142469E+00 -2.64720311E+00 -5.52980578E-01  1.51535714E+00  1.37269401E+00
 -2.81626876E+00 -7.47931051E-01  8.78547289E-01  2.96904939E+00 -1.21271730E+00
 -1.21105473E+00  8.79447374E-01  2.98086600E+00  2.97550714E+00 -1.21717607E+00
  8.84242553E-01 -6.81230099E-01  1.26896323E+00 -2.74326437E+00 -2.79242511E+00
 -8.42231778E-01  1.42872593E+00  1.41791638E+00 -2.91507560E+00 -6.44117897E-01
ZRed-Constraint2                           R   N=          95
  3.02654866E+00  3.45255895E+00  3.45123861E+00  3.02650466E+00  2.92266439E+00
  2.05980395E+00  2.05982350E+00  2.93902517E+00  2.05977288E+00  2.05983429E+00
  2.91831001E+00  2.05986206E+00  2.05973054E+00  2.05983182E+00  2.05990263E+00
  1.81413707E+00  1.94227369E+00  1.93124216E+00  1.95113554E+00  1.76115981E+00
  1.93120810E+00  1.93868580E+00  1.78603343E+00  1.93033472E+00  1.93026579E+00
  1.84615464E+00  1.84613338E+00  2.09451190E+00  1.91275054E+00  1.86159144E+00
  1.86151466E+00  1.86481352E+00  1.86487765E+00  2.09434293E+00  1.90857350E+00
  1.86617603E+00  1.86607947E+00  1.86193824E+00  1.86203050E+00  2.09446824E+00
  1.77072712E+00  1.93294320E+00  1.93284402E+00  1.84997161E+00  1.84988457E+00
  2.09434046E+00  2.09439510E+00 -1.91169770E+00  4.83545890E-02  2.41148641E+00
  1.37701830E-01  2.09775412E+00 -1.82229937E+00  2.19104080E+00 -2.13209222E+00
  2.31039603E-01  2.33061227E+00  3.72790144E-01 -1.99488651E+00  2.73144353E-01
 -1.68467777E+00  2.23083088E+00 -1.77471742E+00  2.55064576E+00  1.82969108E-01
 -2.50615592E+00 -3.30744069E-01  1.61043087E+00 -5.21376390E-01  1.49127230E+00
 -2.53405921E+00 -2.54334433E+00 -5.30695634E-01  1.72715816E+00  1.50050720E+00
 -2.77002941E+00 -5.12175613E-01  7.87694423E-01  2.79732575E+00 -1.22199380E+00
 -1.22289835E+00  7.86732982E-01  3.05059873E+00  2.79823140E+00 -1.47532258E+00
  7.88543172E-01 -6.15780838E-01  1.40408897E+00 -2.63550977E+00 -2.62812900E+00
 -6.08259198E-01  1.63532738E+00  1.39650318E+00 -2.86681233E+00 -6.23225751E-01
SymInf integers                            I   N=          26
           1           1           1           1           1           0
           0           0           0           0           0           0
           0           0           0           0           0           0
           0           0           0           0           0           0
           0           0
RotTr to input orientation                 R   N=          12
  6.87169411E-01  6.51731997E-01  3.21004058E-01  4.27187159E-01 -7.19872849E-01
  5.47077886E-01  5.87630269E-01 -2.38806377E-01 -7.73086141E-01  1.64228209E+00
 -2.06856268E-02  1.14610249E+00
Number of contracted shells                I               94
Number of primitive shells                 I              165
Pure/Cartesian d shells                    I                0
Pure/Cartesian f shells                    I                0
Highest angular momentum                   I                2
Largest degree of contraction              I                6
Shell types                                I   N=          94
           0          -1          -1          -1          -1          -2
           0           0           0           0           0           0
          -1           1           1           1           1           1
          -2           0          -1          -1          -1          -1
          -2           0          -1          -1          -1          -1
          -2           0          -1          -1          -1          -1
          -2           0          -1          -1          -1          -1
          -2           0          -1          -1          -1          -1
          -2           0           0           0           0           1
           0           0           0           0           1           0
           0           0           0           1           0           0
           0           0           1           0           0           0
           0           1           0           0           0           0
           1           0           0           0           0           1
           0           0           0           0           1           0
           0           0           0           1
Number of primitives per shell             I   N=          94
           6           3           1           1           1           1
           6           3           1           1           1           1
           1           4           2           1           1           1
           1           6           3           1           1           1
           1           6           3           1           1           1
           1           6           3           1           1           1
           1           6           3           1           1           1
           1           6           3           1           1           1
           1           3           1           1           1           1
           3           1           1           1           1           3
           1           1           1           1           3           1
           1           1           1           3           1           1
           1           1           3           1           1           1
           1           3           1           1           1           1
           3           1           1           1           1           3
           1           1           1           1
Shell to atom map                          I   N=          94
           1           1           1           1           1           1
           2           2           2           2           2           2
           2           2           2           2           2           2
           2           3           3           3           3           3
           3           4           4           4           4           4
           4           5           5           5           5           5
           5           6           6           6           6           6
           6           7           7           7           7           7
           7           8           8           8           8           8
           9           9           9           9           9          10
          10          10          10          10          11          11
          11          11          11          12          12          12
          12          12          13          13          13          13
          13          14          14          14          14          14
          15          15          15          15          15          16
          16          16          16          16
Primitive exponents                        R   N=         165
  8.58850000E+03  1.29723000E+03  2.99296000E+02  8.73771000E+01  2.56789000E+01
  3.74004000E+00  4.21175000E+01  9.62837000E+00  2.85332000E+00  9.05661000E-01
  2.55611000E-01  8.45000000E-02  1.29200000E+00  9.34134000E+04  1.39617000E+04
  3.16991000E+03  9.02456000E+02  2.97158000E+02  1.08702000E+02  1.08702000E+02
  4.31553000E+01  1.81079000E+01  5.56009000E+00  2.13183000E+00  4.20403000E-01
  1.36045000E-01  4.05000000E-02  4.95040000E+02  1.17221000E+02  3.77749000E+01
  1.40584000E+01  5.56574000E+00  2.26297000E+00  8.07994000E-01  2.77460000E-01
  7.71410000E-02  6.50000000E-01  4.56324000E+03  6.82024000E+02  1.54973000E+02
  4.44553000E+01  1.30290000E+01  1.82773000E+00  2.09642000E+01  4.80331000E+00
  1.45933000E+00  4.83456000E-01  1.45585000E-01  4.38000000E-02  6.26000000E-01
  4.56324000E+03  6.82024000E+02  1.54973000E+02  4.44553000E+01  1.30290000E+01
  1.82773000E+00  2.09642000E+01  4.80331000E+00  1.45933000E+00  4.83456000E-01
  1.45585000E-01  4.38000000E-02  6.26000000E-01  4.56324000E+03  6.82024000E+02
  1.54973000E+02  4.44553000E+01  1.30290000E+01  1.82773000E+00  2.09642000E+01
  4.80331000E+00  1.45933000E+00  4.83456000E-01  1.45585000E-01  4.38000000E-02
  6.26000000E-01  4.56324000E+03  6.82024000E+02  1.54973000E+02  4.44553000E+01
  1.30290000E+01  1.82773000E+00  2.09642000E+01  4.80331000E+00  1.45933000E+00
  4.83456000E-01  1.45585000E-01  4.38000000E-02  6.26000000E-01  8.58850000E+03
  1.29723000E+03  2.99296000E+02  8.73771000E+01  2.56789000E+01  3.74004000E+00
  4.21175000E+01  9.62837000E+00  2.85332000E+00  9.05661000E-01  2.55611000E-01
  8.45000000E-02  1.29200000E+00  3.38650000E+01  5.09479000E+00  1.15879000E+00
  3.25840000E-01  1.02741000E-01  3.60000000E-02  7.50000000E-01  3.38650000E+01
  5.09479000E+00  1.15879000E+00  3.25840000E-01  1.02741000E-01  3.60000000E-02
  7.50000000E-01  3.38650000E+01  5.09479000E+00  1.15879000E+00  3.25840000E-01
  1.02741000E-01  3.60000000E-02  7.50000000E-01  3.38650000E+01  5.09479000E+00
  1.15879000E+00  3.25840000E-01  1.02741000E-01  3.60000000E-02  7.50000000E-01
  3.38650000E+01  5.09479000E+00  1.15879000E+00  3.25840000E-01  1.02741000E-01
  3.60000000E-02  7.50000000E-01  3.38650000E+01  5.09479000E+00  1.15879000E+00
  3.25840000E-01  1.02741000E-01  3.60000000E-02  7.50000000E-01  3.38650000E+01
  5.09479000E+00  1.15879000E+00  3.25840000E-01  1.02741000E-01  3.60000000E-02
  7.50000000E-01  3.38650000E+01  5.09479000E+00  1.15879000E+00  3.25840000E-01
  1.02741000E-01  3.60000000E-02  7.50000000E-01  3.38650000E+01  5.09479000E+00
  1.15879000E+00  3.25840000E-01  1.02741000E-01  3.60000000E-02  7.50000000E-01
Contraction coefficients                   R   N=         165
  1.89515008E-03  1.43859006E-02  7.07320031E-02  2.40001011E-01  5.94797026E-01
  2.80802012E-01  1.13889012E-01  9.20811101E-01 -3.27447036E-03  1.00000000E+00
  1.00000000E+00  1.00000000E+00  1.00000000E+00  7.42999957E-04  5.79299966E-03
  2.99539983E-02  1.19027993E-01  3.68431979E-01  5.77298966E-01  1.43186060E-01
  6.24465262E-01  2.83366119E-01  1.00000000E+00  1.00000000E+00  1.00000000E+00
  1.00000000E+00  1.00000000E+00  8.30900251E-03  6.40240194E-02  2.77614084E-01
  7.45076225E-01  6.13711672E-01  4.43817763E-01  1.00000000E+00  1.00000000E+00
  1.00000000E+00  1.00000000E+00  1.96665025E-03  1.52306019E-02  7.61269097E-02
  2.60801033E-01  6.16462078E-01  2.21006028E-01  1.14660081E-01  9.19999648E-01
 -3.03068213E-03  1.00000000E+00  1.00000000E+00  1.00000000E+00  1.00000000E+00
  1.96665025E-03  1.52306019E-02  7.61269097E-02  2.60801033E-01  6.16462078E-01
  2.21006028E-01  1.14660081E-01  9.19999648E-01 -3.03068213E-03  1.00000000E+00
  1.00000000E+00  1.00000000E+00  1.00000000E+00  1.96665025E-03  1.52306019E-02
  7.61269097E-02  2.60801033E-01  6.16462078E-01  2.21006028E-01  1.14660081E-01
  9.19999648E-01 -3.03068213E-03  1.00000000E+00  1.00000000E+00  1.00000000E+00
  1.00000000E+00  1.96665025E-03  1.52306019E-02  7.61269097E-02  2.60801033E-01
  6.16462078E-01  2.21006028E-01  1.14660081E-01  9.19999648E-01 -3.03068213E-03
  1.00000000E+00  1.00000000E+00  1.00000000E+00  1.00000000E+00  1.89515008E-03
  1.43859006E-02  7.07320031E-02  2.40001011E-01  5.94797026E-01  2.80802012E-01
  1.13889012E-01  9.20811101E-01 -3.27447036E-03  1.00000000E+00  1.00000000E+00
  1.00000000E+00  1.00000000E+00  2.54938145E-02  1.90373109E-01  8.52161486E-01
  1.00000000E+00  1.00000000E+00  1.00000000E+00  1.00000000E+00  2.54938145E-02
  1.90373109E-01  8.52161486E-01  1.00000000E+00  1.00000000E+00  1.00000000E+00
  1.00000000E+00  2.54938145E-02  1.90373109E-01  8.52161486E-01  1.00000000E+00
  1.00000000E+00  1.00000000E+00  1.00000000E+00  2.54938145E-02  1.90373109E-01
  8.52161486E-01  1.00000000E+00  1.00000000E+00  1.00000000E+00  1.00000000E+00
  2.54938145E-02  1.90373109E-01  8.52161486E-01  1.00000000E+00  1.00000000E+00
  1.00000000E+00  1.00000000E+00  2.54938145E-02  1.90373109E-01  8.52161486E-01
  1.00000000E+00  1.00000000E+00  1.00000000E+00  1.00000000E+00  2.54938145E-02
  1.90373109E-01  8.52161486E-01  1.00000000E+00  1.00000000E+00  1.00000000E+00
  1.00000000E+00  2.54938145E-02  1.90373109E-01  8.52161486E-01  1.00000000E+00
  1.00000000E+00  1.00000000E+00  1.00000000E+00  2.54938145E-02  1.90373109E-01
  8.52161486E-01  1.00000000E+00  1.00000000E+00  1.00000000E+00  1.00000000E+00
P(S=P) Contraction coefficients            R   N=         165
  0.00000000E+00  0.00000000E+00  0.00000000E+00  0.00000000E+00  0.00000000E+00
  0.00000000E+00  3.65113974E-02  2.37152983E-01  8.19701941E-01  1.00000000E+00
  1.00000000E+00  1.00000000E+00  0.00000000E+00  0.00000000E+00  0.00000000E+00
  0.00000000E+00  0.00000000E+00  0.00000000E+00  0.00000000E+00  0.00000000E+00
  0.00000000E+00  0.00000000E+00  0.00000000E+00  0.00000000E+00  0.00000000E+00
  0.00000000E+00  1.00000000E+00  0.00000000E+00  0.00000000E+00  0.00000000E+00
  0.00000000E+00  0.00000000E+00  0.00000000E+00  0.00000000E+00  0.00000000E+00
  0.00000000E+00  0.00000000E+00  0.00000000E+00  0.00000000E+00  0.00000000E+00
  0.00000000E+00  0.00000000E+00  0.00000000E+00  4.02486927E-02  2.37593957E-01
  8.15853851E-01  1.00000000E+00  1.00000000E+00  1.00000000E+00  0.00000000E+00