 Entering Gaussian System, Link 0=/apps/cent7/gaussian/g16-A.03/g16-haswell/g16/g16
 Initial command:
 /apps/cent7/gaussian/g16-A.03/g16-haswell/g16/l1.exe "/scratch/brown/finej/gaussian/Gau-448178.inp" -scrdir="/scratch/brown/finej/gaussian/"
 Entering Link 1 = /apps/cent7/gaussian/g16-A.03/g16-haswell/g16/l1.exe PID=    448179.
  
 Copyright (c) 1988,1990,1992,1993,1995,1998,2003,2009,2016,
            Gaussian, Inc.  All Rights Reserved.
  
 This is part of the Gaussian(R) 16 program.  It is based on
 the Gaussian(R) 09 system (copyright 2009, Gaussian, Inc.),
 the Gaussian(R) 03 system (copyright 2003, Gaussian, Inc.),
 the Gaussian(R) 98 system (copyright 1998, Gaussian, Inc.),
 the Gaussian(R) 94 system (copyright 1995, Gaussian, Inc.),
 the Gaussian 92(TM) system (copyright 1992, Gaussian, Inc.),
 the Gaussian 90(TM) system (copyright 1990, Gaussian, Inc.),
 the Gaussian 88(TM) system (copyright 1988, Gaussian, Inc.),
 the Gaussian 86(TM) system (copyright 1986, Carnegie Mellon
 University), and the Gaussian 82(TM) system (copyright 1983,
 Carnegie Mellon University). Gaussian is a federally registered
 trademark of Gaussian, Inc.
  
 This software contains proprietary and confidential information,
 including trade secrets, belonging to Gaussian, Inc.
  
 This software is provided under written license and may be
 used, copied, transmitted, or stored only in accord with that
 written license.
  
 The following legend is applicable only to US Government
 contracts under FAR:
  
                    RESTRICTED RIGHTS LEGEND
  
 Use, reproduction and disclosure by the US Government is
 subject to restrictions as set forth in subparagraphs (a)
 and (c) of the Commercial Computer Software - Restricted
 Rights clause in FAR 52.227-19.
  
 Gaussian, Inc.
 340 Quinnipiac St., Bldg. 40, Wallingford CT 06492
  
  
 ---------------------------------------------------------------
 Warning -- This program may not be used in any manner that
 competes with the business of Gaussian, Inc. or will provide
 assistance to any competitor of Gaussian, Inc.  The licensee
 of this program is prohibited from giving any competitor of
 Gaussian, Inc. access to this program.  By using this program,
 the user acknowledges that Gaussian, Inc. is engaged in the
 business of creating and licensing software in the field of
 computational chemistry and represents and warrants to the
 licensee that it is not a competitor of Gaussian, Inc. and that
 it will not use this program in any manner prohibited above.
 ---------------------------------------------------------------
  

 Cite this work as:
 Gaussian 16, Revision A.03,
 M. J. Frisch, G. W. Trucks, H. B. Schlegel, G. E. Scuseria, 
 M. A. Robb, J. R. Cheeseman, G. Scalmani, V. Barone, 
 G. A. Petersson, H. Nakatsuji, X. Li, M. Caricato, A. V. Marenich, 
 J. Bloino, B. G. Janesko, R. Gomperts, B. Mennucci, H. P. Hratchian, 
 J. V. Ortiz, A. F. Izmaylov, J. L. Sonnenberg, D. Williams-Young, 
 F. Ding, F. Lipparini, F. Egidi, J. Goings, B. Peng, A. Petrone, 
 T. Henderson, D. Ranasinghe, V. G. Zakrzewski, J. Gao, N. Rega, 
 G. Zheng, W. Liang, M. Hada, M. Ehara, K. Toyota, R. Fukuda, 
 J. Hasegawa, M. Ishida, T. Nakajima, Y. Honda, O. Kitao, H. Nakai, 
 T. Vreven, K. Throssell, J. A. Montgomery, Jr., J. E. Peralta, 
 F. Ogliaro, M. J. Bearpark, J. J. Heyd, E. N. Brothers, K. N. Kudin, 
 V. N. Staroverov, T. A. Keith, R. Kobayashi, J. Normand, 
 K. Raghavachari, A. P. Rendell, J. C. Burant, S. S. Iyengar, 
 J. Tomasi, M. Cossi, J. M. Millam, M. Klene, C. Adamo, R. Cammi, 
 J. W. Ochterski, R. L. Martin, K. Morokuma, O. Farkas, 
 J. B. Foresman, and D. J. Fox, Gaussian, Inc., Wallingford CT, 2016.
 
 ******************************************
 Gaussian 16:  ES64L-G16RevA.03 25-Dec-2016
                13-Oct-2019 
 ******************************************
 %chk=23_p.chk
 %nprocshared=24
 Will use up to   24 processors via shared memory.
 %mem=80GB
 -------------------------------------------------------------------
 #P opt freq m062x/6-311++g(d,p) geom=connectivity temperature=0.001
 -------------------------------------------------------------------
 1/18=20,19=15,26=3,38=1,57=2,112=-1000/1,3;
 2/9=110,12=2,17=6,18=5,40=1/2;
 3/5=4,6=6,7=1111,11=2,25=1,30=1,71=1,74=-55/1,2,3;
 4//1;
 5/5=2,38=5/2;
 6/7=2,8=2,9=2,10=2,28=1/1;
 7//1,2,3,16;
 1/18=20,19=15,26=3/3(2);
 2/9=110/2;
 99//99;
 2/9=110/2;
 3/5=4,6=6,7=1111,11=2,25=1,30=1,71=1,74=-55/1,2,3;
 4/5=5,16=3,69=1/1;
 5/5=2,38=5/2;
 7//1,2,3,16;
 1/18=20,19=15,26=3/3(-5);
 2/9=110/2;
 6/7=2,8=2,9=2,10=2,19=2,28=1/1;
 99/9=1/99;
 Leave Link    1 at Sun Oct 13 21:39:36 2019, MaxMem= 10737418240 cpu:               0.9 elap:               0.0
 (Enter /apps/cent7/gaussian/g16-A.03/g16-haswell/g16/l101.exe)
 -------------------
 Title Card Required
 -------------------
 Symbolic Z-matrix:
 Charge =  1 Multiplicity = 1
 O                    -0.872    -1.0507    1.4734 
 S                     0.2655   -0.483     0.4993 
 C                     1.9346   -0.821     1.161 
 C                     2.4174    0.5887    1.5753 
 C                     1.7624    1.6562    0.6532 
 C                     0.2583    1.3433    0.4962 
 O                     0.1191   -1.0621   -0.9867 
 H                     1.8717   -1.3961    2.0848 
 H                     2.6054   -1.1416    0.3639 
 H                     2.0385    0.7655    2.5819 
 H                     3.4899    0.6206    1.3833 
 H                     1.8306    2.6109    1.1748 
 H                     2.2107    1.541    -0.3336 
 H                    -0.2241    1.7291    1.3943 
 H                    -0.0275    1.7266   -0.4834 
 H                     0.90313  -1.26326  -1.50288 
 
 ITRead=  0  0  0  0  0  0  0  0  0  0  0  0  0  0  0  0
 MicOpt= -1 -1 -1 -1 -1 -1 -1 -1 -1 -1 -1 -1 -1 -1 -1 -1
 NAtoms=     16 NQM=       16 NQMF=       0 NMMI=      0 NMMIF=      0
                NMic=       0 NMicF=      0.
                    Isotopes and Nuclear Properties:
 (Nuclear quadrupole moments (NQMom) in fm**2, nuclear magnetic moments (NMagM)
  in nuclear magnetons)

  Atom         1           2           3           4           5           6           7           8           9          10
 IAtWgt=          16          32          12          12          12          12          16           1           1           1
 AtmWgt=  15.9949146  31.9720718  12.0000000  12.0000000  12.0000000  12.0000000  15.9949146   1.0078250   1.0078250   1.0078250
 NucSpn=           0           0           0           0           0           0           0           1           1           1
 AtZEff=  -0.0000000  -0.0000000  -0.0000000  -0.0000000  -0.0000000  -0.0000000  -0.0000000  -0.0000000  -0.0000000  -0.0000000
 NQMom=    0.0000000   0.0000000   0.0000000   0.0000000   0.0000000   0.0000000   0.0000000   0.0000000   0.0000000   0.0000000
 NMagM=    0.0000000   0.0000000   0.0000000   0.0000000   0.0000000   0.0000000   0.0000000   2.7928460   2.7928460   2.7928460
 AtZNuc=   8.0000000  16.0000000   6.0000000   6.0000000   6.0000000   6.0000000   8.0000000   1.0000000   1.0000000   1.0000000

  Atom        11          12          13          14          15          16
 IAtWgt=           1           1           1           1           1           1
 AtmWgt=   1.0078250   1.0078250   1.0078250   1.0078250   1.0078250   1.0078250
 NucSpn=           1           1           1           1           1           1
 AtZEff=  -0.0000000  -0.0000000  -0.0000000  -0.0000000  -0.0000000  -0.0000000
 NQMom=    0.0000000   0.0000000   0.0000000   0.0000000   0.0000000   0.0000000
 NMagM=    2.7928460   2.7928460   2.7928460   2.7928460   2.7928460   2.7928460
 AtZNuc=   1.0000000   1.0000000   1.0000000   1.0000000   1.0000000   1.0000000
 Leave Link  101 at Sun Oct 13 21:39:36 2019, MaxMem= 10737418240 cpu:               8.2 elap:               0.4
 (Enter /apps/cent7/gaussian/g16-A.03/g16-haswell/g16/l103.exe)

 GradGradGradGradGradGradGradGradGradGradGradGradGradGradGradGradGradGrad
 Berny optimization.
 Initialization pass.
                           ----------------------------
                           !    Initial Parameters    !
                           ! (Angstroms and Degrees)  !
 --------------------------                            --------------------------
 ! Name  Definition              Value          Derivative Info.                !
 --------------------------------------------------------------------------------
 ! R1    R(1,2)                  1.6016         estimate D2E/DX2                !
 ! R2    R(2,3)                  1.827          estimate D2E/DX2                !
 ! R3    R(2,6)                  1.8263         estimate D2E/DX2                !
 ! R4    R(2,7)                  1.6016         estimate D2E/DX2                !
 ! R5    R(3,4)                  1.5466         estimate D2E/DX2                !
 ! R6    R(3,8)                  1.09           estimate D2E/DX2                !
 ! R7    R(3,9)                  1.09           estimate D2E/DX2                !
 ! R8    R(4,5)                  1.5553         estimate D2E/DX2                !
 ! R9    R(4,10)                 1.09           estimate D2E/DX2                !
 ! R10   R(4,11)                 1.09           estimate D2E/DX2                !
 ! R11   R(5,6)                  1.5443         estimate D2E/DX2                !
 ! R12   R(5,12)                 1.09           estimate D2E/DX2                !
 ! R13   R(5,13)                 1.09           estimate D2E/DX2                !
 ! R14   R(6,14)                 1.09           estimate D2E/DX2                !
 ! R15   R(6,15)                 1.0901         estimate D2E/DX2                !
 ! R16   R(7,16)                 0.96           estimate D2E/DX2                !
 ! A1    A(1,2,3)              111.2841         estimate D2E/DX2                !
 ! A2    A(1,2,6)              110.652          estimate D2E/DX2                !
 ! A3    A(1,2,7)              111.7918         estimate D2E/DX2                !
 ! A4    A(3,2,6)              100.907          estimate D2E/DX2                !
 ! A5    A(3,2,7)              110.6501         estimate D2E/DX2                !
 ! A6    A(6,2,7)              111.0785         estimate D2E/DX2                !
 ! A7    A(2,3,4)              102.3322         estimate D2E/DX2                !
 ! A8    A(2,3,8)              110.6            estimate D2E/DX2                !
 ! A9    A(2,3,9)              110.5961         estimate D2E/DX2                !
 ! A10   A(4,3,8)              105.7769         estimate D2E/DX2                !
 ! A11   A(4,3,9)              105.7757         estimate D2E/DX2                !
 ! A12   A(8,3,9)              120.0067         estimate D2E/DX2                !
 ! A13   A(3,4,5)              109.5925         estimate D2E/DX2                !
 ! A14   A(3,4,10)             106.6613         estimate D2E/DX2                !
 ! A15   A(3,4,11)             106.6569         estimate D2E/DX2                !
 ! A16   A(5,4,10)             106.8459         estimate D2E/DX2                !
 ! A17   A(5,4,11)             106.8496         estimate D2E/DX2                !
 ! A18   A(10,4,11)            119.997          estimate D2E/DX2                !
 ! A19   A(4,5,6)              109.3532         estimate D2E/DX2                !
 ! A20   A(4,5,12)             106.924          estimate D2E/DX2                !
 ! A21   A(4,5,13)             106.9185         estimate D2E/DX2                !
 ! A22   A(6,5,12)             106.6812         estimate D2E/DX2                !
 ! A23   A(6,5,13)             106.6865         estimate D2E/DX2                !
 ! A24   A(12,5,13)            120.0042         estimate D2E/DX2                !
 ! A25   A(2,6,5)              101.4552         estimate D2E/DX2                !
 ! A26   A(2,6,14)             110.7495         estimate D2E/DX2                !
 ! A27   A(2,6,15)             110.7438         estimate D2E/DX2                !
 ! A28   A(5,6,14)             105.9956         estimate D2E/DX2                !
 ! A29   A(5,6,15)             105.9906         estimate D2E/DX2                !
 ! A30   A(14,6,15)            119.9969         estimate D2E/DX2                !
 ! A31   A(2,7,16)             120.0            estimate D2E/DX2                !
 ! D1    D(1,2,3,4)           -109.5322         estimate D2E/DX2                !
 ! D2    D(1,2,3,8)              2.7705         estimate D2E/DX2                !
 ! D3    D(1,2,3,9)            138.168          estimate D2E/DX2                !
 ! D4    D(6,2,3,4)              7.8897         estimate D2E/DX2                !
 ! D5    D(6,2,3,8)            120.1925         estimate D2E/DX2                !
 ! D6    D(6,2,3,9)           -104.4101         estimate D2E/DX2                !
 ! D7    D(7,2,3,4)            125.5374         estimate D2E/DX2                !
 ! D8    D(7,2,3,8)           -122.1599         estimate D2E/DX2                !
 ! D9    D(7,2,3,9)             13.2376         estimate D2E/DX2                !
 ! D10   D(1,2,6,5)            133.5342         estimate D2E/DX2                !
 ! D11   D(1,2,6,14)            21.3593         estimate D2E/DX2                !
 ! D12   D(1,2,6,15)          -114.2986         estimate D2E/DX2                !
 ! D13   D(3,2,6,5)             15.65           estimate D2E/DX2                !
 ! D14   D(3,2,6,14)           -96.5249         estimate D2E/DX2                !
 ! D15   D(3,2,6,15)           127.8172         estimate D2E/DX2                !
 ! D16   D(7,2,6,5)           -101.6838         estimate D2E/DX2                !
 ! D17   D(7,2,6,14)           146.1412         estimate D2E/DX2                !
 ! D18   D(7,2,6,15)            10.4834         estimate D2E/DX2                !
 ! D19   D(1,2,7,16)          -143.5922         estimate D2E/DX2                !
 ! D20   D(3,2,7,16)           -18.9502         estimate D2E/DX2                !
 ! D21   D(6,2,7,16)            92.2709         estimate D2E/DX2                !
 ! D22   D(2,3,4,5)            -29.8727         estimate D2E/DX2                !
 ! D23   D(2,3,4,10)            85.4436         estimate D2E/DX2                !
 ! D24   D(2,3,4,11)          -145.1909         estimate D2E/DX2                !
 ! D25   D(8,3,4,5)           -145.7229         estimate D2E/DX2                !
 ! D26   D(8,3,4,10)           -30.4066         estimate D2E/DX2                !
 ! D27   D(8,3,4,11)            98.9589         estimate D2E/DX2                !
 ! D28   D(9,3,4,5)             85.9727         estimate D2E/DX2                !
 ! D29   D(9,3,4,10)          -158.711          estimate D2E/DX2                !
 ! D30   D(9,3,4,11)           -29.3455         estimate D2E/DX2                !
 ! D31   D(3,4,5,6)             45.1316         estimate D2E/DX2                !
 ! D32   D(3,4,5,12)           160.275          estimate D2E/DX2                !
 ! D33   D(3,4,5,13)           -70.0151         estimate D2E/DX2                !
 ! D34   D(10,4,5,6)           -70.0669         estimate D2E/DX2                !
 ! D35   D(10,4,5,12)           45.0765         estimate D2E/DX2                !
 ! D36   D(10,4,5,13)          174.7864         estimate D2E/DX2                !
 ! D37   D(11,4,5,6)           160.3268         estimate D2E/DX2                !
 ! D38   D(11,4,5,12)          -84.5298         estimate D2E/DX2                !
 ! D39   D(11,4,5,13)           45.1802         estimate D2E/DX2                !
 ! D40   D(4,5,6,2)            -35.2816         estimate D2E/DX2                !
 ! D41   D(4,5,6,14)            80.4484         estimate D2E/DX2                !
 ! D42   D(4,5,6,15)          -151.0036         estimate D2E/DX2                !
 ! D43   D(12,5,6,2)          -150.5807         estimate D2E/DX2                !
 ! D44   D(12,5,6,14)          -34.8507         estimate D2E/DX2                !
 ! D45   D(12,5,6,15)           93.6974         estimate D2E/DX2                !
 ! D46   D(13,5,6,2)            80.0137         estimate D2E/DX2                !
 ! D47   D(13,5,6,14)         -164.2562         estimate D2E/DX2                !
 ! D48   D(13,5,6,15)          -35.7082         estimate D2E/DX2                !
 --------------------------------------------------------------------------------
 Trust Radius=3.00D-01 FncErr=1.00D-07 GrdErr=1.00D-06 EigMax=2.50D+02 EigMin=1.00D-04
 Number of steps in this run=    100 maximum allowed number of steps=    100.
 GradGradGradGradGradGradGradGradGradGradGradGradGradGradGradGradGradGrad

 Leave Link  103 at Sun Oct 13 21:39:36 2019, MaxMem= 10737418240 cpu:               0.2 elap:               0.0
 (Enter /apps/cent7/gaussian/g16-A.03/g16-haswell/g16/l202.exe)
                          Input orientation:                          
 ---------------------------------------------------------------------
 Center     Atomic      Atomic             Coordinates (Angstroms)
 Number     Number       Type             X           Y           Z
 ---------------------------------------------------------------------
      1          8           0       -0.872000   -1.050700    1.473400
      2         16           0        0.265500   -0.483000    0.499300
      3          6           0        1.934600   -0.821000    1.161000
      4          6           0        2.417400    0.588700    1.575300
      5          6           0        1.762400    1.656200    0.653200
      6          6           0        0.258300    1.343300    0.496200
      7          8           0        0.119100   -1.062100   -0.986700
      8          1           0        1.871700   -1.396100    2.084800
      9          1           0        2.605400   -1.141600    0.363900
     10          1           0        2.038500    0.765500    2.581900
     11          1           0        3.489900    0.620600    1.383300
     12          1           0        1.830600    2.610900    1.174800
     13          1           0        2.210700    1.541000   -0.333600
     14          1           0       -0.224100    1.729100    1.394300
     15          1           0       -0.027500    1.726600   -0.483400
     16          1           0        0.903126   -1.263256   -1.502877
 ---------------------------------------------------------------------
                    Distance matrix (angstroms):
                    1          2          3          4          5
     1  O    0.000000
     2  S    1.601581   0.000000
     3  C    2.833260   1.827016   0.000000
     4  C    3.676706   2.633817   1.546607   0.000000
     5  C    3.865242   2.615449   2.534568   1.555265   0.000000
     6  C    2.822009   1.826317   2.817115   2.528951   1.544303
     7  O    2.652263   1.601557   2.822549   3.817220   3.574753
     8  H    2.832137   2.434634   1.090001   2.120568   3.373123
     9  H    3.651241   2.434588   1.090012   2.120559   2.936329
    10  H    3.605325   3.006577   2.132307   1.089985   2.142303
    11  H    4.671995   3.520816   2.132272   1.090017   2.142375
    12  H    4.560759   3.532429   3.433503   2.143368   1.090032
    13  H    4.414204   2.928157   2.808755   2.143245   1.089962
    14  H    2.855402   2.436005   3.349242   2.882845   2.121491
    15  H    3.500806   2.435956   3.611669   3.392727   2.121452
    16  H    3.471956   2.241446   2.890635   3.898454   3.729644
                    6          7          8          9         10
     6  C    0.000000
     7  O    2.829190   0.000000
     8  H    3.554015   3.552080   0.000000
     9  H    3.420688   2.830570   1.888010   0.000000
    10  H    2.802340   4.445124   2.224285   2.979586   0.000000
    11  H    3.428189   4.450918   2.679133   2.219654   1.887909
    12  H    2.130595   4.592629   4.109238   3.916520   2.329947
    13  H    2.130615   3.402567   3.819704   2.799757   3.021786
    14  H    1.090016   3.684799   3.825708   4.160374   2.730985
    15  H    1.090054   2.837543   4.466975   3.984552   3.819441
    16  H    3.347573   0.960000   3.718496   2.529307   4.700035
                   11         12         13         14         15
    11  H    0.000000
    12  H    2.599624   0.000000
    13  H    2.330501   1.887970   0.000000
    14  H    3.875911   2.246674   2.991533   0.000000
    15  H    4.132784   2.642754   2.250872   1.887966   0.000000
    16  H    4.309331   4.799922   3.307690   4.314913   3.293120
                   16
    16  H    0.000000
 Stoichiometry    C4H9O2S(1+)
 Framework group  C1[X(C4H9O2S)]
 Deg. of freedom    42
 Full point group                 C1      NOp   1
 Largest Abelian subgroup         C1      NOp   1
 Largest concise Abelian subgroup C1      NOp   1
                         Standard orientation:                         
 ---------------------------------------------------------------------
 Center     Atomic      Atomic             Coordinates (Angstroms)
 Number     Number       Type             X           Y           Z
 ---------------------------------------------------------------------
      1          8           0       -1.596190    0.323228   -1.342517
      2         16           0       -0.694742    0.003337   -0.057947
      3          6           0        0.459036    1.373838    0.300537
      4          6           0        1.827845    0.760439   -0.076421
      5          6           0        1.792391   -0.776857    0.156628
      6          6           0        0.477515   -1.350898   -0.414732
      7          8           0       -1.589213   -0.332771    1.227331
      8          1           0        0.302427    2.198744   -0.394522
      9          1           0        0.505357    1.565601    1.372547
     10          1           0        1.954970    0.914639   -1.147929
     11          1           0        2.556800    1.169344    0.623264
     12          1           0        2.603095   -1.205861   -0.432341
     13          1           0        1.759884   -0.933562    1.234777
     14          1           0        0.635485   -1.452059   -1.488486
     15          1           0        0.246910   -2.229820    0.187376
     16          1           0       -1.306565   -0.043195    2.097880
 ---------------------------------------------------------------------
 Rotational constants (GHZ):           3.3718238           1.8639060           1.7776859
 Leave Link  202 at Sun Oct 13 21:39:36 2019, MaxMem= 10737418240 cpu:               0.3 elap:               0.0
 (Enter /apps/cent7/gaussian/g16-A.03/g16-haswell/g16/l301.exe)
 Standard basis: 6-311++G(d,p) (5D, 7F)
 Ernie: Thresh=  0.10000D-02 Tol=  0.10000D-05 Strict=F.
 There are   232 symmetry adapted cartesian basis functions of A   symmetry.
 There are   225 symmetry adapted basis functions of A   symmetry.
   225 basis functions,   347 primitive gaussians,   232 cartesian basis functions
    32 alpha electrons       32 beta electrons
       nuclear repulsion energy       429.3289312762 Hartrees.
 IExCor= 4336 DFT=T Ex+Corr=M062X ExCW=0 ScaHFX=  0.540000
 ScaDFX=  1.000000  1.000000  1.000000  1.000000 ScalE2=  1.000000  1.000000
 IRadAn=      5 IRanWt=     -1 IRanGd=            0 ICorTp=0 IEmpDi=  4
 NAtoms=   16 NActive=   16 NUniq=   16 SFac= 1.00D+00 NAtFMM=   60 NAOKFM=F Big=F
 Integral buffers will be    131072 words long.
 Raffenetti 2 integral format.
 Two-electron integral symmetry is turned on.
 Leave Link  301 at Sun Oct 13 21:39:36 2019, MaxMem= 10737418240 cpu:               1.3 elap:               0.1
 (Enter /apps/cent7/gaussian/g16-A.03/g16-haswell/g16/l302.exe)
 NPDir=0 NMtPBC=     1 NCelOv=     1 NCel=       1 NClECP=     1 NCelD=      1
         NCelK=      1 NCelE2=     1 NClLst=     1 CellRange=     0.0.
 One-electron integrals computed using PRISM.
 One-electron integral symmetry used in STVInt
 NBasis=   225 RedAO= T EigKep=  1.44D-05  NBF=   225
 NBsUse=   225 1.00D-06 EigRej= -1.00D+00 NBFU=   225
 Precomputing XC quadrature grid using
 IXCGrd= 4 IRadAn=           5 IRanWt=          -1 IRanGd=           0 AccXCQ= 0.00D+00.
 Generated NRdTot=       0 NPtTot=           0 NUsed=           0 NTot=          32
 NSgBfM=   232   232   232   232   232 MxSgAt=    16 MxSgA2=    16.
 Leave Link  302 at Sun Oct 13 21:39:36 2019, MaxMem= 10737418240 cpu:               4.0 elap:               0.2
 (Enter /apps/cent7/gaussian/g16-A.03/g16-haswell/g16/l303.exe)
 DipDrv:  MaxL=1.
 Leave Link  303 at Sun Oct 13 21:39:36 2019, MaxMem= 10737418240 cpu:               0.7 elap:               0.1
 (Enter /apps/cent7/gaussian/g16-A.03/g16-haswell/g16/l401.exe)
 ExpMin= 3.60D-02 ExpMax= 9.34D+04 ExpMxC= 3.17D+03 IAcc=3 IRadAn=         5 AccDes= 0.00D+00
 Harris functional with IExCor= 1009 and IRadAn=       5 diagonalized for initial guess.
 HarFok:  IExCor= 1009 AccDes= 0.00D+00 IRadAn=         5 IDoV= 1 UseB2=F ITyADJ=14
 ICtDFT=  3500011 ScaDFX=  1.000000  1.000000  1.000000  1.000000
 FoFCou: FMM=F IPFlag=           0 FMFlag=      100000 FMFlg1=           0
         NFxFlg=           0 DoJE=T BraDBF=F KetDBF=T FulRan=T
         wScrn=  0.000000 ICntrl=       500 IOpCl=  0 I1Cent=   200000004 NGrid=           0
         NMat0=    1 NMatS0=      1 NMatT0=    0 NMatD0=    1 NMtDS0=    0 NMtDT0=    0
 Petite list used in FoFCou.
 Harris En= -705.904412587706    
 JPrj=0 DoOrth=F DoCkMO=F.
 Leave Link  401 at Sun Oct 13 21:39:37 2019, MaxMem= 10737418240 cpu:               9.0 elap:               0.4
 (Enter /apps/cent7/gaussian/g16-A.03/g16-haswell/g16/l502.exe)
 Integral symmetry usage will be decided dynamically.
 Closed shell SCF:
 Using DIIS extrapolation, IDIIS=  1040.
 NGot= 10737418240 LenX= 10737302645 LenY= 10737248380
 Requested convergence on RMS density matrix=1.00D-08 within 128 cycles.
 Requested convergence on MAX density matrix=1.00D-06.
 Requested convergence on             energy=1.00D-06.
 No special actions if energy rises.
 Fock matrices will be formed incrementally for  20 cycles.

 Cycle   1  Pass 1  IDiag  1:
 FoFJK:  IHMeth= 1 ICntrl=       0 DoSepK=F KAlg= 0 I1Cent=           0 FoldK=F
 IRaf= 990000000 NMat=       1 IRICut=       1 DoRegI=T DoRafI=F ISym2E= 0 IDoP0=0 IntGTp=1.
 FoFCou: FMM=F IPFlag=           0 FMFlag=      100000 FMFlg1=           0
         NFxFlg=           0 DoJE=F BraDBF=F KetDBF=F FulRan=T
         wScrn=  0.000000 ICntrl=         0 IOpCl=  0 I1Cent=           0 NGrid=           0
         NMat0=    1 NMatS0=      1 NMatT0=    0 NMatD0=    1 NMtDS0=    0 NMtDT0=    0
 Symmetry not used in FoFCou.
 E= -705.632295141117    
 DIIS: error= 3.99D-02 at cycle   1 NSaved=   1.
 NSaved= 1 IEnMin= 1 EnMin= -705.632295141117     IErMin= 1 ErrMin= 3.99D-02
 ErrMax= 3.99D-02  0.00D+00 EMaxC= 1.00D-01 BMatC= 5.54D-01 BMatP= 5.54D-01
 IDIUse=3 WtCom= 6.01D-01 WtEn= 3.99D-01
 Coeff-Com:  0.100D+01
 Coeff-En:   0.100D+01
 Coeff:      0.100D+01
 Gap=     0.206 Goal=   None    Shift=    0.000
 GapD=    0.206 DampG=1.000 DampE=0.500 DampFc=0.5000 IDamp=-1.
 Damping current iteration by 5.00D-01
 RMSDP=2.91D-02 MaxDP=1.77D+00              OVMax= 3.05D-01

 Cycle   2  Pass 1  IDiag  1:
 RMSU=  1.30D-02    CP:  1.35D+00
 E= -705.723335258801     Delta-E=       -0.091040117684 Rises=F Damp=T
 DIIS: error= 1.65D-02 at cycle   2 NSaved=   2.
 NSaved= 2 IEnMin= 2 EnMin= -705.723335258801     IErMin= 2 ErrMin= 1.65D-02
 ErrMax= 1.65D-02  0.00D+00 EMaxC= 1.00D-01 BMatC= 8.26D-02 BMatP= 5.54D-01
 IDIUse=3 WtCom= 8.35D-01 WtEn= 1.65D-01
 Coeff-Com:  0.186D+00 0.814D+00
 Coeff-En:   0.375D+00 0.625D+00
 Coeff:      0.217D+00 0.783D+00
 Gap=     0.372 Goal=   None    Shift=    0.000
 RMSDP=9.25D-03 MaxDP=6.30D-01 DE=-9.10D-02 OVMax= 2.46D-01

 Cycle   3  Pass 1  IDiag  1:
 RMSU=  4.24D-03    CP:  1.15D+00  4.35D-01
 E= -705.972997700420     Delta-E=       -0.249662441619 Rises=F Damp=F
 DIIS: error= 1.53D-02 at cycle   3 NSaved=   3.
 NSaved= 3 IEnMin= 3 EnMin= -705.972997700420     IErMin= 3 ErrMin= 1.53D-02
 ErrMax= 1.53D-02  0.00D+00 EMaxC= 1.00D-01 BMatC= 7.52D-02 BMatP= 8.26D-02
 IDIUse=3 WtCom= 8.47D-01 WtEn= 1.53D-01
 Coeff-Com:  0.325D-01 0.482D+00 0.485D+00
 Coeff-En:   0.000D+00 0.000D+00 0.100D+01
 Coeff:      0.275D-01 0.408D+00 0.564D+00
 Gap=     0.425 Goal=   None    Shift=    0.000
 RMSDP=4.30D-03 MaxDP=1.82D-01 DE=-2.50D-01 OVMax= 9.17D-02

 Cycle   4  Pass 1  IDiag  1:
 RMSU=  2.46D-03    CP:  1.22D+00  6.62D-01  6.51D-01
 E= -706.026279168647     Delta-E=       -0.053281468227 Rises=F Damp=F
 DIIS: error= 4.90D-03 at cycle   4 NSaved=   4.
 NSaved= 4 IEnMin= 4 EnMin= -706.026279168647     IErMin= 4 ErrMin= 4.90D-03
 ErrMax= 4.90D-03  0.00D+00 EMaxC= 1.00D-01 BMatC= 9.87D-03 BMatP= 7.52D-02
 IDIUse=3 WtCom= 9.51D-01 WtEn= 4.90D-02
 Coeff-Com: -0.147D-01 0.481D-01 0.282D+00 0.685D+00
 Coeff-En:   0.000D+00 0.000D+00 0.101D+00 0.899D+00
 Coeff:     -0.140D-01 0.457D-01 0.273D+00 0.695D+00
 Gap=     0.361 Goal=   None    Shift=    0.000
 RMSDP=1.04D-03 MaxDP=2.86D-02 DE=-5.33D-02 OVMax= 2.74D-02

 Cycle   5  Pass 1  IDiag  1:
 RMSU=  3.69D-04    CP:  1.21D+00  6.29D-01  7.99D-01  7.61D-01
 E= -706.033623173398     Delta-E=       -0.007344004750 Rises=F Damp=F
 DIIS: error= 7.26D-04 at cycle   5 NSaved=   5.
 NSaved= 5 IEnMin= 5 EnMin= -706.033623173398     IErMin= 5 ErrMin= 7.26D-04
 ErrMax= 7.26D-04  0.00D+00 EMaxC= 1.00D-01 BMatC= 2.90D-04 BMatP= 9.87D-03
 IDIUse=3 WtCom= 9.93D-01 WtEn= 7.26D-03
 Coeff-Com: -0.613D-02 0.987D-03 0.830D-01 0.281D+00 0.641D+00
 Coeff-En:   0.000D+00 0.000D+00 0.000D+00 0.000D+00 0.100D+01
 Coeff:     -0.609D-02 0.980D-03 0.824D-01 0.279D+00 0.644D+00
 Gap=     0.356 Goal=   None    Shift=    0.000
 RMSDP=2.74D-04 MaxDP=1.31D-02 DE=-7.34D-03 OVMax= 4.67D-03

 Cycle   6  Pass 1  IDiag  1:
 RMSU=  1.30D-04    CP:  1.21D+00  6.21D-01  7.77D-01  8.20D-01  7.75D-01
 E= -706.033833798246     Delta-E=       -0.000210624848 Rises=F Damp=F
 DIIS: error= 3.75D-04 at cycle   6 NSaved=   6.
 NSaved= 6 IEnMin= 6 EnMin= -706.033833798246     IErMin= 6 ErrMin= 3.75D-04
 ErrMax= 3.75D-04  0.00D+00 EMaxC= 1.00D-01 BMatC= 4.34D-05 BMatP= 2.90D-04
 IDIUse=3 WtCom= 9.96D-01 WtEn= 3.75D-03
 Coeff-Com: -0.311D-03-0.604D-02-0.474D-02 0.202D-01 0.303D+00 0.688D+00
 Coeff-En:   0.000D+00 0.000D+00 0.000D+00 0.000D+00 0.364D-02 0.996D+00
 Coeff:     -0.310D-03-0.601D-02-0.472D-02 0.202D-01 0.302D+00 0.689D+00
 Gap=     0.358 Goal=   None    Shift=    0.000
 RMSDP=9.41D-05 MaxDP=4.18D-03 DE=-2.11D-04 OVMax= 1.93D-03

 Cycle   7  Pass 1  IDiag  1:
 RMSU=  4.84D-05    CP:  1.21D+00  6.22D-01  7.87D-01  8.17D-01  9.18D-01
                    CP:  7.96D-01
 E= -706.033875254914     Delta-E=       -0.000041456668 Rises=F Damp=F
 DIIS: error= 7.72D-05 at cycle   7 NSaved=   7.
 NSaved= 7 IEnMin= 7 EnMin= -706.033875254914     IErMin= 7 ErrMin= 7.72D-05
 ErrMax= 7.72D-05  0.00D+00 EMaxC= 1.00D-01 BMatC= 1.91D-06 BMatP= 4.34D-05
 IDIUse=1 WtCom= 1.00D+00 WtEn= 0.00D+00
 Coeff-Com:  0.667D-03-0.188D-02-0.107D-01-0.250D-01 0.164D-01 0.177D+00
 Coeff-Com:  0.843D+00
 Coeff:      0.667D-03-0.188D-02-0.107D-01-0.250D-01 0.164D-01 0.177D+00
 Coeff:      0.843D+00
 Gap=     0.358 Goal=   None    Shift=    0.000
 RMSDP=3.55D-05 MaxDP=1.69D-03 DE=-4.15D-05 OVMax= 7.32D-04

 Cycle   8  Pass 1  IDiag  1:
 RMSU=  1.60D-05    CP:  1.21D+00  6.20D-01  7.88D-01  8.16D-01  9.37D-01
                    CP:  8.92D-01  9.51D-01
 E= -706.033878398883     Delta-E=       -0.000003143969 Rises=F Damp=F
 DIIS: error= 3.35D-05 at cycle   8 NSaved=   8.
 NSaved= 8 IEnMin= 8 EnMin= -706.033878398883     IErMin= 8 ErrMin= 3.35D-05
 ErrMax= 3.35D-05  0.00D+00 EMaxC= 1.00D-01 BMatC= 2.56D-07 BMatP= 1.91D-06
 IDIUse=1 WtCom= 1.00D+00 WtEn= 0.00D+00
 Coeff-Com:  0.167D-03 0.734D-04-0.311D-02-0.950D-02-0.268D-01-0.144D-01
 Coeff-Com:  0.244D+00 0.809D+00
 Coeff:      0.167D-03 0.734D-04-0.311D-02-0.950D-02-0.268D-01-0.144D-01
 Coeff:      0.244D+00 0.809D+00
 Gap=     0.358 Goal=   None    Shift=    0.000
 RMSDP=1.14D-05 MaxDP=5.21D-04 DE=-3.14D-06 OVMax= 2.81D-04

 Cycle   9  Pass 1  IDiag  1:
 RMSU=  4.19D-06    CP:  1.21D+00  6.19D-01  7.88D-01  8.15D-01  9.42D-01
                    CP:  9.05D-01  1.00D+00  1.18D+00
 E= -706.033878812340     Delta-E=       -0.000000413457 Rises=F Damp=F
 DIIS: error= 1.02D-05 at cycle   9 NSaved=   9.
 NSaved= 9 IEnMin= 9 EnMin= -706.033878812340     IErMin= 9 ErrMin= 1.02D-05
 ErrMax= 1.02D-05  0.00D+00 EMaxC= 1.00D-01 BMatC= 2.86D-08 BMatP= 2.56D-07
 IDIUse=1 WtCom= 1.00D+00 WtEn= 0.00D+00
 Coeff-Com: -0.229D-04 0.227D-03 0.108D-03 0.184D-03-0.103D-01-0.243D-01
 Coeff-Com: -0.300D-01 0.169D+00 0.895D+00
 Coeff:     -0.229D-04 0.227D-03 0.108D-03 0.184D-03-0.103D-01-0.243D-01
 Coeff:     -0.300D-01 0.169D+00 0.895D+00
 Gap=     0.358 Goal=   None    Shift=    0.000
 RMSDP=4.81D-06 MaxDP=2.57D-04 DE=-4.13D-07 OVMax= 1.09D-04

 Cycle  10  Pass 1  IDiag  1:
 RMSU=  1.60D-06    CP:  1.21D+00  6.19D-01  7.88D-01  8.14D-01  9.42D-01
                    CP:  9.12D-01  1.03D+00  1.30D+00  1.18D+00
 E= -706.033878861922     Delta-E=       -0.000000049582 Rises=F Damp=F
 DIIS: error= 2.51D-06 at cycle  10 NSaved=  10.
 NSaved=10 IEnMin=10 EnMin= -706.033878861922     IErMin=10 ErrMin= 2.51D-06
 ErrMax= 2.51D-06  0.00D+00 EMaxC= 1.00D-01 BMatC= 2.07D-09 BMatP= 2.86D-08
 IDIUse=1 WtCom= 1.00D+00 WtEn= 0.00D+00
 Coeff-Com: -0.453D-05 0.228D-04 0.251D-03 0.804D-03-0.210D-03-0.322D-02
 Coeff-Com: -0.216D-01-0.439D-01 0.185D+00 0.883D+00
 Coeff:     -0.453D-05 0.228D-04 0.251D-03 0.804D-03-0.210D-03-0.322D-02
 Coeff:     -0.216D-01-0.439D-01 0.185D+00 0.883D+00
 Gap=     0.358 Goal=   None    Shift=    0.000
 RMSDP=1.75D-06 MaxDP=7.62D-05 DE=-4.96D-08 OVMax= 2.67D-05

 Cycle  11  Pass 1  IDiag  1:
 RMSU=  3.40D-07    CP:  1.21D+00  6.19D-01  7.88D-01  8.14D-01  9.41D-01
                    CP:  9.13D-01  1.02D+00  1.33D+00  1.32D+00  1.20D+00
 E= -706.033878865003     Delta-E=       -0.000000003082 Rises=F Damp=F
 DIIS: error= 1.15D-06 at cycle  11 NSaved=  11.
 NSaved=11 IEnMin=11 EnMin= -706.033878865003     IErMin=11 ErrMin= 1.15D-06
 ErrMax= 1.15D-06  0.00D+00 EMaxC= 1.00D-01 BMatC= 3.20D-10 BMatP= 2.07D-09
 IDIUse=1 WtCom= 1.00D+00 WtEn= 0.00D+00
 Coeff-Com:  0.270D-05-0.125D-04 0.846D-04 0.240D-03 0.678D-03 0.865D-03
 Coeff-Com: -0.498D-02-0.292D-01-0.220D-02 0.312D+00 0.722D+00
 Coeff:      0.270D-05-0.125D-04 0.846D-04 0.240D-03 0.678D-03 0.865D-03
 Coeff:     -0.498D-02-0.292D-01-0.220D-02 0.312D+00 0.722D+00
 Gap=     0.358 Goal=   None    Shift=    0.000
 RMSDP=5.66D-07 MaxDP=3.14D-05 DE=-3.08D-09 OVMax= 7.48D-06

 Cycle  12  Pass 1  IDiag  1:
 RMSU=  1.37D-07    CP:  1.21D+00  6.19D-01  7.88D-01  8.14D-01  9.41D-01
                    CP:  9.13D-01  1.02D+00  1.34D+00  1.35D+00  1.26D+00
                    CP:  1.10D+00
 E= -706.033878865376     Delta-E=       -0.000000000373 Rises=F Damp=F
 DIIS: error= 2.23D-07 at cycle  12 NSaved=  12.
 NSaved=12 IEnMin=12 EnMin= -706.033878865376     IErMin=12 ErrMin= 2.23D-07
 ErrMax= 2.23D-07  0.00D+00 EMaxC= 1.00D-01 BMatC= 1.97D-11 BMatP= 3.20D-10
 IDIUse=1 WtCom= 1.00D+00 WtEn= 0.00D+00
 Coeff-Com:  0.485D-06-0.249D-05-0.388D-05-0.442D-04 0.834D-04 0.392D-03
 Coeff-Com:  0.130D-02 0.107D-02-0.155D-01-0.499D-01 0.121D+00 0.942D+00
 Coeff:      0.485D-06-0.249D-05-0.388D-05-0.442D-04 0.834D-04 0.392D-03
 Coeff:      0.130D-02 0.107D-02-0.155D-01-0.499D-01 0.121D+00 0.942D+00
 Gap=     0.358 Goal=   None    Shift=    0.000
 RMSDP=2.07D-07 MaxDP=1.14D-05 DE=-3.73D-10 OVMax= 3.74D-06

 Cycle  13  Pass 1  IDiag  1:
 RMSU=  4.16D-08    CP:  1.21D+00  6.19D-01  7.88D-01  8.14D-01  9.41D-01
                    CP:  9.13D-01  1.02D+00  1.34D+00  1.36D+00  1.30D+00
                    CP:  1.27D+00  1.21D+00
 E= -706.033878865411     Delta-E=       -0.000000000035 Rises=F Damp=F
 DIIS: error= 7.48D-08 at cycle  13 NSaved=  13.
 NSaved=13 IEnMin=13 EnMin= -706.033878865411     IErMin=13 ErrMin= 7.48D-08
 ErrMax= 7.48D-08  0.00D+00 EMaxC= 1.00D-01 BMatC= 1.50D-12 BMatP= 1.97D-11
 IDIUse=1 WtCom= 1.00D+00 WtEn= 0.00D+00
 Coeff-Com: -0.633D-06 0.146D-05-0.687D-05-0.149D-04-0.505D-04-0.253D-04
 Coeff-Com:  0.391D-03 0.199D-02-0.535D-05-0.258D-01-0.506D-01 0.405D-01
 Coeff-Com:  0.103D+01
 Coeff:     -0.633D-06 0.146D-05-0.687D-05-0.149D-04-0.505D-04-0.253D-04
 Coeff:      0.391D-03 0.199D-02-0.535D-05-0.258D-01-0.506D-01 0.405D-01
 Coeff:      0.103D+01
 Gap=     0.358 Goal=   None    Shift=    0.000
 RMSDP=6.56D-08 MaxDP=2.85D-06 DE=-3.46D-11 OVMax= 1.18D-06

 Cycle  14  Pass 1  IDiag  1:
 RMSU=  1.16D-08    CP:  1.21D+00  6.19D-01  7.88D-01  8.14D-01  9.41D-01
                    CP:  9.13D-01  1.02D+00  1.34D+00  1.36D+00  1.31D+00
                    CP:  1.34D+00  1.34D+00  1.19D+00
 E= -706.033878865414     Delta-E=       -0.000000000003 Rises=F Damp=F
 DIIS: error= 2.23D-08 at cycle  14 NSaved=  14.
 NSaved=14 IEnMin=14 EnMin= -706.033878865414     IErMin=14 ErrMin= 2.23D-08
 ErrMax= 2.23D-08  0.00D+00 EMaxC= 1.00D-01 BMatC= 1.91D-13 BMatP= 1.50D-12
 IDIUse=1 WtCom= 1.00D+00 WtEn= 0.00D+00
 Coeff-Com: -0.298D-06 0.787D-06-0.241D-05-0.256D-05-0.209D-04-0.272D-04
 Coeff-Com:  0.328D-04 0.512D-03 0.827D-03-0.444D-02-0.214D-01-0.464D-01
 Coeff-Com:  0.267D+00 0.803D+00
 Coeff:     -0.298D-06 0.787D-06-0.241D-05-0.256D-05-0.209D-04-0.272D-04
 Coeff:      0.328D-04 0.512D-03 0.827D-03-0.444D-02-0.214D-01-0.464D-01
 Coeff:      0.267D+00 0.803D+00
 Gap=     0.358 Goal=   None    Shift=    0.000
 RMSDP=1.01D-08 MaxDP=3.22D-07 DE=-3.41D-12 OVMax= 2.63D-07

 Cycle  15  Pass 1  IDiag  1:
 RMSU=  3.75D-09    CP:  1.21D+00  6.19D-01  7.88D-01  8.14D-01  9.41D-01
                    CP:  9.13D-01  1.02D+00  1.34D+00  1.36D+00  1.31D+00
                    CP:  1.35D+00  1.37D+00  1.25D+00  1.08D+00
 E= -706.033878865417     Delta-E=       -0.000000000003 Rises=F Damp=F
 DIIS: error= 8.09D-09 at cycle  15 NSaved=  15.
 NSaved=15 IEnMin=15 EnMin= -706.033878865417     IErMin=15 ErrMin= 8.09D-09
 ErrMax= 8.09D-09  0.00D+00 EMaxC= 1.00D-01 BMatC= 3.12D-14 BMatP= 1.91D-13
 IDIUse=1 WtCom= 1.00D+00 WtEn= 0.00D+00
 Coeff-Com: -0.490D-07 0.160D-06-0.195D-06 0.333D-06-0.881D-06-0.446D-05
 Coeff-Com: -0.401D-04-0.595D-04 0.186D-03 0.167D-02-0.173D-03-0.206D-01
 Coeff-Com: -0.623D-01 0.297D+00 0.784D+00
 Coeff:     -0.490D-07 0.160D-06-0.195D-06 0.333D-06-0.881D-06-0.446D-05
 Coeff:     -0.401D-04-0.595D-04 0.186D-03 0.167D-02-0.173D-03-0.206D-01
 Coeff:     -0.623D-01 0.297D+00 0.784D+00
 Gap=     0.358 Goal=   None    Shift=    0.000
 RMSDP=3.81D-09 MaxDP=1.15D-07 DE=-2.73D-12 OVMax= 9.64D-08

 SCF Done:  E(RM062X) =  -706.033878865     A.U. after   15 cycles
            NFock= 15  Conv=0.38D-08     -V/T= 2.0027
 KE= 7.040999343740D+02 PE=-2.510374196817D+03 EE= 6.709114523018D+02
 Leave Link  502 at Sun Oct 13 21:39:48 2019, MaxMem= 10737418240 cpu:             254.4 elap:              10.7
 (Enter /apps/cent7/gaussian/g16-A.03/g16-haswell/g16/l601.exe)
 Copying SCF densities to generalized density rwf, IOpCl= 0 IROHF=0.

 **********************************************************************

            Population analysis using the SCF density.

 **********************************************************************

 Orbital symmetries:
       Occupied  (A) (A) (A) (A) (A) (A) (A) (A) (A) (A) (A) (A)
                 (A) (A) (A) (A) (A) (A) (A) (A) (A) (A) (A) (A)
                 (A) (A) (A) (A) (A) (A) (A) (A)
       Virtual   (A) (A) (A) (A) (A) (A) (A) (A) (A) (A) (A) (A)
                 (A) (A) (A) (A) (A) (A) (A) (A) (A) (A) (A) (A)
                 (A) (A) (A) (A) (A) (A) (A) (A) (A) (A) (A) (A)
                 (A) (A) (A) (A) (A) (A) (A) (A) (A) (A) (A) (A)
                 (A) (A) (A) (A) (A) (A) (A) (A) (A) (A) (A) (A)
                 (A) (A) (A) (A) (A) (A) (A) (A) (A) (A) (A) (A)
                 (A) (A) (A) (A) (A) (A) (A) (A) (A) (A) (A) (A)
                 (A) (A) (A) (A) (A) (A) (A) (A) (A) (A) (A) (A)
                 (A) (A) (A) (A) (A) (A) (A) (A) (A) (A) (A) (A)
                 (A) (A) (A) (A) (A) (A) (A) (A) (A) (A) (A) (A)
                 (A) (A) (A) (A) (A) (A) (A) (A) (A) (A) (A) (A)
                 (A) (A) (A) (A) (A) (A) (A) (A) (A) (A) (A) (A)
                 (A) (A) (A) (A) (A) (A) (A) (A) (A) (A) (A) (A)
                 (A) (A) (A) (A) (A) (A) (A) (A) (A) (A) (A) (A)
                 (A) (A) (A) (A) (A) (A) (A) (A) (A) (A) (A) (A)
                 (A) (A) (A) (A) (A) (A) (A) (A) (A) (A) (A) (A)
                 (A)
 The electronic state is 1-A.
 Alpha  occ. eigenvalues --  -90.32616 -19.90884 -19.83050 -10.79635 -10.79227
 Alpha  occ. eigenvalues --  -10.74757 -10.74641  -8.67146  -6.59391  -6.59096
 Alpha  occ. eigenvalues --   -6.59057  -1.45083  -1.31106  -1.16976  -1.06167
 Alpha  occ. eigenvalues --   -1.04222  -0.93794  -0.87513  -0.85077  -0.80182
 Alpha  occ. eigenvalues --   -0.75822  -0.74396  -0.73807  -0.71728  -0.67149
 Alpha  occ. eigenvalues --   -0.66295  -0.63863  -0.61817  -0.61530  -0.59971
 Alpha  occ. eigenvalues --   -0.57037  -0.55040
 Alpha virt. eigenvalues --   -0.19254  -0.17158  -0.16387  -0.13544  -0.12995
 Alpha virt. eigenvalues --   -0.11919  -0.11547  -0.09971  -0.08991  -0.08936
 Alpha virt. eigenvalues --   -0.08062  -0.07805  -0.05898  -0.05000  -0.04604
 Alpha virt. eigenvalues --   -0.04043  -0.03609  -0.02665  -0.02384  -0.01482
 Alpha virt. eigenvalues --   -0.00950   0.00472   0.01229   0.01440   0.01785
 Alpha virt. eigenvalues --    0.01866   0.02496   0.02861   0.03461   0.03857
 Alpha virt. eigenvalues --    0.04616   0.04867   0.05318   0.06058   0.07380
 Alpha virt. eigenvalues --    0.07810   0.08576   0.10382   0.10883   0.11618
 Alpha virt. eigenvalues --    0.12379   0.13900   0.14973   0.15762   0.16959
 Alpha virt. eigenvalues --    0.17087   0.17983   0.18808   0.19870   0.20338
 Alpha virt. eigenvalues --    0.21351   0.21523   0.22604   0.24238   0.24808
 Alpha virt. eigenvalues --    0.26247   0.28097   0.29963   0.33326   0.34068
 Alpha virt. eigenvalues --    0.36059   0.37823   0.40920   0.42123   0.42274
 Alpha virt. eigenvalues --    0.49216   0.49512   0.50255   0.52504   0.53547
 Alpha virt. eigenvalues --    0.55233   0.57219   0.58282   0.58456   0.59405
 Alpha virt. eigenvalues --    0.59579   0.61165   0.63687   0.66924   0.67387
 Alpha virt. eigenvalues --    0.72059   0.73008   0.75800   0.80379   0.82760
 Alpha virt. eigenvalues --    0.84399   0.87227   0.89106   0.93722   0.96967
 Alpha virt. eigenvalues --    0.98911   1.02643   1.05497   1.06914   1.08469
 Alpha virt. eigenvalues --    1.10372   1.11239   1.19409   1.20181   1.23170
 Alpha virt. eigenvalues --    1.30333   1.31740   1.36079   1.37339   1.39101
 Alpha virt. eigenvalues --    1.41812   1.43041   1.44270   1.45176   1.46688
 Alpha virt. eigenvalues --    1.48001   1.48901   1.49868   1.52638   1.54945
 Alpha virt. eigenvalues --    1.55513   1.60817   1.61736   1.65903   1.67327
 Alpha virt. eigenvalues --    1.71606   1.73190   1.73979   1.75853   1.79134
 Alpha virt. eigenvalues --    1.85353   1.85500   1.89152   1.91916   1.95605
 Alpha virt. eigenvalues --    1.97493   2.00960   2.04328   2.05140   2.09147
 Alpha virt. eigenvalues --    2.21437   2.22572   2.32910   2.33845   2.36115
 Alpha virt. eigenvalues --    2.37547   2.40518   2.44715   2.46901   2.49224
 Alpha virt. eigenvalues --    2.51758   2.54326   2.58098   2.61737   2.65074
 Alpha virt. eigenvalues --    2.67287   2.68167   2.69464   2.72889   2.74686
 Alpha virt. eigenvalues --    2.76271   2.77751   2.80472   2.82334   2.87902
 Alpha virt. eigenvalues --    2.90247   2.93553   2.95886   2.96708   3.08112
 Alpha virt. eigenvalues --    3.08646   3.24055   3.30119   3.52847   3.55640
 Alpha virt. eigenvalues --    3.63589   3.80652   3.86162   3.86869   3.92267
 Alpha virt. eigenvalues --    4.07977   4.88190   4.93717   4.99682   5.00802
 Alpha virt. eigenvalues --    5.05956   5.36263   7.95933  17.29170  17.37952
 Alpha virt. eigenvalues --   17.39506  23.69383  23.70737  23.76339  23.78457
 Alpha virt. eigenvalues --   49.74714  49.79342 189.22222
          Condensed to atoms (all electrons):
               1          2          3          4          5          6
     1  O    8.207521   0.368121  -0.246352  -0.076238   0.150155  -0.143259
     2  S    0.368121  19.331114  -2.536774   0.478719   0.044311  -2.125504
     3  C   -0.246352  -2.536774   8.778672  -0.704115  -0.012713   0.897730
     4  C   -0.076238   0.478719  -0.704115   6.311474  -0.380278  -0.088667
     5  C    0.150155   0.044311  -0.012713  -0.380278   6.528099  -0.445255
     6  C   -0.143259  -2.125504   0.897730  -0.088667  -0.445255   8.120102
     7  O   -0.168007   0.192174  -0.149223   0.097428  -0.128316  -0.371050
     8  H   -0.031458  -0.252189   0.570899  -0.040516  -0.038581   0.075671
     9  H    0.019008   0.224602   0.004632   0.109899  -0.055226  -0.004736
    10  H    0.020892   0.298149  -0.353175   0.483476   0.049597  -0.178286
    11  H   -0.008899  -0.283475   0.301026   0.256787  -0.077645   0.141364
    12  H   -0.000200  -0.206163   0.164429  -0.125500   0.346381   0.172470
    13  H    0.001973   0.245539  -0.232885   0.089832   0.355511  -0.203992
    14  H    0.000465   0.066650  -0.056145  -0.009601   0.031526   0.235453
    15  H   -0.009187  -0.143062   0.143765  -0.029059  -0.057985   0.401227
    16  H    0.033362  -0.020061  -0.024304  -0.033651   0.055725   0.073362
               7          8          9         10         11         12
     1  O   -0.168007  -0.031458   0.019008   0.020892  -0.008899  -0.000200
     2  S    0.192174  -0.252189   0.224602   0.298149  -0.283475  -0.206163
     3  C   -0.149223   0.570899   0.004632  -0.353175   0.301026   0.164429
     4  C    0.097428  -0.040516   0.109899   0.483476   0.256787  -0.125500
     5  C   -0.128316  -0.038581  -0.055226   0.049597  -0.077645   0.346381
     6  C   -0.371050   0.075671  -0.004736  -0.178286   0.141364   0.172470
     7  O    8.435460   0.015409  -0.022979   0.009158  -0.006222  -0.019123
     8  H    0.015409   0.366049  -0.004212  -0.027575   0.016772   0.003646
     9  H   -0.022979  -0.004212   0.486431   0.030148  -0.049621  -0.011576
    10  H    0.009158  -0.027575   0.030148   0.482305  -0.046457  -0.041092
    11  H   -0.006222   0.016772  -0.049621  -0.046457   0.498576   0.040750
    12  H   -0.019123   0.003646  -0.011576  -0.041092   0.040750   0.463819
    13  H    0.031333  -0.005479   0.021899   0.030977  -0.054751  -0.046914
    14  H    0.022363  -0.001665   0.001626   0.010668  -0.010577  -0.028544
    15  H   -0.006268   0.004312  -0.014702  -0.016599   0.013403   0.014705
    16  H    0.094908   0.000115   0.006986  -0.000340   0.001482   0.002226
              13         14         15         16
     1  O    0.001973   0.000465  -0.009187   0.033362
     2  S    0.245539   0.066650  -0.143062  -0.020061
     3  C   -0.232885  -0.056145   0.143765  -0.024304
     4  C    0.089832  -0.009601  -0.029059  -0.033651
     5  C    0.355511   0.031526  -0.057985   0.055725
     6  C   -0.203992   0.235453   0.401227   0.073362
     7  O    0.031333   0.022363  -0.006268   0.094908
     8  H   -0.005479  -0.001665   0.004312   0.000115
     9  H    0.021899   0.001626  -0.014702   0.006986
    10  H    0.030977   0.010668  -0.016599  -0.000340
    11  H   -0.054751  -0.010577   0.013403   0.001482
    12  H   -0.046914  -0.028544   0.014705   0.002226
    13  H    0.541253   0.020508  -0.031896  -0.005438
    14  H    0.020508   0.376391   0.011723  -0.002174
    15  H   -0.031896   0.011723   0.405628  -0.004028
    16  H   -0.005438  -0.002174  -0.004028   0.472183
 Mulliken charges:
               1
     1  O   -0.117896
     2  S    0.317848
     3  C   -0.545467
     4  C   -0.339988
     5  C   -0.365307
     6  C   -0.556630
     7  O   -0.027043
     8  H    0.348801
     9  H    0.257821
    10  H    0.248155
    11  H    0.267486
    12  H    0.270686
    13  H    0.242531
    14  H    0.331334
    15  H    0.318024
    16  H    0.349646
 Sum of Mulliken charges =   1.00000
 Mulliken charges with hydrogens summed into heavy atoms:
               1
     1  O   -0.117896
     2  S    0.317848
     3  C    0.061155
     4  C    0.175653
     5  C    0.147911
     6  C    0.092727
     7  O    0.322602
 Electronic spatial extent (au):  <R**2>=            818.2928
 Charge=              1.0000 electrons
 Dipole moment (field-independent basis, Debye):
    X=              4.3931    Y=             -0.0672    Z=              3.8464  Tot=              5.8394
 Quadrupole moment (field-independent basis, Debye-Ang):
   XX=            -45.1117   YY=            -38.8335   ZZ=            -39.7699
   XY=              0.0283   XZ=             -6.2342   YZ=              2.8648
 Traceless Quadrupole moment (field-independent basis, Debye-Ang):
   XX=             -3.8733   YY=              2.4048   ZZ=              1.4685
   XY=              0.0283   XZ=             -6.2342   YZ=              2.8648
 Octapole moment (field-independent basis, Debye-Ang**2):
  XXX=             12.0707  YYY=             -0.1703  ZZZ=             23.0944  XYY=              3.7252
  XXY=             -0.4744  XXZ=              6.9954  XZZ=             -2.7516  YZZ=              0.0585
  YYZ=             -0.5913  XYZ=              0.8090
 Hexadecapole moment (field-independent basis, Debye-Ang**3):
 XXXX=           -529.4490 YYYY=           -236.5902 ZZZZ=           -155.2873 XXXY=             -1.3459
 XXXZ=            -13.3985 YYYX=              1.1726 YYYZ=             -3.6172 ZZZX=            -33.0762
 ZZZY=              5.5380 XXYY=           -131.2134 XXZZ=           -113.7996 YYZZ=            -72.3020
 XXYZ=              9.2278 YYXZ=             -2.3690 ZZXY=             -0.3376
 N-N= 4.293289312762D+02 E-N=-2.510374197594D+03  KE= 7.040999343740D+02
 No NMR shielding tensors so no spin-rotation constants.
 Leave Link  601 at Sun Oct 13 21:39:48 2019, MaxMem= 10737418240 cpu:               2.4 elap:               0.1
 (Enter /apps/cent7/gaussian/g16-A.03/g16-haswell/g16/l701.exe)
 ... and contract with generalized density number  0.
 Compute integral first derivatives.
 Leave Link  701 at Sun Oct 13 21:39:48 2019, MaxMem= 10737418240 cpu:               3.2 elap:               0.2
 (Enter /apps/cent7/gaussian/g16-A.03/g16-haswell/g16/l702.exe)
 L702 exits ... SP integral derivatives will be done elsewhere.
 Leave Link  702 at Sun Oct 13 21:39:48 2019, MaxMem= 10737418240 cpu:               0.9 elap:               0.1
 (Enter /apps/cent7/gaussian/g16-A.03/g16-haswell/g16/l703.exe)
 Integral derivatives from FoFJK, PRISM(SPDF).
 Compute integral first derivatives, UseDBF=F ICtDFT=           0.
 Calling FoFJK, ICntrl=      2127 FMM=F ISym2X=0 I1Cent= 0 IOpClX= 0 NMat=1 NMatS=1 NMatT=0.
 FoFJK:  IHMeth= 1 ICntrl=    2127 DoSepK=F KAlg= 0 I1Cent=           0 FoldK=F
 IRaf=         0 NMat=       1 IRICut=       1 DoRegI=T DoRafI=F ISym2E= 0 IDoP0=0 IntGTp=1.
 FoFCou: FMM=F IPFlag=           0 FMFlag=      100000 FMFlg1=         800
         NFxFlg=           0 DoJE=F BraDBF=F KetDBF=F FulRan=T
         wScrn=  0.000000 ICntrl=      2127 IOpCl=  0 I1Cent=           0 NGrid=           0
         NMat0=    1 NMatS0=      1 NMatT0=    0 NMatD0=    1 NMtDS0=    0 NMtDT0=    0
 Symmetry not used in FoFCou.
 Leave Link  703 at Sun Oct 13 21:39:50 2019, MaxMem= 10737418240 cpu:              36.0 elap:               1.5
 (Enter /apps/cent7/gaussian/g16-A.03/g16-haswell/g16/l716.exe)
 Dipole        = 1.72836856D+00-2.64514250D-02 1.51329449D+00
 ***** Axes restored to original set *****
 -------------------------------------------------------------------
 Center     Atomic                   Forces (Hartrees/Bohr)
 Number     Number              X              Y              Z
 -------------------------------------------------------------------
      1        8           0.085287843    0.040411431   -0.077709190
      2       16          -0.091247474   -0.048553080    0.084607385
      3        6           0.009182629    0.030044389   -0.002764927
      4        6          -0.020607119    0.005584846   -0.014681399
      5        6          -0.002628989   -0.023858121    0.007872515
      6        6           0.035139613    0.003028509   -0.006639850
      7        8          -0.013523455    0.012342910    0.016255711
      8        1          -0.006414644   -0.015294970   -0.012305286
      9        1          -0.006120092   -0.014626842    0.000969669
     10        1           0.015829248    0.002086378    0.004813084
     11        1           0.000782079    0.002766224    0.017561797
     12        1           0.008142587    0.005364436   -0.015022955
     13        1           0.006662245    0.016651571    0.000508772
     14        1          -0.016731100   -0.010462593   -0.006029398
     15        1          -0.016695836   -0.003314094    0.005347644
     16        1           0.012942466   -0.002170994   -0.002783571
 -------------------------------------------------------------------
 Cartesian Forces:  Max     0.091247474 RMS     0.028802388
 Leave Link  716 at Sun Oct 13 21:39:50 2019, MaxMem= 10737418240 cpu:               0.6 elap:               0.0
 (Enter /apps/cent7/gaussian/g16-A.03/g16-haswell/g16/l103.exe)

 GradGradGradGradGradGradGradGradGradGradGradGradGradGradGradGradGradGrad
 Berny optimization.
 FormGI is forming the generalized inverse of G from B-inverse, IUseBI=4.
 Internal  Forces:  Max     0.122160951 RMS     0.013888588
 Search for a local minimum.
 Step number   1 out of a maximum of  100
 All quantities printed in internal units (Hartrees-Bohrs-Radians)
 RMS Force = .13889D-01 SwitMx=.10000D-02 MixMth= 1
 Mixed Optimization -- RFO/linear search
 Second derivative matrix not updated -- first step.
 ITU=  0
     Eigenvalues ---    0.00257   0.00399   0.02280   0.02314   0.02598
     Eigenvalues ---    0.04613   0.04954   0.05029   0.05204   0.05371
     Eigenvalues ---    0.05611   0.05858   0.05957   0.06544   0.06617
     Eigenvalues ---    0.07293   0.07329   0.08161   0.08212   0.08775
     Eigenvalues ---    0.09475   0.11239   0.13702   0.16000   0.20309
     Eigenvalues ---    0.20609   0.23642   0.23911   0.26400   0.27257
     Eigenvalues ---    0.27484   0.34806   0.34809   0.34811   0.34811
     Eigenvalues ---    0.34811   0.34812   0.34814   0.34817   0.50913
     Eigenvalues ---    0.50918   0.55473
 RFO step:  Lambda=-5.10946330D-02 EMin= 2.57348490D-03
 Linear search not attempted -- first point.
 Maximum step size (   0.300) exceeded in Quadratic search.
    -- Step size scaled by   0.846
 Iteration  1 RMS(Cart)=  0.04529581 RMS(Int)=  0.00181287
 Iteration  2 RMS(Cart)=  0.00147717 RMS(Int)=  0.00119349
 Iteration  3 RMS(Cart)=  0.00000164 RMS(Int)=  0.00119349
 Iteration  4 RMS(Cart)=  0.00000001 RMS(Int)=  0.00119349
 ITry= 1 IFail=0 DXMaxC= 1.16D-01 DCOld= 1.00D+10 DXMaxT= 3.00D-01 DXLimC= 3.00D+00 Rises=F
 Variable       Old X    -DE/DX   Delta X   Delta X   Delta X     New X
                                 (Linear)    (Quad)   (Total)
    R1        3.02655  -0.12216   0.00000  -0.18438  -0.18438   2.84216
    R2        3.45256  -0.00933   0.00000  -0.02629  -0.02632   3.42624
    R3        3.45124  -0.01149   0.00000  -0.03216  -0.03211   3.41913
    R4        3.02650  -0.01613   0.00000  -0.02434  -0.02434   3.00216
    R5        2.92266   0.00896   0.00000   0.02280   0.02269   2.94536
    R6        2.05980  -0.00199   0.00000  -0.00421  -0.00421   2.05559
    R7        2.05982  -0.00017   0.00000  -0.00037  -0.00037   2.05945
    R8        2.93903   0.00102   0.00000   0.00015   0.00025   2.93927
    R9        2.05977  -0.00072   0.00000  -0.00153  -0.00153   2.05825
   R10        2.05983  -0.00224   0.00000  -0.00475  -0.00475   2.05509
   R11        2.91831   0.00785   0.00000   0.02074   0.02072   2.93903
   R12        2.05986  -0.00198   0.00000  -0.00420  -0.00420   2.05566
   R13        2.05973   0.00052   0.00000   0.00110   0.00110   2.06084
   R14        2.05983  -0.00127   0.00000  -0.00268  -0.00268   2.05715
   R15        2.05990  -0.00159   0.00000  -0.00338  -0.00338   2.05653
   R16        1.81414   0.01252   0.00000   0.01747   0.01747   1.83161
    A1        1.94227   0.00180   0.00000   0.02023   0.02018   1.96246
    A2        1.93124   0.00449   0.00000   0.02835   0.02835   1.95959
    A3        1.95114  -0.00052   0.00000  -0.00415  -0.00396   1.94718
    A4        1.76116   0.00123   0.00000  -0.00374  -0.00457   1.75659
    A5        1.93121  -0.00037   0.00000  -0.00632  -0.00658   1.92463
    A6        1.93869  -0.00651   0.00000  -0.03425  -0.03422   1.90446
    A7        1.78603   0.00158   0.00000   0.00728   0.00735   1.79338
    A8        1.93033  -0.00985   0.00000  -0.06051  -0.06168   1.86865
    A9        1.93027  -0.00042   0.00000  -0.01342  -0.01490   1.91537
   A10        1.84615   0.01022   0.00000   0.07323   0.07329   1.91945
   A11        1.84613   0.00638   0.00000   0.05915   0.05872   1.90485
   A12        2.09451  -0.00500   0.00000  -0.04346  -0.04936   2.04515
   A13        1.91275  -0.00410   0.00000  -0.01703  -0.01727   1.89548
   A14        1.86159   0.00299   0.00000   0.02498   0.02484   1.88643
   A15        1.86151   0.00367   0.00000   0.01863   0.01900   1.88051
   A16        1.86481   0.00543   0.00000   0.03089   0.03104   1.89585
   A17        1.86488   0.00209   0.00000   0.01836   0.01844   1.88332
   A18        2.09434  -0.01023   0.00000  -0.07513  -0.07504   2.01930
   A19        1.90857  -0.00534   0.00000  -0.01865  -0.01890   1.88968
   A20        1.86618   0.00322   0.00000   0.02343   0.02345   1.88963
   A21        1.86608   0.00471   0.00000   0.02531   0.02556   1.89164
   A22        1.86194   0.00352   0.00000   0.01767   0.01806   1.88000
   A23        1.86203   0.00440   0.00000   0.03121   0.03110   1.89313
   A24        2.09447  -0.01081   0.00000  -0.07812  -0.07803   2.01644
   A25        1.77073   0.00412   0.00000   0.01799   0.01834   1.78907
   A26        1.93294  -0.00867   0.00000  -0.06479  -0.06648   1.86646
   A27        1.93284  -0.00429   0.00000  -0.02578  -0.02820   1.90465
   A28        1.84997   0.00927   0.00000   0.07262   0.07288   1.92285
   A29        1.84988   0.00695   0.00000   0.06398   0.06368   1.91356
   A30        2.09434  -0.00390   0.00000  -0.03841  -0.04569   2.04865
   A31        2.09440  -0.00854   0.00000  -0.03420  -0.03420   2.06019
    D1       -1.91170  -0.00191   0.00000  -0.00341  -0.00324  -1.91494
    D2        0.04835   0.00666   0.00000   0.05986   0.05853   0.10688
    D3        2.41149  -0.00978   0.00000  -0.06905  -0.06785   2.34364
    D4        0.13770   0.00468   0.00000   0.03572   0.03592   0.17362
    D5        2.09775   0.01325   0.00000   0.09899   0.09769   2.19545
    D6       -1.82230  -0.00319   0.00000  -0.02993  -0.02868  -1.85098
    D7        2.19104  -0.00229   0.00000  -0.00815  -0.00801   2.18303
    D8       -2.13209   0.00628   0.00000   0.05513   0.05376  -2.07833
    D9        0.23104  -0.01016   0.00000  -0.07379  -0.07261   0.15843
   D10        2.33061   0.00246   0.00000   0.01159   0.01154   2.34216
   D11        0.37279  -0.00683   0.00000  -0.05533  -0.05345   0.31934
   D12       -1.99489   0.01074   0.00000   0.08327   0.08171  -1.91317
   D13        0.27314  -0.00214   0.00000  -0.02148  -0.02161   0.25153
   D14       -1.68468  -0.01142   0.00000  -0.08840  -0.08661  -1.77129
   D15        2.23083   0.00615   0.00000   0.05021   0.04855   2.27939
   D16       -1.77472   0.00034   0.00000   0.00205   0.00175  -1.77297
   D17        2.55065  -0.00895   0.00000  -0.06488  -0.06325   2.48740
   D18        0.18297   0.00863   0.00000   0.07373   0.07192   0.25489
   D19       -2.50616   0.00018   0.00000   0.00245   0.00259  -2.50356
   D20       -0.33074   0.00188   0.00000   0.02104   0.02107  -0.30968
   D21        1.61043  -0.00045   0.00000  -0.00599  -0.00616   1.60427
   D22       -0.52138  -0.00589   0.00000  -0.03880  -0.03901  -0.56038
   D23        1.49127   0.00003   0.00000   0.00231   0.00208   1.49336
   D24       -2.53406  -0.00825   0.00000  -0.06180  -0.06202  -2.59607
   D25       -2.54334   0.00046   0.00000  -0.00271  -0.00201  -2.54535
   D26       -0.53070   0.00638   0.00000   0.03840   0.03909  -0.49161
   D27        1.72716  -0.00190   0.00000  -0.02571  -0.02501   1.70214
   D28        1.50051  -0.00326   0.00000  -0.02813  -0.02875   1.47176
   D29       -2.77003   0.00265   0.00000   0.01298   0.01234  -2.75769
   D30       -0.51218  -0.00563   0.00000  -0.05113  -0.05176  -0.56393
   D31        0.78769   0.00062   0.00000   0.01175   0.01136   0.79906
   D32        2.79733   0.00379   0.00000   0.03556   0.03531   2.83264
   D33       -1.22199  -0.00436   0.00000  -0.02893  -0.02915  -1.25114
   D34       -1.22290  -0.00374   0.00000  -0.02558  -0.02578  -1.24868
   D35        0.78673  -0.00057   0.00000  -0.00178  -0.00183   0.78490
   D36        3.05060  -0.00872   0.00000  -0.06626  -0.06629   2.98431
   D37        2.79823   0.00398   0.00000   0.03492   0.03472   2.83295
   D38       -1.47532   0.00715   0.00000   0.05873   0.05867  -1.41666
   D39        0.78854  -0.00100   0.00000  -0.00576  -0.00580   0.78275
   D40       -0.61578  -0.00057   0.00000   0.00201   0.00188  -0.61391
   D41        1.40409  -0.00505   0.00000  -0.03552  -0.03629   1.36780
   D42       -2.63551  -0.00008   0.00000  -0.00029   0.00018  -2.63533
   D43       -2.62813  -0.00356   0.00000  -0.02551  -0.02557  -2.65370
   D44       -0.60826  -0.00804   0.00000  -0.06305  -0.06374  -0.67200
   D45        1.63533  -0.00307   0.00000  -0.02781  -0.02727   1.60806
   D46        1.39650   0.00462   0.00000   0.03892   0.03884   1.43534
   D47       -2.86681   0.00014   0.00000   0.00138   0.00067  -2.86614
   D48       -0.62323   0.00511   0.00000   0.03661   0.03714  -0.58608
         Item               Value     Threshold  Converged?
 Maximum Force            0.122161     0.000450     NO 
 RMS     Force            0.013889     0.000300     NO 
 Maximum Displacement     0.116335     0.001800     NO 
 RMS     Displacement     0.045491     0.001200     NO 
 Predicted change in Energy=-2.940721D-02
 Lowest energy point so far.  Saving SCF results.
 GradGradGradGradGradGradGradGradGradGradGradGradGradGradGradGradGradGrad

 Leave Link  103 at Sun Oct 13 21:39:50 2019, MaxMem= 10737418240 cpu:               0.9 elap:               0.1
 (Enter /apps/cent7/gaussian/g16-A.03/g16-haswell/g16/l202.exe)
                          Input orientation:                          
 ---------------------------------------------------------------------
 Center     Atomic      Atomic             Coordinates (Angstroms)
 Number     Number       Type             X           Y           Z
 ---------------------------------------------------------------------
      1          8           0       -0.810904   -1.025318    1.435915
      2         16           0        0.259430   -0.479812    0.531011
      3          6           0        1.928955   -0.811722    1.155355
      4          6           0        2.422790    0.602527    1.585828
      5          6           0        1.782296    1.660216    0.642262
      6          6           0        0.269937    1.329103    0.493951
      7          8           0        0.106749   -1.029728   -0.951613
      8          1           0        1.821790   -1.449975    2.029654
      9          1           0        2.558720   -1.178837    0.345217
     10          1           0        2.075823    0.787101    2.601630
     11          1           0        3.500283    0.635268    1.442293
     12          1           0        1.862603    2.635005    1.118359
     13          1           0        2.252190    1.575820   -0.338233
     14          1           0       -0.276355    1.667538    1.372625
     15          1           0       -0.085138    1.667952   -0.477352
     16          1           0        0.914456   -1.220994   -1.452079
 ---------------------------------------------------------------------
                    Distance matrix (angstroms):
                    1          2          3          4          5
     1  O    0.000000
     2  S    1.504009   0.000000
     3  C    2.762456   1.813087   0.000000
     4  C    3.623414   2.638981   1.558615   0.000000
     5  C    3.816629   2.628919   2.528883   1.555395   0.000000
     6  C    2.756594   1.809325   2.787998   2.520890   1.555269
     7  O    2.557811   1.588677   2.794150   3.803539   3.547350
     8  H    2.732020   2.372364   1.087773   2.184250   3.405833
     9  H    3.545075   2.410371   1.089817   2.175052   2.958258
    10  H    3.602352   3.031800   2.160907   1.089177   2.165089
    11  H    4.619947   3.546401   2.155269   1.087504   2.154541
    12  H    4.543836   3.552073   3.447564   2.159467   1.087810
    13  H    4.392728   2.992039   2.834721   2.162964   1.090547
    14  H    2.746129   2.367804   3.325257   2.909482   2.184383
    15  H    3.382459   2.397585   3.587630   3.417827   2.177362
    16  H    3.369817   2.216090   2.827618   3.850867   3.666166
                    6          7          8          9         10
     6  C    0.000000
     7  O    2.771348   0.000000
     8  H    3.534106   3.464956   0.000000
     9  H    3.398590   2.777798   1.858469   0.000000
    10  H    2.827950   4.450130   2.322972   3.031419   0.000000
    11  H    3.437426   4.474267   2.740542   2.319718   1.842879
    12  H    2.152174   4.560490   4.185592   3.953190   2.379139
    13  H    2.163961   3.430456   3.866208   2.854680   3.048930
    14  H    1.088596   3.581075   3.814811   4.146694   2.796134
    15  H    1.088267   2.745765   4.432033   3.971249   3.863390
    16  H    3.271915   0.969246   3.605295   2.436320   4.670522
                   11         12         13         14         15
    11  H    0.000000
    12  H    2.604971   0.000000
    13  H    2.369102   1.842637   0.000000
    14  H    3.915792   2.361310   3.054339   0.000000
    15  H    4.196036   2.697254   2.343276   1.859833   0.000000
    16  H    4.302278   4.730207   3.294290   4.211959   3.208627
                   16
    16  H    0.000000
 Stoichiometry    C4H9O2S(1+)
 Framework group  C1[X(C4H9O2S)]
 Deg. of freedom    42
 Full point group                 C1      NOp   1
 RotChk:  IX=0 Diff= 1.80D-02
 Largest Abelian subgroup         C1      NOp   1
 Largest concise Abelian subgroup C1      NOp   1
                         Standard orientation:                         
 ---------------------------------------------------------------------
 Center     Atomic      Atomic             Coordinates (Angstroms)
 Number     Number       Type             X           Y           Z
 ---------------------------------------------------------------------
      1          8           0       -1.561877    0.337267   -1.271521
      2         16           0       -0.699739    0.016314   -0.081668
      3          6           0        0.454513    1.356118    0.318221
      4          6           0        1.834797    0.751397   -0.079786
      5          6           0        1.792303   -0.784328    0.163110
      6          6           0        0.457881   -1.333059   -0.417472
      7          8           0       -1.575464   -0.354033    1.191063
      8          1           0        0.212534    2.191556   -0.335031
      9          1           0        0.442843    1.543955    1.391665
     10          1           0        1.988834    0.931281   -1.142904
     11          1           0        2.585623    1.174198    0.583663
     12          1           0        2.607926   -1.240327   -0.393805
     13          1           0        1.800220   -0.962716    1.238939
     14          1           0        0.529927   -1.427263   -1.499589
     15          1           0        0.150431   -2.214267    0.142235
     16          1           0       -1.260741   -0.064090    2.060730
 ---------------------------------------------------------------------
 Rotational constants (GHZ):           3.4910630           1.9083220           1.7965550
 Leave Link  202 at Sun Oct 13 21:39:50 2019, MaxMem= 10737418240 cpu:               0.2 elap:               0.0
 (Enter /apps/cent7/gaussian/g16-A.03/g16-haswell/g16/l301.exe)
 Standard basis: 6-311++G(d,p) (5D, 7F)
 Ernie: Thresh=  0.10000D-02 Tol=  0.10000D-05 Strict=F.
 There are   232 symmetry adapted cartesian basis functions of A   symmetry.
 There are   225 symmetry adapted basis functions of A   symmetry.
   225 basis functions,   347 primitive gaussians,   232 cartesian basis functions
    32 alpha electrons       32 beta electrons
       nuclear repulsion energy       434.4263412503 Hartrees.
 IExCor= 4336 DFT=T Ex+Corr=M062X ExCW=0 ScaHFX=  0.540000
 ScaDFX=  1.000000  1.000000  1.000000  1.000000 ScalE2=  1.000000  1.000000
 IRadAn=      5 IRanWt=     -1 IRanGd=            0 ICorTp=0 IEmpDi=  4
 NAtoms=   16 NActive=   16 NUniq=   16 SFac= 1.00D+00 NAtFMM=   60 NAOKFM=F Big=F
 Integral buffers will be    131072 words long.
 Raffenetti 2 integral format.
 Two-electron integral symmetry is turned on.
 Leave Link  301 at Sun Oct 13 21:39:50 2019, MaxMem= 10737418240 cpu:               1.3 elap:               0.1
 (Enter /apps/cent7/gaussian/g16-A.03/g16-haswell/g16/l302.exe)
 NPDir=0 NMtPBC=     1 NCelOv=     1 NCel=       1 NClECP=     1 NCelD=      1
         NCelK=      1 NCelE2=     1 NClLst=     1 CellRange=     0.0.
 One-electron integrals computed using PRISM.
 One-electron integral symmetry used in STVInt
 NBasis=   225 RedAO= T EigKep=  1.46D-05  NBF=   225
 NBsUse=   225 1.00D-06 EigRej= -1.00D+00 NBFU=   225
 Precomputing XC quadrature grid using
 IXCGrd= 4 IRadAn=           5 IRanWt=          -1 IRanGd=           0 AccXCQ= 0.00D+00.
 Generated NRdTot=       0 NPtTot=           0 NUsed=           0 NTot=          32
 NSgBfM=   232   232   232   232   232 MxSgAt=    16 MxSgA2=    16.
 Leave Link  302 at Sun Oct 13 21:39:50 2019, MaxMem= 10737418240 cpu:               3.6 elap:               0.2
 (Enter /apps/cent7/gaussian/g16-A.03/g16-haswell/g16/l303.exe)
 DipDrv:  MaxL=1.
 Leave Link  303 at Sun Oct 13 21:39:50 2019, MaxMem= 10737418240 cpu:               0.6 elap:               0.0
 (Enter /apps/cent7/gaussian/g16-A.03/g16-haswell/g16/l401.exe)
 Initial guess from the checkpoint file:  "23_p.chk"
 B after Tr=    -0.000000   -0.000000   -0.000000
         Rot=    0.999976   -0.006636   -0.000179    0.001821 Ang=  -0.79 deg.
 Guess basis will be translated and rotated to current coordinates.
 JPrj=2 DoOrth=T DoCkMO=T.
 Generating alternative initial guess.
 ExpMin= 3.60D-02 ExpMax= 9.34D+04 ExpMxC= 3.17D+03 IAcc=3 IRadAn=         5 AccDes= 0.00D+00
 Harris functional with IExCor= 1009 and IRadAn=       5 diagonalized for initial guess.
 HarFok:  IExCor= 1009 AccDes= 0.00D+00 IRadAn=         5 IDoV= 1 UseB2=F ITyADJ=14
 ICtDFT=  3500011 ScaDFX=  1.000000  1.000000  1.000000  1.000000
 FoFCou: FMM=F IPFlag=           0 FMFlag=      100000 FMFlg1=           0
         NFxFlg=           0 DoJE=T BraDBF=F KetDBF=T FulRan=T
         wScrn=  0.000000 ICntrl=       500 IOpCl=  0 I1Cent=   200000004 NGrid=           0
         NMat0=    1 NMatS0=      1 NMatT0=    0 NMatD0=    1 NMtDS0=    0 NMtDT0=    0
 Petite list used in FoFCou.
 Harris En= -705.922527916606    
 Leave Link  401 at Sun Oct 13 21:39:50 2019, MaxMem= 10737418240 cpu:              10.2 elap:               0.5
 (Enter /apps/cent7/gaussian/g16-A.03/g16-haswell/g16/l502.exe)
 Integral symmetry usage will be decided dynamically.
 Closed shell SCF:
 Using DIIS extrapolation, IDIIS=  1040.
 NGot= 10737418240 LenX= 10737302645 LenY= 10737248380
 Requested convergence on RMS density matrix=1.00D-08 within 128 cycles.
 Requested convergence on MAX density matrix=1.00D-06.
 Requested convergence on             energy=1.00D-06.
 No special actions if energy rises.
 Fock matrices will be formed incrementally for  20 cycles.

 Cycle   1  Pass 1  IDiag  1:
 FoFJK:  IHMeth= 1 ICntrl=       0 DoSepK=F KAlg= 0 I1Cent=           0 FoldK=F
 IRaf= 990000000 NMat=       1 IRICut=       1 DoRegI=T DoRafI=F ISym2E= 0 IDoP0=0 IntGTp=1.
 FoFCou: FMM=F IPFlag=           0 FMFlag=      100000 FMFlg1=           0
         NFxFlg=           0 DoJE=F BraDBF=F KetDBF=F FulRan=T
         wScrn=  0.000000 ICntrl=         0 IOpCl=  0 I1Cent=           0 NGrid=           0
         NMat0=    1 NMatS0=      1 NMatT0=    0 NMatD0=    1 NMtDS0=    0 NMtDT0=    0
 Symmetry not used in FoFCou.
 E= -706.057843205791    
 DIIS: error= 4.48D-03 at cycle   1 NSaved=   1.
 NSaved= 1 IEnMin= 1 EnMin= -706.057843205791     IErMin= 1 ErrMin= 4.48D-03
 ErrMax= 4.48D-03  0.00D+00 EMaxC= 1.00D-01 BMatC= 8.13D-03 BMatP= 8.13D-03
 IDIUse=3 WtCom= 9.55D-01 WtEn= 4.48D-02
 Coeff-Com:  0.100D+01
 Coeff-En:   0.100D+01
 Coeff:      0.100D+01
 Gap=     0.546 Goal=   None    Shift=    0.000
 GapD=    0.546 DampG=2.000 DampE=1.000 DampFc=2.0000 IDamp=-1.
 RMSDP=3.49D-03 MaxDP=1.91D-01              OVMax= 2.79D-02

 Cycle   2  Pass 1  IDiag  1:
 RMSU=  3.11D-03    CP:  9.36D-01
 E= -706.065938368579     Delta-E=       -0.008095162788 Rises=F Damp=F
 DIIS: error= 3.04D-03 at cycle   2 NSaved=   2.
 NSaved= 2 IEnMin= 2 EnMin= -706.065938368579     IErMin= 2 ErrMin= 3.04D-03
 ErrMax= 3.04D-03  0.00D+00 EMaxC= 1.00D-01 BMatC= 2.76D-03 BMatP= 8.13D-03
 IDIUse=3 WtCom= 9.70D-01 WtEn= 3.04D-02
 Coeff-Com:  0.298D+00 0.702D+00
 Coeff-En:   0.000D+00 0.100D+01
 Coeff:      0.289D+00 0.711D+00
 Gap=     0.377 Goal=   None    Shift=    0.000
 RMSDP=9.83D-04 MaxDP=3.47D-02 DE=-8.10D-03 OVMax= 2.49D-02

 Cycle   3  Pass 1  IDiag  1:
 RMSU=  8.22D-04    CP:  9.57D-01  9.41D-01
 E= -706.066689857079     Delta-E=       -0.000751488499 Rises=F Damp=F
 DIIS: error= 2.50D-03 at cycle   3 NSaved=   3.
 NSaved= 3 IEnMin= 3 EnMin= -706.066689857079     IErMin= 3 ErrMin= 2.50D-03
 ErrMax= 2.50D-03  0.00D+00 EMaxC= 1.00D-01 BMatC= 2.00D-03 BMatP= 2.76D-03
 IDIUse=3 WtCom= 9.75D-01 WtEn= 2.50D-02
 Coeff-Com: -0.296D-01 0.461D+00 0.568D+00
 Coeff-En:   0.000D+00 0.403D+00 0.597D+00
 Coeff:     -0.288D-01 0.460D+00 0.569D+00
 Gap=     0.383 Goal=   None    Shift=    0.000
 RMSDP=5.45D-04 MaxDP=2.16D-02 DE=-7.51D-04 OVMax= 1.03D-02

 Cycle   4  Pass 1  IDiag  1:
 RMSU=  1.52D-04    CP:  9.44D-01  1.01D+00  5.52D-01
 E= -706.068165071625     Delta-E=       -0.001475214547 Rises=F Damp=F
 DIIS: error= 5.21D-04 at cycle   4 NSaved=   4.
 NSaved= 4 IEnMin= 4 EnMin= -706.068165071625     IErMin= 4 ErrMin= 5.21D-04
 ErrMax= 5.21D-04  0.00D+00 EMaxC= 1.00D-01 BMatC= 6.31D-05 BMatP= 2.00D-03
 IDIUse=3 WtCom= 9.95D-01 WtEn= 5.21D-03
 Coeff-Com: -0.359D-01 0.112D+00 0.224D+00 0.700D+00
 Coeff-En:   0.000D+00 0.000D+00 0.000D+00 0.100D+01
 Coeff:     -0.358D-01 0.111D+00 0.223D+00 0.702D+00
 Gap=     0.382 Goal=   None    Shift=    0.000
 RMSDP=1.90D-04 MaxDP=1.34D-02 DE=-1.48D-03 OVMax= 2.04D-03

 Cycle   5  Pass 1  IDiag  1:
 RMSU=  9.35D-05    CP:  9.50D-01  1.00D+00  6.61D-01  1.07D+00
 E= -706.068224319688     Delta-E=       -0.000059248062 Rises=F Damp=F
 DIIS: error= 1.24D-04 at cycle   5 NSaved=   5.
 NSaved= 5 IEnMin= 5 EnMin= -706.068224319688     IErMin= 5 ErrMin= 1.24D-04
 ErrMax= 1.24D-04  0.00D+00 EMaxC= 1.00D-01 BMatC= 4.61D-06 BMatP= 6.31D-05
 IDIUse=3 WtCom= 9.99D-01 WtEn= 1.24D-03
 Coeff-Com: -0.670D-02-0.130D-01 0.649D-02 0.212D+00 0.802D+00
 Coeff-En:   0.000D+00 0.000D+00 0.000D+00 0.000D+00 0.100D+01
 Coeff:     -0.669D-02-0.130D-01 0.648D-02 0.211D+00 0.802D+00
 Gap=     0.382 Goal=   None    Shift=    0.000
 RMSDP=2.96D-05 MaxDP=8.50D-04 DE=-5.92D-05 OVMax= 8.78D-04

 Cycle   6  Pass 1  IDiag  1:
 RMSU=  2.12D-05    CP:  9.50D-01  9.99D-01  6.81D-01  1.13D+00  9.20D-01
 E= -706.068230308214     Delta-E=       -0.000005988526 Rises=F Damp=F
 DIIS: error= 3.61D-05 at cycle   6 NSaved=   6.
 NSaved= 6 IEnMin= 6 EnMin= -706.068230308214     IErMin= 6 ErrMin= 3.61D-05
 ErrMax= 3.61D-05  0.00D+00 EMaxC= 1.00D-01 BMatC= 6.70D-07 BMatP= 4.61D-06
 IDIUse=1 WtCom= 1.00D+00 WtEn= 0.00D+00
 Coeff-Com:  0.172D-02-0.173D-01-0.283D-01-0.170D-01 0.256D+00 0.805D+00
 Coeff:      0.172D-02-0.173D-01-0.283D-01-0.170D-01 0.256D+00 0.805D+00
 Gap=     0.382 Goal=   None    Shift=    0.000
 RMSDP=2.19D-05 MaxDP=1.17D-03 DE=-5.99D-06 OVMax= 3.06D-04

 Cycle   7  Pass 1  IDiag  1:
 RMSU=  8.57D-06    CP:  9.50D-01  9.97D-01  6.89D-01  1.18D+00  1.00D+00
                    CP:  9.37D-01
 E= -706.068231051857     Delta-E=       -0.000000743643 Rises=F Damp=F
 DIIS: error= 2.58D-05 at cycle   7 NSaved=   7.
 NSaved= 7 IEnMin= 7 EnMin= -706.068231051857     IErMin= 7 ErrMin= 2.58D-05
 ErrMax= 2.58D-05  0.00D+00 EMaxC= 1.00D-01 BMatC= 1.54D-07 BMatP= 6.70D-07
 IDIUse=1 WtCom= 1.00D+00 WtEn= 0.00D+00
 Coeff-Com:  0.154D-02-0.676D-02-0.154D-01-0.327D-01 0.377D-01 0.400D+00
 Coeff-Com:  0.615D+00
 Coeff:      0.154D-02-0.676D-02-0.154D-01-0.327D-01 0.377D-01 0.400D+00
 Coeff:      0.615D+00
 Gap=     0.382 Goal=   None    Shift=    0.000
 RMSDP=5.26D-06 MaxDP=1.90D-04 DE=-7.44D-07 OVMax= 1.09D-04

 Cycle   8  Pass 1  IDiag  1:
 RMSU=  3.04D-06    CP:  9.50D-01  9.97D-01  6.90D-01  1.17D+00  9.91D-01
                    CP:  1.09D+00  8.64D-01
 E= -706.068231177549     Delta-E=       -0.000000125691 Rises=F Damp=F
 DIIS: error= 3.67D-06 at cycle   8 NSaved=   8.
 NSaved= 8 IEnMin= 8 EnMin= -706.068231177549     IErMin= 8 ErrMin= 3.67D-06
 ErrMax= 3.67D-06  0.00D+00 EMaxC= 1.00D-01 BMatC= 5.95D-09 BMatP= 1.54D-07
 IDIUse=1 WtCom= 1.00D+00 WtEn= 0.00D+00
 Coeff-Com:  0.166D-03 0.443D-03-0.782D-03-0.590D-02-0.191D-01 0.462D-02
 Coeff-Com:  0.152D+00 0.869D+00
 Coeff:      0.166D-03 0.443D-03-0.782D-03-0.590D-02-0.191D-01 0.462D-02
 Coeff:      0.152D+00 0.869D+00
 Gap=     0.382 Goal=   None    Shift=    0.000
 RMSDP=1.60D-06 MaxDP=8.22D-05 DE=-1.26D-07 OVMax= 3.11D-05

 Cycle   9  Pass 1  IDiag  1:
 RMSU=  6.19D-07    CP:  9.50D-01  9.97D-01  6.91D-01  1.17D+00  9.94D-01
                    CP:  1.11D+00  9.56D-01  1.01D+00
 E= -706.068231184551     Delta-E=       -0.000000007002 Rises=F Damp=F
 DIIS: error= 2.02D-06 at cycle   9 NSaved=   9.
 NSaved= 9 IEnMin= 9 EnMin= -706.068231184551     IErMin= 9 ErrMin= 2.02D-06
 ErrMax= 2.02D-06  0.00D+00 EMaxC= 1.00D-01 BMatC= 7.93D-10 BMatP= 5.95D-09
 IDIUse=1 WtCom= 1.00D+00 WtEn= 0.00D+00
 Coeff-Com: -0.591D-04 0.732D-03 0.939D-03 0.408D-03-0.107D-01-0.313D-01
 Coeff-Com:  0.605D-02 0.337D+00 0.697D+00
 Coeff:     -0.591D-04 0.732D-03 0.939D-03 0.408D-03-0.107D-01-0.313D-01
 Coeff:      0.605D-02 0.337D+00 0.697D+00
 Gap=     0.382 Goal=   None    Shift=    0.000
 RMSDP=3.33D-07 MaxDP=9.85D-06 DE=-7.00D-09 OVMax= 9.38D-06

 Cycle  10  Pass 1  IDiag  1:
 RMSU=  1.94D-07    CP:  9.50D-01  9.97D-01  6.91D-01  1.17D+00  9.94D-01
                    CP:  1.12D+00  9.63D-01  1.04D+00  1.05D+00
 E= -706.068231185476     Delta-E=       -0.000000000925 Rises=F Damp=F
 DIIS: error= 4.16D-07 at cycle  10 NSaved=  10.
 NSaved=10 IEnMin=10 EnMin= -706.068231185476     IErMin=10 ErrMin= 4.16D-07
 ErrMax= 4.16D-07  0.00D+00 EMaxC= 1.00D-01 BMatC= 3.91D-11 BMatP= 7.93D-10
 IDIUse=1 WtCom= 1.00D+00 WtEn= 0.00D+00
 Coeff-Com: -0.244D-04 0.130D-03 0.283D-03 0.632D-03-0.116D-02-0.773D-02
 Coeff-Com: -0.972D-02 0.993D-02 0.184D+00 0.823D+00
 Coeff:     -0.244D-04 0.130D-03 0.283D-03 0.632D-03-0.116D-02-0.773D-02
 Coeff:     -0.972D-02 0.993D-02 0.184D+00 0.823D+00
 Gap=     0.382 Goal=   None    Shift=    0.000
 RMSDP=1.49D-07 MaxDP=5.29D-06 DE=-9.25D-10 OVMax= 2.52D-06

 Cycle  11  Pass 1  IDiag  1:
 RMSU=  6.73D-08    CP:  9.50D-01  9.97D-01  6.91D-01  1.17D+00  9.94D-01
                    CP:  1.12D+00  9.70D-01  1.05D+00  1.12D+00  1.07D+00
 E= -706.068231185524     Delta-E=       -0.000000000048 Rises=F Damp=F
 DIIS: error= 6.26D-08 at cycle  11 NSaved=  11.
 NSaved=11 IEnMin=11 EnMin= -706.068231185524     IErMin=11 ErrMin= 6.26D-08
 ErrMax= 6.26D-08  0.00D+00 EMaxC= 1.00D-01 BMatC= 1.98D-12 BMatP= 3.91D-11
 IDIUse=1 WtCom= 1.00D+00 WtEn= 0.00D+00
 Coeff-Com:  0.150D-05-0.413D-04-0.404D-04 0.941D-04 0.606D-03 0.143D-02
 Coeff-Com: -0.197D-02-0.266D-01-0.232D-01 0.107D+00 0.943D+00
[...]
     6          4.27734512         -1.17094488          3.50710884
     6          1.81071184         -2.70793049          3.56599545
     6          0.64053944         -2.50228980          0.92883186
     8         -1.27351262          2.06096014          1.01024575
     1          5.17085483          2.39452431          1.41348261
     1          2.75230557          2.69056434          3.78122918
     1          5.68038867         -2.11155768          2.32147062
     1          5.08224271         -0.94873591          5.38813347
     1          2.16292468         -4.68537071          4.01637964
     1          0.51011629         -1.95196065          4.97953791
     1          1.65786773         -3.60347883         -0.49420075
     1         -1.38775543         -2.82535147          0.78399087
     1         -1.60209694          3.66478497          0.16598310

 Electric dipole moment (dipole orientation):
 (Debye = 10**-18 statcoulomb cm , SI units = C m)
                  (au)            (Debye)         (10**-30 SI)
   Tot        0.978605D+00      0.248737D+01      0.829696D+01
   x          0.000000D+00      0.000000D+00      0.000000D+00
   y          0.000000D+00      0.000000D+00      0.000000D+00
   z          0.978605D+00      0.248737D+01      0.829696D+01

 Dipole polarizability, Alpha (dipole orientation).
 (esu units = cm**3 , SI units = C**2 m**2 J**-1)
 Alpha(0;0):
               (au)            (10**-24 esu)      (10**-40 SI)
   iso        0.642634D+02      0.952285D+01      0.105956D+02
   aniso      0.126810D+02      0.187913D+01      0.209081D+01
   xx         0.621498D+02      0.920965D+01      0.102471D+02
   yx        -0.117923D+01     -0.174745D+00     -0.194430D+00
   yy         0.646635D+02      0.958215D+01      0.106616D+02
   zx         0.381547D+01      0.565395D+00      0.629087D+00
   zy        -0.582001D+01     -0.862436D+00     -0.959590D+00
   zz         0.659767D+02      0.977675D+01      0.108781D+02

 ----------------------------------------------------------------------
 1\1\GINC-BROWN-A145\Freq\RM062X\6-311++G(d,p)\C4H9O2S1(1+)\FINEJ\13-Oc
 t-2019\0\\#P Geom=AllCheck Guess=TCheck SCRF=Check GenChk RM062X/6-311
 ++G(d,p) Freq\\Title Card Required\\1,1\O,-0.7300804813,-1.161608787,1
 .1602616334\S,0.3420720109,-0.4741045349,0.4935760935\C,2.0022408179,-
 0.7386941045,1.1656340759\C,2.4091716654,0.6607806897,1.6464574243\C,1
 .8161949303,1.6752658121,0.6537541824\C,0.3349002565,1.3230086338,0.49
 7350455\O,0.4388721507,-0.7763761274,-1.0649058071\H,1.907685539,-1.50
 11177649,1.9390208546\H,2.614645318,-1.0967273783,0.3361753146\H,2.016
 8869163,0.8380940326,2.6501108427\H,3.4950532003,0.7295539429,1.693251
 5952\H,1.9140154652,2.6966731634,1.0193858306\H,2.3208947145,1.6120968
 107,-0.312956187\H,-0.2617846151,1.585213819,1.375794719\H,-0.15677990
 98,1.6582155026,-0.4153486536\H,0.1196383113,-1.6661299899,-1.30273959
 36\\Version=ES64L-G16RevA.03\State=1-A\HF=-706.0919851\RMSD=1.797e-09\
 RMSF=1.325e-05\ZeroPoint=0.1342038\Thermal=0.1342038\Dipole=0.8942868,
 0.2525355,-0.3068313\DipoleDeriv=-0.8881184,-0.2745872,0.1017948,-0.26
 78473,-0.7014636,0.0779756,0.161638,0.1052728,-0.5644544,1.6659798,0.2
 837563,-0.0716746,0.2749309,1.544009,0.0862448,-0.0155914,0.1409289,1.
 9185957,0.0078595,0.0176273,0.0508366,0.0115841,-0.2091086,-0.0096786,
 0.0557797,0.0082416,-0.0771498,-0.0839395,-0.0245942,-0.0815718,0.0776
 317,0.1354579,0.0618235,0.0122527,0.0472696,0.0816222,0.1461146,0.0600
 029,0.0008503,-0.0532525,-0.1167659,-0.0015844,-0.0380542,-0.0560335,0
 .0521029,-0.1697159,0.0291314,-0.0366626,0.0591468,0.0295388,0.0486225
 ,-0.0457645,0.094371,-0.1089049,-0.5440806,-0.030348,-0.0646448,-0.035
 3376,-0.6390222,-0.3657315,-0.1918244,-0.4028655,-1.2231801,0.0594453,
 -0.0150944,-0.0156938,-0.031631,0.0815212,-0.0148206,0.009676,-0.00751
 53,0.1109211,0.0581374,-0.0027494,-0.0139541,-0.0259482,0.096575,-0.00
 95831,-0.0485377,-0.0157427,0.0360321,0.0556556,0.007297,0.066934,-0.0
 044932,0.0250558,-0.0040298,0.0324877,-0.0024651,0.0045891,0.0332945,0
 .0067464,-0.0104117,-0.0189397,0.0626639,-0.0168419,-0.0119421,-0.0060
 815,0.0884494,0.0642522,-0.0228664,-0.0078478,0.0036166,0.0382484,-0.0
 106218,-0.0056052,-0.0174334,0.0938813,0.026456,0.0116305,0.0111589,0.
 0277139,0.0853965,-0.0311862,0.0188058,-0.0019534,-0.0141625,0.0969506
 ,-0.0549295,0.0009035,-0.0325799,0.0590242,0.0068189,0.019969,0.038087
 7,0.0749749,0.0857922,-0.0338895,-0.0094112,-0.0124422,0.078605,-0.012
 0549,-0.0100666,-0.0361129,0.1095473,0.3859166,0.0428668,0.079394,0.02
 78475,0.4302645,0.1946474,0.056777,0.1120319,0.4171357\Polar=65.902775
 ,5.4317393,66.7659749,3.1550596,1.0443503,60.1213409\Quadrupole=-2.045
 4623,3.4867239,-1.4412616,-0.9488556,4.1418282,4.0214267\PG=C01 [X(C4H
 9O2S1)]\NImag=0\\0.40176485,0.22773305,0.18911434,-0.21864692,-0.14052
 718,0.18691404,-0.40598780,-0.20883850,0.19192848,0.69385978,-0.210543
 70,-0.21630195,0.12574817,0.20246348,0.57489428,0.19422570,0.12623844,
 -0.19336311,-0.15422587,-0.06960820,0.61178092,-0.00033614,0.00144544,
 -0.00648042,-0.10850062,0.01746500,-0.02235091,0.36009000,-0.01280242,
 0.01190749,-0.00017813,0.02358487,-0.07449099,0.01324582,-0.02765428,0
 .52068334,0.02021765,0.00416532,0.00799321,-0.01454999,0.00656210,-0.0
 6751186,-0.11310940,-0.05133029,0.55728141,-0.00597111,0.00266734,0.00
 167622,-0.02040653,-0.02548331,-0.01594326,-0.07483501,-0.02237637,-0.
 00648231,0.62116729,0.00434397,-0.00215925,-0.00148250,-0.02859478,0.0
 0759323,-0.00962337,-0.01448375,-0.15975302,-0.03122778,0.00262524,0.4
 1470288,0.00049630,0.00039592,0.00025740,-0.00854803,-0.00731272,-0.00
 654682,-0.00317962,-0.03648251,-0.09281808,-0.02850915,0.02927875,0.56
 255054,-0.00042606,0.00451358,-0.00286237,-0.00252198,-0.03181939,0.00
 069591,0.00126706,-0.00034099,0.00283441,-0.08948875,0.03141264,-0.022
 47677,0.45550178,-0.00003910,-0.00843201,0.00259191,-0.03261226,-0.020
 22848,0.00084071,0.00492707,-0.03417061,0.01972460,0.02343323,-0.11745
 100,0.04262395,0.02345309,0.58958123,-0.00120149,0.00064791,-0.0001532
 9,-0.00568418,-0.00859311,0.00152693,0.00487710,-0.00226796,0.00781766
 ,-0.01973488,0.04612394,-0.13013504,-0.06606136,0.05306202,0.55923794,
 0.00898576,-0.02107183,0.00513650,-0.06786930,0.01688845,0.00006699,0.
 00216936,0.01291097,-0.00158807,-0.02424517,0.00462319,-0.00854852,-0.
 17861139,-0.02289002,-0.00306333,0.50285082,0.00430106,0.00728946,-0.0
 0602358,0.00904685,-0.12769756,0.00312145,0.00119364,-0.00080473,0.004
 01882,0.01834815,0.00147136,0.00009116,-0.01600702,-0.07419408,-0.0001
 7362,-0.06607512,0.33441788,0.00603521,0.01080200,0.00353719,-0.002140
 43,0.01341771,-0.06007382,-0.00627705,0.00508570,0.00930560,-0.0278877
 3,0.00101714,-0.00417804,-0.00111171,0.00004690,-0.08046563,0.00567707
 ,-0.02880635,0.62089823,0.00884373,0.00473405,0.02846822,-0.06500449,-
 0.01979791,-0.00511149,0.00461540,-0.00404146,-0.01483277,-0.00223605,
 0.00217499,-0.00172877,-0.00171236,0.00214919,0.00082891,0.00788942,-0
 .00165163,-0.00479414,0.10159701,-0.00172761,0.01600540,0.01722322,-0.
 01214945,-0.10139584,-0.05994493,0.00184291,0.01106118,-0.00248736,-0.
 00007645,-0.00334935,0.00199716,0.00137396,-0.00181447,-0.00113611,0.0
 0450927,0.00012108,-0.03173816,0.17163773,0.49762122,0.00138684,-0.004
 41204,-0.01279437,0.01322694,-0.03038347,-0.25751964,0.01113225,-0.005
 64126,-0.00996615,-0.00512036,0.00304778,-0.00057454,0.00117684,-0.002
 61237,-0.00178265,0.00004887,0.00350002,-0.00857392,0.02168872,0.15428
 290,0.34308589,0.00255196,-0.00207876,0.00252468,0.00007525,0.02274690
 ,-0.02158116,-0.04698686,-0.01862426,0.02174711,0.00141129,-0.00555426
 ,0.00862086,-0.00257556,-0.00188277,-0.00223164,-0.00373282,0.00115308
 ,-0.00000107,-0.00251174,-0.00218582,-0.00347342,0.04990260,-0.0006496
 2,0.00047699,-0.00080839,0.00336861,-0.00323468,0.00190280,-0.01775226
 ,-0.18112462,0.14225973,0.00076116,-0.01315829,0.01792901,-0.00123502,
 -0.00419724,-0.00219864,-0.00087778,-0.00093567,0.00053173,-0.00143170
 ,-0.00075546,-0.00168852,0.01735197,0.19305427,0.00118812,-0.00103701,
 0.00105576,0.00111901,0.00656400,-0.00931176,0.01795650,0.14293061,-0.
 19274183,0.00134361,-0.00872629,0.01198107,-0.00102912,-0.00333365,-0.
 00111928,-0.00066463,-0.00061337,0.00027962,-0.00218507,-0.00054284,-0
 .00139759,-0.01768827,-0.15031174,0.20293524,-0.00558053,-0.00126092,-
 0.00171072,-0.02024273,0.00954580,0.02094536,-0.13232058,0.05272814,0.
 12209621,0.00789341,-0.00413840,-0.01077552,-0.00016676,0.00033198,-0.
 00002191,-0.00164558,-0.00024655,-0.00301543,0.00401697,-0.00077281,0.
 00043507,0.00128260,-0.00050647,-0.00010994,0.14582569,-0.00154571,0.0
 0019763,-0.00076725,0.00267304,-0.00390848,-0.00084426,0.05236107,-0.0
 7327555,-0.06629010,0.01590544,-0.00860772,-0.02206688,0.00042252,0.00
 151625,-0.00060390,0.00036552,-0.00054076,0.00110609,-0.00071772,0.000
 06596,-0.00048864,-0.01420336,0.00908925,0.01470673,-0.05329285,0.0786
 4855,-0.00383668,-0.00177070,-0.00023601,-0.00726612,0.00634274,0.0091
 9818,0.12444477,-0.06549174,-0.20834488,0.00348420,-0.00326980,-0.0078
 3422,-0.00008615,0.00027756,0.00087291,-0.00116594,-0.00036163,-0.0025
 1111,-0.00041198,-0.00027722,-0.00064938,0.01255958,-0.00862893,-0.012
 90361,-0.12728729,0.07452205,0.22038750,0.00001941,0.00010843,0.000282
 08,0.00114027,-0.00033368,-0.00053816,0.00297599,-0.00310633,-0.009991
 00,-0.08937343,0.01636734,0.09160424,0.00401521,-0.00240626,-0.0126692
 8,0.00115398,-0.00025062,-0.00040844,-0.00015283,0.00050506,0.00002853
 ,0.00045900,0.00066522,0.00025773,0.00017614,-0.00147362,-0.00056241,0
 .08944066,-0.00055723,0.00018002,0.00041007,0.00256669,-0.00167091,-0.
 00115689,0.01109676,-0.00957199,-0.02917393,0.01554799,-0.05386828,-0.
 03899689,-0.00966351,0.00296540,0.02394148,-0.00112298,0.00030566,-0.0
 0071311,-0.00071354,0.00066591,-0.00030351,0.00080176,0.00138165,0.000
 19410,-0.00335132,-0.00466316,-0.00191470,-0.01690601,0.06538158,-0.00
 017433,0.00000441,0.00020493,0.00074374,-0.00060636,-0.00133247,0.0018
 8818,-0.00203160,-0.00581590,0.09116837,-0.04128176,-0.27638543,0.0074
 1522,-0.00126877,-0.01865580,0.00045426,-0.00051762,0.00069495,-0.0001
 4718,0.00023619,0.00002599,-0.00033322,0.00023243,0.00084090,-0.000540
 93,-0.00040719,0.00088759,-0.09683516,0.04256420,0.29720229,0.00057374
 ,-0.00002845,-0.00027958,0.00127715,0.00042899,0.00086301,-0.00610395,
 -0.00173003,-0.00059920,-0.32831864,-0.01799330,-0.00898515,-0.0084531
 6,-0.00042596,-0.00006754,0.00065294,0.00172201,-0.00148404,0.00015200
 ,-0.00020958,0.00039665,-0.00024168,-0.00029245,-0.00036600,0.00097294
 ,0.00016090,0.00015571,-0.00959988,-0.00052915,-0.00051426,0.34870222,
 -0.00255962,0.00111721,0.00023568,0.00145029,-0.00761388,0.00047277,-0
 .02987301,-0.00435433,-0.00295009,-0.01750655,-0.04643675,-0.00105857,
 0.02263731,0.00263074,-0.00059475,0.00178228,-0.00313420,0.00380566,-0
 .00095527,0.00080252,-0.00171908,-0.00003161,-0.00049877,0.00013452,0.
 00020672,0.00174045,0.00014774,0.00543372,0.00055594,0.00060036,0.0192
 3748,0.05293276,-0.00072146,-0.00011181,0.00024395,-0.00177035,-0.0014
 6496,-0.00125167,-0.00971098,-0.00056568,-0.00106550,-0.00479416,-0.00
 181406,-0.04649907,-0.02110985,-0.00187692,-0.00140985,-0.00113100,0.0
 0288318,-0.00265330,-0.00010221,-0.00020102,-0.00097516,0.00008370,-0.
 00006684,-0.00004049,-0.00031669,0.00034555,0.00051403,0.02991827,0.00
 238990,0.00218518,0.01068371,0.00179264,0.04973222,0.00015761,-0.00289
 761,0.00106636,-0.00751578,0.00155391,-0.00093903,-0.00071196,0.002151
 08,-0.00272637,0.00149145,0.01254175,0.00620400,-0.04836311,-0.0214523
 0,-0.00719511,-0.00505057,-0.03013013,-0.01015526,0.00086265,-0.001274
 02,-0.00098129,0.00061510,0.00063840,0.00031181,0.00003459,-0.00026350
 ,0.00001875,0.00053367,-0.00066854,0.00011922,-0.00006190,-0.00016917,
 0.00050619,0.05430487,0.00001792,0.00054650,-0.00044272,0.00071382,0.0
 0055850,0.00052725,0.00167001,-0.00119191,0.00352305,-0.00168962,-0.01
 683533,-0.00621402,-0.02328572,-0.29204462,-0.09127086,-0.00150104,-0.
 00459402,-0.00153150,-0.00021144,0.00023977,0.00013570,-0.00035797,-0.
 00060042,-0.00058633,0.00000163,0.00009311,-0.00007934,-0.00045804,0.0
 0073345,-0.00013970,0.00014268,0.00022471,-0.00023941,0.02498216,0.312
 43747,0.00048325,0.00018837,0.00016244,-0.00013323,0.00247653,-0.00145
 749,-0.00154116,0.00337820,-0.00279303,0.00302296,0.02132119,0.0077826
 0,-0.00735430,-0.09501162,-0.08048164,-0.00155961,-0.00306529,-0.00162
 221,0.00001230,0.00004672,0.00039309,0.00046894,0.00097178,0.00065409,
 -0.00002343,0.00022988,0.00004460,0.00065084,-0.00022098,0.00081014,0.
 00005578,-0.00068971,0.00047861,0.00908890,0.09621633,0.08432378,0.000
 33099,-0.00069469,-0.00022013,-0.00206201,0.00191977,0.00263153,0.0000
 7393,-0.00092273,0.00010629,0.00754326,-0.00138756,-0.01541430,-0.1050
 5605,0.00796622,0.10910717,-0.01860207,0.00179008,0.02765855,0.0002517
 0,-0.00000444,-0.00044832,-0.00001927,-0.00010545,-0.00003491,0.000163
 49,0.00000213,0.00028588,-0.00060520,0.00295494,-0.00221143,0.00059439
 ,-0.00060246,-0.00004278,0.00198964,0.00026331,-0.00312855,0.11869358,
 0.00015980,-0.00006263,-0.00012051,-0.00053296,0.00053797,0.00145726,-
 0.00031900,0.00133689,0.00014019,-0.01015416,0.00084980,0.02002812,0.0
 0826246,-0.05325223,-0.01716490,-0.00471501,-0.00086982,0.00630267,0.0
 0007271,0.00020976,-0.00013122,0.00019013,0.00000526,-0.00008248,0.000
 18323,-0.00042739,-0.00014233,0.00156004,-0.00265630,0.00244892,-0.000
 19565,0.00096594,-0.00077688,0.01456514,0.00005390,-0.02634179,-0.0087
 2596,0.05254923,0.00003944,-0.00010265,0.00002664,0.00040564,0.0005594
 8,-0.00034163,0.00005806,-0.00039631,0.00079839,0.00768974,-0.00159836
 ,-0.01920952,0.11182850,-0.01699153,-0.26146874,-0.00418877,0.00049463
 ,0.00691633,-0.00009767,-0.00002178,0.00010430,-0.00019600,0.00002949,
 0.00009591,0.00021048,0.00070266,0.00017459,-0.00186783,0.00316742,-0.
 00075670,-0.00001684,-0.00033509,0.00051485,0.00472084,-0.00006203,-0.
 00885203,-0.11680479,0.01495872,0.28050673,-0.00046390,-0.00029987,0.0
 0003744,-0.00041783,0.00236594,-0.00178684,-0.00044759,0.00013554,-0.0
 0048115,0.00129829,-0.00012935,0.00093357,-0.01613457,0.00718541,0.024
 31562,-0.12288324,0.03859143,0.12044418,-0.00027900,-0.00326247,-0.001
 51148,0.00002821,0.00013438,0.00006982,-0.00008036,-0.00013516,0.00001
 094,-0.00023279,0.00040417,-0.00088170,0.00016551,-0.00024130,-0.00033
 394,0.00169090,0.00008584,0.00012801,-0.00476584,-0.00089899,-0.002045
 75,0.13369113,-0.00146974,0.00358509,0.00233106,0.01861209,-0.01089212
 ,-0.02730587,-0.00148171,-0.00258781,0.00215051,0.00040469,0.00004382,
 -0.00027331,-0.00653520,0.00276167,0.01060500,0.03821544,-0.06126417,-
 0.05241483,-0.00163371,-0.00769825,-0.00242817,0.00112876,0.00016303,0
 .00024155,-0.00030118,-0.00001018,-0.00012025,0.00029647,0.00035653,-0
 .00001590,-0.00000419,-0.00005069,0.00002760,0.00016223,0.00061994,0.0
 0054583,-0.00304080,0.00060928,-0.00091240,-0.03847492,0.06914320,-0.0
 0049698,0.00052139,0.00089735,-0.00062091,-0.00183575,-0.00254045,0.00
 058388,0.00016231,-0.00062143,-0.00025233,-0.00022227,0.00104972,-0.00
 233742,0.00305563,0.00466732,0.11791206,-0.05349390,-0.22728659,0.0002
 4250,0.00046619,0.00067943,-0.00021648,-0.00006150,0.00000173,-0.00001
 549,-0.00009679,-0.00000771,0.00002699,-0.00018310,-0.00015179,0.00007
 185,-0.00006898,-0.00002228,0.00030866,0.00004764,0.00054766,-0.001436
 01,-0.00010718,0.00070519,-0.12775192,0.06012409,0.23832464,-0.0011173
 7,-0.00186144,-0.00076685,-0.00088065,0.00330418,0.00287354,-0.0008126
 3,-0.00087416,-0.00145364,-0.00558762,-0.00150882,0.00013464,-0.007184
 81,0.01174743,-0.02141812,-0.10021028,0.03774749,-0.10679822,-0.000379
 75,-0.00070590,0.00023536,0.00002505,0.00015597,0.00008565,0.00024708,
 0.00011420,0.00022479,-0.00000319,-0.00006409,-0.00014722,-0.00029793,
 0.00120264,-0.00105522,-0.00015651,-0.00032300,-0.00012755,0.00134015,
 0.00062233,0.00029711,0.00832851,-0.00723148,0.01374788,0.10643691,-0.
 00334444,-0.00228245,-0.00118964,0.01574421,-0.01393351,0.02691824,0.0
 0104532,-0.00360731,-0.00145079,-0.00335391,-0.00272531,0.00018120,-0.
 00292027,0.00627388,-0.01042021,0.03864729,-0.07011463,0.07303986,-0.0
 0037226,0.00321807,-0.00021667,0.00080549,-0.00006448,0.00005086,0.001
 04098,-0.00023633,0.00077960,0.00009320,-0.00007363,0.00023104,-0.0002
 8188,0.00088560,-0.00044469,0.00017926,-0.00022684,-0.00010451,0.00065
 068,0.00018353,0.00046956,-0.00529514,0.00511313,-0.00808436,-0.042252
 05,0.07748514,-0.00081167,-0.00001228,0.00016273,0.00276848,-0.0006026
 2,0.00190467,0.00097220,-0.00158209,-0.00022365,0.00043775,-0.00086487
 ,0.00053868,0.00070736,-0.00132710,0.00159601,-0.10833832,0.07746277,-
 0.25064930,0.00012950,-0.00129644,-0.00077981,0.00026262,-0.00003333,-
 0.00001982,0.00034379,-0.00011182,0.00028366,0.00008815,-0.00008531,0.
 00023121,0.00012615,0.00009286,0.00023355,-0.00025294,0.00013333,-0.00
 011086,0.00019872,-0.00032544,0.00076191,-0.01088129,0.00850909,-0.016
 58929,0.11392743,-0.07984073,0.26244142,-0.00334514,-0.00216982,-0.000
 15297,0.00505728,0.00929557,0.00017468,-0.00013640,0.00096242,-0.00118
 776,-0.00034269,-0.00029892,0.00017222,-0.00008948,0.00051505,0.000220
 04,-0.00085187,0.00046728,0.00425852,-0.05595266,-0.15750036,-0.038221
 21,-0.00028312,-0.00022495,-0.00025432,-0.00057637,-0.00037289,-0.0005
 6805,0.00005299,0.00020405,-0.00000357,-0.00001377,-0.00001145,-0.0001
 0323,0.00017936,-0.00005054,-0.00004316,0.00012930,-0.00007413,-0.0000
 3214,0.00050258,0.00135325,0.00023371,0.00025304,-0.00038646,0.0003220
 6,0.05541695,-0.00131661,-0.00118184,0.00299981,0.00250400,-0.00221558
 ,-0.00624124,-0.00148323,-0.00005603,0.00236601,0.00094713,-0.00031680
 ,-0.00012038,-0.00026843,0.00005557,0.00004370,0.00031136,0.00054420,0
 .00004850,-0.14924204,-0.41499749,-0.11094145,0.00074074,0.00039919,0.
 00041135,-0.00016799,0.00031836,-0.00001303,-0.00009492,-0.00002187,-0
 .00004866,-0.00000143,0.00023275,0.00012338,0.00008135,-0.00001423,0.0
 0005907,-0.00006304,-0.00003320,0.00003819,-0.00016550,0.00010753,-0.0
 0022344,-0.00007329,0.00010514,-0.00011602,0.14829190,0.41707432,0.001
 81702,0.00500991,0.00509114,-0.01525319,-0.04126355,-0.02315998,0.0007
 3661,0.00116493,-0.00129397,-0.00009869,-0.00067774,0.00002076,-0.0002
 2919,0.00019869,-0.00004684,0.00095245,0.00148331,-0.00361801,-0.02195
 885,-0.07660651,-0.04927548,-0.00054623,-0.00005909,-0.00030992,-0.000
 21356,0.00006387,0.00012386,0.00001547,0.00008124,0.00001491,-0.000040
 25,0.00013403,0.00001493,-0.00009475,-0.00001739,0.00012025,-0.0002469
 2,-0.00014315,0.00002379,-0.00026550,-0.00106401,0.00034650,0.00024042
 ,0.00008124,0.00021889,0.03518517,0.11161420,0.07172917\\-0.00001615,0
 .00000002,0.00000191,0.00005071,0.00000063,-0.00000324,-0.00004576,0.0
 0001022,-0.00003259,0.00000827,0.00001624,0.00000371,0.00000062,-0.000
 00506,0.00001605,-0.00000687,-0.00000409,-0.00001241,0.00000105,-0.000
 01710,0.00001554,0.00001176,-0.00000794,-0.00000040,0.00000773,-0.0000
 0540,0.00000523,-0.00000346,-0.00000520,0.00000076,-0.00000364,-0.0000
 0415,-0.00000099,-0.00000570,0.00000332,-0.00000088,-0.00000348,0.0000
 0684,-0.00000184,0.00000324,-0.00000199,0.00000971,-0.00000457,-0.0000
 0039,0.00000560,0.00000626,0.00001405,-0.00000616\\\@


 Money is a good servant but a bad master.
                        -- French Proverb
 Job cpu time:       0 days  0 hours 26 minutes 46.8 seconds.
 Elapsed time:       0 days  0 hours  1 minutes  7.6 seconds.
 File lengths (MBytes):  RWF=     86 Int=      0 D2E=      0 Chk=      5 Scr=      1
 Normal termination of Gaussian 16 at Sun Oct 13 21:44:54 2019.
real 318.46
user 7352.17
sys 29.76
Machine:
brown-a145
brown-a145
brown-a145
brown-a145
brown-a145
brown-a145
brown-a145
brown-a145
brown-a145
brown-a145
brown-a145
brown-a145
brown-a145
brown-a145
brown-a145
brown-a145
brown-a145
brown-a145
brown-a145
brown-a145
brown-a145
brown-a145
brown-a145
brown-a145
