 Entering Gaussian System, Link 0=/apps/cent7/gaussian/g16-A.03/g16-haswell/g16/g16
 Initial command:
 /apps/cent7/gaussian/g16-A.03/g16-haswell/g16/l1.exe "/scratch/brown/finej/gaussian/Gau-124375.inp" -scrdir="/scratch/brown/finej/gaussian/"
 Entering Link 1 = /apps/cent7/gaussian/g16-A.03/g16-haswell/g16/l1.exe PID=    124377.
  
 Copyright (c) 1988,1990,1992,1993,1995,1998,2003,2009,2016,
            Gaussian, Inc.  All Rights Reserved.
  
 This is part of the Gaussian(R) 16 program.  It is based on
 the Gaussian(R) 09 system (copyright 2009, Gaussian, Inc.),
 the Gaussian(R) 03 system (copyright 2003, Gaussian, Inc.),
 the Gaussian(R) 98 system (copyright 1998, Gaussian, Inc.),
 the Gaussian(R) 94 system (copyright 1995, Gaussian, Inc.),
 the Gaussian 92(TM) system (copyright 1992, Gaussian, Inc.),
 the Gaussian 90(TM) system (copyright 1990, Gaussian, Inc.),
 the Gaussian 88(TM) system (copyright 1988, Gaussian, Inc.),
 the Gaussian 86(TM) system (copyright 1986, Carnegie Mellon
 University), and the Gaussian 82(TM) system (copyright 1983,
 Carnegie Mellon University). Gaussian is a federally registered
 trademark of Gaussian, Inc.
  
 This software contains proprietary and confidential information,
 including trade secrets, belonging to Gaussian, Inc.
  
 This software is provided under written license and may be
 used, copied, transmitted, or stored only in accord with that
 written license.
  
 The following legend is applicable only to US Government
 contracts under FAR:
  
                    RESTRICTED RIGHTS LEGEND
  
 Use, reproduction and disclosure by the US Government is
 subject to restrictions as set forth in subparagraphs (a)
 and (c) of the Commercial Computer Software - Restricted
 Rights clause in FAR 52.227-19.
  
 Gaussian, Inc.
 340 Quinnipiac St., Bldg. 40, Wallingford CT 06492
  
  
 ---------------------------------------------------------------
 Warning -- This program may not be used in any manner that
 competes with the business of Gaussian, Inc. or will provide
 assistance to any competitor of Gaussian, Inc.  The licensee
 of this program is prohibited from giving any competitor of
 Gaussian, Inc. access to this program.  By using this program,
 the user acknowledges that Gaussian, Inc. is engaged in the
 business of creating and licensing software in the field of
 computational chemistry and represents and warrants to the
 licensee that it is not a competitor of Gaussian, Inc. and that
 it will not use this program in any manner prohibited above.
 ---------------------------------------------------------------
  

 Cite this work as:
 Gaussian 16, Revision A.03,
 M. J. Frisch, G. W. Trucks, H. B. Schlegel, G. E. Scuseria, 
 M. A. Robb, J. R. Cheeseman, G. Scalmani, V. Barone, 
 G. A. Petersson, H. Nakatsuji, X. Li, M. Caricato, A. V. Marenich, 
 J. Bloino, B. G. Janesko, R. Gomperts, B. Mennucci, H. P. Hratchian, 
 J. V. Ortiz, A. F. Izmaylov, J. L. Sonnenberg, D. Williams-Young, 
 F. Ding, F. Lipparini, F. Egidi, J. Goings, B. Peng, A. Petrone, 
 T. Henderson, D. Ranasinghe, V. G. Zakrzewski, J. Gao, N. Rega, 
 G. Zheng, W. Liang, M. Hada, M. Ehara, K. Toyota, R. Fukuda, 
 J. Hasegawa, M. Ishida, T. Nakajima, Y. Honda, O. Kitao, H. Nakai, 
 T. Vreven, K. Throssell, J. A. Montgomery, Jr., J. E. Peralta, 
 F. Ogliaro, M. J. Bearpark, J. J. Heyd, E. N. Brothers, K. N. Kudin, 
 V. N. Staroverov, T. A. Keith, R. Kobayashi, J. Normand, 
 K. Raghavachari, A. P. Rendell, J. C. Burant, S. S. Iyengar, 
 J. Tomasi, M. Cossi, J. M. Millam, M. Klene, C. Adamo, R. Cammi, 
 J. W. Ochterski, R. L. Martin, K. Morokuma, O. Farkas, 
 J. B. Foresman, and D. J. Fox, Gaussian, Inc., Wallingford CT, 2016.
 
 ******************************************
 Gaussian 16:  ES64L-G16RevA.03 25-Dec-2016
                13-Oct-2019 
 ******************************************
 %chk=24.chk
 %nprocshared=24
 Will use up to   24 processors via shared memory.
 %mem=80GB
 -------------------------------------------------------------------
 #P opt freq m062x/6-311++g(d,p) geom=connectivity temperature=0.001
 -------------------------------------------------------------------
 1/18=20,19=15,26=3,38=1,57=2,112=-1000/1,3;
 2/9=110,12=2,17=6,18=5,40=1/2;
 3/5=4,6=6,7=1111,11=2,25=1,30=1,71=1,74=-55/1,2,3;
 4//1;
 5/5=2,38=5/2;
 6/7=2,8=2,9=2,10=2,28=1/1;
 7//1,2,3,16;
 1/18=20,19=15,26=3/3(2);
 2/9=110/2;
 99//99;
 2/9=110/2;
 3/5=4,6=6,7=1111,11=2,25=1,30=1,71=1,74=-55/1,2,3;
 4/5=5,16=3,69=1/1;
 5/5=2,38=5/2;
 7//1,2,3,16;
 1/18=20,19=15,26=3/3(-5);
 2/9=110/2;
 6/7=2,8=2,9=2,10=2,19=2,28=1/1;
 99/9=1/99;
 Leave Link    1 at Sun Oct 13 21:39:43 2019, MaxMem= 10737418240 cpu:               0.8 elap:               0.0
 (Enter /apps/cent7/gaussian/g16-A.03/g16-haswell/g16/l101.exe)
 -------------------
 Title Card Required
 -------------------
 Symbolic Z-matrix:
 Charge =  0 Multiplicity = 1
 O                    -0.9574   -2.2274   -1.3197 
 S                    -1.0842   -1.3307    0.0024 
 C                    -2.537    -0.3186   -0.0247 
 C                    -2.1022    1.0244   -0.0176 
 C                    -3.0864    2.0377   -0.0372 
 C                    -4.4543    1.6941   -0.0688 
 C                    -4.8535    0.3407   -0.0804 
 C                    -3.8902   -0.6862   -0.057 
 C                    -0.676     1.2023   -0.0006 
 C                     0.0756    0.0077    0.0054 
 C                     1.4781   -0.0159    0.0048 
 C                     2.1596    1.2165    0.0021 
 C                     1.4397    2.4301    0.0024 
 C                     0.0289    2.4267    0.0015 
 O                    -0.9915   -2.1998    1.3461 
 H                    -2.7898    3.0866   -0.0278 
 H                    -5.2088    2.4807   -0.0845 
 H                    -5.9132    0.0867   -0.1076 
 H                    -4.1837   -1.7359   -0.0638 
 H                     2.0208   -0.9612    0.0064 
 H                     3.2495    1.2312   -0.0003 
 H                     1.9778    3.378     0.0035 
 H                    -0.5165    3.3705    0.0024 
 
 ITRead=  0  0  0  0  0  0  0  0  0  0  0  0  0  0  0  0  0  0  0  0
 ITRead=  0  0  0
 MicOpt= -1 -1 -1 -1 -1 -1 -1 -1 -1 -1 -1 -1 -1 -1 -1 -1 -1 -1 -1 -1
 MicOpt= -1 -1 -1
 NAtoms=     23 NQM=       23 NQMF=       0 NMMI=      0 NMMIF=      0
                NMic=       0 NMicF=      0.
                    Isotopes and Nuclear Properties:
 (Nuclear quadrupole moments (NQMom) in fm**2, nuclear magnetic moments (NMagM)
  in nuclear magnetons)

  Atom         1           2           3           4           5           6           7           8           9          10
 IAtWgt=          16          32          12          12          12          12          12          12          12          12
 AtmWgt=  15.9949146  31.9720718  12.0000000  12.0000000  12.0000000  12.0000000  12.0000000  12.0000000  12.0000000  12.0000000
 NucSpn=           0           0           0           0           0           0           0           0           0           0
 AtZEff=  -0.0000000  -0.0000000  -0.0000000  -0.0000000  -0.0000000  -0.0000000  -0.0000000  -0.0000000  -0.0000000  -0.0000000
 NQMom=    0.0000000   0.0000000   0.0000000   0.0000000   0.0000000   0.0000000   0.0000000   0.0000000   0.0000000   0.0000000
 NMagM=    0.0000000   0.0000000   0.0000000   0.0000000   0.0000000   0.0000000   0.0000000   0.0000000   0.0000000   0.0000000
 AtZNuc=   8.0000000  16.0000000   6.0000000   6.0000000   6.0000000   6.0000000   6.0000000   6.0000000   6.0000000   6.0000000

  Atom        11          12          13          14          15          16          17          18          19          20
 IAtWgt=          12          12          12          12          16           1           1           1           1           1
 AtmWgt=  12.0000000  12.0000000  12.0000000  12.0000000  15.9949146   1.0078250   1.0078250   1.0078250   1.0078250   1.0078250
 NucSpn=           0           0           0           0           0           1           1           1           1           1
 AtZEff=  -0.0000000  -0.0000000  -0.0000000  -0.0000000  -0.0000000  -0.0000000  -0.0000000  -0.0000000  -0.0000000  -0.0000000
 NQMom=    0.0000000   0.0000000   0.0000000   0.0000000   0.0000000   0.0000000   0.0000000   0.0000000   0.0000000   0.0000000
 NMagM=    0.0000000   0.0000000   0.0000000   0.0000000   0.0000000   2.7928460   2.7928460   2.7928460   2.7928460   2.7928460
 AtZNuc=   6.0000000   6.0000000   6.0000000   6.0000000   8.0000000   1.0000000   1.0000000   1.0000000   1.0000000   1.0000000

  Atom        21          22          23
 IAtWgt=           1           1           1
 AtmWgt=   1.0078250   1.0078250   1.0078250
 NucSpn=           1           1           1
 AtZEff=  -0.0000000  -0.0000000  -0.0000000
 NQMom=    0.0000000   0.0000000   0.0000000
 NMagM=    2.7928460   2.7928460   2.7928460
 AtZNuc=   1.0000000   1.0000000   1.0000000
 Leave Link  101 at Sun Oct 13 21:39:43 2019, MaxMem= 10737418240 cpu:               8.3 elap:               0.4
 (Enter /apps/cent7/gaussian/g16-A.03/g16-haswell/g16/l103.exe)

 GradGradGradGradGradGradGradGradGradGradGradGradGradGradGradGradGradGrad
 Berny optimization.
 Initialization pass.
                           ----------------------------
                           !    Initial Parameters    !
                           ! (Angstroms and Degrees)  !
 --------------------------                            --------------------------
 ! Name  Definition              Value          Derivative Info.                !
 --------------------------------------------------------------------------------
 ! R1    R(1,2)                  1.6025         estimate D2E/DX2                !
 ! R2    R(2,3)                  1.7708         estimate D2E/DX2                !
 ! R3    R(2,10)                 1.771          estimate D2E/DX2                !
 ! R4    R(2,15)                 1.603          estimate D2E/DX2                !
 ! R5    R(3,4)                  1.4116         estimate D2E/DX2                !
 ! R6    R(3,8)                  1.4026         estimate D2E/DX2                !
 ! R7    R(4,5)                  1.4127         estimate D2E/DX2                !
 ! R8    R(4,9)                  1.4374         estimate D2E/DX2                !
 ! R9    R(5,6)                  1.4107         estimate D2E/DX2                !
 ! R10   R(5,16)                 1.0901         estimate D2E/DX2                !
 ! R11   R(6,7)                  1.4111         estimate D2E/DX2                !
 ! R12   R(6,17)                 1.0901         estimate D2E/DX2                !
 ! R13   R(7,8)                  1.4082         estimate D2E/DX2                !
 ! R14   R(7,18)                 1.0901         estimate D2E/DX2                !
 ! R15   R(8,19)                 1.09           estimate D2E/DX2                !
 ! R16   R(9,10)                 1.4114         estimate D2E/DX2                !
 ! R17   R(9,14)                 1.4128         estimate D2E/DX2                !
 ! R18   R(10,11)                1.4027         estimate D2E/DX2                !
 ! R19   R(11,12)                1.4083         estimate D2E/DX2                !
 ! R20   R(11,20)                1.09           estimate D2E/DX2                !
 ! R21   R(12,13)                1.4111         estimate D2E/DX2                !
 ! R22   R(12,21)                1.09           estimate D2E/DX2                !
 ! R23   R(13,14)                1.4108         estimate D2E/DX2                !
 ! R24   R(13,22)                1.09           estimate D2E/DX2                !
 ! R25   R(14,23)                1.0901         estimate D2E/DX2                !
 ! A1    A(1,2,3)              111.8454         estimate D2E/DX2                !
 ! A2    A(1,2,10)             111.8668         estimate D2E/DX2                !
 ! A3    A(1,2,15)             112.558          estimate D2E/DX2                !
 ! A4    A(3,2,10)              96.0484         estimate D2E/DX2                !
 ! A5    A(3,2,15)             111.7256         estimate D2E/DX2                !
 ! A6    A(10,2,15)            111.7436         estimate D2E/DX2                !
 ! A7    A(2,3,4)              106.9168         estimate D2E/DX2                !
 ! A8    A(2,3,8)              129.947          estimate D2E/DX2                !
 ! A9    A(4,3,8)              123.1348         estimate D2E/DX2                !
 ! A10   A(3,4,5)              117.8873         estimate D2E/DX2                !
 ! A11   A(3,4,9)              115.0512         estimate D2E/DX2                !
 ! A12   A(5,4,9)              127.0598         estimate D2E/DX2                !
 ! A13   A(4,5,6)              120.0741         estimate D2E/DX2                !
 ! A14   A(4,5,16)             120.0329         estimate D2E/DX2                !
 ! A15   A(6,5,16)             119.893          estimate D2E/DX2                !
 ! A16   A(5,6,7)              120.5369         estimate D2E/DX2                !
 ! A17   A(5,6,17)             119.7161         estimate D2E/DX2                !
 ! A18   A(7,6,17)             119.7469         estimate D2E/DX2                !
 ! A19   A(6,7,8)              120.3815         estimate D2E/DX2                !
 ! A20   A(6,7,18)             119.9151         estimate D2E/DX2                !
 ! A21   A(8,7,18)             119.7033         estimate D2E/DX2                !
 ! A22   A(3,8,7)              117.9844         estimate D2E/DX2                !
 ! A23   A(3,8,19)             120.8188         estimate D2E/DX2                !
 ! A24   A(7,8,19)             121.1968         estimate D2E/DX2                !
 ! A25   A(4,9,10)             115.0675         estimate D2E/DX2                !
 ! A26   A(4,9,14)             127.0379         estimate D2E/DX2                !
 ! A27   A(10,9,14)            117.8931         estimate D2E/DX2                !
 ! A28   A(2,10,9)             106.9119         estimate D2E/DX2                !
 ! A29   A(2,10,11)            129.9466         estimate D2E/DX2                !
 ! A30   A(9,10,11)            123.1402         estimate D2E/DX2                !
 ! A31   A(10,11,12)           117.9779         estimate D2E/DX2                !
 ! A32   A(10,11,20)           120.8242         estimate D2E/DX2                !
 ! A33   A(12,11,20)           121.1978         estimate D2E/DX2                !
 ! A34   A(11,12,13)           120.3818         estimate D2E/DX2                !
 ! A35   A(11,12,21)           119.7148         estimate D2E/DX2                !
 ! A36   A(13,12,21)           119.9034         estimate D2E/DX2                !
 ! A37   A(12,13,14)           120.5381         estimate D2E/DX2                !
 ! A38   A(12,13,22)           119.7413         estimate D2E/DX2                !
 ! A39   A(14,13,22)           119.7206         estimate D2E/DX2                !
 ! A40   A(9,14,13)            120.0676         estimate D2E/DX2                !
 ! A41   A(9,14,23)            120.0479         estimate D2E/DX2                !
 ! A42   A(13,14,23)           119.8845         estimate D2E/DX2                !
 ! D1    D(1,2,3,4)           -117.0499         estimate D2E/DX2                !
 ! D2    D(1,2,3,8)             62.5312         estimate D2E/DX2                !
 ! D3    D(10,2,3,4)            -0.5633         estimate D2E/DX2                !
 ! D4    D(10,2,3,8)           179.0178         estimate D2E/DX2                !
 ! D5    D(15,2,3,4)           115.7471         estimate D2E/DX2                !
 ! D6    D(15,2,3,8)           -64.6718         estimate D2E/DX2                !
 ! D7    D(1,2,10,9)           117.0568         estimate D2E/DX2                !
 ! D8    D(1,2,10,11)          -62.5459         estimate D2E/DX2                !
 ! D9    D(3,2,10,9)             0.5874         estimate D2E/DX2                !
 ! D10   D(3,2,10,11)         -179.0152         estimate D2E/DX2                !
 ! D11   D(15,2,10,9)         -115.7085         estimate D2E/DX2                !
 ! D12   D(15,2,10,11)          64.6889         estimate D2E/DX2                !
 ! D13   D(2,3,4,5)            179.9523         estimate D2E/DX2                !
 ! D14   D(2,3,4,9)              0.3909         estimate D2E/DX2                !
 ! D15   D(8,3,4,5)              0.3358         estimate D2E/DX2                !
 ! D16   D(8,3,4,9)           -179.2256         estimate D2E/DX2                !
 ! D17   D(2,3,8,7)           -179.6616         estimate D2E/DX2                !
 ! D18   D(2,3,8,19)             0.3323         estimate D2E/DX2                !
 ! D19   D(4,3,8,7)             -0.1401         estimate D2E/DX2                !
 ! D20   D(4,3,8,19)           179.8537         estimate D2E/DX2                !
 ! D21   D(3,4,5,6)             -0.2761         estimate D2E/DX2                !
 ! D22   D(3,4,5,16)           179.7164         estimate D2E/DX2                !
 ! D23   D(9,4,5,6)            179.226          estimate D2E/DX2                !
 ! D24   D(9,4,5,16)            -0.7815         estimate D2E/DX2                !
 ! D25   D(3,4,9,10)             0.0467         estimate D2E/DX2                !
 ! D26   D(3,4,9,14)           179.5939         estimate D2E/DX2                !
 ! D27   D(5,4,9,10)          -179.4675         estimate D2E/DX2                !
 ! D28   D(5,4,9,14)             0.0797         estimate D2E/DX2                !
 ! D29   D(4,5,6,7)              0.0349         estimate D2E/DX2                !
 ! D30   D(4,5,6,17)          -179.9577         estimate D2E/DX2                !
 ! D31   D(16,5,6,7)          -179.9576         estimate D2E/DX2                !
 ! D32   D(16,5,6,17)            0.0498         estimate D2E/DX2                !
 ! D33   D(5,6,7,8)              0.1676         estimate D2E/DX2                !
 ! D34   D(5,6,7,18)          -179.8337         estimate D2E/DX2                !
 ! D35   D(17,6,7,8)          -179.8398         estimate D2E/DX2                !
 ! D36   D(17,6,7,18)            0.1589         estimate D2E/DX2                !
 ! D37   D(6,7,8,3)             -0.116          estimate D2E/DX2                !
 ! D38   D(6,7,8,19)           179.8902         estimate D2E/DX2                !
 ! D39   D(18,7,8,3)           179.8854         estimate D2E/DX2                !
 ! D40   D(18,7,8,19)           -0.1085         estimate D2E/DX2                !
 ! D41   D(4,9,10,2)            -0.4587         estimate D2E/DX2                !
 ! D42   D(4,9,10,11)          179.1775         estimate D2E/DX2                !
 ! D43   D(14,9,10,2)          179.9502         estimate D2E/DX2                !
 ! D44   D(14,9,10,11)          -0.4136         estimate D2E/DX2                !
 ! D45   D(4,9,14,13)         -179.2082         estimate D2E/DX2                !
 ! D46   D(4,9,14,23)            0.7901         estimate D2E/DX2                !
 ! D47   D(10,9,14,13)           0.3277         estimate D2E/DX2                !
 ! D48   D(10,9,14,23)        -179.6739         estimate D2E/DX2                !
 ! D49   D(2,10,11,12)         179.7415         estimate D2E/DX2                !
 ! D50   D(2,10,11,20)          -0.2597         estimate D2E/DX2                !
 ! D51   D(9,10,11,12)           0.1955         estimate D2E/DX2                !
 ! D52   D(9,10,11,20)        -179.8057         estimate D2E/DX2                !
 ! D53   D(10,11,12,13)          0.1091         estimate D2E/DX2                !
 ! D54   D(10,11,12,21)       -179.8868         estimate D2E/DX2                !
 ! D55   D(20,11,12,13)       -179.8897         estimate D2E/DX2                !
 ! D56   D(20,11,12,21)          0.1144         estimate D2E/DX2                !
 ! D57   D(11,12,13,14)         -0.1841         estimate D2E/DX2                !
 ! D58   D(11,12,13,22)        179.8059         estimate D2E/DX2                !
 ! D59   D(21,12,13,14)        179.8119         estimate D2E/DX2                !
 ! D60   D(21,12,13,22)         -0.1982         estimate D2E/DX2                !
 ! D61   D(12,13,14,9)          -0.0415         estimate D2E/DX2                !
 ! D62   D(12,13,14,23)        179.9601         estimate D2E/DX2                !
 ! D63   D(22,13,14,9)         179.9685         estimate D2E/DX2                !
 ! D64   D(22,13,14,23)         -0.0299         estimate D2E/DX2                !
 --------------------------------------------------------------------------------
 Trust Radius=3.00D-01 FncErr=1.00D-07 GrdErr=1.00D-06 EigMax=2.50D+02 EigMin=1.00D-04
 Number of steps in this run=    138 maximum allowed number of steps=    138.
 GradGradGradGradGradGradGradGradGradGradGradGradGradGradGradGradGradGrad

 Leave Link  103 at Sun Oct 13 21:39:43 2019, MaxMem= 10737418240 cpu:               0.5 elap:               0.0
 (Enter /apps/cent7/gaussian/g16-A.03/g16-haswell/g16/l202.exe)
                          Input orientation:                          
 ---------------------------------------------------------------------
 Center     Atomic      Atomic             Coordinates (Angstroms)
 Number     Number       Type             X           Y           Z
 ---------------------------------------------------------------------
      1          8           0       -0.957400   -2.227400   -1.319700
      2         16           0       -1.084200   -1.330700    0.002400
      3          6           0       -2.537000   -0.318600   -0.024700
      4          6           0       -2.102200    1.024400   -0.017600
      5          6           0       -3.086400    2.037700   -0.037200
      6          6           0       -4.454300    1.694100   -0.068800
      7          6           0       -4.853500    0.340700   -0.080400
      8          6           0       -3.890200   -0.686200   -0.057000
      9          6           0       -0.676000    1.202300   -0.000600
     10          6           0        0.075600    0.007700    0.005400
     11          6           0        1.478100   -0.015900    0.004800
     12          6           0        2.159600    1.216500    0.002100
     13          6           0        1.439700    2.430100    0.002400
     14          6           0        0.028900    2.426700    0.001500
     15          8           0       -0.991500   -2.199800    1.346100
     16          1           0       -2.789800    3.086600   -0.027800
     17          1           0       -5.208800    2.480700   -0.084500
     18          1           0       -5.913200    0.086700   -0.107600
     19          1           0       -4.183700   -1.735900   -0.063800
     20          1           0        2.020800   -0.961200    0.006400
     21          1           0        3.249500    1.231200   -0.000300
     22          1           0        1.977800    3.378000    0.003500
     23          1           0       -0.516500    3.370500    0.002400
 ---------------------------------------------------------------------
                    Distance matrix (angstroms):
                    1          2          3          4          5
     1  O    0.000000
     2  S    1.602528   0.000000
     3  C    2.795654   1.770793   0.000000
     4  C    3.685137   2.565779   1.411648   0.000000
     5  C    4.936449   3.918736   2.419534   1.412732   0.000000
     6  C    5.401039   4.529024   2.780098   2.446118   1.410748
     7  C    4.828105   4.124082   2.409139   2.835673   2.450371
     8  C    3.545564   2.879678   1.402613   2.474803   2.840091
     9  C    3.685384   2.565682   2.403547   1.437353   2.551325
    10  C    2.796185   1.771005   2.633070   2.403543   3.757786
    11  C    3.546363   2.879946   4.026602   3.728441   5.005367
    12  C    4.829419   4.124375   4.941184   4.266173   5.310031
    13  C    5.402439   4.529204   4.834276   3.810702   4.543251
    14  C    4.937510   3.918807   3.757819   2.551156   3.139731
    15  O    2.666161   1.602953   2.794025   3.672710   4.925295
    16  H    5.767607   4.735243   3.414572   2.173837   1.090069
    17  H    6.462687   5.616640   3.870164   3.431654   2.168656
    18  H    5.602160   5.033921   3.401451   3.925698   3.435427
    19  H    3.496837   3.126575   2.172991   3.457460   3.929991
    20  H    3.497353   3.126911   4.602982   4.576277   5.922735
    21  H    5.603636   5.034312   5.990497   5.355722   6.387130
    22  H    6.464268   5.616734   5.835158   4.710231   5.238720
    23  H    5.768780   4.735353   4.206259   2.831789   2.895222
                    6          7          8          9         10
     6  C    0.000000
     7  C    1.411094   0.000000
     8  C    2.446258   1.408197   0.000000
     9  C    3.810783   4.266173   3.728364   0.000000
    10  C    4.834195   4.941081   4.026532   1.411385   0.000000
    11  C    6.174373   6.342206   5.410339   2.474710   1.402699
    12  C    6.631501   7.068055   6.342227   2.835637   2.409204
    13  C    5.940202   6.631502   6.174357   2.446158   2.780072
    14  C    4.543207   5.309984   5.005289   1.412814   2.419454
    15  O    5.399572   4.837777   3.558390   3.672523   2.794501
    16  H    2.170552   3.435344   3.930108   2.831868   4.206096
    17  H    1.090072   2.169298   3.430556   4.710374   5.835126
    18  H    2.171089   1.090055   2.166210   5.355770   5.990387
    19  H    3.440661   2.182012   1.089981   4.576131   4.602887
    20  H    6.998799   6.997034   5.917733   3.457385   2.173148
    21  H    7.717999   8.152179   7.392899   3.925606   3.401562
    22  H    6.649260   7.476556   7.138264   3.431667   3.870050
    23  H    4.280380   5.291135   5.276570   2.174061   3.414530
                   11         12         13         14         15
    11  C    0.000000
    12  C    1.408282   0.000000
    13  C    2.446303   1.411057   0.000000
    14  C    2.840156   2.450401   1.410804   0.000000
    15  O    3.559133   4.838065   5.399281   4.924801   0.000000
    16  H    5.276508   5.291004   4.280254   2.895064   5.750436
    17  H    7.138320   7.476565   6.649260   5.238684   6.460597
    18  H    7.392867   8.152213   7.718080   6.387179   5.618225
    19  H    5.917693   6.997032   6.998755   5.922626   3.520392
    20  H    1.090008   2.182123   3.440728   3.930083   3.521772
    21  H    2.166366   1.090002   2.170886   3.435329   5.618775
    22  H    3.430490   2.169132   1.089985   2.168683   6.459967
    23  H    3.930158   3.435291   2.170500   1.090055   5.749730
                   16         17         18         19         20
    16  H    0.000000
    17  H    2.494372   0.000000
    18  H    4.331443   2.495586   0.000000
    19  H    5.020036   4.339467   2.512958   0.000000
    20  H    6.287108   8.007625   8.003715   6.253072   0.000000
    21  H    6.317943   8.550508   9.234526   8.003760   2.513238
    22  H    4.776600   7.242935   8.550607   8.007533   4.339414
    23  H    2.291158   4.776712   6.318213   6.287134   5.020113
                   21         22         23
    21  H    0.000000
    22  H    2.495192   0.000000
    23  H    4.331209   2.494312   0.000000
 Stoichiometry    C12H8O2S
 Framework group  C1[X(C12H8O2S)]
 Deg. of freedom    63
 Full point group                 C1      NOp   1
 Largest Abelian subgroup         C1      NOp   1
 Largest concise Abelian subgroup C1      NOp   1
                         Standard orientation:                         
 ---------------------------------------------------------------------
 Center     Atomic      Atomic             Coordinates (Angstroms)
 Number     Number       Type             X           Y           Z
 ---------------------------------------------------------------------
      1          8           0        0.001167    2.438444   -1.322736
      2         16           0        0.000229    1.542503    0.005942
      3          6           0        1.316511    0.357978    0.002863
      4          6           0        0.718458   -0.920691    0.012157
      5          6           0        1.569553   -2.048275    0.010697
      6          6           0        2.969782   -1.877098   -0.005677
      7          6           0        3.533856   -0.583729   -0.019977
      8          6           0        2.705139    0.554786   -0.014533
      9          6           0       -0.718895   -0.920330    0.012256
     10          6           0       -1.316558    0.358225    0.002004
     11          6           0       -2.705199    0.555463   -0.016346
     12          6           0       -3.534199   -0.582957   -0.020580
     13          6           0       -2.970420   -1.876390   -0.004319
     14          6           0       -1.570177   -2.047877    0.012482
     15          8           0        0.000238    2.426062    1.343396
     16          1           0        1.145070   -3.052232    0.022351
     17          1           0        3.621036   -2.751239   -0.007414
     18          1           0        4.617121   -0.463230   -0.035312
     19          1           0        3.126615    1.559940   -0.023630
     20          1           0       -3.126456    1.560724   -0.026952
     21          1           0       -4.617404   -0.462478   -0.036586
     22          1           0       -3.621898   -2.750256   -0.004574
     23          1           0       -1.146085   -3.051965    0.025613
 ---------------------------------------------------------------------
 Rotational constants (GHZ):           0.8633793           0.5326118           0.3557860
 Leave Link  202 at Sun Oct 13 21:39:43 2019, MaxMem= 10737418240 cpu:               0.4 elap:               0.0
 (Enter /apps/cent7/gaussian/g16-A.03/g16-haswell/g16/l301.exe)
 Standard basis: 6-311++G(d,p) (5D, 7F)
 Ernie: Thresh=  0.10000D-02 Tol=  0.10000D-05 Strict=F.
 There are   409 symmetry adapted cartesian basis functions of A   symmetry.
 There are   394 symmetry adapted basis functions of A   symmetry.
   394 basis functions,   626 primitive gaussians,   409 cartesian basis functions
    56 alpha electrons       56 beta electrons
       nuclear repulsion energy      1052.8201728144 Hartrees.
 IExCor= 4336 DFT=T Ex+Corr=M062X ExCW=0 ScaHFX=  0.540000
 ScaDFX=  1.000000  1.000000  1.000000  1.000000 ScalE2=  1.000000  1.000000
 IRadAn=      5 IRanWt=     -1 IRanGd=            0 ICorTp=0 IEmpDi=  4
 NAtoms=   23 NActive=   23 NUniq=   23 SFac= 1.00D+00 NAtFMM=   60 NAOKFM=F Big=F
 Integral buffers will be    131072 words long.
 Raffenetti 2 integral format.
 Two-electron integral symmetry is turned on.
 Leave Link  301 at Sun Oct 13 21:39:43 2019, MaxMem= 10737418240 cpu:               1.3 elap:               0.1
 (Enter /apps/cent7/gaussian/g16-A.03/g16-haswell/g16/l302.exe)
 NPDir=0 NMtPBC=     1 NCelOv=     1 NCel=       1 NClECP=     1 NCelD=      1
         NCelK=      1 NCelE2=     1 NClLst=     1 CellRange=     0.0.
 One-electron integrals computed using PRISM.
 One-electron integral symmetry used in STVInt
 NBasis=   394 RedAO= T EigKep=  1.27D-06  NBF=   394
 NBsUse=   390 1.00D-06 EigRej=  4.53D-07 NBFU=   390
 Precomputing XC quadrature grid using
 IXCGrd= 4 IRadAn=           5 IRanWt=          -1 IRanGd=           0 AccXCQ= 0.00D+00.
 Generated NRdTot=       0 NPtTot=           0 NUsed=           0 NTot=          32
 NSgBfM=   409   409   409   409   409 MxSgAt=    23 MxSgA2=    23.
 Leave Link  302 at Sun Oct 13 21:39:44 2019, MaxMem= 10737418240 cpu:               6.3 elap:               0.3
 (Enter /apps/cent7/gaussian/g16-A.03/g16-haswell/g16/l303.exe)
 DipDrv:  MaxL=1.
 Leave Link  303 at Sun Oct 13 21:39:44 2019, MaxMem= 10737418240 cpu:               1.1 elap:               0.1
 (Enter /apps/cent7/gaussian/g16-A.03/g16-haswell/g16/l401.exe)
 ExpMin= 3.60D-02 ExpMax= 9.34D+04 ExpMxC= 3.17D+03 IAcc=3 IRadAn=         5 AccDes= 0.00D+00
 Harris functional with IExCor= 1009 and IRadAn=       5 diagonalized for initial guess.
 HarFok:  IExCor= 1009 AccDes= 0.00D+00 IRadAn=         5 IDoV= 1 UseB2=F ITyADJ=14
 ICtDFT=  3500011 ScaDFX=  1.000000  1.000000  1.000000  1.000000
 FoFCou: FMM=F IPFlag=           0 FMFlag=      100000 FMFlg1=           0
         NFxFlg=           0 DoJE=T BraDBF=F KetDBF=T FulRan=T
         wScrn=  0.000000 ICntrl=       500 IOpCl=  0 I1Cent=   200000004 NGrid=           0
         NMat0=    1 NMatS0=      1 NMatT0=    0 NMatD0=    1 NMtDS0=    0 NMtDT0=    0
 Petite list used in FoFCou.
 Harris En= -1010.13791824325    
 JPrj=0 DoOrth=F DoCkMO=F.
 Leave Link  401 at Sun Oct 13 21:39:44 2019, MaxMem= 10737418240 cpu:              17.0 elap:               0.7
 (Enter /apps/cent7/gaussian/g16-A.03/g16-haswell/g16/l502.exe)
 Integral symmetry usage will be decided dynamically.
 Closed shell SCF:
 Using DIIS extrapolation, IDIIS=  1040.
 NGot= 10737418240 LenX= 10737069992 LenY= 10736902270
 Requested convergence on RMS density matrix=1.00D-08 within 128 cycles.
 Requested convergence on MAX density matrix=1.00D-06.
 Requested convergence on             energy=1.00D-06.
 No special actions if energy rises.
 Fock matrices will be formed incrementally for  20 cycles.

 Cycle   1  Pass 1  IDiag  1:
 FoFJK:  IHMeth= 1 ICntrl=       0 DoSepK=F KAlg= 0 I1Cent=           0 FoldK=F
 IRaf= 900000000 NMat=       1 IRICut=       1 DoRegI=T DoRafI=F ISym2E= 0 IDoP0=0 IntGTp=1.
 FoFCou: FMM=F IPFlag=           0 FMFlag=      100000 FMFlg1=           0
         NFxFlg=           0 DoJE=F BraDBF=F KetDBF=F FulRan=T
         wScrn=  0.000000 ICntrl=         0 IOpCl=  0 I1Cent=           0 NGrid=           0
         NMat0=    1 NMatS0=      1 NMatT0=    0 NMatD0=    1 NMtDS0=    0 NMtDT0=    0
 Symmetry not used in FoFCou.
 E= -1010.00910529026    
 DIIS: error= 6.91D-02 at cycle   1 NSaved=   1.
 NSaved= 1 IEnMin= 1 EnMin= -1010.00910529026     IErMin= 1 ErrMin= 6.91D-02
 ErrMax= 6.91D-02  0.00D+00 EMaxC= 1.00D-01 BMatC= 7.25D-01 BMatP= 7.25D-01
 IDIUse=3 WtCom= 3.09D-01 WtEn= 6.91D-01
 Coeff-Com:  0.100D+01
 Coeff-En:   0.100D+01
 Coeff:      0.100D+01
 Gap=     0.232 Goal=   None    Shift=    0.000
 GapD=    0.232 DampG=1.000 DampE=0.500 DampFc=0.5000 IDamp=-1.
 Damping current iteration by 5.00D-01
 RMSDP=1.70D-01 MaxDP=1.17D+01              OVMax= 2.61D-01

 Cycle   2  Pass 1  IDiag  1:
 RMSU=  7.26D-02    CP:  1.63D+00
 E= -1010.15149553742     Delta-E=       -0.142390247154 Rises=F Damp=T
 DIIS: error= 2.36D-02 at cycle   2 NSaved=   2.
 NSaved= 2 IEnMin= 2 EnMin= -1010.15149553742     IErMin= 2 ErrMin= 2.36D-02
 ErrMax= 2.36D-02  0.00D+00 EMaxC= 1.00D-01 BMatC= 1.03D-01 BMatP= 7.25D-01
 IDIUse=3 WtCom= 7.64D-01 WtEn= 2.36D-01
 Coeff-Com:  0.164D+00 0.836D+00
 Coeff-En:   0.333D+00 0.667D+00
 Coeff:      0.204D+00 0.796D+00
 Gap=     0.287 Goal=   None    Shift=    0.000
 RMSDP=6.05D-02 MaxDP=4.05D+00 DE=-1.42D-01 OVMax= 2.22D-01

 Cycle   3  Pass 1  IDiag  1:
 RMSU=  1.27D-02    CP:  1.14D+00  3.37D-01
 E= -1010.47391216112     Delta-E=       -0.322416623702 Rises=F Damp=F
 DIIS: error= 1.80D-02 at cycle   3 NSaved=   3.
 NSaved= 3 IEnMin= 3 EnMin= -1010.47391216112     IErMin= 3 ErrMin= 1.80D-02
 ErrMax= 1.80D-02  0.00D+00 EMaxC= 1.00D-01 BMatC= 5.13D-02 BMatP= 1.03D-01
 IDIUse=3 WtCom= 8.20D-01 WtEn= 1.80D-01
 Coeff-Com: -0.510D-02 0.402D+00 0.603D+00
 Coeff-En:   0.000D+00 0.000D+00 0.100D+01
 Coeff:     -0.419D-02 0.330D+00 0.674D+00
 Gap=     0.246 Goal=   None    Shift=    0.000
 RMSDP=1.95D-02 MaxDP=1.73D+00 DE=-3.22D-01 OVMax= 6.62D-02

 Cycle   4  Pass 1  IDiag  1:
 RMSU=  6.46D-03    CP:  1.23D+00  5.68D-01  6.65D-01
 E= -1010.50933382745     Delta-E=       -0.035421666327 Rises=F Damp=F
 DIIS: error= 7.64D-03 at cycle   4 NSaved=   4.
 NSaved= 4 IEnMin= 4 EnMin= -1010.50933382745     IErMin= 4 ErrMin= 7.64D-03
 ErrMax= 7.64D-03  0.00D+00 EMaxC= 1.00D-01 BMatC= 1.36D-02 BMatP= 5.13D-02
 IDIUse=3 WtCom= 9.24D-01 WtEn= 7.64D-02
 Coeff-Com: -0.565D-02 0.603D-01 0.362D+00 0.584D+00
 Coeff-En:   0.000D+00 0.000D+00 0.233D+00 0.767D+00
 Coeff:     -0.522D-02 0.557D-01 0.352D+00 0.598D+00
 Gap=     0.242 Goal=   None    Shift=    0.000
 RMSDP=6.91D-03 MaxDP=6.13D-01 DE=-3.54D-02 OVMax= 2.75D-02

 Cycle   5  Pass 1  IDiag  1:
 RMSU=  1.51D-03    CP:  1.17D+00  5.00D-01  7.90D-01  6.54D-01
 E= -1010.52206600897     Delta-E=       -0.012732181525 Rises=F Damp=F
 DIIS: error= 1.96D-03 at cycle   5 NSaved=   5.
 NSaved= 5 IEnMin= 5 EnMin= -1010.52206600897     IErMin= 5 ErrMin= 1.96D-03
 ErrMax= 1.96D-03  0.00D+00 EMaxC= 1.00D-01 BMatC= 4.73D-04 BMatP= 1.36D-02
 IDIUse=3 WtCom= 9.80D-01 WtEn= 1.96D-02
 Coeff-Com: -0.224D-02 0.613D-02 0.125D+00 0.278D+00 0.593D+00
 Coeff-En:   0.000D+00 0.000D+00 0.000D+00 0.000D+00 0.100D+01
 Coeff:     -0.220D-02 0.601D-02 0.123D+00 0.272D+00 0.601D+00
 Gap=     0.240 Goal=   None    Shift=    0.000
 RMSDP=5.45D-04 MaxDP=2.76D-02 DE=-1.27D-02 OVMax= 8.07D-03

 Cycle   6  Pass 1  IDiag  1:
 RMSU=  2.60D-04    CP:  1.17D+00  4.94D-01  7.90D-01  6.54D-01  8.07D-01
 E= -1010.52250470223     Delta-E=       -0.000438693255 Rises=F Damp=F
 DIIS: error= 7.39D-04 at cycle   6 NSaved=   6.
 NSaved= 6 IEnMin= 6 EnMin= -1010.52250470223     IErMin= 6 ErrMin= 7.39D-04
 ErrMax= 7.39D-04  0.00D+00 EMaxC= 1.00D-01 BMatC= 6.70D-05 BMatP= 4.73D-04
 IDIUse=3 WtCom= 9.93D-01 WtEn= 7.39D-03
 Coeff-Com: -0.140D-03-0.452D-02 0.188D-01 0.665D-01 0.310D+00 0.610D+00
 Coeff-En:   0.000D+00 0.000D+00 0.000D+00 0.000D+00 0.572D-01 0.943D+00
 Coeff:     -0.139D-03-0.448D-02 0.186D-01 0.660D-01 0.308D+00 0.612D+00
 Gap=     0.240 Goal=   None    Shift=    0.000
 RMSDP=2.21D-04 MaxDP=1.15D-02 DE=-4.39D-04 OVMax= 2.67D-03

 Cycle   7  Pass 1  IDiag  1:
 RMSU=  1.39D-04    CP:  1.17D+00  4.93D-01  7.86D-01  6.63D-01  8.53D-01
                    CP:  8.09D-01
 E= -1010.52257634308     Delta-E=       -0.000071640853 Rises=F Damp=F
 DIIS: error= 1.53D-04 at cycle   7 NSaved=   7.
 NSaved= 7 IEnMin= 7 EnMin= -1010.52257634308     IErMin= 7 ErrMin= 1.53D-04
 ErrMax= 1.53D-04  0.00D+00 EMaxC= 1.00D-01 BMatC= 3.54D-06 BMatP= 6.70D-05
 IDIUse=3 WtCom= 9.98D-01 WtEn= 1.53D-03
 Coeff-Com:  0.254D-03-0.223D-02-0.950D-02-0.115D-01 0.258D-01 0.194D+00
 Coeff-Com:  0.804D+00
 Coeff-En:   0.000D+00 0.000D+00 0.000D+00 0.000D+00 0.000D+00 0.000D+00
 Coeff-En:   0.100D+01
 Coeff:      0.253D-03-0.223D-02-0.948D-02-0.115D-01 0.258D-01 0.193D+00
 Coeff:      0.804D+00
 Gap=     0.240 Goal=   None    Shift=    0.000
 RMSDP=9.40D-05 MaxDP=1.02D-02 DE=-7.16D-05 OVMax= 9.27D-04

 Cycle   8  Pass 1  IDiag  1:
 RMSU=  5.38D-05    CP:  1.17D+00  4.92D-01  7.86D-01  6.61D-01  8.54D-01
                    CP:  8.63D-01  8.06D-01
 E= -1010.52258170829     Delta-E=       -0.000005365214 Rises=F Damp=F
 DIIS: error= 5.80D-05 at cycle   8 NSaved=   8.
 NSaved= 8 IEnMin= 8 EnMin= -1010.52258170829     IErMin= 8 ErrMin= 5.80D-05
 ErrMax= 5.80D-05  0.00D+00 EMaxC= 1.00D-01 BMatC= 6.37D-07 BMatP= 3.54D-06
 IDIUse=1 WtCom= 1.00D+00 WtEn= 0.00D+00
 Coeff-Com:  0.752D-04-0.189D-03-0.693D-02-0.145D-01-0.321D-01-0.833D-02
 Coeff-Com:  0.321D+00 0.741D+00
 Coeff:      0.752D-04-0.189D-03-0.693D-02-0.145D-01-0.321D-01-0.833D-02
 Coeff:      0.321D+00 0.741D+00
 Gap=     0.240 Goal=   None    Shift=    0.000
 RMSDP=7.31D-05 MaxDP=6.62D-03 DE=-5.37D-06 OVMax= 4.24D-04

 Cycle   9  Pass 1  IDiag  1:
 RMSU=  1.34D-05    CP:  1.17D+00  4.91D-01  7.87D-01  6.58D-01  8.60D-01
                    CP:  9.01D-01  8.21D-01  1.22D+00
 E= -1010.52258266939     Delta-E=       -0.000000961095 Rises=F Damp=F
 DIIS: error= 2.77D-05 at cycle   9 NSaved=   9.
 NSaved= 9 IEnMin= 9 EnMin= -1010.52258266939     IErMin= 9 ErrMin= 2.77D-05
 ErrMax= 2.77D-05  0.00D+00 EMaxC= 1.00D-01 BMatC= 1.42D-07 BMatP= 6.37D-07
 IDIUse=1 WtCom= 1.00D+00 WtEn= 0.00D+00
 Coeff-Com: -0.141D-04 0.244D-03-0.244D-02-0.618D-02-0.207D-01-0.318D-01
 Coeff-Com:  0.606D-01 0.374D+00 0.626D+00
 Coeff:     -0.141D-04 0.244D-03-0.244D-02-0.618D-02-0.207D-01-0.318D-01
 Coeff:      0.606D-01 0.374D+00 0.626D+00
 Gap=     0.240 Goal=   None    Shift=    0.000
 RMSDP=2.01D-05 MaxDP=2.12D-03 DE=-9.61D-07 OVMax= 1.99D-04

 Cycle  10  Pass 1  IDiag  1:
 RMSU=  5.99D-06    CP:  1.17D+00  4.91D-01  7.87D-01  6.58D-01  8.60D-01
                    CP:  8.99D-01  8.37D-01  1.32D+00  1.11D+00
 E= -1010.52258287158     Delta-E=       -0.000000202196 Rises=F Damp=F
 DIIS: error= 1.04D-05 at cycle  10 NSaved=  10.
 NSaved=10 IEnMin=10 EnMin= -1010.52258287158     IErMin=10 ErrMin= 1.04D-05
 ErrMax= 1.04D-05  0.00D+00 EMaxC= 1.00D-01 BMatC= 1.14D-08 BMatP= 1.42D-07
 IDIUse=1 WtCom= 1.00D+00 WtEn= 0.00D+00
 Coeff-Com: -0.244D-04 0.113D-03 0.470D-03 0.829D-03-0.977D-03-0.945D-02
 Coeff-Com: -0.395D-01-0.375D-01 0.182D+00 0.904D+00
 Coeff:     -0.244D-04 0.113D-03 0.470D-03 0.829D-03-0.977D-03-0.945D-02
 Coeff:     -0.395D-01-0.375D-01 0.182D+00 0.904D+00
 Gap=     0.240 Goal=   None    Shift=    0.000
 RMSDP=1.54D-05 MaxDP=1.63D-03 DE=-2.02D-07 OVMax= 1.08D-04

 Cycle  11  Pass 1  IDiag  1:
 RMSU=  2.75D-06    CP:  1.17D+00  4.91D-01  7.87D-01  6.57D-01  8.60D-01
                    CP:  8.95D-01  8.43D-01  1.39D+00  1.27D+00  1.33D+00
 E= -1010.52258289765     Delta-E=       -0.000000026063 Rises=F Damp=F
 DIIS: error= 2.12D-06 at cycle  11 NSaved=  11.
 NSaved=11 IEnMin=11 EnMin= -1010.52258289765     IErMin=11 ErrMin= 2.12D-06
 ErrMax= 2.12D-06  0.00D+00 EMaxC= 1.00D-01 BMatC= 1.59D-09 BMatP= 1.14D-08
 IDIUse=1 WtCom= 1.00D+00 WtEn= 0.00D+00
 Coeff-Com: -0.350D-05 0.192D-04 0.356D-03 0.756D-03 0.948D-03-0.140D-02
 Coeff-Com: -0.190D-01-0.433D-01 0.190D-01 0.350D+00 0.693D+00
 Coeff:     -0.350D-05 0.192D-04 0.356D-03 0.756D-03 0.948D-03-0.140D-02
 Coeff:     -0.190D-01-0.433D-01 0.190D-01 0.350D+00 0.693D+00
 Gap=     0.240 Goal=   None    Shift=    0.000
 RMSDP=3.41D-06 MaxDP=2.92D-04 DE=-2.61D-08 OVMax= 2.06D-05

 Cycle  12  Pass 1  IDiag  1:
 RMSU=  1.07D-06    CP:  1.17D+00  4.91D-01  7.87D-01  6.57D-01  8.60D-01
                    CP:  8.93D-01  8.46D-01  1.40D+00  1.28D+00  1.47D+00
                    CP:  1.28D+00
 E= -1010.52258289951     Delta-E=       -0.000000001861 Rises=F Damp=F
 DIIS: error= 1.19D-06 at cycle  12 NSaved=  12.
 NSaved=12 IEnMin=12 EnMin= -1010.52258289951     IErMin=12 ErrMin= 1.19D-06
 ErrMax= 1.19D-06  0.00D+00 EMaxC= 1.00D-01 BMatC= 4.27D-10 BMatP= 1.59D-09
 IDIUse=1 WtCom= 1.00D+00 WtEn= 0.00D+00
 Coeff-Com:  0.456D-05-0.125D-04 0.941D-04 0.222D-03 0.597D-03 0.977D-03
 Coeff-Com: -0.238D-02-0.147D-01-0.214D-01 0.224D-01 0.368D+00 0.646D+00
 Coeff:      0.456D-05-0.125D-04 0.941D-04 0.222D-03 0.597D-03 0.977D-03
 Coeff:     -0.238D-02-0.147D-01-0.214D-01 0.224D-01 0.368D+00 0.646D+00
 Gap=     0.240 Goal=   None    Shift=    0.000
 RMSDP=1.99D-06 MaxDP=1.30D-04 DE=-1.86D-09 OVMax= 9.46D-06

 Cycle  13  Pass 1  IDiag  1:
 RMSU=  4.57D-07    CP:  1.17D+00  4.91D-01  7.87D-01  6.57D-01  8.60D-01
                    CP:  8.92D-01  8.49D-01  1.40D+00  1.29D+00  1.51D+00
                    CP:  1.52D+00  9.33D-01
 E= -1010.52258289992     Delta-E=       -0.000000000415 Rises=F Damp=F
 DIIS: error= 6.40D-07 at cycle  13 NSaved=  13.
 NSaved=13 IEnMin=13 EnMin= -1010.52258289992     IErMin=13 ErrMin= 6.40D-07
 ErrMax= 6.40D-07  0.00D+00 EMaxC= 1.00D-01 BMatC= 8.85D-11 BMatP= 4.27D-10
 IDIUse=1 WtCom= 1.00D+00 WtEn= 0.00D+00
 Coeff-Com:  0.317D-05-0.970D-05 0.142D-04 0.390D-04 0.244D-03 0.750D-03
 Coeff-Com:  0.827D-03-0.299D-02-0.143D-01-0.295D-01 0.134D+00 0.383D+00
 Coeff-Com:  0.528D+00
 Coeff:      0.317D-05-0.970D-05 0.142D-04 0.390D-04 0.244D-03 0.750D-03
 Coeff:      0.827D-03-0.299D-02-0.143D-01-0.295D-01 0.134D+00 0.383D+00
 Coeff:      0.528D+00
 Gap=     0.240 Goal=   None    Shift=    0.000
 RMSDP=6.31D-07 MaxDP=4.02D-05 DE=-4.15D-10 OVMax= 3.49D-06

 Cycle  14  Pass 1  IDiag  1:
 RMSU=  1.37D-07    CP:  1.17D+00  4.91D-01  7.87D-01  6.57D-01  8.60D-01
                    CP:  8.92D-01  8.49D-01  1.40D+00  1.29D+00  1.53D+00
                    CP:  1.56D+00  1.14D+00  9.02D-01
 E= -1010.52258290000     Delta-E=       -0.000000000073 Rises=F Damp=F
 DIIS: error= 1.44D-07 at cycle  14 NSaved=  14.
 NSaved=14 IEnMin=14 EnMin= -1010.52258290000     IErMin=14 ErrMin= 1.44D-07
 ErrMax= 1.44D-07  0.00D+00 EMaxC= 1.00D-01 BMatC= 8.24D-12 BMatP= 8.85D-11
 IDIUse=1 WtCom= 1.00D+00 WtEn= 0.00D+00
 Coeff-Com: -0.452D-06 0.447D-06-0.169D-04-0.431D-04-0.554D-04-0.331D-05
 Coeff-Com:  0.773D-03 0.323D-02 0.102D-02-0.187D-01-0.581D-01-0.401D-01
 Coeff-Com:  0.213D+00 0.899D+00
 Coeff:     -0.452D-06 0.447D-06-0.169D-04-0.431D-04-0.554D-04-0.331D-05
 Coeff:      0.773D-03 0.323D-02 0.102D-02-0.187D-01-0.581D-01-0.401D-01
 Coeff:      0.213D+00 0.899D+00
 Gap=     0.240 Goal=   None    Shift=    0.000
 RMSDP=5.25D-07 MaxDP=3.47D-05 DE=-7.32D-11 OVMax= 1.97D-06

 Cycle  15  Pass 1  IDiag  1:
 RMSU=  6.26D-08    CP:  1.17D+00  4.91D-01  7.87D-01  6.57D-01  8.60D-01
                    CP:  8.91D-01  8.50D-01  1.40D+00  1.29D+00  1.54D+00
                    CP:  1.65D+00  1.22D+00  1.10D+00  1.11D+00
 E= -1010.52258289999     Delta-E=        0.000000000001 Rises=F Damp=F
 DIIS: error= 3.94D-08 at cycle  15 NSaved=  15.
 NSaved=15 IEnMin=14 EnMin= -1010.52258290000     IErMin=15 ErrMin= 3.94D-08
 ErrMax= 3.94D-08  0.00D+00 EMaxC= 1.00D-01 BMatC= 3.45D-13 BMatP= 8.24D-12
 IDIUse=1 WtCom= 1.00D+00 WtEn= 0.00D+00
 Coeff-Com: -0.448D-06 0.938D-06-0.501D-05-0.115D-04-0.246D-04-0.528D-04
 Coeff-Com:  0.930D-04 0.798D-03 0.959D-03-0.147D-02-0.208D-01-0.310D-01
 Coeff-Com:  0.107D-01 0.171D+00 0.870D+00
 Coeff:     -0.448D-06 0.938D-06-0.501D-05-0.115D-04-0.246D-04-0.528D-04
 Coeff:      0.930D-04 0.798D-03 0.959D-03-0.147D-02-0.208D-01-0.310D-01
 Coeff:      0.107D-01 0.171D+00 0.870D+00
 Gap=     0.240 Goal=   None    Shift=    0.000
 RMSDP=1.00D-07 MaxDP=7.04D-06 DE= 9.09D-13 OVMax= 3.81D-07

 Cycle  16  Pass 1  IDiag  1:
 RMSU=  1.32D-08    CP:  1.17D+00  4.91D-01  7.87D-01  6.57D-01  8.60D-01
                    CP:  8.91D-01  8.51D-01  1.40D+00  1.29D+00  1.54D+00
                    CP:  1.66D+00  1.25D+00  1.15D+00  1.20D+00  9.85D-01
 E= -1010.52258290001     Delta-E=       -0.000000000018 Rises=F Damp=F
 DIIS: error= 1.84D-08 at cycle  16 NSaved=  16.
 NSaved=16 IEnMin=16 EnMin= -1010.52258290001     IErMin=16 ErrMin= 1.84D-08
 ErrMax= 1.84D-08  0.00D+00 EMaxC= 1.00D-01 BMatC= 7.79D-14 BMatP= 3.45D-13
 IDIUse=1 WtCom= 1.00D+00 WtEn= 0.00D+00
 Coeff-Com: -0.178D-06 0.424D-06-0.768D-06-0.104D-05-0.556D-05-0.238D-04
 Coeff-Com: -0.336D-04 0.253D-04 0.330D-03 0.133D-02-0.342D-02-0.945D-02
 Coeff-Com: -0.169D-01-0.207D-01 0.369D+00 0.680D+00
 Coeff:     -0.178D-06 0.424D-06-0.768D-06-0.104D-05-0.556D-05-0.238D-04
 Coeff:     -0.336D-04 0.253D-04 0.330D-03 0.133D-02-0.342D-02-0.945D-02
 Coeff:     -0.169D-01-0.207D-01 0.369D+00 0.680D+00
 Gap=     0.240 Goal=   None    Shift=    0.000
 RMSDP=2.23D-08 MaxDP=1.71D-06 DE=-1.82D-11 OVMax= 9.97D-08

 Cycle  17  Pass 1  IDiag  1:
 RMSU=  2.42D-09    CP:  1.17D+00  4.91D-01  7.87D-01  6.57D-01  8.60D-01
                    CP:  8.91D-01  8.51D-01  1.40D+00  1.29D+00  1.54D+00
                    CP:  1.66D+00  1.25D+00  1.16D+00  1.21D+00  1.01D+00
                    CP:  1.25D+00
 E= -1010.52258290000     Delta-E=        0.000000000011 Rises=F Damp=F
 DIIS: error= 4.19D-09 at cycle  17 NSaved=  17.
 NSaved=17 IEnMin=16 EnMin= -1010.52258290001     IErMin=17 ErrMin= 4.19D-09
 ErrMax= 4.19D-09  0.00D+00 EMaxC= 1.00D-01 BMatC= 4.11D-15 BMatP= 7.79D-14
 IDIUse=1 WtCom= 1.00D+00 WtEn= 0.00D+00
 Coeff-Com: -0.222D-08 0.233D-07 0.229D-06 0.732D-06 0.719D-06-0.101D-05
 Coeff-Com: -0.193D-04-0.711D-04 0.274D-05 0.459D-03 0.124D-02 0.104D-02
 Coeff-Com: -0.479D-02-0.230D-01-0.151D-01 0.169D+00 0.871D+00
 Coeff:     -0.222D-08 0.233D-07 0.229D-06 0.732D-06 0.719D-06-0.101D-05
 Coeff:     -0.193D-04-0.711D-04 0.274D-05 0.459D-03 0.124D-02 0.104D-02
 Coeff:     -0.479D-02-0.230D-01-0.151D-01 0.169D+00 0.871D+00
 Gap=     0.240 Goal=   None    Shift=    0.000
 RMSDP=7.06D-09 MaxDP=5.25D-07 DE= 1.14D-11 OVMax= 2.91D-08

 SCF Done:  E(RM062X) =  -1010.52258290     A.U. after   17 cycles
            NFock= 17  Conv=0.71D-08     -V/T= 2.0038
 KE= 1.006677274190D+03 PE=-4.475976261870D+03 EE= 1.405956231966D+03
 Leave Link  502 at Sun Oct 13 21:40:25 2019, MaxMem= 10737418240 cpu:             957.2 elap:              40.1
 (Enter /apps/cent7/gaussian/g16-A.03/g16-haswell/g16/l601.exe)
 Copying SCF densities to generalized density rwf, IOpCl= 0 IROHF=0.

 **********************************************************************

            Population analysis using the SCF density.

 **********************************************************************

 Orbital symmetries:
       Occupied  (A) (A) (A) (A) (A) (A) (A) (A) (A) (A) (A) (A)
                 (A) (A) (A) (A) (A) (A) (A) (A) (A) (A) (A) (A)
                 (A) (A) (A) (A) (A) (A) (A) (A) (A) (A) (A) (A)
                 (A) (A) (A) (A) (A) (A) (A) (A) (A) (A) (A) (A)
                 (A) (A) (A) (A) (A) (A) (A) (A)
       Virtual   (A) (A) (A) (A) (A) (A) (A) (A) (A) (A) (A) (A)
                 (A) (A) (A) (A) (A) (A) (A) (A) (A) (A) (A) (A)
                 (A) (A) (A) (A) (A) (A) (A) (A) (A) (A) (A) (A)
                 (A) (A) (A) (A) (A) (A) (A) (A) (A) (A) (A) (A)
                 (A) (A) (A) (A) (A) (A) (A) (A) (A) (A) (A) (A)
                 (A) (A) (A) (A) (A) (A) (A) (A) (A) (A) (A) (A)
                 (A) (A) (A) (A) (A) (A) (A) (A) (A) (A) (A) (A)
                 (A) (A) (A) (A) (A) (A) (A) (A) (A) (A) (A) (A)
                 (A) (A) (A) (A) (A) (A) (A) (A) (A) (A) (A) (A)
                 (A) (A) (A) (A) (A) (A) (A) (A) (A) (A) (A) (A)
                 (A) (A) (A) (A) (A) (A) (A) (A) (A) (A) (A) (A)
                 (A) (A) (A) (A) (A) (A) (A) (A) (A) (A) (A) (A)
                 (A) (A) (A) (A) (A) (A) (A) (A) (A) (A) (A) (A)
                 (A) (A) (A) (A) (A) (A) (A) (A) (A) (A) (A) (A)
                 (A) (A) (A) (A) (A) (A) (A) (A) (A) (A) (A) (A)
                 (A) (A) (A) (A) (A) (A) (A) (A) (A) (A) (A) (A)
                 (A) (A) (A) (A) (A) (A) (A) (A) (A) (A) (A) (A)
                 (A) (A) (A) (A) (A) (A) (A) (A) (A) (A) (A) (A)
                 (A) (A) (A) (A) (A) (A) (A) (A) (A) (A) (A) (A)
                 (A) (A) (A) (A) (A) (A) (A) (A) (A) (A) (A) (A)
                 (A) (A) (A) (A) (A) (A) (A) (A) (A) (A) (A) (A)
                 (A) (A) (A) (A) (A) (A) (A) (A) (A) (A) (A) (A)
                 (A) (A) (A) (A) (A) (A) (A) (A) (A) (A) (A) (A)
                 (A) (A) (A) (A) (A) (A) (A) (A) (A) (A) (A) (A)
                 (A) (A) (A) (A) (A) (A) (A) (A) (A) (A) (A) (A)
                 (A) (A) (A) (A) (A) (A) (A) (A) (A) (A) (A) (A)
                 (A) (A) (A) (A) (A) (A) (A) (A) (A) (A) (A) (A)
                 (A) (A) (A) (A) (A) (A) (A) (A) (A) (A)
 The electronic state is 1-A.
 Alpha  occ. eigenvalues --  -90.11067 -19.61584 -19.61558 -10.61459 -10.61456
 Alpha  occ. eigenvalues --  -10.60592 -10.60534 -10.59812 -10.59808 -10.59193
 Alpha  occ. eigenvalues --  -10.59191 -10.59077 -10.59077 -10.58821 -10.58820
 Alpha  occ. eigenvalues --   -8.45323  -6.37453  -6.37437  -6.37389  -1.16060
 Alpha  occ. eigenvalues --   -1.05649  -1.03272  -0.98991  -0.93637  -0.90431
 Alpha  occ. eigenvalues --   -0.88143  -0.85546  -0.81335  -0.75921  -0.71650
 Alpha  occ. eigenvalues --   -0.70247  -0.70084  -0.63050  -0.62015  -0.59032
 Alpha  occ. eigenvalues --   -0.56668  -0.56311  -0.53731  -0.53686  -0.53241
 Alpha  occ. eigenvalues --   -0.53217  -0.52404  -0.48311  -0.47090  -0.46915
 Alpha  occ. eigenvalues --   -0.46670  -0.44776  -0.44716  -0.38580  -0.37755
 Alpha  occ. eigenvalues --   -0.37482  -0.36396  -0.35587  -0.33733  -0.33247
 Alpha  occ. eigenvalues --   -0.30948
 Alpha virt. eigenvalues --   -0.06946  -0.04790  -0.01621  -0.01521  -0.00640
 Alpha virt. eigenvalues --    0.00282   0.01379   0.01761   0.02318   0.03573
 Alpha virt. eigenvalues --    0.03609   0.04004   0.04133   0.06110   0.06231
 Alpha virt. eigenvalues --    0.06315   0.06632   0.06863   0.08044   0.08156
 Alpha virt. eigenvalues --    0.09203   0.09334   0.09840   0.09945   0.10095
 Alpha virt. eigenvalues --    0.11117   0.11276   0.11513   0.11775   0.11821
 Alpha virt. eigenvalues --    0.12082   0.12271   0.12883   0.13211   0.13529
 Alpha virt. eigenvalues --    0.14090   0.14218   0.14286   0.15103   0.15790
 Alpha virt. eigenvalues --    0.16654   0.16803   0.17014   0.17026   0.17651
 Alpha virt. eigenvalues --    0.17992   0.18638   0.19029   0.19592   0.20076
 Alpha virt. eigenvalues --    0.20419   0.20845   0.21295   0.21824   0.22677
 Alpha virt. eigenvalues --    0.23628   0.23772   0.24090   0.24243   0.24567
 Alpha virt. eigenvalues --    0.24813   0.25667   0.26420   0.27381   0.27861
 Alpha virt. eigenvalues --    0.28234   0.28961   0.29570   0.30160   0.30304
 Alpha virt. eigenvalues --    0.30573   0.31062   0.31317   0.31587   0.32844
 Alpha virt. eigenvalues --    0.32898   0.33696   0.33863   0.34430   0.35440
 Alpha virt. eigenvalues --    0.35714   0.35765   0.35979   0.36811   0.37386
 Alpha virt. eigenvalues --    0.39561   0.40916   0.41724   0.41934   0.42853
 Alpha virt. eigenvalues --    0.45527   0.45927   0.48894   0.49798   0.50469
 Alpha virt. eigenvalues --    0.52516   0.54467   0.54670   0.54966   0.55179
 Alpha virt. eigenvalues --    0.56171   0.56720   0.57385   0.57574   0.58499
 Alpha virt. eigenvalues --    0.59100   0.60268   0.60560   0.60842   0.61118
 Alpha virt. eigenvalues --    0.61311   0.62874   0.63994   0.65114   0.67301
 Alpha virt. eigenvalues --    0.67480   0.67982   0.68249   0.69793   0.71160
 Alpha virt. eigenvalues --    0.72086   0.72401   0.72797   0.75620   0.75748
 Alpha virt. eigenvalues --    0.77200   0.78357   0.78604   0.83323   0.83329
 Alpha virt. eigenvalues --    0.83755   0.84217   0.84909   0.86390   0.86733
 Alpha virt. eigenvalues --    0.87426   0.87629   0.88469   0.90199   0.91469
 Alpha virt. eigenvalues --    0.91624   0.92223   0.92542   0.93570   0.93573
 Alpha virt. eigenvalues --    0.96472   0.98248   0.98748   0.99803   1.00486
 Alpha virt. eigenvalues --    1.02560   1.02599   1.02780   1.04368   1.04802
 Alpha virt. eigenvalues --    1.06564   1.06969   1.07113   1.08311   1.10910
 Alpha virt. eigenvalues --    1.11223   1.13789   1.15357   1.15516   1.19614
 Alpha virt. eigenvalues --    1.20147   1.20515   1.22239   1.22626   1.23280
 Alpha virt. eigenvalues --    1.26381   1.29127   1.29999   1.31674   1.33326
 Alpha virt. eigenvalues --    1.38429   1.39549   1.42693   1.47826   1.48955
 Alpha virt. eigenvalues --    1.49807   1.51313   1.52110   1.53453   1.55638
 Alpha virt. eigenvalues --    1.55931   1.56787   1.57388   1.57870   1.60088
 Alpha virt. eigenvalues --    1.60720   1.62163   1.64595   1.64942   1.67317
 Alpha virt. eigenvalues --    1.68031   1.69576   1.69962   1.74405   1.74594
 Alpha virt. eigenvalues --    1.74613   1.76312   1.79480   1.82070   1.84081
 Alpha virt. eigenvalues --    1.84144   1.84414   1.85218   1.86957   1.88906
 Alpha virt. eigenvalues --    1.89938   1.90834   1.91465   1.91841   1.95008
 Alpha virt. eigenvalues --    1.96890   1.96941   1.97420   1.97908   1.99809
 Alpha virt. eigenvalues --    2.00053   2.00949   2.01839   2.04734   2.05310
 Alpha virt. eigenvalues --    2.08285   2.10091   2.10611   2.13588   2.13866
 Alpha virt. eigenvalues --    2.23273   2.26259   2.30047   2.30927   2.31998
 Alpha virt. eigenvalues --    2.35752   2.36811   2.37274   2.43067   2.45624
 Alpha virt. eigenvalues --    2.48655   2.50083   2.50830   2.55223   2.59253
 Alpha virt. eigenvalues --    2.60849   2.67059   2.68783   2.68943   2.69666
 Alpha virt. eigenvalues --    2.70187   2.71361   2.71394   2.73703   2.73972
 Alpha virt. eigenvalues --    2.76790   2.77236   2.79042   2.79596   2.80048
 Alpha virt. eigenvalues --    2.81972   2.83389   2.83915   2.85602   2.86183
 Alpha virt. eigenvalues --    2.86358   2.89974   2.90727   2.92391   2.94096
 Alpha virt. eigenvalues --    2.94871   2.95285   2.97848   2.98572   2.98968
 Alpha virt. eigenvalues --    3.00398   3.01985   3.08082   3.10578   3.12090
 Alpha virt. eigenvalues --    3.13202   3.17940   3.20200   3.24699   3.30232
 Alpha virt. eigenvalues --    3.33932   3.35596   3.37590   3.39020   3.41929
 Alpha virt. eigenvalues --    3.44558   3.51918   3.52889   3.54173   3.55705
 Alpha virt. eigenvalues --    3.59727   3.60388   3.69661   3.84926   3.88272
 Alpha virt. eigenvalues --    4.03499   4.03549   4.08525   4.09238   4.14876
 Alpha virt. eigenvalues --    4.20012   4.54312   4.76861   4.81857   5.15809
 Alpha virt. eigenvalues --    5.15903   5.18053   5.27737   5.28066   5.32995
 Alpha virt. eigenvalues --    8.21216  17.49791  17.63098  17.71818  23.56294
 Alpha virt. eigenvalues --   23.73534  23.94835  23.96469  23.97021  24.00266
 Alpha virt. eigenvalues --   24.05700  24.06931  24.07848  24.08382  24.16303
 Alpha virt. eigenvalues --   24.16693  49.97228  50.06154 189.46726
          Condensed to atoms (all electrons):
               1          2          3          4          5          6
     1  O    8.373075   0.748630  -0.260563   0.096510  -0.050847  -0.025878
     2  S    0.748630  26.561603  -5.900470   3.720545  -1.610980  -0.919531
     3  C   -0.260563  -5.900470  23.550902  -4.911534  -3.000569   1.702174
     4  C    0.096510   3.720545  -4.911534  20.332179  -2.170613  -3.981824
     5  C   -0.050847  -1.610980  -3.000569  -2.170613  13.197880   0.060515
     6  C   -0.025878  -0.919531   1.702174  -3.981824   0.060515  10.247013
     7  C    0.046609   1.033996  -1.299041   2.328593  -1.885447  -0.350145
     8  C   -0.203417  -2.494105  -2.123021  -5.809646   5.439433  -0.934971
     9  C    0.095351   3.720427  -5.968582   6.910297  -2.538677   0.019789
    10  C   -0.260834  -5.896855   9.973894  -5.967764  -4.046255   0.759465
    11  C   -0.199771  -2.491778  -0.922063  -4.154421   0.273147   0.432354
    12  C    0.047183   1.033162  -0.209113   0.605892  -0.140494  -0.112226
    13  C   -0.025751  -0.920258   0.760740   0.019002  -0.280331  -0.322480
    14  C   -0.050797  -1.610989  -4.036651  -2.539885   2.434054  -0.279525
    15  O   -0.196784   0.703455  -0.219151   0.133080  -0.045148  -0.024438
    16  H    0.000004  -0.011795   0.010721  -0.039345   0.609177  -0.106209
    17  H   -0.000425  -0.023616   0.027263  -0.011483  -0.065661   0.408894
    18  H    0.000933   0.030867   0.063315   0.055897  -0.067614  -0.046763
    19  H   -0.000208  -0.019580  -0.107809   0.043674   0.026521  -0.014708
    20  H   -0.000265  -0.020192  -0.020214   0.015248   0.011837   0.002245
    21  H    0.000940   0.030983  -0.012222  -0.002841  -0.008097  -0.001796
    22  H   -0.000420  -0.023692   0.017926   0.002089   0.008278   0.004359
    23  H   -0.000003  -0.011461  -0.127860  -0.176404   0.028701   0.028110
               7          8          9         10         11         12
     1  O    0.046609  -0.203417   0.095351  -0.260834  -0.199771   0.047183
     2  S    1.033996  -2.494105   3.720427  -5.896855  -2.491778   1.033162
     3  C   -1.299041  -2.123021  -5.968582   9.973894  -0.922063  -0.209113
     4  C    2.328593  -5.809646   6.910297  -5.967764  -4.154421   0.605892
     5  C   -1.885447   5.439433  -2.538677  -4.046255   0.273147  -0.140494
     6  C   -0.350145  -0.934971   0.019789   0.759465   0.432354  -0.112226
     7  C    8.099538  -2.316037   0.605286  -0.208738  -0.107252   0.041556
     8  C   -2.316037  20.334555  -4.151746  -0.922722  -1.035461  -0.107316
     9  C    0.605286  -4.151746  20.321114  -4.903685  -5.807029   2.329618
    10  C   -0.208738  -0.922722  -4.903685  23.539780  -2.121861  -1.298393
    11  C   -0.107252  -1.035461  -5.807029  -2.121861  20.335846  -2.317113
    12  C    0.041556  -0.107316   2.329618  -1.298393  -2.317113   8.099013
    13  C   -0.112182   0.432160  -3.982395   1.702291  -0.933177  -0.350438
    14  C   -0.141397   0.275897  -2.172591  -2.992719   5.434746  -1.885286
    15  O    0.032334  -0.235102   0.133469  -0.220018  -0.237494   0.031648
    16  H   -0.012893   0.190216  -0.176530  -0.127904  -0.060148  -0.002215
    17  H   -0.059223   0.018654   0.002066   0.017834   0.003576  -0.001465
    18  H    0.445314  -0.113993  -0.002871  -0.012176  -0.002876   0.000682
    19  H   -0.002716   0.391039   0.015341  -0.020501  -0.009607  -0.001794
    20  H   -0.001813  -0.009547   0.043235  -0.107483   0.391592  -0.002856
    21  H    0.000683  -0.002882   0.055991   0.063331  -0.114273   0.445509
    22  H   -0.001469   0.003594  -0.011735   0.027361   0.018652  -0.059296
    23  H   -0.002206  -0.060177  -0.038764   0.010797   0.190063  -0.012839
              13         14         15         16         17         18
     1  O   -0.025751  -0.050797  -0.196784   0.000004  -0.000425   0.000933
     2  S   -0.920258  -1.610989   0.703455  -0.011795  -0.023616   0.030867
     3  C    0.760740  -4.036651  -0.219151   0.010721   0.027263   0.063315
     4  C    0.019002  -2.539885   0.133080  -0.039345  -0.011483   0.055897
     5  C   -0.280331   2.434054  -0.045148   0.609177  -0.065661  -0.067614
     6  C   -0.322480  -0.279525  -0.024438  -0.106209   0.408894  -0.046763
     7  C   -0.112182  -0.141397   0.032334  -0.012893  -0.059223   0.445314
     8  C    0.432160   0.275897  -0.235102   0.190216   0.018654  -0.113993
     9  C   -3.982395  -2.172591   0.133469  -0.176530   0.002066  -0.002871
    10  C    1.702291  -2.992719  -0.220018  -0.127904   0.017834  -0.012176
    11  C   -0.933177   5.434746  -0.237494  -0.060148   0.003576  -0.002876
    12  C   -0.350438  -1.885286   0.031648  -0.002215  -0.001465   0.000682
    13  C   10.244923   0.062449  -0.024554   0.028060   0.004366  -0.001795
    14  C    0.062449  13.184295  -0.045107   0.028914   0.008299  -0.008106
    15  O   -0.024554  -0.045107   8.341765   0.000038  -0.000394   0.000911
    16  H    0.028060   0.028914   0.000038   0.554716  -0.012909   0.001471
    17  H    0.004366   0.008299  -0.000394  -0.012909   0.461149  -0.010307
    18  H   -0.001795  -0.008106   0.000911   0.001471  -0.010307   0.459442
    19  H    0.002231   0.011793  -0.000255   0.000641   0.001038  -0.011117
    20  H   -0.014589   0.026578  -0.000294   0.000318  -0.000008   0.000022
    21  H   -0.046820  -0.067660   0.000909  -0.000780   0.000001  -0.000001
    22  H    0.409165  -0.065714  -0.000399   0.002046  -0.000004   0.000001
    23  H   -0.106444   0.608524   0.000057  -0.020230   0.002041  -0.000780
              19         20         21         22         23
     1  O   -0.000208  -0.000265   0.000940  -0.000420  -0.000003
     2  S   -0.019580  -0.020192   0.030983  -0.023692  -0.011461
     3  C   -0.107809  -0.020214  -0.012222   0.017926  -0.127860
     4  C    0.043674   0.015248  -0.002841   0.002089  -0.176404
     5  C    0.026521   0.011837  -0.008097   0.008278   0.028701
     6  C   -0.014708   0.002245  -0.001796   0.004359   0.028110
     7  C   -0.002716  -0.001813   0.000683  -0.001469  -0.002206
     8  C    0.391039  -0.009547  -0.002882   0.003594  -0.060177
     9  C    0.015341   0.043235   0.055991  -0.011735  -0.038764
    10  C   -0.020501  -0.107483   0.063331   0.027361   0.010797
    11  C   -0.009607   0.391592  -0.114273   0.018652   0.190063
    12  C   -0.001794  -0.002856   0.445509  -0.059296  -0.012839
    13  C    0.002231  -0.014589  -0.046820   0.409165  -0.106444
    14  C    0.011793   0.026578  -0.067660  -0.065714   0.608524
    15  O   -0.000255  -0.000294   0.000909  -0.000399   0.000057
    16  H    0.000641   0.000318  -0.000780   0.002046  -0.020230
    17  H    0.001038  -0.000008   0.000001  -0.000004   0.002041
    18  H   -0.011117   0.000022  -0.000001   0.000001  -0.000780
    19  H    0.438085   0.000075   0.000023  -0.000009   0.000316
    20  H    0.000075   0.438034  -0.011120   0.001041   0.000640
    21  H    0.000023  -0.011120   0.459452  -0.010327   0.001470
    22  H   -0.000009   0.001041  -0.010327   0.461189  -0.012920
    23  H    0.000316   0.000640   0.001470  -0.012920   0.554653
 Mulliken charges:
               1
     1  O   -0.133273
     2  S    0.371632
     3  C   -0.988071
     4  C    1.502754
     5  C   -0.178811
     6  C   -0.544426
     7  C   -0.133352
     8  C   -0.565405
     9  C    1.502620
    10  C   -0.986846
    11  C   -0.565652
    12  C   -0.133417
    13  C   -0.544172
    14  C   -0.179124
    15  O   -0.128529
    16  H    0.144636
    17  H    0.230315
    18  H    0.219543
    19  H    0.257526
    20  H    0.257518
    21  H    0.219530
    22  H    0.230285
    23  H    0.144717
 Sum of Mulliken charges =  -0.00000
 Mulliken charges with hydrogens summed into heavy atoms:
               1
     1  O   -0.133273
     2  S    0.371632
     3  C   -0.988071
     4  C    1.502754
     5  C   -0.034175
     6  C   -0.314111
     7  C    0.086190
     8  C   -0.307878
     9  C    1.502620
    10  C   -0.986846
    11  C   -0.308134
    12  C    0.086113
    13  C   -0.313887
    14  C   -0.034408
    15  O   -0.128529
 Electronic spatial extent (au):  <R**2>=           3071.4850
 Charge=             -0.0000 electrons
 Dipole moment (field-independent basis, Debye):
    X=             -0.0031    Y=             -7.7648    Z=             -0.0618  Tot=              7.7650
 Quadrupole moment (field-independent basis, Debye-Ang):
   XX=            -65.3397   YY=            -99.1698   ZZ=           -107.4333
   XY=             -0.0065   XZ=              0.0060   YZ=             -0.1674
 Traceless Quadrupole moment (field-independent basis, Debye-Ang):
   XX=             25.3079   YY=             -8.5222   ZZ=            -16.7857
   XY=             -0.0065   XZ=              0.0060   YZ=             -0.1674
 Octapole moment (field-independent basis, Debye-Ang**2):
  XXX=             -0.0106  YYY=            -64.8718  ZZZ=             -0.1104  XYY=             -0.0202
  XXY=             -3.6048  XXZ=             -1.2344  XZZ=             -0.0022  YZZ=             -7.0836
  YYZ=              0.1482  XYZ=              0.0442
 Hexadecapole moment (field-independent basis, Debye-Ang**3):
 XXXX=          -2034.1439 YYYY=          -1465.7351 ZZZZ=           -255.1444 XXXY=              0.0266
 XXXZ=              0.0718 YYYX=             -0.0495 YYYZ=             -0.9675 ZZZX=              0.0017
 ZZZY=             -0.3536 XXYY=           -559.0139 XXZZ=           -517.1158 YYZZ=           -341.2176
 XXYZ=             -0.1145 YYXZ=             -0.0376 ZZXY=             -0.0018
 N-N= 1.052820172814D+03 E-N=-4.475976262176D+03  KE= 1.006677274190D+03
 No NMR shielding tensors so no spin-rotation constants.
 Leave Link  601 at Sun Oct 13 21:40:25 2019, MaxMem= 10737418240 cpu:               4.1 elap:               0.2
 (Enter /apps/cent7/gaussian/g16-A.03/g16-haswell/g16/l701.exe)
 ... and contract with generalized density number  0.
 Compute integral first derivatives.
 Leave Link  701 at Sun Oct 13 21:40:25 2019, MaxMem= 10737418240 cpu:               3.9 elap:               0.2
 (Enter /apps/cent7/gaussian/g16-A.03/g16-haswell/g16/l702.exe)
 L702 exits ... SP integral derivatives will be done elsewhere.
 Leave Link  702 at Sun Oct 13 21:40:25 2019, MaxMem= 10737418240 cpu:               0.5 elap:               0.0
 (Enter /apps/cent7/gaussian/g16-A.03/g16-haswell/g16/l703.exe)
 Integral derivatives from FoFJK, PRISM(SPDF).
 Compute integral first derivatives, UseDBF=F ICtDFT=           0.
 Calling FoFJK, ICntrl=      2127 FMM=F ISym2X=0 I1Cent= 0 IOpClX= 0 NMat=1 NMatS=1 NMatT=0.
 FoFJK:  IHMeth= 1 ICntrl=    2127 DoSepK=F KAlg= 0 I1Cent=           0 FoldK=F
 IRaf=         0 NMat=       1 IRICut=       1 DoRegI=T DoRafI=F ISym2E= 0 IDoP0=0 IntGTp=1.
 FoFCou: FMM=F IPFlag=           0 FMFlag=      100000 FMFlg1=         800
         NFxFlg=           0 DoJE=F BraDBF=F KetDBF=F FulRan=T
         wScrn=  0.000000 ICntrl=      2127 IOpCl=  0 I1Cent=           0 NGrid=           0
         NMat0=    1 NMatS0=      1 NMatT0=    0 NMatD0=    1 NMtDS0=    0 NMtDT0=    0
 Symmetry not used in FoFCou.
 Leave Link  703 at Sun Oct 13 21:40:32 2019, MaxMem= 10737418240 cpu:             157.0 elap:               6.6
 (Enter /apps/cent7/gaussian/g16-A.03/g16-haswell/g16/l716.exe)
 Dipole        =-1.21965200D-03-3.05489673D+00-2.43133665D-02
 ***** Axes restored to original set *****
 -------------------------------------------------------------------
 Center     Atomic                   Forces (Hartrees/Bohr)
 Number     Number              X              Y              Z
 -------------------------------------------------------------------
      1        8          -0.008941963    0.064699492    0.079148133
      2       16           0.018573915   -0.149475302    0.001765380
      3        6          -0.005573508    0.021727887   -0.000599563
      4        6          -0.046033292    0.000861106   -0.000696895
      5        6          -0.004149028   -0.009379868    0.000015802
      6        6           0.012306206   -0.009057095    0.000367295
      7        6           0.011481702    0.003279471    0.000369504
      8        6           0.007761711    0.004605736    0.000314868
      9        6           0.044299871    0.012430983    0.000422064
     10        6           0.000187951    0.022203802   -0.000541391
     11        6          -0.008658070    0.002623455    0.000161239
     12        6          -0.011994427    0.000273164    0.000069704
     13        6          -0.009805856   -0.011831538    0.000122617
     14        6           0.006426284   -0.008118025    0.000078440
     15        8          -0.006880297    0.062975631   -0.080808833
     16        1          -0.001769111   -0.004446935   -0.000215683
     17        1           0.003735003   -0.003499878    0.000036431
     18        1           0.005322805    0.000637902    0.000191092
     19        1           0.002297176    0.004516459   -0.000001208
     20        1          -0.003350823    0.003830576   -0.000043548
     21        1          -0.005283062   -0.000718711    0.000073809
     22        1          -0.002740138   -0.004254463   -0.000060496
     23        1           0.002786953   -0.003883848   -0.000168761
 -------------------------------------------------------------------
 Cartesian Forces:  Max     0.149475302 RMS     0.027009861
 Leave Link  716 at Sun Oct 13 21:40:32 2019, MaxMem= 10737418240 cpu:               0.6 elap:               0.0
 (Enter /apps/cent7/gaussian/g16-A.03/g16-haswell/g16/l103.exe)

 GradGradGradGradGradGradGradGradGradGradGradGradGradGradGradGradGradGrad
 Berny optimization.
 FormGI is forming the generalized inverse of G from B-inverse, IUseBI=4.
 Internal  Forces:  Max     0.102282539 RMS     0.014271161
 Search for a local minimum.
 Step number   1 out of a maximum of  138
 All quantities printed in internal units (Hartrees-Bohrs-Radians)
 RMS Force = .14271D-01 SwitMx=.10000D-02 MixMth= 1
 Mixed Optimization -- RFO/linear search
 Second derivative matrix not updated -- first step.
 ITU=  0
     Eigenvalues ---    0.01065   0.01405   0.01534   0.01740   0.01795
     Eigenvalues ---    0.01872   0.01931   0.01932   0.01944   0.01944
     Eigenvalues ---    0.01944   0.01944   0.01962   0.01962   0.01989
     Eigenvalues ---    0.01991   0.02018   0.02020   0.08641   0.11301
     Eigenvalues ---    0.11591   0.12468   0.16000   0.16000   0.16000
     Eigenvalues ---    0.16000   0.16000   0.16000   0.16000   0.16000
     Eigenvalues ---    0.22000   0.22000   0.22595   0.22608   0.24501
     Eigenvalues ---    0.24533   0.24998   0.24998   0.28155   0.28188
     Eigenvalues ---    0.34804   0.34805   0.34806   0.34806   0.34812
     Eigenvalues ---    0.34812   0.34814   0.34815   0.37909   0.38311
     Eigenvalues ---    0.39957   0.40422   0.40432   0.42855   0.43544
     Eigenvalues ---    0.43743   0.43751   0.44072   0.44084   0.44807
     Eigenvalues ---    0.44820   0.50651   0.50732
 RFO step:  Lambda=-5.23517714D-02 EMin= 1.06490560D-02
 Linear search not attempted -- first point.
 Maximum step size (   0.300) exceeded in Quadratic search.
    -- Step size scaled by   0.931
 Iteration  1 RMS(Cart)=  0.04413388 RMS(Int)=  0.00058269
 Iteration  2 RMS(Cart)=  0.00082324 RMS(Int)=  0.00014360
 Iteration  3 RMS(Cart)=  0.00000052 RMS(Int)=  0.00014360
 ITry= 1 IFail=0 DXMaxC= 1.66D-01 DCOld= 1.00D+10 DXMaxT= 3.00D-01 DXLimC= 3.00D+00 Rises=F
 Variable       Old X    -DE/DX   Delta X   Delta X   Delta X     New X
                                 (Linear)    (Quad)   (Total)
    R1        3.02834  -0.10221   0.00000  -0.17006  -0.17006   2.85828
    R2        3.34631   0.00115   0.00000   0.00513   0.00532   3.35164
    R3        3.34671   0.00108   0.00000   0.00495   0.00514   3.35185
    R4        3.02914  -0.10228   0.00000  -0.17043  -0.17043   2.85871
    R5        2.66763  -0.01172   0.00000  -0.02271  -0.02280   2.64482
    R6        2.65055  -0.02237   0.00000  -0.04114  -0.04112   2.60943
    R7        2.66968  -0.01832   0.00000  -0.03477  -0.03478   2.63489
    R8        2.71620   0.02173   0.00000   0.04281   0.04255   2.75875
    R9        2.66593  -0.01924   0.00000  -0.03666  -0.03667   2.62925
   R10        2.05993  -0.00476   0.00000  -0.01108  -0.01108   2.04886
   R11        2.66658  -0.01441   0.00000  -0.02770  -0.02771   2.63887
   R12        2.05994  -0.00511   0.00000  -0.01189  -0.01189   2.04805
   R13        2.66111  -0.01652   0.00000  -0.03124  -0.03123   2.62988
   R14        2.05991  -0.00533   0.00000  -0.01239  -0.01239   2.04751
   R15        2.05977  -0.00497   0.00000  -0.01155  -0.01155   2.04821
   R16        2.66713  -0.01157   0.00000  -0.02238  -0.02247   2.64466
   R17        2.66983  -0.01836   0.00000  -0.03486  -0.03487   2.63496
   R18        2.65072  -0.02243   0.00000  -0.04126  -0.04124   2.60948
   R19        2.66127  -0.01660   0.00000  -0.03141  -0.03140   2.62987
   R20        2.05982  -0.00499   0.00000  -0.01160  -0.01160   2.04821
   R21        2.66651  -0.01436   0.00000  -0.02760  -0.02761   2.63890
   R22        2.05980  -0.00529   0.00000  -0.01231  -0.01231   2.04750
   R23        2.66603  -0.01929   0.00000  -0.03676  -0.03678   2.62926
   R24        2.05977  -0.00505   0.00000  -0.01175  -0.01175   2.04803
   R25        2.05991  -0.00476   0.00000  -0.01106  -0.01106   2.04884
    A1        1.95207   0.00007   0.00000  -0.00683  -0.00749   1.94458
    A2        1.95244   0.00003   0.00000  -0.00704  -0.00769   1.94475
    A3        1.96451   0.00831   0.00000   0.05499   0.05511   2.01961
    A4        1.67636  -0.01110   0.00000  -0.04196  -0.04196   1.63440
    A5        1.94998  -0.00007   0.00000  -0.00724  -0.00788   1.94210
    A6        1.95029  -0.00012   0.00000  -0.00749  -0.00812   1.94218
    A7        1.86605   0.01281   0.00000   0.04378   0.04398   1.91003
    A8        2.26800  -0.01423   0.00000  -0.04711  -0.04723   2.22077
    A9        2.14911   0.00142   0.00000   0.00334   0.00326   2.15237
   A10        2.05752   0.00189   0.00000   0.00719   0.00729   2.06481
   A11        2.00802  -0.00723   0.00000  -0.02273  -0.02293   1.98509
   A12        2.21761   0.00534   0.00000   0.01554   0.01565   2.23326
   A13        2.09569  -0.00391   0.00000  -0.01269  -0.01272   2.08297
   A14        2.09497   0.00247   0.00000   0.00859   0.00860   2.10357
   A15        2.09253   0.00145   0.00000   0.00411   0.00412   2.09665
   A16        2.10377   0.00216   0.00000   0.00711   0.00708   2.11085
   A17        2.08944  -0.00136   0.00000  -0.00478  -0.00477   2.08467
   A18        2.08998  -0.00080   0.00000  -0.00232  -0.00231   2.08767
   A19        2.10105   0.00120   0.00000   0.00380   0.00381   2.10486
   A20        2.09291   0.00004   0.00000   0.00090   0.00090   2.09381
   A21        2.08922  -0.00124   0.00000  -0.00470  -0.00471   2.08451
   A22        2.05922  -0.00276   0.00000  -0.00874  -0.00871   2.05050
   A23        2.10869   0.00035   0.00000  -0.00012  -0.00014   2.10855
   A24        2.11528   0.00240   0.00000   0.00887   0.00885   2.12413
   A25        2.00831  -0.00728   0.00000  -0.02285  -0.02305   1.98526
   A26        2.21723   0.00541   0.00000   0.01573   0.01584   2.23307
   A27        2.05762   0.00186   0.00000   0.00711   0.00722   2.06484
   A28        1.86597   0.01280   0.00000   0.04377   0.04397   1.90994
   A29        2.26800  -0.01421   0.00000  -0.04708  -0.04721   2.22079
   A30        2.14920   0.00142   0.00000   0.00332   0.00324   2.15244
   A31        2.05910  -0.00275   0.00000  -0.00871  -0.00868   2.05042
   A32        2.10878   0.00035   0.00000  -0.00016  -0.00017   2.10861
   A33        2.11530   0.00240   0.00000   0.00886   0.00885   2.12415
   A34        2.10106   0.00120   0.00000   0.00381   0.00382   2.10488
   A35        2.08942  -0.00127   0.00000  -0.00483  -0.00483   2.08459
   A36        2.09271   0.00006   0.00000   0.00102   0.00102   2.09372
   A37        2.10379   0.00217   0.00000   0.00711   0.00709   2.11087
   A38        2.08988  -0.00079   0.00000  -0.00228  -0.00227   2.08761
   A39        2.08952  -0.00137   0.00000  -0.00483  -0.00482   2.08470
   A40        2.09557  -0.00390   0.00000  -0.01265  -0.01268   2.08290
   A41        2.09523   0.00244   0.00000   0.00845   0.00846   2.10369
   A42        2.09238   0.00147   0.00000   0.00420   0.00422   2.09660
    D1       -2.04291   0.00561   0.00000   0.03186   0.03159  -2.01131
    D2        1.09138   0.00570   0.00000   0.03297   0.03269   1.12407
    D3       -0.00983   0.00011   0.00000   0.00077   0.00075  -0.00908
    D4        3.12445   0.00020   0.00000   0.00188   0.00185   3.12630
    D5        2.02017  -0.00557   0.00000  -0.03076  -0.03048   1.98969
    D6       -1.12874  -0.00547   0.00000  -0.02964  -0.02938  -1.15812
    D7        2.04303  -0.00558   0.00000  -0.03176  -0.03149   2.01154
    D8       -1.09163  -0.00568   0.00000  -0.03288  -0.03260  -1.12423
    D9        0.01025  -0.00011   0.00000  -0.00082  -0.00080   0.00946
   D10       -3.12441  -0.00020   0.00000  -0.00194  -0.00191  -3.12631
   D11       -2.01949   0.00553   0.00000   0.03052   0.03024  -1.98925
   D12        1.12903   0.00544   0.00000   0.02940   0.02913   1.15817
   D13        3.14076  -0.00002   0.00000   0.00004   0.00006   3.14082
   D14        0.00682  -0.00005   0.00000  -0.00041  -0.00040   0.00642
   D15        0.00586  -0.00002   0.00000  -0.00070  -0.00071   0.00515
   D16       -3.12808  -0.00005   0.00000  -0.00115  -0.00118  -3.12925
   D17       -3.13569  -0.00017   0.00000  -0.00158  -0.00155  -3.13724
   D18        0.00580  -0.00011   0.00000  -0.00111  -0.00109   0.00471
   D19       -0.00245  -0.00003   0.00000  -0.00022  -0.00021  -0.00266
   D20        3.13904   0.00002   0.00000   0.00025   0.00025   3.13929
   D21       -0.00482   0.00008   0.00000   0.00108   0.00109  -0.00373
   D22        3.13664   0.00011   0.00000   0.00125   0.00125   3.13789
   D23        3.12808   0.00005   0.00000   0.00140   0.00143   3.12952
   D24       -0.01364   0.00008   0.00000   0.00157   0.00159  -0.01205
   D25        0.00082  -0.00001   0.00000  -0.00014  -0.00014   0.00068
   D26        3.13451  -0.00000   0.00000   0.00025   0.00026   3.13477
   D27       -3.13230  -0.00002   0.00000  -0.00057  -0.00058  -3.13288
   D28        0.00139  -0.00001   0.00000  -0.00018  -0.00018   0.00121
   D29        0.00061  -0.00004   0.00000  -0.00050  -0.00050   0.00011
   D30       -3.14085  -0.00000   0.00000  -0.00013  -0.00014  -3.14099
   D31       -3.14085  -0.00007   0.00000  -0.00067  -0.00066  -3.14151
   D32        0.00087  -0.00003   0.00000  -0.00030  -0.00029   0.00058
   D33        0.00293  -0.00002   0.00000  -0.00048  -0.00048   0.00244
   D34       -3.13869  -0.00001   0.00000  -0.00016  -0.00016  -3.13885
   D35       -3.13880  -0.00006   0.00000  -0.00085  -0.00085  -3.13965
   D36        0.00277  -0.00005   0.00000  -0.00053  -0.00053   0.00224
   D37       -0.00202   0.00007   0.00000   0.00084   0.00084  -0.00118
   D38        3.13968   0.00001   0.00000   0.00037   0.00038   3.14005
[...]
 .00311590,-0.00000853,-0.00002383,0.00080343,0.00002729,0.00001273,-0.
 00056025,0.00001077,-0.00003039,0.00017448,-0.00004172,-0.00001692,-0.
 00006271,-0.00102172,-0.00006384,-0.06274724,0.00064839,-0.00018713,0.
 00700520,-0.00059497,-0.00034482,-0.00456231,-0.00042362,0.00095786,0.
 00591781,-0.00342233,-0.00017469,-0.06096961,0.00666363,-0.00197792,0.
 13252314,0.02081636,0.00046060,0.00363840,-0.08268099,0.01284109,-0.02
 459036,0.01099649,0.01450391,-0.01612293,-0.00706155,-0.00034486,-0.00
 100662,0.00061978,0.00181067,0.00116498,-0.00011427,0.00094572,-0.0002
 1120,0.00111610,0.00021229,0.00081754,0.00144482,-0.00046816,0.0006435
 8,-0.00649715,-0.00137616,0.00053816,0.01400038,-0.01060576,0.01158334
 ,0.00099166,0.00142357,-0.00055646,0.00134039,0.00010016,-0.00042314,0
 .00012787,-0.00084267,0.00018338,0.00117848,-0.00149164,-0.00080051,0.
 04349614,0.00105006,0.01487718,-0.02517248,0.01255970,-0.20380140,0.23
 169631,0.00199566,-0.00145488,0.01790673,0.00133653,0.00031615,0.00118
 262,0.00057593,-0.00017880,-0.00125059,0.00014768,-0.00028306,0.000090
 84,0.00104835,0.00013657,-0.00141659,-0.00037945,-0.00302779,-0.000212
 28,-0.00307984,-0.00037247,0.00132279,0.00148451,-0.00470334,0.0213574
 7,0.00140376,-0.00256134,-0.00034039,-0.00070488,-0.00009991,-0.001592
 65,-0.00004508,-0.00053433,0.00013752,-0.00020407,-0.00069714,-0.00150
 630,-0.01735558,0.20371376,-0.00261791,0.02493740,-0.02119586,-0.02160
 370,0.20778134,-0.44997021,0.00354750,0.00247201,-0.00278611,-0.004648
 09,-0.00022561,-0.00036658,0.00063887,0.00097274,0.00008040,-0.0002042
 0,0.00007162,-0.00001847,-0.00111861,-0.00033424,0.00046319,-0.0003724
 4,0.00260871,0.00052686,0.00440994,0.00089252,-0.00024129,-0.00365332,
 0.00127375,-0.00254584,-0.00026626,0.00264448,0.00051401,0.00118475,-0
 .00004806,0.00047588,0.00018368,0.00009853,-0.00000919,-0.00083363,0.0
 0074914,0.00003976,0.02543073,-0.24472456,0.47700345,-0.00054016,0.000
 13736,0.00030409,0.00160335,0.00080452,0.00000998,-0.00279596,0.003443
 48,-0.00012596,0.01073146,0.02174175,0.00003192,-0.07544977,-0.0652086
 7,-0.00030172,-0.00181556,-0.03011560,0.00000797,-0.00545421,-0.000795
 46,-0.00015903,-0.00119762,0.00042242,-0.00000453,0.00063900,-0.000948
 15,0.00005452,0.00005561,0.00001091,0.00000239,0.00008188,-0.00017591,
 -0.00000041,0.00006008,-0.00002956,0.00000060,-0.00007915,-0.00028419,
 0.00000240,-0.00003035,0.00057272,0.00000051,-0.00053815,0.00013506,-0
 .00031710,0.07516526,0.00049370,-0.00020750,-0.00028751,-0.00184204,-0
 .00015431,-0.00002139,0.00369284,-0.00122460,0.00006589,-0.00693127,-0
 .01647057,-0.00003488,-0.06681061,-0.32785539,-0.00008884,0.00068041,-
 0.00359841,0.00002683,-0.00129174,0.00169148,-0.00000112,0.00045028,0.
 00043388,0.00000241,-0.00120846,0.00031235,-0.00002429,0.00034092,-0.0
 0008303,0.00000417,-0.00015822,0.00005313,-0.00000176,-0.00004206,0.00
 008718,-0.00000063,0.00015133,0.00035174,0.00000031,0.00033300,-0.0003
 3395,0.00000418,0.00048747,-0.00020518,0.00030087,0.07181592,0.3462425
 4,-0.00025310,0.00002164,-0.00004422,0.00001467,0.00001186,0.00065022,
 -0.00012677,0.00005967,0.00662820,0.00010452,0.00032497,0.00362430,-0.
 00029382,-0.00007067,-0.03770334,-0.00007283,-0.00035616,0.00369637,-0
 .00015844,0.00000655,0.00755054,-0.00000254,0.00000148,-0.00091559,0.0
 0005351,-0.00002158,-0.00357858,0.00000156,-0.00000007,-0.00013067,-0.
 00000030,-0.00000202,0.00013968,0.00000051,-0.00000041,0.00002617,0.00
 000138,-0.00000497,-0.00021736,0.00000083,0.00000734,-0.00018720,0.000
 23936,-0.00001709,-0.00004713,0.00043932,0.00007177,0.02506782,0.00005
 574,0.00009407,0.00007965,-0.00023534,-0.00022032,0.00000823,-0.000274
 94,-0.00112520,0.00000437,-0.00482700,-0.00251318,-0.00014433,-0.01580
 970,0.02233598,-0.00030096,-0.20559772,0.14309994,-0.00242023,0.009691
 67,-0.00775635,0.00009160,0.00082247,-0.00242719,-0.00007238,-0.000094
 97,0.00130290,-0.00000713,-0.00043533,-0.00016450,-0.00000307,0.000002
 58,0.00016772,-0.00000008,-0.00002730,-0.00001198,0.00000041,-0.000009
 55,-0.00003621,-0.00000038,-0.00003725,0.00009138,-0.00000077,0.000060
 54,0.00008759,-0.00007645,0.00089411,-0.00020684,0.00006313,0.21498162
 ,0.00005787,0.00001967,-0.00001263,-0.00010350,-0.00004176,-0.00000348
 ,-0.00139046,-0.00037134,-0.00001728,-0.00264394,0.00081655,-0.0000163
 4,-0.00832399,0.00984058,-0.00011835,0.14319315,-0.19946601,0.00217604
 ,0.02315846,-0.01508459,0.00033514,-0.00225784,-0.00504137,0.00000172,
 -0.00029532,0.00046366,-0.00000446,-0.00013609,-0.00009381,-0.00000163
 ,0.00003785,0.00010506,0.00000009,0.00002235,-0.00004447,0.00000021,-0
 .00003687,-0.00000414,-0.00000031,0.00006601,0.00004145,0.00000067,0.0
 0005684,0.00002090,0.00001365,0.00042908,0.00060476,-0.00000665,-0.152
 66855,0.20814774,0.00011355,-0.00023664,-0.00009085,0.00000772,-0.0000
 0480,-0.00083084,0.00000550,-0.00001424,-0.00043248,-0.00014493,-0.000
 01400,0.00738070,-0.00022330,0.00026281,0.00389698,-0.00242043,0.00217
 487,-0.03943004,0.00001482,-0.00004995,0.00387096,-0.00007362,0.000000
 05,0.00713403,-0.00000274,0.00001576,0.00018290,-0.00000366,-0.0000021
 6,-0.00012942,0.00000022,0.00000175,-0.00002912,0.00000028,-0.00000014
 ,-0.00005739,-0.00000037,-0.00000035,0.00003276,-0.00000067,0.00000109
 ,0.00000356,-0.00011046,0.00023834,-0.00009753,0.00006175,-0.00001475,
 -0.00416751,0.00271702,-0.00234670,0.02683729,-0.00014483,0.00030421,0
 .00030691,0.00048442,-0.00129668,0.00000229,-0.00175719,0.00358281,-0.
 00011519,0.00050919,0.00047702,0.00001595,0.00153075,-0.00106089,-0.00
 006884,-0.00269432,0.00093862,-0.00007653,-0.32808075,-0.07221801,-0.0
 0344607,-0.01553398,-0.00769677,-0.00021981,-0.00007808,-0.00001800,0.
 00000876,-0.00034928,0.00028025,-0.00000689,0.00001572,-0.00015603,0.0
 0000486,-0.00002532,0.00001299,-0.00000023,-0.00000986,-0.00003268,0.0
 0000089,-0.00000803,-0.00002338,-0.00000039,-0.00013557,0.00030245,-0.
 00031127,-0.00020652,0.00012702,-0.00000289,0.00055553,-0.00026826,0.0
 0005790,0.34524800,0.00004238,-0.00023664,-0.00026109,0.00022935,0.001
 08412,0.00000095,0.00391925,-0.00240898,0.00007197,0.00063175,-0.00148
 391,0.00000938,-0.00099133,-0.00540827,0.00001892,-0.03002064,-0.00267
 418,-0.00035957,-0.07213955,-0.07847358,-0.00079895,0.02264158,0.00935
 770,0.00026862,0.00008191,0.00012999,-0.00000113,0.00045665,-0.0002755
 5,0.00000667,-0.00006597,0.00018479,-0.00000204,0.00003390,0.00004317,
 0.00000020,0.00007220,0.00002331,0.00000067,-0.00005363,-0.00006772,-0
 .00000052,0.00003571,-0.00023503,0.00026353,-0.00143152,-0.00027877,-0
 .00001683,0.00040651,0.00083171,-0.00000696,0.07674090,0.07902708,0.00
 007074,0.00001653,-0.00004521,-0.00000188,-0.00001640,0.00062958,-0.00
 011407,0.00006842,0.00672295,0.00001657,0.00000648,-0.00086181,-0.0000
 6888,0.00001798,0.00724646,0.00000056,0.00002755,0.00326067,-0.0034462
 9,-0.00080134,-0.03752222,-0.00029714,-0.00010963,0.00361616,0.0000080
 2,-0.00000261,-0.00077736,-0.00000762,0.00000415,0.00013944,0.00000454
 ,-0.00000316,-0.00034049,-0.00000027,-0.00000013,-0.00000881,0.0000004
 3,-0.00000060,-0.00007191,-0.00000029,0.00000007,0.00003094,-0.0000733
 6,-0.00000833,-0.00005598,0.00000066,0.00000231,-0.00000040,0.00005607
 ,-0.00001528,-0.00403151,0.00379401,0.00082528,0.02592256,0.00053987,0
 .00088647,0.00037731,-0.00034548,-0.00299099,0.00001848,-0.00253613,-0
 .02938255,0.00002351,-0.00504521,-0.00041663,-0.00016440,-0.00113309,0
 .00051751,-0.00000397,-0.00297064,0.00341030,-0.00013883,0.01066513,0.
 02199146,0.00003046,-0.07591809,-0.06689555,-0.00032265,0.00019225,-0.
 00151343,0.00000308,0.00005870,-0.00005566,-0.00000422,-0.00005577,0.0
 0012267,0.00000197,-0.00002565,0.00001902,-0.00000146,0.00001694,-0.00
 013097,0.00000207,-0.00048652,0.00021741,-0.00000382,0.00054429,0.0008
 5531,-0.00034822,0.00011841,-0.00005753,0.00001693,0.00035816,0.001131
 79,0.00000322,0.00068208,-0.00062379,0.00006013,0.07540044,-0.00029098
 ,-0.00005857,0.00027629,0.00025031,-0.00025642,0.00000086,-0.00167095,
 -0.00271665,-0.00001043,-0.00070249,0.00162448,0.00000690,0.00061060,0
 .00050461,0.00000404,0.00348578,-0.00097832,0.00006385,-0.00779824,-0.
 01389452,-0.00005323,-0.06594707,-0.33068538,-0.00010648,0.00001639,-0
 .00027675,0.00000145,-0.00006193,0.00001331,-0.00000014,0.00001825,-0.
 00001060,-0.00000026,-0.00001608,-0.00002371,0.00000013,-0.00002587,-0
 .00001209,-0.00000064,-0.00001199,0.00004628,-0.00000062,-0.00028324,-
 0.00005513,-0.00028692,-0.00004185,-0.00004836,-0.00000332,-0.00042992
 ,-0.00073242,-0.00000390,0.00002155,0.00078698,-0.00001130,0.07289289,
 0.34677981,-0.00004932,-0.00108117,-0.00077982,0.00001378,-0.00003878,
 -0.00138599,-0.00004483,-0.00035495,0.00155032,-0.00016264,0.00001036,
 0.00819650,-0.00000535,0.00000326,-0.00092561,-0.00013809,0.00006462,0
 .00746374,0.00010429,0.00031782,0.00390655,-0.00032587,-0.00011997,-0.
 03745129,-0.00000112,-0.00001785,0.00024990,-0.00000338,-0.00000007,0.
 00040277,0.00000173,0.00000112,-0.00020276,-0.00000103,0.00000043,0.00
 006389,0.00000153,-0.00000186,-0.00010666,-0.00000346,0.00000205,-0.00
 021696,0.00008104,0.00109855,-0.00079299,0.00001664,-0.00000374,-0.001
 21356,0.00000710,0.00001569,-0.00012344,0.00005847,-0.00001976,-0.0040
 0683,0.00045261,0.00012359,0.02525525,0.00064748,-0.00068224,-0.000402
 32,-0.00099309,0.00280420,-0.00000113,0.00002796,0.00005935,-0.0000045
 1,-0.00019278,0.00153471,-0.00000913,-0.00040539,-0.00033196,-0.000001
 48,-0.00002218,0.00012842,0.00000050,-0.00002484,-0.00001932,-0.000000
 77,-0.00001946,-0.00012491,0.00000213,-0.00490879,-0.00124128,-0.00015
 175,-0.00994557,0.02754859,-0.00020712,-0.12296064,0.11956280,-0.00130
 569,0.01256292,-0.01528172,0.00014070,-0.00120714,-0.00346921,-0.00009
 360,-0.00076539,-0.00083956,0.00000414,0.00064238,-0.00070333,0.000439
 55,0.00002018,-0.00000002,-0.00000010,-0.00004909,-0.00001812,-0.00000
 112,0.00000928,-0.00001306,0.00000013,-0.00003514,-0.00000334,-0.00000
 090,0.12653028,0.00046449,-0.00016177,0.00018764,-0.00043709,0.0003914
 5,-0.00000858,0.00006562,0.00004407,0.00000135,0.00000486,0.00010840,0
 .00000033,-0.00010256,-0.00003489,-0.00000157,0.00002333,0.00002705,-0
 .00000014,0.00001579,-0.00002453,0.00000055,-0.00002048,-0.00004691,-0
 .00000071,-0.00095543,0.00148781,0.00000523,-0.00016326,0.00469558,-0.
 00001035,0.11861434,-0.28362629,0.00202127,0.01450816,-0.01579285,0.00
 022134,-0.00354464,-0.00274262,-0.00001642,-0.00093264,0.00013674,-0.0
 0001371,0.00046593,-0.00015774,-0.00017992,0.00000987,-0.00000809,0.00
 000022,-0.00000645,-0.00000116,0.00000004,0.00000589,-0.00000542,0.000
 00008,-0.00000639,0.00000321,0.00000002,-0.12873474,0.29563202,0.00034
 815,-0.00105021,-0.00078426,0.00000401,0.00002926,-0.00138628,-0.00000
 521,0.00000131,0.00040274,-0.00000485,0.00001842,0.00024977,-0.0000018
 5,-0.00000440,-0.00021692,0.00000101,0.00000122,-0.00010668,-0.0000011
 3,-0.00000004,0.00006389,0.00000228,-0.00000182,-0.00020275,-0.0001531
 3,0.00000085,0.00819672,-0.00013852,0.00031908,0.00154759,-0.00130097,
 0.00203133,-0.03746792,0.00006497,-0.00013188,0.00390715,-0.00009463,-
 0.00001414,0.00746453,0.00000557,-0.00001198,-0.00092543,-0.00031404,0
 .00103067,-0.00078843,-0.00000014,0.00000012,0.00002932,-0.00000112,-0
 .00000009,0.00004631,0.00000006,-0.00000011,0.00000104,-0.00000091,0.0
 0000006,0.00004032,0.00151617,-0.00220175,0.02527326,-0.00006066,-0.00
 026059,-0.00023437,0.00026639,0.00108927,-0.00000788,-0.00016927,-0.00
 025332,-0.00000287,-0.00005030,-0.00002764,0.00000866,-0.00002998,0.00
 003294,-0.00000082,0.00000155,0.00002717,0.00000077,-0.00001001,-0.000
 02647,0.00000007,-0.00002695,0.00010236,0.00000341,0.00065295,0.000065
 01,0.00001777,-0.00000907,-0.00297493,-0.00007166,-0.01046934,0.002667
 76,-0.00017362,-0.34739204,0.00399721,-0.00367681,-0.00962196,-0.00270
 168,-0.00014569,0.00062261,0.00258958,-0.00008478,-0.00006817,-0.00025
 913,0.00023588,0.00001896,-0.00000656,-0.00000025,-0.00000383,0.000001
 63,-0.00000015,-0.00001509,0.00000785,-0.00000142,0.00000668,-0.000002
 82,0.00000009,0.00054489,-0.00008251,0.00005406,0.36572922,0.00000827,
 -0.00031277,-0.00032920,-0.00043673,0.00130225,-0.00000804,-0.00042973
 ,-0.00045565,-0.00000351,-0.00012756,0.00010220,-0.00000366,0.00006319
 ,-0.00004576,0.00000086,-0.00007770,0.00001189,-0.00000114,-0.00004739
 ,0.00002785,-0.00000075,0.00001230,0.00022749,-0.00000121,-0.00008975,
 -0.00162768,0.00000083,-0.00331135,-0.00415786,-0.00001079,-0.02767084
 ,0.00429081,-0.00032892,0.00391873,-0.05915952,0.00010077,0.02825784,0
 .00425598,0.00033202,0.00252002,-0.00449989,0.00005945,0.00000055,-0.0
 0031055,0.00033133,-0.00005008,0.00004348,-0.00000061,0.00000033,0.000
 00059,0.00000003,-0.00001774,0.00002384,-0.00000003,0.00001613,-0.0000
 0282,0.00000024,0.00056285,0.00092429,-0.00000594,-0.00400768,0.058543
 14,-0.00007298,-0.00000821,-0.00005334,-0.00000392,0.00001200,0.000629
 46,-0.00000205,-0.00000182,0.00013953,0.00000953,-0.00000259,-0.000777
 35,-0.00000107,0.00000072,0.00003093,0.00000130,0.00000027,-0.00007190
 ,0.00000017,-0.00000067,-0.00000880,0.00000360,-0.00000009,-0.00034051
 ,0.00001733,0.00000178,-0.00086180,-0.00007247,-0.00000714,0.00672371,
 -0.00009511,0.00003049,0.00361840,-0.00367637,0.00010083,-0.03752497,-
 0.00022448,-0.00003379,0.00325816,-0.00008476,0.00006025,0.00724621,0.
 00007286,0.00000319,-0.00004778,-0.00000019,-0.00000007,0.00004248,-0.
 00000016,0.00000005,0.00000877,-0.00000140,0.00000028,0.00010150,0.000
 00004,-0.00000004,0.00000104,0.00005235,-0.00001321,-0.00400696,0.0040
 3104,-0.00013047,0.02592529,0.00009259,-0.00007007,-0.00007003,-0.0003
 0080,0.00015469,0.00000567,-0.00048631,0.00006493,-0.00000470,0.000178
 83,-0.00137514,0.00000384,0.00000500,-0.00010062,0.00000034,-0.0000266
 3,0.00003050,-0.00000085,-0.00002587,0.00001670,0.00000033,0.00005774,
 -0.00017971,0.00000155,-0.00571460,0.00085575,-0.00015867,-0.00088014,
 0.00099615,-0.00000749,-0.00064798,0.00354054,-0.00010127,0.01186435,0
 .01459085,0.00005809,-0.13701489,-0.12727381,-0.00083827,-0.01092137,-
 0.02760234,-0.00010601,0.00008971,-0.00007562,0.00007490,0.00000148,0.
 00001960,-0.00000041,-0.00002891,-0.00000390,-0.00000027,-0.00000310,-
 0.00000127,-0.00000014,-0.00005204,-0.00000646,-0.00000120,0.00045950,
 0.00073222,0.00000498,0.00060512,-0.00046353,0.00005615,0.14181881,-0.
 00003917,-0.00001352,-0.00003252,0.00003787,0.00002373,-0.00000199,0.0
 0003652,-0.00004282,0.00000027,0.00022309,0.00018974,0.00000263,-0.000
 07525,-0.00000082,-0.00000093,0.00003116,0.00001295,0.00000046,-0.0000
 1763,-0.00004590,-0.00000027,-0.00004984,0.00004987,-0.00000081,0.0009
 8655,0.00170434,0.00002593,0.00126140,0.00023408,0.00001359,0.00337120
 ,-0.00357046,0.00006655,-0.01632416,-0.01725798,-0.00014034,-0.1273670
 4,-0.26807671,-0.00093688,0.00305783,0.00495018,0.00003368,-0.00003956
 ,-0.00001197,0.00003136,0.00001194,-0.00000626,0.00000024,-0.00000387,
 0.00000171,-0.00000007,-0.00000257,-0.00000014,0.,0.00000521,0.0000018
 0,0.00000018,-0.00082950,-0.00083378,-0.00000794,0.00021124,0.00078217
 ,-0.00000952,0.13586084,0.28134038,-0.00004773,-0.00025877,-0.00009451
 ,0.00000608,-0.00000052,-0.00083089,-0.00000415,0.00000060,-0.00012944
 ,-0.00000060,-0.00001612,0.00018301,0.00000016,-0.00000113,0.00000358,
 -0.00000083,0.00000042,0.00003275,0.00000046,0.00000019,-0.00005739,0.
 00000121,-0.00000233,-0.00002909,-0.00015828,0.00002542,0.00738050,-0.
 00000838,0.00001001,-0.00043269,-0.00010021,0.00006920,0.00713358,0.00
 013614,0.00022603,0.00387170,-0.00083801,-0.00093606,-0.03940219,-0.00
 018471,-0.00033054,0.00389908,0.00005269,0.00025675,-0.00009384,-0.000
 00043,0.00000032,0.00003252,-0.00000025,-0.00000007,-0.00000668,-0.000
 00015,0.,0.00000877,-0.00000121,0.00000004,0.00004631,0.00000895,0.000
 01039,-0.00012341,0.00005434,-0.00001763,-0.00403156,0.00102341,0.0009
 7249,0.02680742,-0.00036985,-0.00017970,-0.00023211,0.00124992,-0.0004
 4839,0.00000811,0.00013107,0.00004340,0.00000285,0.00010536,0.00089602
 ,0.00004158,0.00016710,-0.00044563,0.00000544,-0.00008477,0.00017352,0
 .00000120,0.00004466,0.00001877,0.00000007,0.00000053,0.00016256,-0.00
 000192,0.01261657,-0.01436525,0.00014448,-0.00100070,-0.00338738,-0.00
 008168,-0.00089108,-0.00075840,0.00000211,-0.00551962,-0.00103440,-0.0
 0015316,-0.00893631,0.02876101,-0.00022357,-0.12215259,0.11736273,-0.0
 0130514,-0.00036954,-0.00017562,0.00022539,-0.00128234,-0.00003712,-0.
 00002428,0.00000853,-0.00000819,-0.00000025,0.00000695,0.00004081,-0.0
 0000051,0.00002082,-0.00000254,-0.00000010,0.00008465,0.00007570,0.000
 01526,-0.00052169,0.00136987,-0.00000940,0.00092952,-0.00034625,0.0000
 6150,0.12576285,-0.00052718,-0.00037719,-0.00036671,0.00219821,0.00019
 922,0.00002645,-0.00028660,-0.00015850,-0.00000330,0.00115633,0.000846
 21,0.00000305,-0.00020591,-0.00053147,-0.00000183,-0.00026200,0.000357
 37,-0.00000472,0.00003128,0.00010261,0.00000019,0.00014487,0.00013451,
 0.00000177,0.01430802,-0.01835637,0.00022661,-0.00363680,-0.00302068,-
 0.00001832,-0.00078627,0.00012727,-0.00001179,-0.00053809,0.00175676,0
 .00000826,-0.00203519,0.00352493,-0.00002387,0.11896463,-0.28113516,0.
 00203898,-0.00053692,-0.00037450,0.00035631,-0.00045406,0.00065386,-0.
 00000536,-0.00001585,-0.00001331,-0.00000009,-0.00000270,0.00005550,-0
 .00000005,0.00000735,-0.00000873,0.00000020,0.00009138,-0.00001456,-0.
 00000202,-0.00018867,0.00003651,-0.00000223,0.00028968,0.00056940,-0.0
 0000867,-0.12771550,0.29562632,0.00023081,0.00007803,-0.00004491,0.000
 00352,-0.00000377,0.00065012,0.00000386,0.00000056,-0.00013065,0.00004
 236,-0.00000013,-0.00357878,0.00000500,-0.00000466,-0.00018712,0.00000
 225,0.00000066,-0.00021736,0.00000014,0.00000008,0.00002616,-0.0000020
 8,0.00000193,0.00013965,0.00007068,-0.00011100,0.00362495,-0.00008082,
 -0.00001813,0.00662900,0.00000075,-0.00001230,-0.00091551,-0.00015416,
 0.00000380,0.00755067,-0.00014281,0.00034234,0.00369380,-0.00131183,0.
 00201749,-0.03772063,-0.00023697,-0.00008052,-0.00004632,-0.00002325,-
 0.00000022,0.00071794,-0.00000028,0.,0.00003252,-0.00000044,0.00000047
 ,0.00004248,-0.00000013,0.00000007,0.00002932,0.00001498,-0.00000210,-
 0.00121360,-0.00000576,0.00001638,-0.00000051,0.00006004,-0.00001609,-
 0.00416755,0.00152413,-0.00221287,0.02508633\\-0.00000247,0.00000371,0
 .00002994,0.00000937,-0.00005862,-0.00003264,-0.00000070,0.00003918,0.
 00000575,-0.00005238,-0.00001699,0.00000572,0.00002027,0.00000364,-0.0
 0000244,-0.00001188,-0.00001438,-0.00000030,-0.00000028,0.00001295,-0.
 00000078,0.00000274,-0.00001137,-0.00000237,0.00005540,-0.00000361,0.0
 0000639,-0.00000967,0.00003859,0.00000402,-0.00000017,-0.00001178,-0.0
 0000098,-0.00000305,0.00001271,-0.00000058,0.00001493,-0.00001085,-0.0
 0000007,-0.00002018,-0.00000121,-0.00000225,-0.00000177,0.00001798,-0.
 00000790,-0.00000139,-0.00000054,0.00000101,0.00000225,0.00000117,0.00
 000098,-0.00000027,-0.00000234,0.00000009,-0.00000132,0.00000163,-0.00
 000285,0.00000083,0.00000186,-0.00000285,0.00000082,-0.00000222,0.0000
 0018,-0.00000251,0.00000062,0.00000080,0.00000145,-0.00000012,0.000001
 12\\\@


 THE 2ND LAW OF THERMODYNAMICS HAS THE SAME
 DEGREE OF TRUTH AS THE STATEMENT THAT IF YOU THROW
 A TUMBLERFULL OF WATER INTO THE SEA, YOU CANNOT GET
 THE SAME TUMBLERFULL OF WATER OUT AGAIN.
          - J.C. MAXWELL, LETTER TO LORD RAYLEIGH, DECEMBER 6,1870
 Job cpu time:       0 days  2 hours  7 minutes 54.7 seconds.
 Elapsed time:       0 days  0 hours  5 minutes 21.2 seconds.
 File lengths (MBytes):  RWF=    339 Int=      0 D2E=      0 Chk=     14 Scr=      1
 Normal termination of Gaussian 16 at Sun Oct 13 21:49:35 2019.
real 592.69
user 14039.77
sys 38.81
Machine:
brown-a290
brown-a290
brown-a290
brown-a290
brown-a290
brown-a290
brown-a290
brown-a290
brown-a290
brown-a290
brown-a290
brown-a290
brown-a290
brown-a290
brown-a290
brown-a290
brown-a290
brown-a290
brown-a290
brown-a290
brown-a290
brown-a290
brown-a290
brown-a290
