 Entering Gaussian System, Link 0=/apps/cent7/gaussian/g16-A.03/g16-haswell/g16/g16
 Initial command:
 /apps/cent7/gaussian/g16-A.03/g16-haswell/g16/l1.exe "/scratch/brown/finej/gaussian/Gau-176293.inp" -scrdir="/scratch/brown/finej/gaussian/"
 Entering Link 1 = /apps/cent7/gaussian/g16-A.03/g16-haswell/g16/l1.exe PID=    176295.
  
 Copyright (c) 1988,1990,1992,1993,1995,1998,2003,2009,2016,
            Gaussian, Inc.  All Rights Reserved.
  
 This is part of the Gaussian(R) 16 program.  It is based on
 the Gaussian(R) 09 system (copyright 2009, Gaussian, Inc.),
 the Gaussian(R) 03 system (copyright 2003, Gaussian, Inc.),
 the Gaussian(R) 98 system (copyright 1998, Gaussian, Inc.),
 the Gaussian(R) 94 system (copyright 1995, Gaussian, Inc.),
 the Gaussian 92(TM) system (copyright 1992, Gaussian, Inc.),
 the Gaussian 90(TM) system (copyright 1990, Gaussian, Inc.),
 the Gaussian 88(TM) system (copyright 1988, Gaussian, Inc.),
 the Gaussian 86(TM) system (copyright 1986, Carnegie Mellon
 University), and the Gaussian 82(TM) system (copyright 1983,
 Carnegie Mellon University). Gaussian is a federally registered
 trademark of Gaussian, Inc.
  
 This software contains proprietary and confidential information,
 including trade secrets, belonging to Gaussian, Inc.
  
 This software is provided under written license and may be
 used, copied, transmitted, or stored only in accord with that
 written license.
  
 The following legend is applicable only to US Government
 contracts under FAR:
  
                    RESTRICTED RIGHTS LEGEND
  
 Use, reproduction and disclosure by the US Government is
 subject to restrictions as set forth in subparagraphs (a)
 and (c) of the Commercial Computer Software - Restricted
 Rights clause in FAR 52.227-19.
  
 Gaussian, Inc.
 340 Quinnipiac St., Bldg. 40, Wallingford CT 06492
  
  
 ---------------------------------------------------------------
 Warning -- This program may not be used in any manner that
 competes with the business of Gaussian, Inc. or will provide
 assistance to any competitor of Gaussian, Inc.  The licensee
 of this program is prohibited from giving any competitor of
 Gaussian, Inc. access to this program.  By using this program,
 the user acknowledges that Gaussian, Inc. is engaged in the
 business of creating and licensing software in the field of
 computational chemistry and represents and warrants to the
 licensee that it is not a competitor of Gaussian, Inc. and that
 it will not use this program in any manner prohibited above.
 ---------------------------------------------------------------
  

 Cite this work as:
 Gaussian 16, Revision A.03,
 M. J. Frisch, G. W. Trucks, H. B. Schlegel, G. E. Scuseria, 
 M. A. Robb, J. R. Cheeseman, G. Scalmani, V. Barone, 
 G. A. Petersson, H. Nakatsuji, X. Li, M. Caricato, A. V. Marenich, 
 J. Bloino, B. G. Janesko, R. Gomperts, B. Mennucci, H. P. Hratchian, 
 J. V. Ortiz, A. F. Izmaylov, J. L. Sonnenberg, D. Williams-Young, 
 F. Ding, F. Lipparini, F. Egidi, J. Goings, B. Peng, A. Petrone, 
 T. Henderson, D. Ranasinghe, V. G. Zakrzewski, J. Gao, N. Rega, 
 G. Zheng, W. Liang, M. Hada, M. Ehara, K. Toyota, R. Fukuda, 
 J. Hasegawa, M. Ishida, T. Nakajima, Y. Honda, O. Kitao, H. Nakai, 
 T. Vreven, K. Throssell, J. A. Montgomery, Jr., J. E. Peralta, 
 F. Ogliaro, M. J. Bearpark, J. J. Heyd, E. N. Brothers, K. N. Kudin, 
 V. N. Staroverov, T. A. Keith, R. Kobayashi, J. Normand, 
 K. Raghavachari, A. P. Rendell, J. C. Burant, S. S. Iyengar, 
 J. Tomasi, M. Cossi, J. M. Millam, M. Klene, C. Adamo, R. Cammi, 
 J. W. Ochterski, R. L. Martin, K. Morokuma, O. Farkas, 
 J. B. Foresman, and D. J. Fox, Gaussian, Inc., Wallingford CT, 2016.
 
 ******************************************
 Gaussian 16:  ES64L-G16RevA.03 25-Dec-2016
                13-Oct-2019 
 ******************************************
 %chk=24_p.chk
 %nprocshared=24
 Will use up to   24 processors via shared memory.
 %mem=80GB
 -------------------------------------------------------------------
 #P opt freq m062x/6-311++g(d,p) geom=connectivity temperature=0.001
 -------------------------------------------------------------------
 1/18=20,19=15,26=3,38=1,57=2,112=-1000/1,3;
 2/9=110,12=2,17=6,18=5,40=1/2;
 3/5=4,6=6,7=1111,11=2,25=1,30=1,71=1,74=-55/1,2,3;
 4//1;
 5/5=2,38=5/2;
 6/7=2,8=2,9=2,10=2,28=1/1;
 7//1,2,3,16;
 1/18=20,19=15,26=3/3(2);
 2/9=110/2;
 99//99;
 2/9=110/2;
 3/5=4,6=6,7=1111,11=2,25=1,30=1,71=1,74=-55/1,2,3;
 4/5=5,16=3,69=1/1;
 5/5=2,38=5/2;
 7//1,2,3,16;
 1/18=20,19=15,26=3/3(-5);
 2/9=110/2;
 6/7=2,8=2,9=2,10=2,19=2,28=1/1;
 99/9=1/99;
 Leave Link    1 at Sun Oct 13 21:39:50 2019, MaxMem= 10737418240 cpu:               0.9 elap:               0.0
 (Enter /apps/cent7/gaussian/g16-A.03/g16-haswell/g16/l101.exe)
 -------------------
 Title Card Required
 -------------------
 Symbolic Z-matrix:
 Charge =  1 Multiplicity = 1
 O                    -0.9574   -2.2274   -1.3197 
 S                    -1.0842   -1.3307    0.0024 
 C                    -2.537    -0.3186   -0.0247 
 C                    -2.1022    1.0244   -0.0176 
 C                    -3.0864    2.0377   -0.0372 
 C                    -4.4543    1.6941   -0.0688 
 C                    -4.8535    0.3407   -0.0804 
 C                    -3.8902   -0.6862   -0.057 
 C                    -0.676     1.2023   -0.0006 
 C                     0.0756    0.0077    0.0054 
 C                     1.4781   -0.0159    0.0048 
 C                     2.1596    1.2165    0.0021 
 C                     1.4397    2.4301    0.0024 
 C                     0.0289    2.4267    0.0015 
 O                    -0.9915   -2.1998    1.3461 
 H                    -2.7898    3.0866   -0.0278 
 H                    -5.2088    2.4807   -0.0845 
 H                    -5.9132    0.0867   -0.1076 
 H                    -4.1837   -1.7359   -0.0638 
 H                     2.0208   -0.9612    0.0064 
 H                     3.2495    1.2312   -0.0003 
 H                     1.9778    3.378     0.0035 
 H                    -0.5165    3.3705    0.0024 
 H                    -0.09064  -2.45906  -1.66126 
 
 ITRead=  0  0  0  0  0  0  0  0  0  0  0  0  0  0  0  0  0  0  0  0
 ITRead=  0  0  0  0
 MicOpt= -1 -1 -1 -1 -1 -1 -1 -1 -1 -1 -1 -1 -1 -1 -1 -1 -1 -1 -1 -1
 MicOpt= -1 -1 -1 -1
 NAtoms=     24 NQM=       24 NQMF=       0 NMMI=      0 NMMIF=      0
                NMic=       0 NMicF=      0.
                    Isotopes and Nuclear Properties:
 (Nuclear quadrupole moments (NQMom) in fm**2, nuclear magnetic moments (NMagM)
  in nuclear magnetons)

  Atom         1           2           3           4           5           6           7           8           9          10
 IAtWgt=          16          32          12          12          12          12          12          12          12          12
 AtmWgt=  15.9949146  31.9720718  12.0000000  12.0000000  12.0000000  12.0000000  12.0000000  12.0000000  12.0000000  12.0000000
 NucSpn=           0           0           0           0           0           0           0           0           0           0
 AtZEff=  -0.0000000  -0.0000000  -0.0000000  -0.0000000  -0.0000000  -0.0000000  -0.0000000  -0.0000000  -0.0000000  -0.0000000
 NQMom=    0.0000000   0.0000000   0.0000000   0.0000000   0.0000000   0.0000000   0.0000000   0.0000000   0.0000000   0.0000000
 NMagM=    0.0000000   0.0000000   0.0000000   0.0000000   0.0000000   0.0000000   0.0000000   0.0000000   0.0000000   0.0000000
 AtZNuc=   8.0000000  16.0000000   6.0000000   6.0000000   6.0000000   6.0000000   6.0000000   6.0000000   6.0000000   6.0000000

  Atom        11          12          13          14          15          16          17          18          19          20
 IAtWgt=          12          12          12          12          16           1           1           1           1           1
 AtmWgt=  12.0000000  12.0000000  12.0000000  12.0000000  15.9949146   1.0078250   1.0078250   1.0078250   1.0078250   1.0078250
 NucSpn=           0           0           0           0           0           1           1           1           1           1
 AtZEff=  -0.0000000  -0.0000000  -0.0000000  -0.0000000  -0.0000000  -0.0000000  -0.0000000  -0.0000000  -0.0000000  -0.0000000
 NQMom=    0.0000000   0.0000000   0.0000000   0.0000000   0.0000000   0.0000000   0.0000000   0.0000000   0.0000000   0.0000000
 NMagM=    0.0000000   0.0000000   0.0000000   0.0000000   0.0000000   2.7928460   2.7928460   2.7928460   2.7928460   2.7928460
 AtZNuc=   6.0000000   6.0000000   6.0000000   6.0000000   8.0000000   1.0000000   1.0000000   1.0000000   1.0000000   1.0000000

  Atom        21          22          23          24
 IAtWgt=           1           1           1           1
 AtmWgt=   1.0078250   1.0078250   1.0078250   1.0078250
 NucSpn=           1           1           1           1
 AtZEff=  -0.0000000  -0.0000000  -0.0000000  -0.0000000
 NQMom=    0.0000000   0.0000000   0.0000000   0.0000000
 NMagM=    2.7928460   2.7928460   2.7928460   2.7928460
 AtZNuc=   1.0000000   1.0000000   1.0000000   1.0000000
 Leave Link  101 at Sun Oct 13 21:39:50 2019, MaxMem= 10737418240 cpu:               8.4 elap:               0.4
 (Enter /apps/cent7/gaussian/g16-A.03/g16-haswell/g16/l103.exe)

 GradGradGradGradGradGradGradGradGradGradGradGradGradGradGradGradGradGrad
 Berny optimization.
 Initialization pass.
                           ----------------------------
                           !    Initial Parameters    !
                           ! (Angstroms and Degrees)  !
 --------------------------                            --------------------------
 ! Name  Definition              Value          Derivative Info.                !
 --------------------------------------------------------------------------------
 ! R1    R(1,2)                  1.6025         estimate D2E/DX2                !
 ! R2    R(1,24)                 0.96           estimate D2E/DX2                !
 ! R3    R(2,3)                  1.7708         estimate D2E/DX2                !
 ! R4    R(2,10)                 1.771          estimate D2E/DX2                !
 ! R5    R(2,15)                 1.603          estimate D2E/DX2                !
 ! R6    R(3,4)                  1.4116         estimate D2E/DX2                !
 ! R7    R(3,8)                  1.4026         estimate D2E/DX2                !
 ! R8    R(4,5)                  1.4127         estimate D2E/DX2                !
 ! R9    R(4,9)                  1.4374         estimate D2E/DX2                !
 ! R10   R(5,6)                  1.4107         estimate D2E/DX2                !
 ! R11   R(5,16)                 1.0901         estimate D2E/DX2                !
 ! R12   R(6,7)                  1.4111         estimate D2E/DX2                !
 ! R13   R(6,17)                 1.0901         estimate D2E/DX2                !
 ! R14   R(7,8)                  1.4082         estimate D2E/DX2                !
 ! R15   R(7,18)                 1.0901         estimate D2E/DX2                !
 ! R16   R(8,19)                 1.09           estimate D2E/DX2                !
 ! R17   R(9,10)                 1.4114         estimate D2E/DX2                !
 ! R18   R(9,14)                 1.4128         estimate D2E/DX2                !
 ! R19   R(10,11)                1.4027         estimate D2E/DX2                !
 ! R20   R(11,12)                1.4083         estimate D2E/DX2                !
 ! R21   R(11,20)                1.09           estimate D2E/DX2                !
 ! R22   R(12,13)                1.4111         estimate D2E/DX2                !
 ! R23   R(12,21)                1.09           estimate D2E/DX2                !
 ! R24   R(13,14)                1.4108         estimate D2E/DX2                !
 ! R25   R(13,22)                1.09           estimate D2E/DX2                !
 ! R26   R(14,23)                1.0901         estimate D2E/DX2                !
 ! A1    A(2,1,24)             120.0            estimate D2E/DX2                !
 ! A2    A(1,2,3)              111.8454         estimate D2E/DX2                !
 ! A3    A(1,2,10)             111.8668         estimate D2E/DX2                !
 ! A4    A(1,2,15)             112.558          estimate D2E/DX2                !
 ! A5    A(3,2,10)              96.0484         estimate D2E/DX2                !
 ! A6    A(3,2,15)             111.7256         estimate D2E/DX2                !
 ! A7    A(10,2,15)            111.7436         estimate D2E/DX2                !
 ! A8    A(2,3,4)              106.9168         estimate D2E/DX2                !
 ! A9    A(2,3,8)              129.947          estimate D2E/DX2                !
 ! A10   A(4,3,8)              123.1348         estimate D2E/DX2                !
 ! A11   A(3,4,5)              117.8873         estimate D2E/DX2                !
 ! A12   A(3,4,9)              115.0512         estimate D2E/DX2                !
 ! A13   A(5,4,9)              127.0598         estimate D2E/DX2                !
 ! A14   A(4,5,6)              120.0741         estimate D2E/DX2                !
 ! A15   A(4,5,16)             120.0329         estimate D2E/DX2                !
 ! A16   A(6,5,16)             119.893          estimate D2E/DX2                !
 ! A17   A(5,6,7)              120.5369         estimate D2E/DX2                !
 ! A18   A(5,6,17)             119.7161         estimate D2E/DX2                !
 ! A19   A(7,6,17)             119.7469         estimate D2E/DX2                !
 ! A20   A(6,7,8)              120.3815         estimate D2E/DX2                !
 ! A21   A(6,7,18)             119.9151         estimate D2E/DX2                !
 ! A22   A(8,7,18)             119.7033         estimate D2E/DX2                !
 ! A23   A(3,8,7)              117.9844         estimate D2E/DX2                !
 ! A24   A(3,8,19)             120.8188         estimate D2E/DX2                !
 ! A25   A(7,8,19)             121.1968         estimate D2E/DX2                !
 ! A26   A(4,9,10)             115.0675         estimate D2E/DX2                !
 ! A27   A(4,9,14)             127.0379         estimate D2E/DX2                !
 ! A28   A(10,9,14)            117.8931         estimate D2E/DX2                !
 ! A29   A(2,10,9)             106.9119         estimate D2E/DX2                !
 ! A30   A(2,10,11)            129.9466         estimate D2E/DX2                !
 ! A31   A(9,10,11)            123.1402         estimate D2E/DX2                !
 ! A32   A(10,11,12)           117.9779         estimate D2E/DX2                !
 ! A33   A(10,11,20)           120.8242         estimate D2E/DX2                !
 ! A34   A(12,11,20)           121.1978         estimate D2E/DX2                !
 ! A35   A(11,12,13)           120.3818         estimate D2E/DX2                !
 ! A36   A(11,12,21)           119.7148         estimate D2E/DX2                !
 ! A37   A(13,12,21)           119.9034         estimate D2E/DX2                !
 ! A38   A(12,13,14)           120.5381         estimate D2E/DX2                !
 ! A39   A(12,13,22)           119.7413         estimate D2E/DX2                !
 ! A40   A(14,13,22)           119.7206         estimate D2E/DX2                !
 ! A41   A(9,14,13)            120.0676         estimate D2E/DX2                !
 ! A42   A(9,14,23)            120.0479         estimate D2E/DX2                !
 ! A43   A(13,14,23)           119.8845         estimate D2E/DX2                !
 ! D1    D(24,1,2,3)           148.7437         estimate D2E/DX2                !
 ! D2    D(24,1,2,10)           42.2919         estimate D2E/DX2                !
 ! D3    D(24,1,2,15)          -84.5032         estimate D2E/DX2                !
 ! D4    D(1,2,3,4)           -117.0499         estimate D2E/DX2                !
 ! D5    D(1,2,3,8)             62.5312         estimate D2E/DX2                !
 ! D6    D(10,2,3,4)            -0.5633         estimate D2E/DX2                !
 ! D7    D(10,2,3,8)           179.0178         estimate D2E/DX2                !
 ! D8    D(15,2,3,4)           115.7471         estimate D2E/DX2                !
 ! D9    D(15,2,3,8)           -64.6718         estimate D2E/DX2                !
 ! D10   D(1,2,10,9)           117.0568         estimate D2E/DX2                !
 ! D11   D(1,2,10,11)          -62.5459         estimate D2E/DX2                !
 ! D12   D(3,2,10,9)             0.5874         estimate D2E/DX2                !
 ! D13   D(3,2,10,11)         -179.0152         estimate D2E/DX2                !
 ! D14   D(15,2,10,9)         -115.7085         estimate D2E/DX2                !
 ! D15   D(15,2,10,11)          64.6889         estimate D2E/DX2                !
 ! D16   D(2,3,4,5)            179.9523         estimate D2E/DX2                !
 ! D17   D(2,3,4,9)              0.3909         estimate D2E/DX2                !
 ! D18   D(8,3,4,5)              0.3358         estimate D2E/DX2                !
 ! D19   D(8,3,4,9)           -179.2256         estimate D2E/DX2                !
 ! D20   D(2,3,8,7)           -179.6616         estimate D2E/DX2                !
 ! D21   D(2,3,8,19)             0.3323         estimate D2E/DX2                !
 ! D22   D(4,3,8,7)             -0.1401         estimate D2E/DX2                !
 ! D23   D(4,3,8,19)           179.8537         estimate D2E/DX2                !
 ! D24   D(3,4,5,6)             -0.2761         estimate D2E/DX2                !
 ! D25   D(3,4,5,16)           179.7164         estimate D2E/DX2                !
 ! D26   D(9,4,5,6)            179.226          estimate D2E/DX2                !
 ! D27   D(9,4,5,16)            -0.7815         estimate D2E/DX2                !
 ! D28   D(3,4,9,10)             0.0467         estimate D2E/DX2                !
 ! D29   D(3,4,9,14)           179.5939         estimate D2E/DX2                !
 ! D30   D(5,4,9,10)          -179.4675         estimate D2E/DX2                !
 ! D31   D(5,4,9,14)             0.0797         estimate D2E/DX2                !
 ! D32   D(4,5,6,7)              0.0349         estimate D2E/DX2                !
 ! D33   D(4,5,6,17)          -179.9577         estimate D2E/DX2                !
 ! D34   D(16,5,6,7)          -179.9576         estimate D2E/DX2                !
 ! D35   D(16,5,6,17)            0.0498         estimate D2E/DX2                !
 ! D36   D(5,6,7,8)              0.1676         estimate D2E/DX2                !
 ! D37   D(5,6,7,18)          -179.8337         estimate D2E/DX2                !
 ! D38   D(17,6,7,8)          -179.8398         estimate D2E/DX2                !
 ! D39   D(17,6,7,18)            0.1589         estimate D2E/DX2                !
 ! D40   D(6,7,8,3)             -0.116          estimate D2E/DX2                !
 ! D41   D(6,7,8,19)           179.8902         estimate D2E/DX2                !
 ! D42   D(18,7,8,3)           179.8854         estimate D2E/DX2                !
 ! D43   D(18,7,8,19)           -0.1085         estimate D2E/DX2                !
 ! D44   D(4,9,10,2)            -0.4587         estimate D2E/DX2                !
 ! D45   D(4,9,10,11)          179.1775         estimate D2E/DX2                !
 ! D46   D(14,9,10,2)          179.9502         estimate D2E/DX2                !
 ! D47   D(14,9,10,11)          -0.4136         estimate D2E/DX2                !
 ! D48   D(4,9,14,13)         -179.2082         estimate D2E/DX2                !
 ! D49   D(4,9,14,23)            0.7901         estimate D2E/DX2                !
 ! D50   D(10,9,14,13)           0.3277         estimate D2E/DX2                !
 ! D51   D(10,9,14,23)        -179.6739         estimate D2E/DX2                !
 ! D52   D(2,10,11,12)         179.7415         estimate D2E/DX2                !
 ! D53   D(2,10,11,20)          -0.2597         estimate D2E/DX2                !
 ! D54   D(9,10,11,12)           0.1955         estimate D2E/DX2                !
 ! D55   D(9,10,11,20)        -179.8057         estimate D2E/DX2                !
 ! D56   D(10,11,12,13)          0.1091         estimate D2E/DX2                !
 ! D57   D(10,11,12,21)       -179.8868         estimate D2E/DX2                !
 ! D58   D(20,11,12,13)       -179.8897         estimate D2E/DX2                !
 ! D59   D(20,11,12,21)          0.1144         estimate D2E/DX2                !
 ! D60   D(11,12,13,14)         -0.1841         estimate D2E/DX2                !
 ! D61   D(11,12,13,22)        179.8059         estimate D2E/DX2                !
 ! D62   D(21,12,13,14)        179.8119         estimate D2E/DX2                !
 ! D63   D(21,12,13,22)         -0.1982         estimate D2E/DX2                !
 ! D64   D(12,13,14,9)          -0.0415         estimate D2E/DX2                !
 ! D65   D(12,13,14,23)        179.9601         estimate D2E/DX2                !
 ! D66   D(22,13,14,9)         179.9685         estimate D2E/DX2                !
 ! D67   D(22,13,14,23)         -0.0299         estimate D2E/DX2                !
 --------------------------------------------------------------------------------
 Trust Radius=3.00D-01 FncErr=1.00D-07 GrdErr=1.00D-06 EigMax=2.50D+02 EigMin=1.00D-04
 Number of steps in this run=    144 maximum allowed number of steps=    144.
 GradGradGradGradGradGradGradGradGradGradGradGradGradGradGradGradGradGrad

 Leave Link  103 at Sun Oct 13 21:39:50 2019, MaxMem= 10737418240 cpu:               0.7 elap:               0.1
 (Enter /apps/cent7/gaussian/g16-A.03/g16-haswell/g16/l202.exe)
                          Input orientation:                          
 ---------------------------------------------------------------------
 Center     Atomic      Atomic             Coordinates (Angstroms)
 Number     Number       Type             X           Y           Z
 ---------------------------------------------------------------------
      1          8           0       -0.957400   -2.227400   -1.319700
      2         16           0       -1.084200   -1.330700    0.002400
      3          6           0       -2.537000   -0.318600   -0.024700
      4          6           0       -2.102200    1.024400   -0.017600
      5          6           0       -3.086400    2.037700   -0.037200
      6          6           0       -4.454300    1.694100   -0.068800
      7          6           0       -4.853500    0.340700   -0.080400
      8          6           0       -3.890200   -0.686200   -0.057000
      9          6           0       -0.676000    1.202300   -0.000600
     10          6           0        0.075600    0.007700    0.005400
     11          6           0        1.478100   -0.015900    0.004800
     12          6           0        2.159600    1.216500    0.002100
     13          6           0        1.439700    2.430100    0.002400
     14          6           0        0.028900    2.426700    0.001500
     15          8           0       -0.991500   -2.199800    1.346100
     16          1           0       -2.789800    3.086600   -0.027800
     17          1           0       -5.208800    2.480700   -0.084500
     18          1           0       -5.913200    0.086700   -0.107600
     19          1           0       -4.183700   -1.735900   -0.063800
     20          1           0        2.020800   -0.961200    0.006400
     21          1           0        3.249500    1.231200   -0.000300
     22          1           0        1.977800    3.378000    0.003500
     23          1           0       -0.516500    3.370500    0.002400
     24          1           0       -0.090642   -2.459061   -1.661262
 ---------------------------------------------------------------------
                    Distance matrix (angstroms):
                    1          2          3          4          5
     1  O    0.000000
     2  S    1.602528   0.000000
     3  C    2.795654   1.770793   0.000000
     4  C    3.685137   2.565779   1.411648   0.000000
     5  C    4.936449   3.918736   2.419534   1.412732   0.000000
     6  C    5.401039   4.529024   2.780098   2.446118   1.410748
     7  C    4.828105   4.124082   2.409139   2.835673   2.450371
     8  C    3.545564   2.879678   1.402613   2.474803   2.840091
     9  C    3.685384   2.565682   2.403547   1.437353   2.551325
    10  C    2.796185   1.771005   2.633070   2.403543   3.757786
    11  C    3.546363   2.879946   4.026602   3.728441   5.005367
    12  C    4.829419   4.124375   4.941184   4.266173   5.310031
    13  C    5.402439   4.529204   4.834276   3.810702   4.543251
    14  C    4.937510   3.918807   3.757819   2.551156   3.139731
    15  O    2.666161   1.602953   2.794025   3.672710   4.925295
    16  H    5.767607   4.735243   3.414572   2.173837   1.090069
    17  H    6.462687   5.616640   3.870164   3.431654   2.168656
    18  H    5.602160   5.033921   3.401451   3.925698   3.435427
    19  H    3.496837   3.126575   2.172991   3.457460   3.929991
    20  H    3.497353   3.126911   4.602982   4.576277   5.922735
    21  H    5.603636   5.034312   5.990497   5.355722   6.387130
    22  H    6.464268   5.616734   5.835158   4.710231   5.238720
    23  H    5.768780   4.735353   4.206259   2.831789   2.895222
    24  H    0.960000   2.242348   3.639309   4.345398   5.642074
                    6          7          8          9         10
     6  C    0.000000
     7  C    1.411094   0.000000
     8  C    2.446258   1.408197   0.000000
     9  C    3.810783   4.266173   3.728364   0.000000
    10  C    4.834195   4.941081   4.026532   1.411385   0.000000
    11  C    6.174373   6.342206   5.410339   2.474710   1.402699
    12  C    6.631501   7.068055   6.342227   2.835637   2.409204
    13  C    5.940202   6.631502   6.174357   2.446158   2.780072
    14  C    4.543207   5.309984   5.005289   1.412814   2.419454
    15  O    5.399572   4.837777   3.558390   3.672523   2.794501
    16  H    2.170552   3.435344   3.930108   2.831868   4.206096
    17  H    1.090072   2.169298   3.430556   4.710374   5.835126
    18  H    2.171089   1.090055   2.166210   5.355770   5.990387
    19  H    3.440661   2.182012   1.089981   4.576131   4.602887
    20  H    6.998799   6.997034   5.917733   3.457385   2.173148
    21  H    7.717999   8.152179   7.392899   3.925606   3.401562
    22  H    6.649260   7.476556   7.138264   3.431667   3.870050
    23  H    4.280380   5.291135   5.276570   2.174061   3.414530
    24  H    6.231066   5.746529   4.489246   4.062758   2.981662
                   11         12         13         14         15
    11  C    0.000000
    12  C    1.408282   0.000000
    13  C    2.446303   1.411057   0.000000
    14  C    2.840156   2.450401   1.410804   0.000000
    15  O    3.559133   4.838065   5.399281   4.924801   0.000000
    16  H    5.276508   5.291004   4.280254   2.895064   5.750436
    17  H    7.138320   7.476565   6.649260   5.238684   6.460597
    18  H    7.392867   8.152213   7.718080   6.387179   5.618225
    19  H    5.917693   6.997032   6.998755   5.922626   3.520392
    20  H    1.090008   2.182123   3.440728   3.930083   3.521772
    21  H    2.166366   1.090002   2.170886   3.435329   5.618775
    22  H    3.430490   2.169132   1.089985   2.168683   6.459967
    23  H    3.930158   3.435291   2.170500   1.090055   5.749730
    24  H    3.347499   4.619535   5.386428   5.162337   3.150077
                   16         17         18         19         20
    16  H    0.000000
    17  H    2.494372   0.000000
    18  H    4.331443   2.495586   0.000000
    19  H    5.020036   4.339467   2.512958   0.000000
    20  H    6.287108   8.007625   8.003715   6.253072   0.000000
    21  H    6.317943   8.550508   9.234526   8.003760   2.513238
    22  H    4.776600   7.242935   8.550607   8.007533   4.339414
    23  H    2.291158   4.776712   6.318213   6.287134   5.020113
    24  H    6.380282   7.285805   6.541937   4.452861   3.079427
                   21         22         23         24
    21  H    0.000000
    22  H    2.495192   0.000000
    23  H    4.331209   2.494312   0.000000
    24  H    5.247225   6.412578   6.077245   0.000000
 Stoichiometry    C12H9O2S(1+)
 Framework group  C1[X(C12H9O2S)]
 Deg. of freedom    66
 Full point group                 C1      NOp   1
 Largest Abelian subgroup         C1      NOp   1
 Largest concise Abelian subgroup C1      NOp   1
                         Standard orientation:                         
 ---------------------------------------------------------------------
 Center     Atomic      Atomic             Coordinates (Angstroms)
 Number     Number       Type             X           Y           Z
 ---------------------------------------------------------------------
      1          8           0       -0.023095    2.436533   -1.265056
      2         16           0       -0.009706    1.517345    0.047579
      3          6           0        1.319982    0.348216    0.019760
      4          6           0        0.736580   -0.937186    0.008185
      5          6           0        1.600469   -2.054745   -0.015662
      6          6           0        2.998598   -1.867276   -0.033058
      7          6           0        3.547839   -0.567479   -0.026131
      8          6           0        2.706215    0.561195    0.001829
      9          6           0       -0.700677   -0.953292    0.012447
     10          6           0       -1.312909    0.318313    0.026521
     11          6           0       -2.703759    0.499924    0.015675
     12          6           0       -3.519733   -0.647667   -0.006279
     13          6           0       -2.941193   -1.934642   -0.014509
     14          6           0       -1.539041   -2.090346   -0.004791
     15          8           0       -0.015634    2.377119    1.400432
     16          1           0        1.187500   -3.063548   -0.020525
     17          1           0        3.659769   -2.733732   -0.052127
     18          1           0        4.629608   -0.434326   -0.042467
     19          1           0        3.116171    1.571115    0.009278
     20          1           0       -3.136482    1.500323    0.024055
     21          1           0       -4.604286   -0.539342   -0.017020
     22          1           0       -3.582663   -2.815774   -0.028323
     23          1           0       -1.103489   -3.089586   -0.010633
     24          1           0       -0.855210    2.768052   -1.610427
 ---------------------------------------------------------------------
 Rotational constants (GHZ):           0.8484748           0.5306664           0.3537423
 Leave Link  202 at Sun Oct 13 21:39:50 2019, MaxMem= 10737418240 cpu:               0.4 elap:               0.0
 (Enter /apps/cent7/gaussian/g16-A.03/g16-haswell/g16/l301.exe)
 Standard basis: 6-311++G(d,p) (5D, 7F)
 Ernie: Thresh=  0.10000D-02 Tol=  0.10000D-05 Strict=F.
 There are   416 symmetry adapted cartesian basis functions of A   symmetry.
 There are   401 symmetry adapted basis functions of A   symmetry.
   401 basis functions,   635 primitive gaussians,   416 cartesian basis functions
    56 alpha electrons       56 beta electrons
       nuclear repulsion energy      1071.7692170158 Hartrees.
 IExCor= 4336 DFT=T Ex+Corr=M062X ExCW=0 ScaHFX=  0.540000
 ScaDFX=  1.000000  1.000000  1.000000  1.000000 ScalE2=  1.000000  1.000000
 IRadAn=      5 IRanWt=     -1 IRanGd=            0 ICorTp=0 IEmpDi=  4
 NAtoms=   24 NActive=   24 NUniq=   24 SFac= 1.00D+00 NAtFMM=   60 NAOKFM=F Big=F
 Integral buffers will be    131072 words long.
 Raffenetti 2 integral format.
 Two-electron integral symmetry is turned on.
 Leave Link  301 at Sun Oct 13 21:39:50 2019, MaxMem= 10737418240 cpu:               1.3 elap:               0.1
 (Enter /apps/cent7/gaussian/g16-A.03/g16-haswell/g16/l302.exe)
 NPDir=0 NMtPBC=     1 NCelOv=     1 NCel=       1 NClECP=     1 NCelD=      1
         NCelK=      1 NCelE2=     1 NClLst=     1 CellRange=     0.0.
 One-electron integrals computed using PRISM.
 One-electron integral symmetry used in STVInt
 NBasis=   401 RedAO= T EigKep=  1.19D-06  NBF=   401
 NBsUse=   397 1.00D-06 EigRej=  4.25D-07 NBFU=   397
 Precomputing XC quadrature grid using
 IXCGrd= 4 IRadAn=           5 IRanWt=          -1 IRanGd=           0 AccXCQ= 0.00D+00.
 Generated NRdTot=       0 NPtTot=           0 NUsed=           0 NTot=          32
 NSgBfM=   416   416   416   416   416 MxSgAt=    24 MxSgA2=    24.
 Leave Link  302 at Sun Oct 13 21:39:51 2019, MaxMem= 10737418240 cpu:               6.3 elap:               0.3
 (Enter /apps/cent7/gaussian/g16-A.03/g16-haswell/g16/l303.exe)
 DipDrv:  MaxL=1.
 Leave Link  303 at Sun Oct 13 21:39:51 2019, MaxMem= 10737418240 cpu:               1.9 elap:               0.1
 (Enter /apps/cent7/gaussian/g16-A.03/g16-haswell/g16/l401.exe)
 ExpMin= 3.60D-02 ExpMax= 9.34D+04 ExpMxC= 3.17D+03 IAcc=3 IRadAn=         5 AccDes= 0.00D+00
 Harris functional with IExCor= 1009 and IRadAn=       5 diagonalized for initial guess.
 HarFok:  IExCor= 1009 AccDes= 0.00D+00 IRadAn=         5 IDoV= 1 UseB2=F ITyADJ=14
 ICtDFT=  3500011 ScaDFX=  1.000000  1.000000  1.000000  1.000000
 FoFCou: FMM=F IPFlag=           0 FMFlag=      100000 FMFlg1=           0
         NFxFlg=           0 DoJE=T BraDBF=F KetDBF=T FulRan=T
         wScrn=  0.000000 ICntrl=       500 IOpCl=  0 I1Cent=   200000004 NGrid=           0
         NMat0=    1 NMatS0=      1 NMatT0=    0 NMatD0=    1 NMtDS0=    0 NMtDT0=    0
 Petite list used in FoFCou.
 Harris En= -1010.51417177401    
 JPrj=0 DoOrth=F DoCkMO=F.
 Leave Link  401 at Sun Oct 13 21:39:51 2019, MaxMem= 10737418240 cpu:              16.9 elap:               0.7
 (Enter /apps/cent7/gaussian/g16-A.03/g16-haswell/g16/l502.exe)
 Integral symmetry usage will be decided dynamically.
 Closed shell SCF:
 Using DIIS extrapolation, IDIIS=  1040.
 NGot= 10737418240 LenX= 10737058189 LenY= 10736884692
 Requested convergence on RMS density matrix=1.00D-08 within 128 cycles.
 Requested convergence on MAX density matrix=1.00D-06.
 Requested convergence on             energy=1.00D-06.
 No special actions if energy rises.
 Fock matrices will be formed incrementally for  20 cycles.

 Cycle   1  Pass 1  IDiag  1:
 FoFJK:  IHMeth= 1 ICntrl=       0 DoSepK=F KAlg= 0 I1Cent=           0 FoldK=F
 IRaf= 900000000 NMat=       1 IRICut=       1 DoRegI=T DoRafI=F ISym2E= 0 IDoP0=0 IntGTp=1.
 FoFCou: FMM=F IPFlag=           0 FMFlag=      100000 FMFlg1=           0
         NFxFlg=           0 DoJE=F BraDBF=F KetDBF=F FulRan=T
         wScrn=  0.000000 ICntrl=         0 IOpCl=  0 I1Cent=           0 NGrid=           0
         NMat0=    1 NMatS0=      1 NMatT0=    0 NMatD0=    1 NMtDS0=    0 NMtDT0=    0
 Symmetry not used in FoFCou.
 E= -1010.32275705170    
 DIIS: error= 3.66D-02 at cycle   1 NSaved=   1.
 NSaved= 1 IEnMin= 1 EnMin= -1010.32275705170     IErMin= 1 ErrMin= 3.66D-02
 ErrMax= 3.66D-02  0.00D+00 EMaxC= 1.00D-01 BMatC= 7.17D-01 BMatP= 7.17D-01
 IDIUse=3 WtCom= 6.34D-01 WtEn= 3.66D-01
 Coeff-Com:  0.100D+01
 Coeff-En:   0.100D+01
 Coeff:      0.100D+01
 Gap=     0.216 Goal=   None    Shift=    0.000
 GapD=    0.216 DampG=1.000 DampE=0.500 DampFc=0.5000 IDamp=-1.
 Damping current iteration by 5.00D-01
 RMSDP=1.91D-01 MaxDP=1.29D+01              OVMax= 3.39D-01

 Cycle   2  Pass 1  IDiag  1:
 RMSU=  7.70D-02    CP:  1.76D+00
 E= -1010.42181616966     Delta-E=       -0.099059117955 Rises=F Damp=T
 DIIS: error= 1.61D-02 at cycle   2 NSaved=   2.
 NSaved= 2 IEnMin= 2 EnMin= -1010.42181616966     IErMin= 2 ErrMin= 1.61D-02
 ErrMax= 1.61D-02  0.00D+00 EMaxC= 1.00D-01 BMatC= 1.32D-01 BMatP= 7.17D-01
 IDIUse=3 WtCom= 8.39D-01 WtEn= 1.61D-01
 Coeff-Com:  0.202D+00 0.798D+00
 Coeff-En:   0.404D+00 0.596D+00
 Coeff:      0.234D+00 0.766D+00
 Gap=     0.228 Goal=   None    Shift=    0.000
 RMSDP=7.34D-02 MaxDP=5.10D+00 DE=-9.91D-02 OVMax= 2.42D-01

 Cycle   3  Pass 1  IDiag  1:
 RMSU=  1.85D-02    CP:  1.15D+00  2.95D-01
 E= -1010.77965810144     Delta-E=       -0.357841931786 Rises=F Damp=F
 DIIS: error= 1.77D-02 at cycle   3 NSaved=   3.
 NSaved= 3 IEnMin= 3 EnMin= -1010.77965810144     IErMin= 2 ErrMin= 1.61D-02
 ErrMax= 1.77D-02  0.00D+00 EMaxC= 1.00D-01 BMatC= 9.64D-02 BMatP= 1.32D-01
 IDIUse=3 WtCom= 8.23D-01 WtEn= 1.77D-01
 Coeff-Com:  0.142D-01 0.453D+00 0.533D+00
 Coeff-En:   0.000D+00 0.000D+00 0.100D+01
 Coeff:      0.117D-01 0.373D+00 0.615D+00
 Gap=     0.225 Goal=   None    Shift=    0.000
 RMSDP=2.62D-02 MaxDP=1.91D+00 DE=-3.58D-01 OVMax= 8.18D-02

 Cycle   4  Pass 1  IDiag  1:
 RMSU=  9.44D-03    CP:  1.28D+00  5.56D-01  4.94D-01
 E= -1010.84159905609     Delta-E=       -0.061940954643 Rises=F Damp=F
 DIIS: error= 6.85D-03 at cycle   4 NSaved=   4.
 NSaved= 4 IEnMin= 4 EnMin= -1010.84159905609     IErMin= 4 ErrMin= 6.85D-03
 ErrMax= 6.85D-03  0.00D+00 EMaxC= 1.00D-01 BMatC= 2.48D-02 BMatP= 9.64D-02
 IDIUse=3 WtCom= 9.31D-01 WtEn= 6.85D-02
 Coeff-Com: -0.140D-01 0.816D-01 0.358D+00 0.574D+00
 Coeff-En:   0.000D+00 0.000D+00 0.220D+00 0.780D+00
 Coeff:     -0.130D-01 0.761D-01 0.349D+00 0.588D+00
 Gap=     0.217 Goal=   None    Shift=    0.000
 RMSDP=1.04D-02 MaxDP=8.91D-01 DE=-6.19D-02 OVMax= 4.38D-02

 Cycle   5  Pass 1  IDiag  1:
 RMSU=  1.88D-03    CP:  1.21D+00  4.75D-01  7.36D-01  6.24D-01
 E= -1010.86068078121     Delta-E=       -0.019081725120 Rises=F Damp=F
 DIIS: error= 1.35D-03 at cycle   5 NSaved=   5.
 NSaved= 5 IEnMin= 5 EnMin= -1010.86068078121     IErMin= 5 ErrMin= 1.35D-03
 ErrMax= 1.35D-03  0.00D+00 EMaxC= 1.00D-01 BMatC= 6.86D-04 BMatP= 2.48D-02
 IDIUse=3 WtCom= 9.86D-01 WtEn= 1.35D-02
 Coeff-Com: -0.657D-02 0.517D-02 0.988D-01 0.245D+00 0.657D+00
 Coeff-En:   0.000D+00 0.000D+00 0.000D+00 0.000D+00 0.100D+01
 Coeff:     -0.648D-02 0.510D-02 0.975D-01 0.242D+00 0.662D+00
 Gap=     0.219 Goal=   None    Shift=    0.000
 RMSDP=1.10D-03 MaxDP=6.80D-02 DE=-1.91D-02 OVMax= 7.56D-03

 Cycle   6  Pass 1  IDiag  1:
 RMSU=  7.36D-04    CP:  1.21D+00  4.73D-01  7.12D-01  6.83D-01  7.96D-01
 E= -1010.86119181122     Delta-E=       -0.000511030019 Rises=F Damp=F
 DIIS: error= 8.77D-04 at cycle   6 NSaved=   6.
 NSaved= 6 IEnMin= 6 EnMin= -1010.86119181122     IErMin= 6 ErrMin= 8.77D-04
 ErrMax= 8.77D-04  0.00D+00 EMaxC= 1.00D-01 BMatC= 1.20D-04 BMatP= 6.86D-04
 IDIUse=3 WtCom= 9.91D-01 WtEn= 8.77D-03
 Coeff-Com: -0.163D-02-0.468D-02 0.566D-02 0.496D-01 0.349D+00 0.603D+00
 Coeff-En:   0.000D+00 0.000D+00 0.000D+00 0.000D+00 0.850D-01 0.915D+00
 Coeff:     -0.161D-02-0.464D-02 0.561D-02 0.491D-01 0.346D+00 0.605D+00
 Gap=     0.219 Goal=   None    Shift=    0.000
 RMSDP=3.66D-04 MaxDP=1.90D-02 DE=-5.11D-04 OVMax= 3.55D-03

 Cycle   7  Pass 1  IDiag  1:
 RMSU=  1.98D-04    CP:  1.21D+00  4.71D-01  7.17D-01  6.72D-01  8.51D-01
                    CP:  7.75D-01
 E= -1010.86131506126     Delta-E=       -0.000123250039 Rises=F Damp=F
 DIIS: error= 1.64D-04 at cycle   7 NSaved=   7.
 NSaved= 7 IEnMin= 7 EnMin= -1010.86131506126     IErMin= 7 ErrMin= 1.64D-04
 ErrMax= 1.64D-04  0.00D+00 EMaxC= 1.00D-01 BMatC= 7.57D-06 BMatP= 1.20D-04
 IDIUse=3 WtCom= 9.98D-01 WtEn= 1.64D-03
 Coeff-Com:  0.295D-03-0.283D-02-0.106D-01-0.119D-01 0.555D-01 0.229D+00
 Coeff-Com:  0.741D+00
 Coeff-En:   0.000D+00 0.000D+00 0.000D+00 0.000D+00 0.000D+00 0.000D+00
 Coeff-En:   0.100D+01
 Coeff:      0.295D-03-0.282D-02-0.106D-01-0.119D-01 0.554D-01 0.228D+00
 Coeff:      0.741D+00
 Gap=     0.219 Goal=   None    Shift=    0.000
 RMSDP=1.20D-04 MaxDP=8.57D-03 DE=-1.23D-04 OVMax= 8.71D-04

 Cycle   8  Pass 1  IDiag  1:
 RMSU=  6.05D-05    CP:  1.21D+00  4.70D-01  7.19D-01  6.71D-01  8.84D-01
                    CP:  7.92D-01  1.11D+00
 E= -1010.86132447425     Delta-E=       -0.000009412984 Rises=F Damp=F
 DIIS: error= 5.99D-05 at cycle   8 NSaved=   8.
 NSaved= 8 IEnMin= 8 EnMin= -1010.86132447425     IErMin= 8 ErrMin= 5.99D-05
 ErrMax= 5.99D-05  0.00D+00 EMaxC= 1.00D-01 BMatC= 1.25D-06 BMatP= 7.57D-06
 IDIUse=1 WtCom= 1.00D+00 WtEn= 0.00D+00
 Coeff-Com:  0.341D-03-0.584D-03-0.604D-02-0.129D-01-0.233D-01 0.236D-01
 Coeff-Com:  0.318D+00 0.701D+00
 Coeff:      0.341D-03-0.584D-03-0.604D-02-0.129D-01-0.233D-01 0.236D-01
 Coeff:      0.318D+00 0.701D+00
 Gap=     0.219 Goal=   None    Shift=    0.000
 RMSDP=9.97D-05 MaxDP=8.09D-03 DE=-9.41D-06 OVMax= 3.97D-04

 Cycle   9  Pass 1  IDiag  1:
 RMSU=  2.33D-05    CP:  1.21D+00  4.70D-01  7.21D-01  6.68D-01  8.97D-01
                    CP:  8.08D-01  1.20D+00  1.23D+00
 E= -1010.86132608797     Delta-E=       -0.000001613724 Rises=F Damp=F
 DIIS: error= 3.14D-05 at cycle   9 NSaved=   9.
 NSaved= 9 IEnMin= 9 EnMin= -1010.86132608797     IErMin= 9 ErrMin= 3.14D-05
 ErrMax= 3.14D-05  0.00D+00 EMaxC= 1.00D-01 BMatC= 2.26D-07 BMatP= 1.25D-06
 IDIUse=1 WtCom= 1.00D+00 WtEn= 0.00D+00
 Coeff-Com:  0.114D-03 0.672D-04-0.160D-02-0.454D-02-0.201D-01-0.193D-01
 Coeff-Com:  0.427D-01 0.327D+00 0.676D+00
 Coeff:      0.114D-03 0.672D-04-0.160D-02-0.454D-02-0.201D-01-0.193D-01
 Coeff:      0.427D-01 0.327D+00 0.676D+00
 Gap=     0.219 Goal=   None    Shift=    0.000
 RMSDP=3.29D-05 MaxDP=2.17D-03 DE=-1.61D-06 OVMax= 1.83D-04

 Cycle  10  Pass 1  IDiag  1:
 RMSU=  8.34D-06    CP:  1.21D+00  4.69D-01  7.21D-01  6.67D-01  8.99D-01
                    CP:  8.19D-01  1.23D+00  1.29D+00  1.01D+00
 E= -1010.86132637304     Delta-E=       -0.000000285073 Rises=F Damp=F
 DIIS: error= 1.30D-05 at cycle  10 NSaved=  10.
 NSaved=10 IEnMin=10 EnMin= -1010.86132637304     IErMin=10 ErrMin= 1.30D-05
 ErrMax= 1.30D-05  0.00D+00 EMaxC= 1.00D-01 BMatC= 2.98D-08 BMatP= 2.26D-07
 IDIUse=1 WtCom= 1.00D+00 WtEn= 0.00D+00
 Coeff-Com:  0.405D-05 0.118D-03 0.183D-03 0.120D-03-0.571D-02-0.117D-01
 Coeff-Com: -0.287D-01 0.219D-01 0.268D+00 0.756D+00
 Coeff:      0.405D-05 0.118D-03 0.183D-03 0.120D-03-0.571D-02-0.117D-01
 Coeff:     -0.287D-01 0.219D-01 0.268D+00 0.756D+00
 Gap=     0.219 Goal=   None    Shift=    0.000
 RMSDP=1.16D-05 MaxDP=6.90D-04 DE=-2.85D-07 OVMax= 7.84D-05

 Cycle  11  Pass 1  IDiag  1:
 RMSU=  2.79D-06    CP:  1.21D+00  4.69D-01  7.21D-01  6.67D-01  9.00D-01
                    CP:  8.18D-01  1.24D+00  1.35D+00  1.10D+00  1.09D+00
 E= -1010.86132641239     Delta-E=       -0.000000039346 Rises=F Damp=F
 DIIS: error= 6.66D-06 at cycle  11 NSaved=  11.
 NSaved=11 IEnMin=11 EnMin= -1010.86132641239     IErMin=11 ErrMin= 6.66D-06
 ErrMax= 6.66D-06  0.00D+00 EMaxC= 1.00D-01 BMatC= 7.19D-09 BMatP= 2.98D-08
 IDIUse=1 WtCom= 1.00D+00 WtEn= 0.00D+00
 Coeff-Com: -0.731D-05 0.348D-04 0.309D-03 0.738D-03-0.148D-03-0.355D-02
 Coeff-Com: -0.198D-01-0.374D-01 0.341D-01 0.397D+00 0.629D+00
 Coeff:     -0.731D-05 0.348D-04 0.309D-03 0.738D-03-0.148D-03-0.355D-02
 Coeff:     -0.198D-01-0.374D-01 0.341D-01 0.397D+00 0.629D+00
 Gap=     0.219 Goal=   None    Shift=    0.000
 RMSDP=4.29D-06 MaxDP=3.11D-04 DE=-3.93D-08 OVMax= 3.04D-05

 Cycle  12  Pass 1  IDiag  1:
 RMSU=  1.13D-06    CP:  1.21D+00  4.69D-01  7.21D-01  6.67D-01  9.00D-01
                    CP:  8.19D-01  1.24D+00  1.36D+00  1.13D+00  1.19D+00
                    CP:  1.02D+00
 E= -1010.86132642091     Delta-E=       -0.000000008517 Rises=F Damp=F
 DIIS: error= 7.32D-07 at cycle  12 NSaved=  12.
 NSaved=12 IEnMin=12 EnMin= -1010.86132642091     IErMin=12 ErrMin= 7.32D-07
 ErrMax= 7.32D-07  0.00D+00 EMaxC= 1.00D-01 BMatC= 3.64D-10 BMatP= 7.19D-09
 IDIUse=1 WtCom= 1.00D+00 WtEn= 0.00D+00
 Coeff-Com:  0.223D-05-0.932D-05 0.479D-04 0.136D-03 0.586D-03 0.393D-03
 Coeff-Com: -0.749D-04-0.113D-01-0.257D-01 0.750D-02 0.183D+00 0.845D+00
 Coeff:      0.223D-05-0.932D-05 0.479D-04 0.136D-03 0.586D-03 0.393D-03
 Coeff:     -0.749D-04-0.113D-01-0.257D-01 0.750D-02 0.183D+00 0.845D+00
 Gap=     0.219 Goal=   None    Shift=    0.000
 RMSDP=1.27D-06 MaxDP=7.56D-05 DE=-8.52D-09 OVMax= 7.22D-06

 Cycle  13  Pass 1  IDiag  1:
 RMSU=  5.47D-07    CP:  1.21D+00  4.69D-01  7.21D-01  6.67D-01  9.00D-01
                    CP:  8.19D-01  1.24D+00  1.36D+00  1.13D+00  1.25D+00
                    CP:  1.11D+00  1.14D+00
 E= -1010.86132642132     Delta-E=       -0.000000000417 Rises=F Damp=F
 DIIS: error= 2.38D-07 at cycle  13 NSaved=  13.
 NSaved=13 IEnMin=13 EnMin= -1010.86132642132     IErMin=13 ErrMin= 2.38D-07
 ErrMax= 2.38D-07  0.00D+00 EMaxC= 1.00D-01 BMatC= 4.17D-11 BMatP= 3.64D-10
 IDIUse=1 WtCom= 1.00D+00 WtEn= 0.00D+00
 Coeff-Com:  0.164D-05-0.636D-05 0.399D-05 0.147D-04 0.271D-03 0.365D-03
 Coeff-Com:  0.119D-02-0.213D-02-0.116D-01-0.205D-01 0.395D-01 0.349D+00
 Coeff-Com:  0.644D+00
 Coeff:      0.164D-05-0.636D-05 0.399D-05 0.147D-04 0.271D-03 0.365D-03
 Coeff:      0.119D-02-0.213D-02-0.116D-01-0.205D-01 0.395D-01 0.349D+00
 Coeff:      0.644D+00
 Gap=     0.219 Goal=   None    Shift=    0.000
 RMSDP=5.13D-07 MaxDP=3.53D-05 DE=-4.17D-10 OVMax= 2.43D-06

 Cycle  14  Pass 1  IDiag  1:
 RMSU=  1.00D-07    CP:  1.21D+00  4.69D-01  7.21D-01  6.67D-01  9.00D-01
                    CP:  8.19D-01  1.24D+00  1.36D+00  1.13D+00  1.26D+00
                    CP:  1.12D+00  1.25D+00  1.15D+00
 E= -1010.86132642137     Delta-E=       -0.000000000047 Rises=F Damp=F
 DIIS: error= 6.94D-08 at cycle  14 NSaved=  14.
 NSaved=14 IEnMin=14 EnMin= -1010.86132642137     IErMin=14 ErrMin= 6.94D-08
 ErrMax= 6.94D-08  0.00D+00 EMaxC= 1.00D-01 BMatC= 4.26D-12 BMatP= 4.17D-11
 IDIUse=1 WtCom= 1.00D+00 WtEn= 0.00D+00
 Coeff-Com:  0.378D-08-0.360D-06-0.613D-05-0.197D-04-0.146D-04 0.491D-04
 Coeff-Com:  0.399D-03 0.141D-02 0.690D-03-0.970D-02-0.206D-01-0.293D-01
 Coeff-Com:  0.218D+00 0.839D+00
 Coeff:      0.378D-08-0.360D-06-0.613D-05-0.197D-04-0.146D-04 0.491D-04
 Coeff:      0.399D-03 0.141D-02 0.690D-03-0.970D-02-0.206D-01-0.293D-01
 Coeff:      0.218D+00 0.839D+00
 Gap=     0.219 Goal=   None    Shift=    0.000
 RMSDP=2.39D-07 MaxDP=1.36D-05 DE=-4.73D-11 OVMax= 1.16D-06

 Cycle  15  Pass 1  IDiag  1:
 RMSU=  7.10D-08    CP:  1.21D+00  4.69D-01  7.21D-01  6.67D-01  8.99D-01
                    CP:  8.19D-01  1.24D+00  1.36D+00  1.13D+00  1.27D+00
                    CP:  1.14D+00  1.30D+00  1.31D+00  1.24D+00
 E= -1010.86132642138     Delta-E=       -0.000000000007 Rises=F Damp=F
 DIIS: error= 2.55D-08 at cycle  15 NSaved=  15.
 NSaved=15 IEnMin=15 EnMin= -1010.86132642138     IErMin=15 ErrMin= 2.55D-08
 ErrMax= 2.55D-08  0.00D+00 EMaxC= 1.00D-01 BMatC= 4.40D-13 BMatP= 4.26D-12
 IDIUse=1 WtCom= 1.00D+00 WtEn= 0.00D+00
 Coeff-Com: -0.218D-06 0.554D-06-0.224D-05-0.514D-05-0.265D-04-0.941D-05
 Coeff-Com: -0.256D-04 0.461D-03 0.948D-03-0.574D-03-0.760D-02-0.338D-01
 Coeff-Com: -0.147D-01 0.166D+00 0.889D+00
 Coeff:     -0.218D-06 0.554D-06-0.224D-05-0.514D-05-0.265D-04-0.941D-05
 Coeff:     -0.256D-04 0.461D-03 0.948D-03-0.574D-03-0.760D-02-0.338D-01
 Coeff:     -0.147D-01 0.166D+00 0.889D+00
 Gap=     0.219 Goal=   None    Shift=    0.000
 RMSDP=9.58D-08 MaxDP=6.93D-06 DE=-7.28D-12 OVMax= 4.50D-07

 Cycle  16  Pass 1  IDiag  1:
 RMSU=  1.82D-08    CP:  1.21D+00  4.69D-01  7.21D-01  6.67D-01  8.99D-01
                    CP:  8.19D-01  1.24D+00  1.36D+00  1.13D+00  1.27D+00
                    CP:  1.14D+00  1.33D+00  1.38D+00  1.41D+00  9.80D-01
 E= -1010.86132642138     Delta-E=       -0.000000000001 Rises=F Damp=F
 DIIS: error= 1.65D-08 at cycle  16 NSaved=  16.
 NSaved=16 IEnMin=16 EnMin= -1010.86132642138     IErMin=16 ErrMin= 1.65D-08
 ErrMax= 1.65D-08  0.00D+00 EMaxC= 1.00D-01 BMatC= 1.23D-13 BMatP= 4.40D-13
 IDIUse=1 WtCom= 1.00D+00 WtEn= 0.00D+00
 Coeff-Com: -0.127D-06 0.356D-06-0.610D-06-0.375D-06-0.123D-04-0.855D-05
 Coeff-Com: -0.596D-04 0.639D-04 0.376D-03 0.901D-03-0.127D-02-0.126D-01
 Coeff-Com: -0.343D-01-0.272D-01 0.425D+00 0.649D+00
 Coeff:     -0.127D-06 0.356D-06-0.610D-06-0.375D-06-0.123D-04-0.855D-05
 Coeff:     -0.596D-04 0.639D-04 0.376D-03 0.901D-03-0.127D-02-0.126D-01
 Coeff:     -0.343D-01-0.272D-01 0.425D+00 0.649D+00
 Gap=     0.219 Goal=   None    Shift=    0.000
 RMSDP=3.61D-08 MaxDP=2.81D-06 DE=-9.09D-13 OVMax= 1.62D-07

 Cycle  17  Pass 1  IDiag  1:
 RMSU=  7.23D-09    CP:  1.21D+00  4.69D-01  7.21D-01  6.67D-01  8.99D-01
                    CP:  8.19D-01  1.24D+00  1.36D+00  1.13D+00  1.27D+00
                    CP:  1.14D+00  1.33D+00  1.40D+00  1.46D+00  1.07D+00
                    CP:  1.03D+00
 E= -1010.86132642141     Delta-E=       -0.000000000029 Rises=F Damp=F
 DIIS: error= 6.73D-09 at cycle  17 NSaved=  17.
 NSaved=17 IEnMin=17 EnMin= -1010.86132642141     IErMin=17 ErrMin= 6.73D-09
 ErrMax= 6.73D-09  0.00D+00 EMaxC= 1.00D-01 BMatC= 1.08D-14 BMatP= 1.23D-13
 IDIUse=1 WtCom= 1.00D+00 WtEn= 0.00D+00
 Coeff-Com: -0.153D-07 0.567D-07 0.652D-07 0.494D-06-0.508D-06-0.127D-05
 Coeff-Com: -0.162D-04-0.457D-04-0.116D-04 0.384D-03 0.728D-03 0.156D-02
 Coeff-Com: -0.838D-02-0.384D-01-0.147D-01 0.217D+00 0.842D+00
 Coeff:     -0.153D-07 0.567D-07 0.652D-07 0.494D-06-0.508D-06-0.127D-05
 Coeff:     -0.162D-04-0.457D-04-0.116D-04 0.384D-03 0.728D-03 0.156D-02
 Coeff:     -0.838D-02-0.384D-01-0.147D-01 0.217D+00 0.842D+00
 Gap=     0.219 Goal=   None    Shift=    0.000
 RMSDP=1.89D-08 MaxDP=1.62D-06 DE=-2.86D-11 OVMax= 7.44D-08

 Cycle  18  Pass 1  IDiag  1:
 RMSU=  1.65D-09    CP:  1.21D+00  4.69D-01  7.21D-01  6.67D-01  8.99D-01
                    CP:  8.19D-01  1.24D+00  1.36D+00  1.13D+00  1.27D+00
                    CP:  1.14D+00  1.34D+00  1.41D+00  1.48D+00  1.11D+00
                    CP:  1.19D+00  9.07D-01
 E= -1010.86132642140     Delta-E=        0.000000000010 Rises=F Damp=F
 DIIS: error= 2.38D-09 at cycle  18 NSaved=  18.
 NSaved=18 IEnMin=17 EnMin= -1010.86132642141     IErMin=18 ErrMin= 2.38D-09
 ErrMax= 2.38D-09  0.00D+00 EMaxC= 1.00D-01 BMatC= 1.67D-15 BMatP= 1.08D-14
 IDIUse=1 WtCom= 1.00D+00 WtEn= 0.00D+00
 Large coefficients: NSaved= 18 BigCof=    0.00 CofMax=   10.00 Det=-8.29D-15
 Inversion failed.  Reducing to 17 matrices.
 Large coefficients: NSaved= 17 BigCof=    0.00 CofMax=   10.00 Det=-8.29D-15
 Inversion failed.  Reducing to 16 matrices.
 Large coefficients: NSaved= 16 BigCof=    0.00 CofMax=   10.00 Det=-8.29D-15
 Inversion failed.  Reducing to 15 matrices.
 Coeff-Com:  0.171D-07 0.278D-06 0.285D-06-0.912D-06-0.117D-04-0.112D-04
 Coeff-Com:  0.512D-04 0.217D-03 0.110D-02-0.548D-03-0.118D-01-0.364D-01
 Coeff-Com:  0.354D-01 0.354D+00 0.658D+00
 Coeff:      0.171D-07 0.278D-06 0.285D-06-0.912D-06-0.117D-04-0.112D-04
 Coeff:      0.512D-04 0.217D-03 0.110D-02-0.548D-03-0.118D-01-0.364D-01
 Coeff:      0.354D-01 0.354D+00 0.658D+00
 Gap=     0.219 Goal=   None    Shift=    0.000
 RMSDP=2.84D-09 MaxDP=1.92D-07 DE= 1.05D-11 OVMax= 1.69D-08

 SCF Done:  E(RM062X) =  -1010.86132642     A.U. after   18 cycles
            NFock= 18  Conv=0.28D-08     -V/T= 2.0036
 KE= 1.007207108980D+03 PE=-4.496938181959D+03 EE= 1.407100529542D+03
 Leave Link  502 at Sun Oct 13 21:40:36 2019, MaxMem= 10737418240 cpu:            1069.9 elap:              44.8
 (Enter /apps/cent7/gaussian/g16-A.03/g16-haswell/g16/l601.exe)
 Copying SCF densities to generalized density rwf, IOpCl= 0 IROHF=0.

 **********************************************************************

            Population analysis using the SCF density.

 **********************************************************************

 Orbital symmetries:
       Occupied  (A) (A) (A) (A) (A) (A) (A) (A) (A) (A) (A) (A)
                 (A) (A) (A) (A) (A) (A) (A) (A) (A) (A) (A) (A)
                 (A) (A) (A) (A) (A) (A) (A) (A) (A) (A) (A) (A)
                 (A) (A) (A) (A) (A) (A) (A) (A) (A) (A) (A) (A)
                 (A) (A) (A) (A) (A) (A) (A) (A)
       Virtual   (A) (A) (A) (A) (A) (A) (A) (A) (A) (A) (A) (A)
                 (A) (A) (A) (A) (A) (A) (A) (A) (A) (A) (A) (A)
                 (A) (A) (A) (A) (A) (A) (A) (A) (A) (A) (A) (A)
                 (A) (A) (A) (A) (A) (A) (A) (A) (A) (A) (A) (A)
                 (A) (A) (A) (A) (A) (A) (A) (A) (A) (A) (A) (A)
                 (A) (A) (A) (A) (A) (A) (A) (A) (A) (A) (A) (A)
                 (A) (A) (A) (A) (A) (A) (A) (A) (A) (A) (A) (A)
                 (A) (A) (A) (A) (A) (A) (A) (A) (A) (A) (A) (A)
                 (A) (A) (A) (A) (A) (A) (A) (A) (A) (A) (A) (A)
                 (A) (A) (A) (A) (A) (A) (A) (A) (A) (A) (A) (A)
                 (A) (A) (A) (A) (A) (A) (A) (A) (A) (A) (A) (A)
                 (A) (A) (A) (A) (A) (A) (A) (A) (A) (A) (A) (A)
                 (A) (A) (A) (A) (A) (A) (A) (A) (A) (A) (A) (A)
                 (A) (A) (A) (A) (A) (A) (A) (A) (A) (A) (A) (A)
                 (A) (A) (A) (A) (A) (A) (A) (A) (A) (A) (A) (A)
                 (A) (A) (A) (A) (A) (A) (A) (A) (A) (A) (A) (A)
                 (A) (A) (A) (A) (A) (A) (A) (A) (A) (A) (A) (A)
                 (A) (A) (A) (A) (A) (A) (A) (A) (A) (A) (A) (A)
                 (A) (A) (A) (A) (A) (A) (A) (A) (A) (A) (A) (A)
                 (A) (A) (A) (A) (A) (A) (A) (A) (A) (A) (A) (A)
                 (A) (A) (A) (A) (A) (A) (A) (A) (A) (A) (A) (A)
                 (A) (A) (A) (A) (A) (A) (A) (A) (A) (A) (A) (A)
                 (A) (A) (A) (A) (A) (A) (A) (A) (A) (A) (A) (A)
                 (A) (A) (A) (A) (A) (A) (A) (A) (A) (A) (A) (A)
                 (A) (A) (A) (A) (A) (A) (A) (A) (A) (A) (A) (A)
                 (A) (A) (A) (A) (A) (A) (A) (A) (A) (A) (A) (A)
                 (A) (A) (A) (A) (A) (A) (A) (A) (A) (A) (A) (A)
                 (A) (A) (A) (A) (A) (A) (A) (A) (A) (A) (A) (A)
                 (A) (A) (A) (A) (A)
 The electronic state is 1-A.
 Alpha  occ. eigenvalues --  -90.30900 -19.88231 -19.80241 -10.76859 -10.76664
 Alpha  occ. eigenvalues --  -10.74679 -10.74620 -10.73937 -10.73576 -10.72198
 Alpha  occ. eigenvalues --  -10.72080 -10.71983 -10.71851 -10.71735 -10.71439
 Alpha  occ. eigenvalues --   -8.65293  -6.57546  -6.57287  -6.57258  -1.42508
 Alpha  occ. eigenvalues --   -1.28601  -1.18391  -1.12636  -1.08484  -1.05006
 Alpha  occ. eigenvalues --   -1.01933  -0.98926  -0.98579  -0.90376  -0.88533
 Alpha  occ. eigenvalues --   -0.85830  -0.83731  -0.81951  -0.76997  -0.75735
 Alpha  occ. eigenvalues --   -0.73667  -0.71482  -0.71142  -0.68643  -0.68111
 Alpha  occ. eigenvalues --   -0.67019  -0.66243  -0.66122  -0.64265  -0.62773
 Alpha  occ. eigenvalues --   -0.60278  -0.59493  -0.59102  -0.57906  -0.57767
 Alpha  occ. eigenvalues --   -0.55014  -0.53055  -0.51450  -0.48794  -0.47941
 Alpha  occ. eigenvalues --   -0.44273
 Alpha virt. eigenvalues --   -0.22341  -0.17908  -0.16284  -0.14854  -0.11538
 Alpha virt. eigenvalues --   -0.11171  -0.10514  -0.10263  -0.09602  -0.09026
 Alpha virt. eigenvalues --   -0.08315  -0.07926  -0.07100  -0.06672  -0.06069
 Alpha virt. eigenvalues --   -0.05571  -0.05306  -0.04646  -0.03968  -0.03423
 Alpha virt. eigenvalues --   -0.02883  -0.02696  -0.01939  -0.01299  -0.00950
 Alpha virt. eigenvalues --   -0.00280  -0.00134   0.00822   0.01295   0.01570
 Alpha virt. eigenvalues --    0.02067   0.02213   0.02662   0.02846   0.03307
 Alpha virt. eigenvalues --    0.03341   0.03481   0.03556   0.04126   0.04389
 Alpha virt. eigenvalues --    0.05122   0.05336   0.05491   0.05675   0.06463
 Alpha virt. eigenvalues --    0.07209   0.07488   0.07628   0.08140   0.08497
 Alpha virt. eigenvalues --    0.08616   0.09345   0.09542   0.09886   0.10354
 Alpha virt. eigenvalues --    0.10552   0.11554   0.11812   0.12083   0.12297
 Alpha virt. eigenvalues --    0.12948   0.13344   0.13629   0.14164   0.14669
 Alpha virt. eigenvalues --    0.14873   0.15521   0.15727   0.16205   0.16880
 Alpha virt. eigenvalues --    0.18208   0.18559   0.19082   0.19407   0.19549
 Alpha virt. eigenvalues --    0.19662   0.20110   0.21391   0.21587   0.22084
 Alpha virt. eigenvalues --    0.22401   0.22742   0.22862   0.23604   0.24497
 Alpha virt. eigenvalues --    0.25057   0.25165   0.26456   0.27141   0.29673
 Alpha virt. eigenvalues --    0.29942   0.30763   0.31936   0.32126   0.34313
 Alpha virt. eigenvalues --    0.36168   0.37190   0.37952   0.38767   0.42137
 Alpha virt. eigenvalues --    0.42527   0.43193   0.43287   0.43747   0.44192
 Alpha virt. eigenvalues --    0.45482   0.46101   0.46934   0.47428   0.48246
 Alpha virt. eigenvalues --    0.48424   0.48902   0.49021   0.49255   0.49771
 Alpha virt. eigenvalues --    0.51269   0.53126   0.54588   0.55093   0.55496
 Alpha virt. eigenvalues --    0.55971   0.56976   0.58225   0.58717   0.60021
 Alpha virt. eigenvalues --    0.60842   0.62326   0.63618   0.64360   0.65906
 Alpha virt. eigenvalues --    0.66392   0.68254   0.69912   0.70332   0.70923
 Alpha virt. eigenvalues --    0.72260   0.73358   0.74174   0.74612   0.75348
 Alpha virt. eigenvalues --    0.76029   0.76384   0.77402   0.78240   0.78463
 Alpha virt. eigenvalues --    0.78617   0.79614   0.80239   0.80953   0.83366
 Alpha virt. eigenvalues --    0.85958   0.86446   0.86730   0.87465   0.89057
 Alpha virt. eigenvalues --    0.89844   0.90612   0.91113   0.92895   0.93152
 Alpha virt. eigenvalues --    0.93920   0.94528   0.96656   0.97619   0.99041
 Alpha virt. eigenvalues --    1.00460   1.00770   1.01893   1.02765   1.03810
 Alpha virt. eigenvalues --    1.05715   1.07051   1.07606   1.08677   1.13658
 Alpha virt. eigenvalues --    1.15387   1.17675   1.17870   1.23108   1.24192
 Alpha virt. eigenvalues --    1.26547   1.29810   1.35030   1.35708   1.37095
 Alpha virt. eigenvalues --    1.37933   1.38837   1.40351   1.40826   1.42880
 Alpha virt. eigenvalues --    1.43320   1.43850   1.45252   1.45660   1.46818
 Alpha virt. eigenvalues --    1.47455   1.48840   1.52079   1.52645   1.53125
 Alpha virt. eigenvalues --    1.54712   1.56525   1.56970   1.61551   1.62677
 Alpha virt. eigenvalues --    1.62872   1.63831   1.66203   1.69081   1.70613
 Alpha virt. eigenvalues --    1.70985   1.71283   1.72111   1.74007   1.75740
 Alpha virt. eigenvalues --    1.76480   1.77750   1.78202   1.78518   1.80739
 Alpha virt. eigenvalues --    1.83626   1.84004   1.84308   1.85317   1.86248
 Alpha virt. eigenvalues --    1.86678   1.87508   1.88866   1.91058   1.91746
 Alpha virt. eigenvalues --    1.92647   1.95132   1.95897   1.97075   1.97675
 Alpha virt. eigenvalues --    1.99198   2.10554   2.12893   2.16050   2.17889
 Alpha virt. eigenvalues --    2.18632   2.22547   2.23039   2.23831   2.30384
 Alpha virt. eigenvalues --    2.32320   2.36568   2.37583   2.38493   2.38893
 Alpha virt. eigenvalues --    2.43244   2.46643   2.47843   2.53920   2.55501
 Alpha virt. eigenvalues --    2.56232   2.57550   2.58356   2.59910   2.60225
 Alpha virt. eigenvalues --    2.61800   2.62436   2.64107   2.65089   2.66297
 Alpha virt. eigenvalues --    2.66417   2.67794   2.68732   2.70068   2.70563
 Alpha virt. eigenvalues --    2.72430   2.72775   2.73266   2.73601   2.77511
 Alpha virt. eigenvalues --    2.77938   2.79140   2.79603   2.80875   2.83421
 Alpha virt. eigenvalues --    2.85438   2.87792   2.89564   2.94621   2.96369
 Alpha virt. eigenvalues --    2.97373   2.98827   3.01372   3.06333   3.11511
 Alpha virt. eigenvalues --    3.14768   3.19157   3.20786   3.23787   3.25422
 Alpha virt. eigenvalues --    3.25950   3.28921   3.31404   3.40098   3.41403
 Alpha virt. eigenvalues --    3.42002   3.46235   3.47130   3.55594   3.69189
 Alpha virt. eigenvalues --    3.71536   3.75017   3.91012   3.91394   3.95858
 Alpha virt. eigenvalues --    3.96416   4.01524   4.06907   4.40610   4.63525
 Alpha virt. eigenvalues --    4.68459   4.91304   4.93823   5.05236   5.08080
 Alpha virt. eigenvalues --    5.09288   5.41613   8.02858  17.30497  17.44235
 Alpha virt. eigenvalues --   17.52465  23.42502  23.59870  23.81209  23.82703
 Alpha virt. eigenvalues --   23.83504  23.86728  23.91924  23.93236  23.94312
 Alpha virt. eigenvalues --   23.94968  24.03080  24.03460  49.77573  49.85858
 Alpha virt. eigenvalues --  189.29019
          Condensed to atoms (all electrons):
               1          2          3          4          5          6
     1  O    8.208383   0.283576  -0.435562   0.435776  -0.021542  -0.014513
     2  S    0.283576  23.138647  -4.057512   3.040995  -0.769018  -0.181792
     3  C   -0.435562  -4.057512  26.010002  -8.721370  -4.720571   0.916984
     4  C    0.435776   3.040995  -8.721370  24.414112   0.219403  -2.802627
     5  C   -0.021542  -0.769018  -4.720571   0.219403  13.127977  -0.045684
     6  C   -0.014513  -0.181792   0.916984  -2.802627  -0.045684  10.579840
     7  C    0.054251   0.027413  -0.845181   0.423101  -1.636180  -0.213758
     8  C   -0.311014  -2.110120  -2.057705  -5.329786   4.231474  -1.542063
     9  C    0.474024   2.152255  -8.214669  10.910747  -0.601667   0.475845
    10  C   -0.188107  -4.044958  12.420447 -10.565350  -5.684529  -0.223452
    11  C   -0.586705  -0.758978   0.430750  -6.041024  -0.166024   0.253511
    12  C    0.065064   0.270123  -0.127229   0.300318  -0.062721  -0.085607
    13  C   -0.009811  -0.583370   0.492258   0.362035  -0.397751  -0.400672
    14  C   -0.082820  -0.985231  -3.861519  -2.249844   2.225081  -0.490483
    15  O   -0.118967   0.437351  -0.017567   0.069101  -0.013439  -0.003297
    16  H    0.000327   0.001447  -0.051889  -0.017491   0.552083  -0.026523
    17  H   -0.000400  -0.011455   0.006997   0.006761  -0.051815   0.405939
    18  H    0.000590   0.017542   0.062597   0.034779  -0.065055  -0.040451
    19  H    0.006244  -0.090417  -0.125210   0.050544   0.021503  -0.011967
    20  H    0.018464  -0.012814  -0.100243   0.103234   0.023766   0.005856
    21  H   -0.001056   0.014973   0.008905  -0.027825  -0.011666  -0.002759
    22  H    0.000052  -0.003736  -0.002743   0.025985   0.008377   0.005561
    23  H   -0.002004  -0.025470   0.009101  -0.234333  -0.015259  -0.022436
    24  H    0.212188  -0.028200   0.050443  -0.062665  -0.013239  -0.001764
               7          8          9         10         11         12
     1  O    0.054251  -0.311014   0.474024  -0.188107  -0.586705   0.065064
     2  S    0.027413  -2.110120   2.152255  -4.044958  -0.758978   0.270123
     3  C   -0.845181  -2.057705  -8.214669  12.420447   0.430750  -0.127229
     4  C    0.423101  -5.329786  10.910747 -10.565350  -6.041024   0.300318
     5  C   -1.636180   4.231474  -0.601667  -5.684529  -0.166024  -0.062721
     6  C   -0.213758  -1.542063   0.475845  -0.223452   0.253511  -0.085607
     7  C    8.492252  -0.931013  -0.105164   0.612931   0.014095   0.030962
     8  C   -0.931013  18.780366  -3.906819  -0.638604  -0.667111  -0.120153
     9  C   -0.105164  -3.906819  25.509792  -9.105530  -8.725381   1.596996
    10  C    0.612931  -0.638604  -9.105530  28.852912  -1.216641  -1.602268
    11  C    0.014095  -0.667111  -8.725381  -1.216641  21.470571  -0.956453
    12  C    0.030962  -0.120153   1.596996  -1.602268  -0.956453   8.031058
    13  C   -0.110942   0.414135  -3.649641   1.576004  -1.711393  -0.287452
    14  C   -0.113464   0.475554  -2.291988  -3.068353   4.897832  -1.393202
    15  O   -0.027229  -0.221953  -0.023660   0.008515   0.007649   0.021844
    16  H    0.002620   0.129204  -0.097168  -0.143892  -0.048652  -0.006932
    17  H   -0.063882   0.015220   0.006912   0.000948   0.001100  -0.001442
    18  H    0.445448  -0.089937  -0.007887  -0.001771  -0.000754   0.000651
    19  H    0.049440   0.382451   0.033638  -0.016464  -0.016321  -0.004647
    20  H   -0.005328  -0.031199   0.226140  -0.161579   0.206808   0.047608
    21  H    0.001033   0.000621  -0.020968   0.076142  -0.016718   0.430095
    22  H   -0.001381  -0.000007   0.056495   0.000442  -0.031972  -0.053287
    23  H   -0.001757  -0.023887  -0.203852   0.167852   0.203105   0.010689
    24  H    0.014231   0.051743  -0.030821   0.117455  -0.035604  -0.051977
              13         14         15         16         17         18
     1  O   -0.009811  -0.082820  -0.118967   0.000327  -0.000400   0.000590
     2  S   -0.583370  -0.985231   0.437351   0.001447  -0.011455   0.017542
     3  C    0.492258  -3.861519  -0.017567  -0.051889   0.006997   0.062597
     4  C    0.362035  -2.249844   0.069101  -0.017491   0.006761   0.034779
     5  C   -0.397751   2.225081  -0.013439   0.552083  -0.051815  -0.065055
     6  C   -0.400672  -0.490483  -0.003297  -0.026523   0.405939  -0.040451
     7  C   -0.110942  -0.113464  -0.027229   0.002620  -0.063882   0.445448
     8  C    0.414135   0.475554  -0.221953   0.129204   0.015220  -0.089937
     9  C   -3.649641  -2.291988  -0.023660  -0.097168   0.006912  -0.007887
    10  C    1.576004  -3.068353   0.008515  -0.143892   0.000948  -0.001771
    11  C   -1.711393   4.897832   0.007649  -0.048652   0.001100  -0.000754
    12  C   -0.287452  -1.393202   0.021844  -0.006932  -0.001442   0.000651
    13  C   10.935533  -0.369770  -0.008200   0.010183   0.005548  -0.001979
    14  C   -0.369770  13.006664  -0.019200   0.038851   0.009739  -0.007789
    15  O   -0.008200  -0.019200   7.953243   0.000369  -0.000116   0.000319
    16  H    0.010183   0.038851   0.000369   0.503833  -0.010858   0.001584
    17  H    0.005548   0.009739  -0.000116  -0.010858   0.415442  -0.008968
    18  H   -0.001979  -0.007789   0.000319   0.001584  -0.008968   0.415422
    19  H    0.003712   0.018007  -0.006549  -0.000564   0.001461  -0.011796
    20  H   -0.025171   0.016857  -0.002614   0.000773  -0.000010   0.000022
    21  H   -0.054367  -0.053985   0.000266  -0.000927  -0.000002  -0.000002
    22  H    0.409829  -0.079880  -0.000036   0.002166  -0.000000   0.000000
    23  H   -0.075301   0.549010   0.000029  -0.016236   0.001574  -0.000668
    24  H   -0.001926   0.012577  -0.015666  -0.000397  -0.000015  -0.000091
              19         20         21         22         23         24
     1  O    0.006244   0.018464  -0.001056   0.000052  -0.002004   0.212188
     2  S   -0.090417  -0.012814   0.014973  -0.003736  -0.025470  -0.028200
     3  C   -0.125210  -0.100243   0.008905  -0.002743   0.009101   0.050443
     4  C    0.050544   0.103234  -0.027825   0.025985  -0.234333  -0.062665
     5  C    0.021503   0.023766  -0.011666   0.008377  -0.015259  -0.013239
     6  C   -0.011967   0.005856  -0.002759   0.005561  -0.022436  -0.001764
     7  C    0.049440  -0.005328   0.001033  -0.001381  -0.001757   0.014231
     8  C    0.382451  -0.031199   0.000621  -0.000007  -0.023887   0.051743
     9  C    0.033638   0.226140  -0.020968   0.056495  -0.203852  -0.030821
    10  C   -0.016464  -0.161579   0.076142   0.000442   0.167852   0.117455
    11  C   -0.016321   0.206808  -0.016718  -0.031972   0.203105  -0.035604
    12  C   -0.004647   0.047608   0.430095  -0.053287   0.010689  -0.051977
    13  C    0.003712  -0.025171  -0.054367   0.409829  -0.075301  -0.001926
    14  C    0.018007   0.016857  -0.053985  -0.079880   0.549010   0.012577
    15  O   -0.006549  -0.002614   0.000266  -0.000036   0.000029  -0.015666
    16  H   -0.000564   0.000773  -0.000927   0.002166  -0.016236  -0.000397
    17  H    0.001461  -0.000010  -0.000002  -0.000000   0.001574  -0.000015
    18  H   -0.011796   0.000022  -0.000002   0.000000  -0.000668  -0.000091
    19  H    0.436716  -0.000259   0.000044  -0.000010   0.000696   0.002842
    20  H   -0.000259   0.468637  -0.015587   0.002033  -0.001668  -0.013242
    21  H    0.000044  -0.015587   0.420657  -0.009925   0.003474   0.000998
    22  H   -0.000010   0.002033  -0.009925   0.415369  -0.014147  -0.000054
    23  H    0.000696  -0.001668   0.003474  -0.014147   0.514572   0.000646
    24  H    0.002842  -0.013242   0.000998  -0.000054   0.000646   0.419585
 Mulliken charges:
               1
     1  O    0.013561
     2  S    0.278750
     3  C   -1.069514
     4  C    1.655423
     5  C   -0.133502
     6  C   -0.533687
     7  C   -0.112498
     8  C   -0.499399
     9  C    1.542370
    10  C   -1.172151
    11  C   -0.505688
    12  C   -0.052036
    13  C   -0.521490
    14  C   -0.182642
    15  O   -0.020191
    16  H    0.178090
    17  H    0.271320
    18  H    0.258192
    19  H    0.276906
    20  H    0.249516
    21  H    0.258581
    22  H    0.270868
    23  H    0.176271
    24  H    0.372951
 Sum of Mulliken charges =   1.00000
 Mulliken charges with hydrogens summed into heavy atoms:
               1
     1  O    0.386512
     2  S    0.278750
     3  C   -1.069514
     4  C    1.655423
     5  C    0.044588
     6  C   -0.262367
     7  C    0.145693
     8  C   -0.222493
     9  C    1.542370
    10  C   -1.172151
    11  C   -0.256172
    12  C    0.206544
    13  C   -0.250622
    14  C   -0.006371
    15  O   -0.020191
 Electronic spatial extent (au):  <R**2>=           3063.9087
 Charge=              1.0000 electrons
 Dipole moment (field-independent basis, Debye):
    X=             -1.2383    Y=             -2.1021    Z=             -3.2183  Tot=              4.0385
 Quadrupole moment (field-independent basis, Debye-Ang):
   XX=            -44.1005   YY=            -67.0731   ZZ=            -97.3349
   XY=             -4.4963   XZ=              2.8746   YZ=             -9.4808
 Traceless Quadrupole moment (field-independent basis, Debye-Ang):
   XX=             25.4024   YY=              2.4298   ZZ=            -27.8321
   XY=             -4.4963   XZ=              2.8746   YZ=             -9.4808
 Octapole moment (field-independent basis, Debye-Ang**2):
  XXX=              3.4665  YYY=            -16.6073  ZZZ=            -10.6925  XYY=            -14.5815
  XXY=            -19.4915  XXZ=             -3.5890  XZZ=             -5.5792  YZZ=             15.1230
  YYZ=            -27.9282  XYZ=              9.3886
 Hexadecapole moment (field-independent basis, Debye-Ang**3):
 XXXX=          -1704.2750 YYYY=          -1202.4705 ZZZZ=           -224.7125 XXXY=             -1.4600
 XXXZ=             -0.3357 YYYX=            -41.6276 YYYZ=            -79.8065 ZZZX=             11.0649
 ZZZY=            -32.0198 XXYY=           -472.5081 XXZZ=           -494.3659 YYZZ=           -274.4697
 XXYZ=             -8.0100 YYXZ=             26.3308 ZZXY=            -16.6907
 N-N= 1.071769217016D+03 E-N=-4.496938182020D+03  KE= 1.007207108980D+03
 No NMR shielding tensors so no spin-rotation constants.
 Leave Link  601 at Sun Oct 13 21:40:36 2019, MaxMem= 10737418240 cpu:               4.2 elap:               0.2
 (Enter /apps/cent7/gaussian/g16-A.03/g16-haswell/g16/l701.exe)
 ... and contract with generalized density number  0.
 Compute integral first derivatives.
 Leave Link  701 at Sun Oct 13 21:40:37 2019, MaxMem= 10737418240 cpu:               3.8 elap:               0.2
 (Enter /apps/cent7/gaussian/g16-A.03/g16-haswell/g16/l702.exe)
 L702 exits ... SP integral derivatives will be done elsewhere.
 Leave Link  702 at Sun Oct 13 21:40:37 2019, MaxMem= 10737418240 cpu:               1.2 elap:               0.1
 (Enter /apps/cent7/gaussian/g16-A.03/g16-haswell/g16/l703.exe)
 Integral derivatives from FoFJK, PRISM(SPDF).
 Compute integral first derivatives, UseDBF=F ICtDFT=           0.
 Calling FoFJK, ICntrl=      2127 FMM=F ISym2X=0 I1Cent= 0 IOpClX= 0 NMat=1 NMatS=1 NMatT=0.
 FoFJK:  IHMeth= 1 ICntrl=    2127 DoSepK=F KAlg= 0 I1Cent=           0 FoldK=F
 IRaf=         0 NMat=       1 IRICut=       1 DoRegI=T DoRafI=F ISym2E= 0 IDoP0=0 IntGTp=1.
 FoFCou: FMM=F IPFlag=           0 FMFlag=      100000 FMFlg1=         800
         NFxFlg=           0 DoJE=F BraDBF=F KetDBF=F FulRan=T
         wScrn=  0.000000 ICntrl=      2127 IOpCl=  0 I1Cent=           0 NGrid=           0
         NMat0=    1 NMatS0=      1 NMatT0=    0 NMatD0=    1 NMtDS0=    0 NMtDT0=    0
 Symmetry not used in FoFCou.
 Leave Link  703 at Sun Oct 13 21:40:44 2019, MaxMem= 10737418240 cpu:             167.5 elap:               7.0
 (Enter /apps/cent7/gaussian/g16-A.03/g16-haswell/g16/l716.exe)
 Dipole        =-4.87198458D-01-8.27046702D-01-1.26616519D+00
 ***** Axes restored to original set *****
 -------------------------------------------------------------------
 Center     Atomic                   Forces (Hartrees/Bohr)
 Number     Number              X              Y              Z
 -------------------------------------------------------------------
      1        8          -0.027689865    0.016184569    0.009092644
      2       16           0.018670172   -0.068303642    0.114031158
      3        6          -0.011795150    0.012457535   -0.014811141
      4        6          -0.039173083    0.003395985   -0.002407802
      5        6          -0.001445377   -0.011777943    0.001394895
      6        6           0.011358980   -0.010752084    0.000122510
      7        6           0.011489732    0.003570717    0.001454218
      8        6           0.005081142   -0.000182872   -0.000007603
      9        6           0.039244942    0.014261494   -0.000667659
     10        6           0.004733480    0.018125823   -0.010462658
     11        6          -0.006092823   -0.000075019    0.000146793
     12        6          -0.011258082    0.000292286    0.000316384
     13        6          -0.008797164   -0.013095965    0.000086285
     14        6           0.004518180   -0.010553340    0.000978357
     15        8          -0.005743594    0.056384279   -0.103330161
     16        1          -0.001295897   -0.005051700    0.000130859
     17        1           0.003744801   -0.003544012   -0.000142575
     18        1           0.005697478    0.000078955    0.000325984
     19        1           0.000850500    0.004566092   -0.000180245
     20        1          -0.000977050    0.004249852    0.000915627
     21        1          -0.005450895   -0.001218377    0.000256073
     22        1          -0.002672898   -0.004376003   -0.000112066
     23        1           0.002634586   -0.004434351   -0.000015182
     24        1           0.014367886   -0.000202281    0.002885303
 -------------------------------------------------------------------
 Cartesian Forces:  Max     0.114031158 RMS     0.023220072
 Leave Link  716 at Sun Oct 13 21:40:44 2019, MaxMem= 10737418240 cpu:               0.6 elap:               0.0
 (Enter /apps/cent7/gaussian/g16-A.03/g16-haswell/g16/l103.exe)

 GradGradGradGradGradGradGradGradGradGradGradGradGradGradGradGradGradGrad
 Berny optimization.
 FormGI is forming the generalized inverse of G from B-inverse, IUseBI=4.
 GSVD:  received Info=                   1 from GESDD.
 Internal  Forces:  Max     0.117519755 RMS     0.012201369
 Search for a local minimum.
 Step number   1 out of a maximum of  144
 All quantities printed in internal units (Hartrees-Bohrs-Radians)
 RMS Force = .12201D-01 SwitMx=.10000D-02 MixMth= 1
 Mixed Optimization -- RFO/linear search
 Second derivative matrix not updated -- first step.
 ITU=  0
     Eigenvalues ---    0.01065   0.01405   0.01534   0.01740   0.01795
     Eigenvalues ---    0.01872   0.01931   0.01932   0.01944   0.01944
     Eigenvalues ---    0.01944   0.01944   0.01962   0.01962   0.01989
     Eigenvalues ---    0.01991   0.02018   0.02020   0.02585   0.08341
     Eigenvalues ---    0.09007   0.11263   0.12416   0.16000   0.16000
     Eigenvalues ---    0.16000   0.16000   0.16000   0.16000   0.16000
     Eigenvalues ---    0.16000   0.16000   0.22000   0.22000   0.22595
     Eigenvalues ---    0.22595   0.23658   0.24501   0.24622   0.24998
     Eigenvalues ---    0.27972   0.28186   0.34804   0.34805   0.34806
     Eigenvalues ---    0.34806   0.34812   0.34812   0.34814   0.34815
     Eigenvalues ---    0.37909   0.38081   0.39931   0.40421   0.40431
     Eigenvalues ---    0.42855   0.43516   0.43743   0.43751   0.44072
     Eigenvalues ---    0.44084   0.44806   0.44818   0.50651   0.50732
     Eigenvalues ---    0.55473
 RFO step:  Lambda=-4.35542419D-02 EMin= 1.06496272D-02
 Linear search not attempted -- first point.
 Maximum step size (   0.300) exceeded in Quadratic search.
    -- Step size scaled by   0.986
 Iteration  1 RMS(Cart)=  0.05224121 RMS(Int)=  0.00147400
 Iteration  2 RMS(Cart)=  0.00178994 RMS(Int)=  0.00029318
 Iteration  3 RMS(Cart)=  0.00000339 RMS(Int)=  0.00029317
 Iteration  4 RMS(Cart)=  0.00000000 RMS(Int)=  0.00029317
 ITry= 1 IFail=0 DXMaxC= 2.15D-01 DCOld= 1.00D+10 DXMaxT= 3.00D-01 DXLimC= 3.00D+00 Rises=F
 Variable       Old X    -DE/DX   Delta X   Delta X   Delta X     New X
                                 (Linear)    (Quad)   (Total)
    R1        3.02834  -0.01988   0.00000  -0.03557  -0.03557   2.99277
    R2        1.81414   0.01200   0.00000   0.01976   0.01976   1.83390
    R3        3.34631  -0.00869   0.00000  -0.02729  -0.02704   3.31928
    R4        3.34671  -0.00588   0.00000  -0.01896  -0.01868   3.32803
    R5        3.02914  -0.11752   0.00000  -0.21058  -0.21058   2.81857
    R6        2.66763  -0.00981   0.00000  -0.01933  -0.01946   2.64817
    R7        2.65055  -0.01942   0.00000  -0.03842  -0.03838   2.61218
    R8        2.66968  -0.02195   0.00000  -0.04509  -0.04510   2.62458
    R9        2.71620   0.02431   0.00000   0.05538   0.05502   2.77123
   R10        2.66593  -0.01594   0.00000  -0.03277  -0.03281   2.63311
   R11        2.05993  -0.00521   0.00000  -0.01312  -0.01312   2.04681
   R12        2.66658  -0.01378   0.00000  -0.02844  -0.02848   2.63810
   R13        2.05994  -0.00515   0.00000  -0.01296  -0.01296   2.04698
   R14        2.66111  -0.01833   0.00000  -0.03719  -0.03718   2.62393
   R15        2.05991  -0.00556   0.00000  -0.01401  -0.01401   2.04590
   R16        2.05977  -0.00462   0.00000  -0.01163  -0.01163   2.04813
   R17        2.66713  -0.01077   0.00000  -0.02132  -0.02142   2.64571
   R18        2.66983  -0.02132   0.00000  -0.04380  -0.04381   2.62602
   R19        2.65072  -0.01870   0.00000  -0.03703  -0.03699   2.61372
   R20        2.66127  -0.01805   0.00000  -0.03662  -0.03661   2.62466
   R21        2.05982  -0.00417   0.00000  -0.01050  -0.01050   2.04932
   R22        2.66651  -0.01383   0.00000  -0.02852  -0.02855   2.63796
   R23        2.05980  -0.00547   0.00000  -0.01376  -0.01376   2.04605
   R24        2.66603  -0.01639   0.00000  -0.03368  -0.03372   2.63231
   R25        2.05977  -0.00512   0.00000  -0.01289  -0.01289   2.04688
   R26        2.05991  -0.00516   0.00000  -0.01298  -0.01298   2.04693
    A1        2.09440  -0.01494   0.00000  -0.07232  -0.07232   2.02207
    A2        1.95207  -0.01084   0.00000  -0.07406  -0.07462   1.87745
    A3        1.95244  -0.00096   0.00000  -0.01202  -0.01320   1.93924
    A4        1.96451  -0.00118   0.00000  -0.00841  -0.00770   1.95681
    A5        1.67636   0.00197   0.00000   0.00413   0.00336   1.67972
    A6        1.94998   0.00635   0.00000   0.04718   0.04607   1.99605
    A7        1.95029   0.00512   0.00000   0.04543   0.04465   1.99494
    A8        1.86605   0.00322   0.00000   0.00981   0.01001   1.87606
    A9        2.26800  -0.01137   0.00000  -0.03861  -0.03883   2.22918
   A10        2.14911   0.00816   0.00000   0.02891   0.02879   2.17790
   A11        2.05752  -0.00320   0.00000  -0.01113  -0.01097   2.04655
   A12        2.00802  -0.00360   0.00000  -0.00990  -0.01017   1.99786
   A13        2.21761   0.00680   0.00000   0.02103   0.02114   2.23875
   A14        2.09569  -0.00309   0.00000  -0.01129  -0.01133   2.08436
   A15        2.09497   0.00141   0.00000   0.00500   0.00502   2.09999
   A16        2.09253   0.00168   0.00000   0.00629   0.00631   2.09884
   A17        2.10377   0.00442   0.00000   0.01622   0.01615   2.11992
   A18        2.08944  -0.00246   0.00000  -0.00931  -0.00928   2.08016
   A19        2.08998  -0.00196   0.00000  -0.00690  -0.00687   2.08311
   A20        2.10105   0.00053   0.00000   0.00195   0.00193   2.10299
   A21        2.09291   0.00103   0.00000   0.00529   0.00530   2.09821
   A22        2.08922  -0.00156   0.00000  -0.00724  -0.00723   2.08199
   A23        2.05922  -0.00682   0.00000  -0.02468  -0.02464   2.03458
   A24        2.10869   0.00384   0.00000   0.01440   0.01435   2.12304
   A25        2.11528   0.00299   0.00000   0.01028   0.01024   2.12552
   A26        2.00831  -0.00551   0.00000  -0.01630  -0.01654   1.99177
   A27        2.21723   0.00740   0.00000   0.02312   0.02322   2.24045
   A28        2.05762  -0.00190   0.00000  -0.00686  -0.00671   2.05091
   A29        1.86597   0.00385   0.00000   0.01178   0.01205   1.87802
   A30        2.26800  -0.01036   0.00000  -0.03508  -0.03533   2.23267
   A31        2.14920   0.00652   0.00000   0.02339   0.02327   2.17247
[...]
 .00000692,-0.00003967,-0.00033201,0.00000934,-0.00003091,0.00066398,-0
 .00000313,-0.00067314,0.00020945,-0.00025286,0.07279375,0.00027312,-0.
 00011952,-0.00011075,-0.00116795,-0.00043592,0.00008479,0.00304217,-0.
 00053876,0.00023355,-0.00554805,-0.01525113,0.00048601,-0.06267749,-0.
 33530208,0.00766474,0.00049358,-0.00301729,0.00018865,-0.00097986,0.00
 129478,0.00016690,0.00007903,0.00050483,-0.00004594,-0.00087123,0.0002
 7481,-0.00011726,0.00033759,-0.00003733,-0.00004311,-0.00024981,-0.000
 01750,-0.00000484,-0.00004700,0.00016701,-0.00000395,0.00018544,0.0002
 0696,0.00001346,0.00025758,-0.00012727,-0.00000131,0.00035085,-0.00010
 741,0.00009515,0.06642933,0.35163122,-0.00038337,0.00027904,0.00000134
 ,0.00023226,-0.00007418,0.00107636,-0.00021600,0.00031820,0.00664348,0
 .00021922,0.00052483,0.00352150,0.00163223,0.00767045,-0.03907078,-0.0
 0002779,0.00007683,0.00421361,-0.00002015,0.00016859,0.00741829,0.0000
 0003,-0.00004312,-0.00110050,0.00004862,-0.00014293,-0.00376356,-0.000
 02068,-0.00005182,-0.00015519,0.00002429,0.00001144,0.00010365,-0.0000
 0200,-0.00002328,0.00004807,-0.00001906,-0.00001242,-0.00013666,0.0000
 1892,0.00004146,-0.00016221,0.00034251,-0.00017308,-0.00007192,-0.0017
 1137,-0.00842626,0.02576641,0.00011956,-0.00003013,0.00000208,-0.00055
 245,0.00006738,0.00001487,0.00007403,-0.00126512,0.00008924,-0.0047146
 8,-0.00199921,0.00001879,-0.01567182,0.02073040,-0.00056401,-0.2126061
 8,0.14483320,-0.00382792,0.01035310,-0.00791364,0.00021505,0.00056848,
 -0.00269101,0.00005376,-0.00019756,0.00119208,-0.00002036,-0.00033701,
 -0.00018323,-0.00002805,-0.00002744,0.00016221,0.00000325,-0.00000441,
 0.00000057,0.00000379,-0.00000925,-0.00003501,-0.00000765,-0.00000072,
 0.00007538,0.00000861,0.00009036,0.00000690,-0.00003854,0.00088111,-0.
 00002138,0.00001260,0.22114905,-0.00001145,0.00009200,0.00003597,0.000
 27161,-0.00029253,-0.00005155,-0.00166781,-0.00026644,-0.00003558,-0.0
 0300336,0.00047802,0.00014821,-0.00940314,0.01078757,-0.00015326,0.144
 91477,-0.19728507,0.00417383,0.02236728,-0.01450559,0.00051890,-0.0014
 6603,-0.00512022,0.00035588,-0.00036578,0.00057662,-0.00001167,-0.0002
 6325,-0.00015150,0.00001265,0.00007705,0.00011830,-0.00000784,0.000009
 15,-0.00007645,-0.00000155,-0.00005827,0.00000750,0.00000332,0.0000645
 8,0.00005708,-0.00000034,-0.00001961,0.00009293,-0.00001178,0.00028165
 ,0.00056553,-0.00010665,-0.15268420,0.20476877,0.00021539,-0.00029428,
 -0.00007912,0.00001776,0.00003957,-0.00108718,0.00006699,0.00002169,-0
 .00001183,0.00008327,0.00014605,0.00734017,0.00011953,-0.00014030,0.00
 525488,-0.00378371,0.00421878,-0.04347373,-0.00056573,0.00047669,0.005
 44968,0.00001933,0.00031862,0.00735798,-0.00003224,0.00000722,-0.00017
 287,0.00001051,-0.00006292,-0.00003337,0.00000063,0.00000122,-0.000012
 47,0.00001114,0.00000401,-0.00011216,0.00000297,-0.00000401,0.00007864
 ,0.00000064,-0.00001159,0.00003816,-0.00017616,0.00028506,-0.00001633,
 -0.00000233,-0.00012221,-0.00394462,0.00407101,-0.00474693,0.02793385,
 -0.00008547,0.00011785,0.00009527,-0.00002570,-0.00063336,0.00000718,-
 0.00108213,0.00303649,-0.00006054,0.00050652,0.00021658,0.00000143,0.0
 0127709,-0.00046498,0.00003054,-0.00097365,0.00074246,-0.00002747,-0.3
 3110603,-0.07652518,0.00216627,-0.01510550,-0.00688861,0.00017691,-0.0
 0013442,-0.00002379,0.00000190,-0.00025694,0.00022405,0.00002744,0.000
 09257,-0.00008170,0.00000373,-0.00000441,-0.00004999,0.00000111,-0.000
 03977,-0.00001645,-0.00000352,0.00003291,-0.00002736,-0.00000451,-0.00
 005215,0.00017750,-0.00011989,-0.00008025,0.00014440,-0.00000752,0.000
 52847,-0.00008511,0.00000212,0.34584309,0.00005442,-0.00013127,-0.0001
 2002,0.00077952,0.00078135,-0.00004416,0.00324231,-0.00214893,0.000223
 24,0.00062897,-0.00147166,-0.00000552,-0.00101260,-0.00533563,0.000332
 84,-0.02966841,-0.00333380,0.00020320,-0.07678398,-0.08033707,0.001025
 52,0.02337797,0.00885111,-0.00011091,0.00013229,0.00011715,-0.00001356
 ,0.00057664,-0.00029895,-0.00003050,-0.00015031,0.00018703,-0.00003173
 ,0.00005103,0.00010634,0.00001018,0.00010673,-0.00001167,0.00000084,-0
 .00007412,-0.00006937,0.00000649,0.00002251,-0.00027688,0.00021186,-0.
 00136948,-0.00021049,-0.00000858,0.00022336,0.00081548,-0.00012399,0.0
 8031627,0.08183107,0.00001575,-0.00000573,-0.00006991,-0.00014625,-0.0
 0000413,0.00108164,-0.00002081,0.00022934,0.00636779,-0.00010573,-0.00
 001586,-0.00094154,0.00000770,0.00031013,0.00736540,0.00073961,0.00020
 220,0.00394030,0.00224397,0.00096739,-0.03941986,-0.00061285,-0.000023
 82,0.00396508,0.00009715,0.00000899,-0.00058979,0.00005203,0.00010615,
 0.00008420,-0.00004810,-0.00005914,-0.00039404,0.00000412,0.00007178,-
 0.00000326,0.00006939,-0.00003471,-0.00010949,-0.00005765,-0.00004424,
 0.00004549,0.00002039,-0.00005703,-0.00004869,0.00003942,-0.00000292,-
 0.00025722,-0.00000274,-0.00012115,-0.00398686,-0.00229684,-0.00139196
 ,0.02687796,0.00038014,0.00062449,0.00012040,-0.00036757,-0.00310513,0
 .00017786,-0.00269670,-0.02850763,0.00072087,-0.00483284,0.00030256,-0
 .00004580,-0.00078013,0.00045363,0.00001197,-0.00338518,0.00338465,-0.
 00010763,0.01113920,0.02221630,-0.00050280,-0.07385941,-0.06427952,0.0
 0169902,0.00012117,-0.00151266,0.00002687,0.00016490,-0.00016061,-0.00
 005859,-0.00015032,0.00012940,-0.00001163,-0.00000488,0.00009390,0.000
 01069,0.00002980,-0.00015305,-0.00000997,-0.00043035,0.00023608,0.0000
 0813,0.00054306,0.00088925,-0.00024751,0.00011449,-0.00004463,-0.00000
 240,0.00042871,0.00109038,-0.00003425,0.00067323,-0.00049077,0.0000065
 1,0.07314828,-0.00007115,-0.00015096,0.00015815,-0.00016601,0.00014166
 ,-0.00020803,-0.00074933,-0.00207208,0.00009140,-0.00049143,0.00202139
 ,0.00011118,0.00106357,0.00028908,-0.00002495,0.00299036,-0.00129665,0
 .00023120,-0.00726390,-0.01278557,0.00047792,-0.06293527,-0.33573601,0
 .00764557,-0.00011752,-0.00018301,0.00000914,-0.00006250,-0.00008909,0
 .00008063,0.00006188,0.00004555,-0.00001966,0.00000065,-0.00008523,0.0
 0000577,-0.00008199,0.00002227,-0.00001300,0.00009703,0.00006923,0.000
 00417,-0.00036543,-0.00018720,-0.00015293,-0.00004397,-0.00004011,-0.0
 0002796,-0.00045175,-0.00064970,0.00000627,-0.00013343,0.00081621,-0.0
 0013919,0.06875451,0.34981903,0.00028735,-0.00111138,-0.00063407,0.000
 00874,0.00008007,-0.00175512,-0.00008146,-0.00030378,0.00147728,-0.000
 18945,0.00035986,0.00755850,0.00015113,-0.00003683,-0.00106442,-0.0001
 1791,0.00010176,0.00747108,0.00011271,0.00053017,0.00540042,0.00194483
 ,0.00788886,-0.03820606,-0.00000903,0.00000272,0.00072095,-0.00000370,
 0.00002388,0.00040900,0.00001538,-0.00001156,-0.00012092,0.00001220,0.
 00001291,-0.00005653,0.00002304,-0.00002123,-0.00009284,-0.00001630,-0
 .00002569,-0.00033395,-0.00020241,0.00096972,-0.00046459,-0.00000137,-
 0.00002685,-0.00102813,0.00000758,-0.00001293,-0.00051981,-0.00001281,
 -0.00013259,-0.00411075,-0.00192888,-0.00826364,0.02536487,0.00025870,
 -0.00027130,-0.00009020,-0.00093624,0.00270336,-0.00042429,0.00009763,
 0.00019298,-0.00000943,-0.00029570,0.00149201,-0.00003419,-0.00031646,
 -0.00034127,0.00001271,-0.00002550,0.00014650,0.00001916,0.00001959,-0
 .00007622,-0.00001987,-0.00010697,-0.00016107,0.00004068,-0.00442297,-
 0.00201922,-0.00067781,-0.00985299,0.02628884,-0.00106935,-0.12368186,
 0.12131933,-0.00882833,0.01316335,-0.01504507,0.00085235,-0.00154234,-
 0.00347337,-0.00052523,-0.00036809,-0.00063898,0.00004797,0.00077601,-
 0.00084649,0.00039595,0.00001439,-0.00000166,-0.00000139,-0.00004178,-
 0.00002081,-0.00000477,0.00001097,-0.00001781,0.00000141,-0.00004048,-
 0.00000322,-0.00000137,0.12646262,0.00023527,-0.00016426,0.00013051,-0
 .00012078,0.00074656,-0.00028568,0.00012445,-0.00000996,0.00008434,0.0
 0007672,0.00023103,0.00002313,-0.00019051,-0.00004603,-0.00004959,0.00
 006463,0.00008358,0.00001242,0.00003302,-0.00010019,-0.00002733,-0.000
 09544,-0.00001774,0.00002638,-0.00120571,0.00158642,0.00023556,-0.0013
 1838,0.00522899,0.00002394,0.11952282,-0.28386744,0.01338510,0.0145475
 5,-0.01534465,0.00126433,-0.00320842,-0.00307064,0.00017865,-0.0011986
 4,-0.00014182,-0.00009049,0.00051725,-0.00023506,-0.00013544,0.0000101
 6,-0.00000817,0.00000319,-0.00000925,-0.00000164,0.00000669,0.00000322
 ,-0.00000454,0.00000143,-0.00000675,0.00000346,-0.00000060,-0.12868848
 ,0.29487007,0.00023296,-0.00104503,-0.00094685,0.00013293,0.00006559,-
 0.00174329,0.00002260,0.00015020,0.00036550,-0.00004667,0.00009341,0.0
 0075300,-0.00002558,-0.00002951,-0.00036012,0.00000348,0.00000703,-0.0
 0007542,0.00000283,-0.00000237,-0.00007456,0.00001428,-0.00002906,-0.0
 0009475,-0.00041436,0.00000011,0.00748059,-0.00060676,0.00100654,0.001
 38036,-0.00889303,0.01436384,-0.03841333,0.00017087,-0.00050698,0.0052
 1189,-0.00035812,-0.00008258,0.00745632,-0.00001105,-0.00010638,-0.001
 05396,-0.00012727,0.00091978,-0.00046661,0.00000017,0.00000029,0.00003
 783,-0.00000450,0.,0.00007342,0.00000294,-0.00000223,0.00002200,-0.000
 00319,-0.00000119,0.00003784,0.01014220,-0.01454706,0.02595204,-0.0000
 3335,-0.00008013,-0.00009644,0.00007562,0.00044514,-0.00005618,-0.0000
 5745,-0.00016537,-0.00003497,-0.00008580,-0.00003267,0.00002624,-0.000
 00158,0.00004746,-0.00000215,-0.00001423,0.00001628,0.00001014,0.00000
 301,0.00002229,-0.00000288,0.00004065,0.00004358,0.00003940,0.00057358
 ,0.00034321,0.00007294,0.00042953,-0.00236967,-0.00023703,-0.00928520,
 0.00200888,-0.00070761,-0.35172918,0.00301461,-0.01645256,-0.00838961,
 -0.00211387,-0.00056816,0.00046529,0.00202653,-0.00043166,-0.00001753,
 -0.00011123,0.00006883,0.00000900,-0.00000089,-0.00000291,0.00000170,-
 0.00000024,-0.00000104,-0.00000890,0.00000566,-0.00000638,0.00000698,-
 0.00000102,-0.00000397,0.00051357,0.00005760,0.00023426,0.36735880,-0.
 00002168,-0.00020646,-0.00024848,-0.00093165,0.00073007,-0.00007347,-0
 .00050267,-0.00049517,-0.00000105,-0.00017863,0.00006929,-0.00002807,0
 .00008809,-0.00003500,0.00001156,-0.00010505,-0.00003436,-0.00000568,-
 0.00007882,0.00009715,0.00000172,0.00011116,0.00023570,-0.00001471,-0.
 00007491,-0.00154195,-0.00001320,-0.00257697,-0.00371474,0.00013548,-0
 .02820121,0.00304891,-0.00155829,0.00328395,-0.05875803,0.00062145,0.0
 2824184,0.00414523,0.00145866,0.00257472,-0.00452553,0.00032146,0.0000
 4927,-0.00028370,0.00022785,-0.00005258,0.00002979,-0.00000155,0.00000
 237,-0.00000110,0.00000075,-0.00001554,0.00002753,0.00000150,0.0000208
 6,0.00000045,-0.00000073,0.00040418,0.00097029,-0.00008247,-0.00299482
 ,0.05930498,-0.00000240,0.00006067,-0.00001356,0.00000622,0.00002935,0
 .00101488,-0.00004128,-0.00000749,0.00010403,0.00001327,-0.00000536,-0
 .00062003,-0.00001067,0.00000367,0.00004633,0.00000609,0.00000295,-0.0
 0010688,0.00000429,-0.00000396,-0.00000239,-0.00000568,-0.00000500,-0.
 00040074,0.00010770,0.00019796,-0.00097438,-0.00001410,-0.00006402,0.0
 0639419,-0.00042908,-0.00005219,0.00376659,-0.01655455,0.00086125,-0.0
 4004314,-0.00100734,-0.00029478,0.00385118,-0.00041077,0.00031014,0.00
 738667,0.00003787,-0.00003487,-0.00003217,0.00000045,0.,0.00004568,-0.
 00000001,0.00000107,0.00000970,-0.00000092,0.00000287,0.00010263,0.,0.
 00000102,0.00002166,0.00027550,-0.00016982,-0.00405620,0.01789081,-0.0
 0070461,0.02772067,0.00008513,0.00003003,0.00000587,-0.00042922,-0.000
 08804,0.00001915,-0.00043013,0.00011341,0.00003175,0.00006235,-0.00133
 613,-0.00000882,0.00003743,-0.00007794,0.00000429,-0.00003019,0.000024
 92,-0.00000486,-0.00000658,0.00001667,0.00000475,0.00004305,-0.0001824
 2,-0.00000636,-0.00559604,0.00037426,-0.00045135,-0.00070956,0.0011392
 8,-0.00009094,-0.00081448,0.00381409,-0.00048109,0.01227428,0.01514322
 ,0.00012757,-0.13851330,-0.12902663,-0.00250691,-0.01099873,-0.0266200
 3,-0.00041860,0.00008886,-0.00001769,0.00004080,-0.00000806,0.00000688
 ,-0.00000168,-0.00001927,-0.00000899,0.00000081,0.00000201,-0.00000141
 ,0.00000021,-0.00004725,-0.00000162,-0.00000059,0.00050712,0.00078340,
 0.00003756,0.00057107,-0.00028346,0.00023386,0.14301628,0.00002645,0.0
 0008605,0.00003930,-0.00032448,-0.00037164,-0.00002428,0.00018878,-0.0
 0005164,0.00002285,0.00022397,0.00031693,-0.00000032,-0.00006638,0.000
 01780,-0.00000326,0.00004617,0.00002906,0.00000457,0.00000987,-0.00007
 295,0.00000062,-0.00009775,0.00004687,-0.00001017,0.00135135,0.0013833
 7,0.00011741,0.00153261,0.00048082,0.00003136,0.00260936,-0.00364862,0
 .00032534,-0.01511227,-0.01649263,-0.00042153,-0.12910370,-0.27146379,
 -0.00257043,0.00349721,0.00613375,0.00016350,0.00000209,0.00010588,-0.
 00001673,0.00000518,0.00000091,0.00000027,0.00000289,0.00000300,-0.000
 00084,0.00000119,-0.00000165,-0.00000077,0.00000921,0.00000229,0.00000
 364,-0.00076398,-0.00075708,-0.00004173,0.00002460,0.00076320,-0.00007
 872,0.13608627,0.28296774,-0.00002964,-0.00034869,-0.00019385,0.000013
 14,0.00003360,-0.00103277,-0.00003630,-0.00001210,-0.00001463,0.000053
 78,-0.00006764,-0.00013830,-0.00002027,-0.00000954,0.00002791,0.000009
 79,0.00001544,0.00007766,0.00000559,-0.00001688,-0.00010487,-0.0000122
 8,-0.00001162,-0.00001994,-0.00055045,0.00003071,0.00732627,0.00001587
 ,0.00003612,-0.00009379,-0.00052645,0.00036302,0.00737549,0.00048139,0
 .00114819,0.00533666,-0.00254997,-0.00270086,-0.04325145,-0.00061970,-
 0.00120198,0.00516750,0.00005862,0.00030325,-0.00001084,0.00000060,-0.
 00000153,-0.00000368,-0.00000040,-0.00000188,-0.00000953,0.00000017,-0
 .00000073,0.00000893,-0.00000250,0.00000155,0.00007399,0.00005811,0.00
 003630,-0.00048914,0.00024429,-0.00008963,-0.00397792,0.00330546,0.002
 51068,0.02790369,-0.00038333,-0.00013661,-0.00027743,0.00139485,-0.000
 79254,-0.00002013,0.00006047,0.00012162,-0.00003688,0.00022486,0.00083
 999,0.00014905,0.00019601,-0.00057944,0.00002220,-0.00006251,0.0002578
 0,-0.00000321,0.00004761,-0.00001149,0.00001478,0.00001438,0.00018467,
 -0.00000995,0.01246353,-0.01579103,0.00032384,-0.00098997,-0.00299963,
 -0.00026353,-0.00095455,-0.00077052,0.00002542,-0.00543572,-0.00083782
 ,-0.00048730,-0.00890831,0.02832427,-0.00061861,-0.12173892,0.11879745
 ,-0.00352761,-0.00048798,-0.00032059,0.00029280,-0.00111450,0.00000712
 ,-0.00005514,-0.00000435,-0.00000703,-0.00000388,-0.00000299,0.0000437
 3,-0.00000502,0.00001480,-0.00000539,-0.00000396,0.00007734,0.00008174
 ,0.00004262,-0.00039675,0.00131833,-0.00007139,0.00091971,-0.00018339,
 0.00017563,0.12510225,-0.00033452,-0.00015085,-0.00024601,0.00168237,-
 0.00038272,0.00009251,-0.00031142,-0.00008696,-0.00006558,0.00086206,0
 .00072730,-0.00005944,-0.00017334,-0.00034814,0.00002230,-0.00025808,0
 .00022275,-0.00000206,0.00001315,0.00017707,-0.00000009,0.00026363,0.0
 0009710,0.00000987,0.01304224,-0.01803094,0.00061060,-0.00313998,-0.00
 222237,-0.00009235,-0.00049101,0.00028937,-0.00001101,-0.00084383,0.00
 132153,-0.00003835,-0.00211139,0.00453210,-0.00006128,0.12033794,-0.28
 622697,0.00559099,-0.00045664,-0.00031187,0.00021477,-0.00043884,0.000
 51203,-0.00001145,-0.00000741,-0.00000245,-0.00000183,-0.00000836,0.00
 004190,-0.00000055,0.00000850,-0.00000905,-0.00000594,0.00007699,-0.00
 000449,0.00000011,-0.00019543,0.00010827,-0.00002976,0.00011787,0.0005
 2258,-0.00000033,-0.12758664,0.29918502,0.00027465,0.00023681,0.000056
 24,-0.00010585,-0.00009119,0.00103485,0.00004975,-0.00003793,-0.000110
 11,0.00003665,-0.00001147,-0.00379890,-0.00003881,-0.00001613,-0.00013
 285,0.00002982,0.00003530,-0.00014202,0.00001334,-0.00003263,0.0000388
 2,-0.00003381,0.00001570,0.00009295,0.00010515,-0.00092312,0.00355021,
 -0.00039831,0.00022928,0.00674262,0.00021482,0.00009377,-0.00111359,-0
 .00051329,-0.00012307,0.00742848,-0.00088497,0.00112315,0.00419882,-0.
 00299128,0.00576017,-0.03917904,-0.00029323,-0.00024786,-0.00009825,-0
 .00004927,0.00001037,0.00069358,-0.00000060,-0.00000067,-0.00000101,0.
 00000150,0.00000172,0.00004750,-0.00000035,0.00000051,0.00003670,0.000
 08208,-0.00002987,-0.00102614,0.00000576,0.00001365,-0.00026113,0.0001
 7265,-0.00005834,-0.00394162,0.00429831,-0.00595651,0.02584597,-0.1679
 6685,0.23510473,0.01222240,0.00116632,-0.00099134,0.00086700,0.0007513
 9,0.00112771,0.00101363,-0.00097051,-0.00024587,0.00032040,0.00015436,
 0.00006364,-0.00005829,0.00002096,0.00001340,0.00007471,-0.00005013,-0
 .00015899,-0.00000823,0.00033918,0.00027458,-0.00002214,0.00010861,0.0
 0012131,-0.00015075,-0.00014630,-0.00095362,-0.00233901,0.00074596,-0.
 00058092,0.00005636,-0.00028968,-0.00002399,0.00036346,0.00018183,-0.0
 0017055,-0.00004136,-0.00055927,-0.00026925,0.00024254,-0.00136638,-0.
 00072975,-0.00162198,-0.00002163,0.00000285,-0.00005922,-0.00000764,-0
 .00001140,-0.00001799,-0.00000853,0.00000748,0.00000471,-0.00016966,-0
 .00002309,0.00001027,-0.00026992,-0.00001547,-0.00054916,-0.00002921,-
 0.00007678,-0.00002787,-0.00000448,0.00003473,-0.00007450,-0.00003594,
 -0.00004786,0.00002529,0.16842754,0.22810375,-0.32905152,-0.03035164,0
 .00589102,-0.01126175,-0.01027761,0.00012660,0.00138729,0.00121665,-0.
 00078975,-0.00006760,-0.00019698,0.00012344,0.00006926,-0.00000145,-0.
 00005808,0.00006509,0.00003015,-0.00004905,-0.00020810,0.00002273,-0.0
 0006384,0.00046139,-0.00009000,0.00106314,-0.00018703,-0.00000865,-0.0
 0084817,0.00004910,0.00039971,-0.00034181,0.00019479,-0.00020351,-0.00
 001725,0.00006013,0.00008381,0.00012752,-0.00001267,-0.00000841,-0.000
 27078,0.00006627,-0.00000762,-0.00032094,-0.00109085,0.00478015,-0.000
 03344,0.00002510,0.00000898,-0.00000541,-0.00001010,-0.00002374,-0.000
 02615,0.00005673,0.00000231,0.00004702,0.00005404,-0.00001984,-0.00025
 524,0.00005332,-0.00013031,0.00000951,0.00006518,-0.00002036,-0.000005
 94,-0.00000025,-0.00001545,0.00004539,0.00003978,0.00000834,-0.2324515
 4,0.33924239,-0.00955073,0.00204913,-0.02808187,0.02256897,-0.04139590
 ,-0.01141147,-0.00089886,-0.00201494,-0.00375046,0.00074925,-0.0001423
 2,-0.00071237,0.00013995,-0.00023997,0.00050279,-0.00010262,-0.0000658
 4,-0.00010170,0.00006650,-0.00011601,0.00044093,-0.00025179,-0.0001400
 2,-0.00006078,0.00075734,-0.00011273,-0.00038799,-0.00059217,0.0007623
 7,-0.00069817,-0.00013018,-0.00011313,-0.00010815,-0.00007446,0.000175
 84,0.00000451,0.00014248,0.00003441,0.00000244,-0.00023808,0.00006797,
 0.00011734,-0.00240215,0.00644694,0.00315758,0.00006875,-0.00003699,0.
 00012468,-0.00000584,0.00001394,-0.00007557,0.00001552,-0.00000228,0.0
 0002249,0.00017320,0.00002607,-0.00018511,-0.00024189,-0.00007607,0.00
 002957,0.00001125,0.00002786,0.00002436,-0.00001355,0.00000759,-0.0000
 1578,0.00003939,0.00004136,0.00003794,-0.01023029,0.03480272,0.0411247
 9\\-0.00000401,-0.00000381,-0.00001453,0.00000408,-0.00000453,0.000020
 45,0.00000111,-0.00000898,0.00000105,0.00001317,0.00000803,0.00000124,
 0.00000478,-0.00000004,-0.00000026,-0.00000154,0.00000050,-0.00000178,
 -0.00000029,0.00000279,-0.00000139,-0.00000346,0.00000253,0.00000020,-
 0.00001683,-0.00000347,-0.00000071,0.00000917,-0.00000883,-0.00000524,
 -0.00000392,0.00000254,0.00000383,-0.00000044,-0.00000017,0.00000207,0
 .00000002,0.00000141,-0.00000015,0.00000302,0.00000169,0.00000297,-0.0
 0000577,0.00000963,-0.00000604,0.00000083,0.00000077,-0.00000002,0.000
 00059,0.00000085,-0.00000055,-0.00000032,0.00000024,-0.00000195,-0.000
 00038,0.00000009,-0.00000236,-0.00000159,-0.00000171,-0.00000066,-0.00
 000003,-0.00000132,0.00000157,0.00000095,-0.00000049,0.00000299,0.0000
 0194,0.00000055,0.00000072,-0.00000106,0.00000170,-0.00000144\\\@


 THERE IS MUCH PLEASURE TO BE GAINED FROM USELESS KNOWLEDGE

                                       -- BERTRAND RUSSELL
 Job cpu time:       0 days  2 hours 18 minutes 23.7 seconds.
 Elapsed time:       0 days  0 hours  5 minutes 47.6 seconds.
 File lengths (MBytes):  RWF=    370 Int=      0 D2E=      0 Chk=     14 Scr=      1
 Normal termination of Gaussian 16 at Sun Oct 13 21:55:49 2019.
real 959.72
user 22673.77
sys 38.11
Machine:
brown-a426
brown-a426
brown-a426
brown-a426
brown-a426
brown-a426
brown-a426
brown-a426
brown-a426
brown-a426
brown-a426
brown-a426
brown-a426
brown-a426
brown-a426
brown-a426
brown-a426
brown-a426
brown-a426
brown-a426
brown-a426
brown-a426
brown-a426
brown-a426
