Title Card Required                                                     
Freq      RM062X                                                      6-311++G(d,p)       
Number of atoms                            I               11
Info1-9                                    I   N=           9
          32          32        1002           0           0         100
           6          18        -502
Full Title                                 C   N=           2
Title Card Required     
Route                                      C   N=           6
#P opt freq m062x/6-311++g(d,p) geom=connectivity temperatur
e=0.001     
Charge                                     I                0
Multiplicity                               I                1
Number of electrons                        I               50
Number of alpha electrons                  I               25
Number of beta electrons                   I               25
Number of basis functions                  I              160
Number of independent functions            I              160
Number of point charges in /Mol/           I                0
Number of translation vectors              I                0
Atomic numbers                             I   N=          11
           6          16           8           6           8           1
           1           1           1           1           1
Nuclear charges                            R   N=          11
  6.00000000E+00  1.60000000E+01  8.00000000E+00  6.00000000E+00  8.00000000E+00
  1.00000000E+00  1.00000000E+00  1.00000000E+00  1.00000000E+00  1.00000000E+00
  1.00000000E+00
Current cartesian coordinates              R   N=          33
  2.65903869E+00 -1.72827911E+00  8.29050441E-04 -1.43062827E-06  3.57067680E-01
 -2.97390494E-05 -8.75765792E-04  1.72190977E+00  2.38711751E+00 -2.65894869E+00
 -1.72839429E+00 -4.65669406E-04  7.70327078E-04  1.72130883E+00 -2.38749827E+00
  2.61312817E+00 -2.87507290E+00  1.70786231E+00  2.61376274E+00 -2.87519384E+00
 -1.70618028E+00  4.31816329E+00 -5.08919499E-01  9.01200004E-04 -2.61354723E+00
 -2.87499061E+00  1.70674873E+00 -4.31813292E+00 -5.09114563E-01 -6.95521045E-04
 -2.61304763E+00 -2.87549981E+00 -1.70729476E+00
Number of symbols in /Mol/                 I                0
Force Field                                I                0
Atom Types                                 C   N=          11
                                                            
                                                            
            
Int Atom Types                             I   N=          11
           0           0           0           0           0           0
           0           0           0           0           0
MM charges                                 R   N=          11
  0.00000000E+00  0.00000000E+00  0.00000000E+00  0.00000000E+00  0.00000000E+00
  0.00000000E+00  0.00000000E+00  0.00000000E+00  0.00000000E+00  0.00000000E+00
  0.00000000E+00
Integer atomic weights                     I   N=          11
          12          32          16          12          16           1
           1           1           1           1           1
Real atomic weights                        R   N=          11
  1.20000000E+01  3.19720718E+01  1.59949146E+01  1.20000000E+01  1.59949146E+01
  1.00782504E+00  1.00782504E+00  1.00782504E+00  1.00782504E+00  1.00782504E+00
  1.00782504E+00
Atom fragment info                         I   N=          11
           0           0           0           0           0           0
           0           0           0           0           0
Atom residue num                           I   N=          11
           0           0           0           0           0           0
           0           0           0           0           0
Nuclear spins                              I   N=          11
           0           0           0           0           0           1
           1           1           1           1           1
Nuclear ZEff                               R   N=          11
 -3.60000000E+00 -1.36000000E+01 -5.60000000E+00 -3.60000000E+00 -5.60000000E+00
 -1.00000000E+00 -1.00000000E+00 -1.00000000E+00 -1.00000000E+00 -1.00000000E+00
 -1.00000000E+00
Nuclear ZNuc                               R   N=          11
  6.00000000E+00  1.60000000E+01  8.00000000E+00  6.00000000E+00  8.00000000E+00
  1.00000000E+00  1.00000000E+00  1.00000000E+00  1.00000000E+00  1.00000000E+00
  1.00000000E+00
Nuclear QMom                               R   N=          11
  0.00000000E+00  0.00000000E+00  0.00000000E+00  0.00000000E+00  0.00000000E+00
  0.00000000E+00  0.00000000E+00  0.00000000E+00  0.00000000E+00  0.00000000E+00
  0.00000000E+00
Nuclear GFac                               R   N=          11
  0.00000000E+00  0.00000000E+00  0.00000000E+00  0.00000000E+00  0.00000000E+00
  2.79284600E+00  2.79284600E+00  2.79284600E+00  2.79284600E+00  2.79284600E+00
  2.79284600E+00
MicOpt                                     I   N=          11
          -1          -1          -1          -1          -1          -1
          -1          -1          -1          -1          -1
Number of residues                         I                0
Number of secondary structures             I                0
Redundant internal dimensions              I   N=           4
          46          10          18          18
Redundant internal coordinate indices      I   N=         184
           1           2           0           0           1           6
           0           0           1           7           0           0
           1           8           0           0           2           3
           0           0           2           4           0           0
           2           5           0           0           4           9
           0           0           4          10           0           0
           4          11           0           0           2           1
           6           0           2           1           7           0
           2           1           8           0           6           1
           7           0           6           1           8           0
           7           1           8           0           1           2
           3           0           1           2           4           0
           1           2           5           0           3           2
           4           0           3           2           5           0
           4           2           5           0           2           4
           9           0           2           4          10           0
           2           4          11           0           9           4
          10           0           9           4          11           0
          10           4          11           0           6           1
           2           3           6           1           2           4
           6           1           2           5           7           1
           2           3           7           1           2           4
           7           1           2           5           8           1
           2           3           8           1           2           4
           8           1           2           5           1           2
           4           9           1           2           4          10
           1           2           4          11           3           2
           4           9           3           2           4          10
           3           2           4          11           5           2
           4           9           5           2           4          10
           5           2           4          11
Redundant internal coordinates             R   N=          46
  3.37922570E+00  2.05698963E+00  2.05702313E+00  2.05901246E+00  2.74977575E+00
  3.37922363E+00  2.74975645E+00  2.05701857E+00  2.05901321E+00  2.05699381E+00
  1.90359837E+00  1.90344169E+00  1.84273684E+00  1.95770302E+00  1.92635773E+00
  1.92618571E+00  1.88213059E+00  1.81142496E+00  1.88195990E+00  1.88197231E+00
  2.10306955E+00  1.88209239E+00  1.90342140E+00  1.84274149E+00  1.90361153E+00
  1.92618648E+00  1.95770409E+00  1.92635845E+00  9.21757548E-01 -1.07165408E+00
 -3.06513066E+00  3.06513682E+00  1.07172519E+00 -9.21751389E-01 -1.14828598E+00
  3.14148770E+00  1.14801111E+00  1.07168687E+00  3.14144255E+00 -1.07168920E+00
 -9.21837971E-01  1.14791771E+00 -3.06521403E+00  3.06506868E+00 -1.14836094E+00
  9.21692618E-01
ZRed-IntVec                                I   N=          46
           0           0           0           0           0           0
           0           0           0           0           0           0
           0           0           0           0           0           0
           0           0           0           0           0           0
           0           0           0           0           0           0
           0           0           0           0           0           0
           0           0           0           0           0           0
           0           0           0           0
ZRed-FPVec                                 R   N=          46
  0.00000000E+00  0.00000000E+00  0.00000000E+00  0.00000000E+00  0.00000000E+00
  0.00000000E+00  0.00000000E+00  0.00000000E+00  0.00000000E+00  0.00000000E+00
  0.00000000E+00  0.00000000E+00  0.00000000E+00  0.00000000E+00  0.00000000E+00
  0.00000000E+00  0.00000000E+00  0.00000000E+00  0.00000000E+00  0.00000000E+00
  0.00000000E+00  0.00000000E+00  0.00000000E+00  0.00000000E+00  0.00000000E+00
  0.00000000E+00  0.00000000E+00  0.00000000E+00  0.00000000E+00  0.00000000E+00
  0.00000000E+00  0.00000000E+00  0.00000000E+00  0.00000000E+00  0.00000000E+00
  0.00000000E+00  0.00000000E+00  0.00000000E+00  0.00000000E+00  0.00000000E+00
  0.00000000E+00  0.00000000E+00  0.00000000E+00  0.00000000E+00  0.00000000E+00
  0.00000000E+00
ZRed-Constraint1                           R   N=          46
  3.37922570E+00  2.05698963E+00  2.05702313E+00  2.05901246E+00  2.74977575E+00
  3.37922363E+00  2.74975645E+00  2.05701857E+00  2.05901321E+00  2.05699381E+00
  1.90359837E+00  1.90344169E+00  1.84273684E+00  1.95770302E+00  1.92635773E+00
  1.92618571E+00  1.88213059E+00  1.81142496E+00  1.88195990E+00  1.88197231E+00
  2.10306955E+00  1.88209239E+00  1.90342140E+00  1.84274149E+00  1.90361153E+00
  1.92618648E+00  1.95770409E+00  1.92635845E+00  9.21757548E-01 -1.07165408E+00
 -3.06513066E+00  3.06513682E+00  1.07172519E+00 -9.21751389E-01 -1.14828598E+00
  3.14148770E+00  1.14801111E+00  1.07168687E+00  3.14144255E+00 -1.07168920E+00
 -9.21837971E-01  1.14791771E+00 -3.06521403E+00  3.06506868E+00 -1.14836094E+00
  9.21692618E-01
ZRed-Constraint2                           R   N=          46
  3.45569175E+00  2.05989373E+00  2.05968179E+00  2.05971935E+00  3.03056677E+00
  3.45555917E+00  3.03038205E+00  2.05986254E+00  2.05972237E+00  2.05984200E+00
  1.91056299E+00  1.91068099E+00  1.91062077E+00  1.91062298E+00  1.91058705E+00
  1.91072463E+00  1.91245215E+00  1.90938274E+00  1.91247312E+00  1.91254569E+00
  1.90437785E+00  1.91256868E+00  1.91058404E+00  1.91060672E+00  1.91064175E+00
  1.91065918E+00  1.91062916E+00  1.91067858E+00  9.75981299E-01 -1.12110459E+00
  3.06495376E+00  3.07035007E+00  9.73264175E-01 -1.12386278E+00 -1.11830659E+00
  3.06779282E+00  9.70665869E-01  9.85088301E-01  3.07946881E+00 -1.10927690E+00
 -1.11194032E+00  9.82440187E-01  3.07687979E+00  3.08215675E+00 -1.10664805E+00
  9.87791553E-01
SymInf integers                            I   N=          26
           1           1           1           1           1           0
           0           0           0           0           0           0
           0           0           0           0           0           0
           0           0           0           0           0           0
           0           0
RotTr to input orientation                 R   N=          12
 -8.79406891E-01  4.60822028E-01  1.19526481E-01 -4.40479585E-01 -6.92348399E-01
 -5.71516779E-01 -1.80613554E-01 -5.55244768E-01  8.11838649E-01  2.04439858E-01
  1.38280533E-01 -4.53011919E-01
Number of contracted shells                I               67
Number of primitive shells                 I              118
Pure/Cartesian d shells                    I                0
Pure/Cartesian f shells                    I                0
Highest angular momentum                   I                2
Largest degree of contraction              I                6
Shell types                                I   N=          67
           0          -1          -1          -1          -1          -2
           0           0           0           0           0           0
          -1           1           1           1           1           1
          -2           0          -1          -1          -1          -1
          -2           0          -1          -1          -1          -1
          -2           0          -1          -1          -1          -1
          -2           0           0           0           0           1
           0           0           0           0           1           0
           0           0           0           1           0           0
           0           0           1           0           0           0
           0           1           0           0           0           0
           1
Number of primitives per shell             I   N=          67
           6           3           1           1           1           1
           6           3           1           1           1           1
           1           4           2           1           1           1
           1           6           3           1           1           1
           1           6           3           1           1           1
           1           6           3           1           1           1
           1           3           1           1           1           1
           3           1           1           1           1           3
           1           1           1           1           3           1
           1           1           1           3           1           1
           1           1           3           1           1           1
           1
Shell to atom map                          I   N=          67
           1           1           1           1           1           1
           2           2           2           2           2           2
           2           2           2           2           2           2
           2           3           3           3           3           3
           3           4           4           4           4           4
           4           5           5           5           5           5
           5           6           6           6           6           6
           7           7           7           7           7           8
           8           8           8           8           9           9
           9           9           9          10          10          10
          10          10          11          11          11          11
          11
Primitive exponents                        R   N=         118
  4.56324000E+03  6.82024000E+02  1.54973000E+02  4.44553000E+01  1.30290000E+01
  1.82773000E+00  2.09642000E+01  4.80331000E+00  1.45933000E+00  4.83456000E-01
  1.45585000E-01  4.38000000E-02  6.26000000E-01  9.34134000E+04  1.39617000E+04
  3.16991000E+03  9.02456000E+02  2.97158000E+02  1.08702000E+02  1.08702000E+02
  4.31553000E+01  1.81079000E+01  5.56009000E+00  2.13183000E+00  4.20403000E-01
  1.36045000E-01  4.05000000E-02  4.95040000E+02  1.17221000E+02  3.77749000E+01
  1.40584000E+01  5.56574000E+00  2.26297000E+00  8.07994000E-01  2.77460000E-01
  7.71410000E-02  6.50000000E-01  8.58850000E+03  1.29723000E+03  2.99296000E+02
  8.73771000E+01  2.56789000E+01  3.74004000E+00  4.21175000E+01  9.62837000E+00
  2.85332000E+00  9.05661000E-01  2.55611000E-01  8.45000000E-02  1.29200000E+00
  4.56324000E+03  6.82024000E+02  1.54973000E+02  4.44553000E+01  1.30290000E+01
  1.82773000E+00  2.09642000E+01  4.80331000E+00  1.45933000E+00  4.83456000E-01
  1.45585000E-01  4.38000000E-02  6.26000000E-01  8.58850000E+03  1.29723000E+03
  2.99296000E+02  8.73771000E+01  2.56789000E+01  3.74004000E+00  4.21175000E+01
  9.62837000E+00  2.85332000E+00  9.05661000E-01  2.55611000E-01  8.45000000E-02
  1.29200000E+00  3.38650000E+01  5.09479000E+00  1.15879000E+00  3.25840000E-01
  1.02741000E-01  3.60000000E-02  7.50000000E-01  3.38650000E+01  5.09479000E+00
  1.15879000E+00  3.25840000E-01  1.02741000E-01  3.60000000E-02  7.50000000E-01
  3.38650000E+01  5.09479000E+00  1.15879000E+00  3.25840000E-01  1.02741000E-01
  3.60000000E-02  7.50000000E-01  3.38650000E+01  5.09479000E+00  1.15879000E+00
  3.25840000E-01  1.02741000E-01  3.60000000E-02  7.50000000E-01  3.38650000E+01
  5.09479000E+00  1.15879000E+00  3.25840000E-01  1.02741000E-01  3.60000000E-02
  7.50000000E-01  3.38650000E+01  5.09479000E+00  1.15879000E+00  3.25840000E-01
  1.02741000E-01  3.60000000E-02  7.50000000E-01
Contraction coefficients                   R   N=         118
  1.96665025E-03  1.52306019E-02  7.61269097E-02  2.60801033E-01  6.16462078E-01
  2.21006028E-01  1.14660081E-01  9.19999648E-01 -3.03068213E-03  1.00000000E+00
  1.00000000E+00  1.00000000E+00  1.00000000E+00  7.42999957E-04  5.79299966E-03
  2.99539983E-02  1.19027993E-01  3.68431979E-01  5.77298966E-01  1.43186060E-01
  6.24465262E-01  2.83366119E-01  1.00000000E+00  1.00000000E+00  1.00000000E+00
  1.00000000E+00  1.00000000E+00  8.30900251E-03  6.40240194E-02  2.77614084E-01
  7.45076225E-01  6.13711672E-01  4.43817763E-01  1.00000000E+00  1.00000000E+00
  1.00000000E+00  1.00000000E+00  1.89515008E-03  1.43859006E-02  7.07320031E-02
  2.40001011E-01  5.94797026E-01  2.80802012E-01  1.13889012E-01  9.20811101E-01
 -3.27447036E-03  1.00000000E+00  1.00000000E+00  1.00000000E+00  1.00000000E+00
  1.96665025E-03  1.52306019E-02  7.61269097E-02  2.60801033E-01  6.16462078E-01
  2.21006028E-01  1.14660081E-01  9.19999648E-01 -3.03068213E-03  1.00000000E+00
  1.00000000E+00  1.00000000E+00  1.00000000E+00  1.89515008E-03  1.43859006E-02
  7.07320031E-02  2.40001011E-01  5.94797026E-01  2.80802012E-01  1.13889012E-01
  9.20811101E-01 -3.27447036E-03  1.00000000E+00  1.00000000E+00  1.00000000E+00
  1.00000000E+00  2.54938145E-02  1.90373109E-01  8.52161486E-01  1.00000000E+00
  1.00000000E+00  1.00000000E+00  1.00000000E+00  2.54938145E-02  1.90373109E-01
  8.52161486E-01  1.00000000E+00  1.00000000E+00  1.00000000E+00  1.00000000E+00
  2.54938145E-02  1.90373109E-01  8.52161486E-01  1.00000000E+00  1.00000000E+00
  1.00000000E+00  1.00000000E+00  2.54938145E-02  1.90373109E-01  8.52161486E-01
  1.00000000E+00  1.00000000E+00  1.00000000E+00  1.00000000E+00  2.54938145E-02
  1.90373109E-01  8.52161486E-01  1.00000000E+00  1.00000000E+00  1.00000000E+00
  1.00000000E+00  2.54938145E-02  1.90373109E-01  8.52161486E-01  1.00000000E+00
  1.00000000E+00  1.00000000E+00  1.00000000E+00
P(S=P) Contraction coefficients            R   N=         118
  0.00000000E+00  0.00000000E+00  0.00000000E+00  0.00000000E+00  0.00000000E+00
  0.00000000E+00  4.02486927E-02  2.37593957E-01  8.15853851E-01  1.00000000E+00
  1.00000000E+00  1.00000000E+00  0.00000000E+00  0.00000000E+00  0.00000000E+00
  0.00000000E+00  0.00000000E+00  0.00000000E+00  0.00000000E+00  0.00000000E+00
  0.00000000E+00  0.00000000E+00  0.00000000E+00  0.00000000E+00  0.00000000E+00
  0.00000000E+00  1.00000000E+00  0.00000000E+00  0.00000000E+00  0.00000000E+00
  0.00000000E+00  0.00000000E+00  0.00000000E+00  0.00000000E+00  0.00000000E+00
  0.00000000E+00  0.00000000E+00  0.00000000E+00  0.00000000E+00  0.00000000E+00
  0.00000000E+00  0.00000000E+00  0.00000000E+00  3.65113974E-02  2.37152983E-01
  8.19701941E-01  1.00000000E+00  1.00000000E+00  1.00000000E+00  0.00000000E+00
  0.00000000E+00  0.00000000E+00  0.00000000E+00  0.00000000E+00  0.00000000E+00
  0.00000000E+00  4.02486927E-02  2.37593957E-01  8.15853851E-01  1.00000000E+00
  1.00000000E+00  1.00000000E+00  0.00000000E+00  0.00000000E+00  0.00000000E+00
  0.00000000E+00  0.00000000E+00  0.00000000E+00  0.00000000E+00  3.65113974E-02
  2.37152983E-01  8.19701941E-01  1.00000000E+00  1.00000000E+00  1.00000000E+00
  0.00000000E+00  0.00000000E+00  0.00000000E+00  0.00000000E+00  0.00000000E+00
  0.00000000E+00  0.00000000E+00  0.00000000E+00  0.00000000E+00  0.00000000E+00
  0.00000000E+00  0.00000000E+00  0.00000000E+00  0.00000000E+00  0.00000000E+00
  0.00000000E+00  0.00000000E+00  0.00000000E+00  0.00000000E+00  0.00000000E+00
  0.00000000E+00  0.00000000E+00  0.00000000E+00  0.00000000E+00  0.00000000E+00
  0.00000000E+00  0.00000000E+00  0.00000000E+00  0.00000000E+00  0.00000000E+00
  0.00000000E+00  0.00000000E+00  0.00000000E+00  0.00000000E+00  0.00000000E+00
  0.00000000E+00  0.00000000E+00  0.00000000E+00  0.00000000E+00  0.00000000E+00
  0.00000000E+00  0.00000000E+00  0.00000000E+00
Coordinates of each shell                  R   N=         201
  2.65903869E+00 -1.72827911E+00  8.29050441E-04  2.65903869E+00 -1.72827911E+00
  8.29050441E-04  2.65903869E+00 -1.72827911E+00  8.29050441E-04  2.65903869E+00
 -1.72827911E+00  8.29050441E-04  2.65903869E+00 -1.72827911E+00  8.29050441E-04
  2.65903869E+00 -1.72827911E+00  8.29050441E-04 -1.43062827E-06  3.57067680E-01
 -2.97390494E-05 -1.43062827E-06  3.57067680E-01 -2.97390494E-05 -1.43062827E-06
  3.57067680E-01 -2.97390494E-05 -1.43062827E-06  3.57067680E-01 -2.97390494E-05
 -1.43062827E-06  3.57067680E-01 -2.97390494E-05 -1.43062827E-06  3.57067680E-01
 -2.97390494E-05 -1.43062827E-06  3.57067680E-01 -2.97390494E-05 -1.43062827E-06
  3.57067680E-01 -2.97390494E-05 -1.43062827E-06  3.57067680E-01 -2.97390494E-05
 -1.43062827E-06  3.57067680E-01 -2.97390494E-05 -1.43062827E-06  3.57067680E-01
 -2.97390494E-05 -1.43062827E-06  3.57067680E-01 -2.97390494E-05 -1.43062827E-06
  3.57067680E-01 -2.97390494E-05 -8.75765792E-04  1.72190977E+00  2.38711751E+00
 -8.75765792E-04  1.72190977E+00  2.38711751E+00 -8.75765792E-04  1.72190977E+00
  2.38711751E+00 -8.75765792E-04  1.72190977E+00  2.38711751E+00 -8.75765792E-04
  1.72190977E+00  2.38711751E+00 -8.75765792E-04  1.72190977E+00  2.38711751E+00
 -2.65894869E+00 -1.72839429E+00 -4.65669406E-04 -2.65894869E+00 -1.72839429E+00
 -4.65669406E-04 -2.65894869E+00 -1.72839429E+00 -4.65669406E-04 -2.65894869E+00
 -1.72839429E+00 -4.65669406E-04 -2.65894869E+00 -1.72839429E+00 -4.65669406E-04
 -2.65894869E+00 -1.72839429E+00 -4.65669406E-04  7.70327078E-04  1.72130883E+00
 -2.38749827E+00  7.70327078E-04  1.72130883E+00 -2.38749827E+00  7.70327078E-04
  1.72130883E+00 -2.38749827E+00  7.70327078E-04  1.72130883E+00 -2.38749827E+00
  7.70327078E-04  1.72130883E+00 -2.38749827E+00  7.70327078E-04  1.72130883E+00
 -2.38749827E+00  2.61312817E+00 -2.87507290E+00  1.70786231E+00  2.61312817E+00
 -2.87507290E+00  1.70786231E+00  2.61312817E+00 -2.87507290E+00  1.70786231E+00
  2.61312817E+00 -2.87507290E+00  1.70786231E+00  2.61312817E+00 -2.87507290E+00
  1.70786231E+00  2.61376274E+00 -2.87519384E+00 -1.70618028E+00  2.61376274E+00
 -2.87519384E+00 -1.70618028E+00  2.61376274E+00 -2.87519384E+00 -1.70618028E+00
  2.61376274E+00 -2.87519384E+00 -1.70618028E+00  2.61376274E+00 -2.87519384E+00
 -1.70618028E+00  4.31816329E+00 -5.08919499E-01  9.01200004E-04  4.31816329E+00
 -5.08919499E-01  9.01200004E-04  4.31816329E+00 -5.08919499E-01  9.01200004E-04
  4.31816329E+00 -5.08919499E-01  9.01200004E-04  4.31816329E+00 -5.08919499E-01
  9.01200004E-04 -2.61354723E+00 -2.87499061E+00  1.70674873E+00 -2.61354723E+00
 -2.87499061E+00  1.70674873E+00 -2.61354723E+00 -2.87499061E+00  1.70674873E+00
 -2.61354723E+00 -2.87499061E+00  1.70674873E+00 -2.61354723E+00 -2.87499061E+00
  1.70674873E+00 -4.31813292E+00 -5.09114563E-01 -6.95521045E-04 -4.31813292E+00
 -5.09114563E-01 -6.95521045E-04 -4.31813292E+00 -5.09114563E-01 -6.95521045E-04
 -4.31813292E+00 -5.09114563E-01 -6.95521045E-04 -4.31813292E+00 -5.09114563E-01
 -6.95521045E-04 -2.61304763E+00 -2.87549981E+00 -1.70729476E+00 -2.61304763E+00
 -2.87549981E+00 -1.70729476E+00 -2.61304763E+00 -2.87549981E+00 -1.70729476E+00
 -2.61304763E+00 -2.87549981E+00 -1.70729476E+00 -2.61304763E+00 -2.87549981E+00
 -1.70729476E+00
Num ILSW                                   I              100
ILSW                                       I   N=         100
           0           0           0           0           2           0
           0           0           0           0        4336          -1
           5           0           0           0           2           0
           0           0           0           0           1           0
           1           0           0           0           0           0
           0           0      100000           0          -1           0
           0           0           0           0           0           0
           0           0           0           1           0           0
           0 -2000000000           1           0           0           0
           0           0           4          52           0           0
           0           0          55           0           0           0
           0           0           0          11           0           1
           0           0           0           0           0           0
           0           0           0           0           0           0
           0           0           0           0           0           0
           0           0           0           0           0           0
           0           0           0           0
Num RLSW                                   I               52
RLSW                                       R   N=          52
  1.00000000E+00  1.00000000E+00  1.00000000E+00  1.00000000E+00  5.40000000E-01
  0.00000000E+00  0.00000000E+00  1.00000000E+00  0.00000000E+00  0.00000000E+00
  0.00000000E+00  0.00000000E+00  1.00000000E+00  0.00000000E+00  0.00000000E+00
  0.00000000E+00  0.00000000E+00  1.00000000E+00  0.00000000E+00  0.00000000E+00
  0.00000000E+00  0.00000000E+00  1.00000000E+00  0.00000000E+00  0.00000000E+00
  0.00000000E+00  0.00000000E+00  1.00000000E+00  0.00000000E+00  0.00000000E+00
  0.00000000E+00  0.00000000E+00  1.00000000E+00  0.00000000E+00  0.00000000E+00
  0.00000000E+00  0.00000000E+00  0.00000000E+00  1.00000000E+00  1.00000000E+00
  0.00000000E+00  1.00000000E+00  0.00000000E+00  0.00000000E+00  0.00000000E+00
  0.00000000E+00  0.00000000E+00  0.00000000E+00  0.00000000E+00  0.00000000E+00
  0.00000000E+00  0.00000000E+00
MxBond                                     I                4
NBond                                      I   N=          11
           4           4           1           4           1           1
           1           1           1           1           1
IBond                                      I   N=          44
           2           6           7           8           1           3
           4           5           2           0           0           0
           2           9          10          11           2           0
           0           0           1           0           0           0
           1           0           0           0           1           0
           0           0           4           0           0           0
           4           0           0           0           4           0
           0           0
RBond                                      R   N=          44
  1.00000000E+00  1.00000000E+00  1.00000000E+00  1.00000000E+00  1.00000000E+00
  2.00000000E+00  1.00000000E+00  2.00000000E+00  2.00000000E+00  0.00000000E+00
  0.00000000E+00  0.00000000E+00  1.00000000E+00  1.00000000E+00  1.00000000E+00
  1.00000000E+00  2.00000000E+00  0.00000000E+00  0.00000000E+00  0.00000000E+00
  1.00000000E+00  0.00000000E+00  0.00000000E+00  0.00000000E+00  1.00000000E+00
  0.00000000E+00  0.00000000E+00  0.00000000E+00  1.00000000E+00  0.00000000E+00
  0.00000000E+00  0.00000000E+00  1.00000000E+00  0.00000000E+00  0.00000000E+00
  0.00000000E+00  1.00000000E+00  0.00000000E+00  0.00000000E+00  0.00000000E+00
  1.00000000E+00  0.00000000E+00  0.00000000E+00  0.00000000E+00
Virial Ratio                               R      2.001898138987970E+00
SCF Energy                                 R     -6.283586341295005E+02
Total Energy                               R     -6.283586341295005E+02
RMS Force                                  R      7.036498797732775E-06
RMS Density                                R      1.666686844391247E-09
NImag                                      I                0
Job Status                                 I                1
Nuclear derivative order                   I                2
External E-field                           R   N=          35
  0.00000000E+00  0.00000000E+00  0.00000000E+00  0.00000000E+00  0.00000000E+00
  0.00000000E+00  0.00000000E+00  0.00000000E+00  0.00000000E+00  0.00000000E+00
  0.00000000E+00  0.00000000E+00  0.00000000E+00  0.00000000E+00  0.00000000E+00
  0.00000000E+00  0.00000000E+00  0.00000000E+00  0.00000000E+00  0.00000000E+00
  0.00000000E+00  0.00000000E+00  0.00000000E+00  0.00000000E+00  0.00000000E+00
  0.00000000E+00  0.00000000E+00  0.00000000E+00  0.00000000E+00  0.00000000E+00
  0.00000000E+00  0.00000000E+00  0.00000000E+00  0.00000000E+00  0.00000000E+00
IOpCl                                      I                0
IROHF                                      I                0
Alpha Orbital Energies                     R   N=         160
 -9.01035159E+01 -1.96163897E+01 -1.96163773E+01 -1.05875151E+01 -1.05875052E+01
 -8.44757939E+00 -6.36950612E+00 -6.36876394E+00 -6.36875491E+00 -1.23996372E+00
 -1.12966867E+00 -9.06755460E-01 -8.52599584E-01 -6.93345212E-01 -5.92311348E-01