 Entering Gaussian System, Link 0=/apps/cent7/gaussian/g16-A.03/g16-haswell/g16/g16
 Initial command:
 /apps/cent7/gaussian/g16-A.03/g16-haswell/g16/l1.exe "/scratch/brown/finej/gaussian/Gau-112379.inp" -scrdir="/scratch/brown/finej/gaussian/"
 Entering Link 1 = /apps/cent7/gaussian/g16-A.03/g16-haswell/g16/l1.exe PID=    112380.
  
 Copyright (c) 1988,1990,1992,1993,1995,1998,2003,2009,2016,
            Gaussian, Inc.  All Rights Reserved.
  
 This is part of the Gaussian(R) 16 program.  It is based on
 the Gaussian(R) 09 system (copyright 2009, Gaussian, Inc.),
 the Gaussian(R) 03 system (copyright 2003, Gaussian, Inc.),
 the Gaussian(R) 98 system (copyright 1998, Gaussian, Inc.),
 the Gaussian(R) 94 system (copyright 1995, Gaussian, Inc.),
 the Gaussian 92(TM) system (copyright 1992, Gaussian, Inc.),
 the Gaussian 90(TM) system (copyright 1990, Gaussian, Inc.),
 the Gaussian 88(TM) system (copyright 1988, Gaussian, Inc.),
 the Gaussian 86(TM) system (copyright 1986, Carnegie Mellon
 University), and the Gaussian 82(TM) system (copyright 1983,
 Carnegie Mellon University). Gaussian is a federally registered
 trademark of Gaussian, Inc.
  
 This software contains proprietary and confidential information,
 including trade secrets, belonging to Gaussian, Inc.
  
 This software is provided under written license and may be
 used, copied, transmitted, or stored only in accord with that
 written license.
  
 The following legend is applicable only to US Government
 contracts under FAR:
  
                    RESTRICTED RIGHTS LEGEND
  
 Use, reproduction and disclosure by the US Government is
 subject to restrictions as set forth in subparagraphs (a)
 and (c) of the Commercial Computer Software - Restricted
 Rights clause in FAR 52.227-19.
  
 Gaussian, Inc.
 340 Quinnipiac St., Bldg. 40, Wallingford CT 06492
  
  
 ---------------------------------------------------------------
 Warning -- This program may not be used in any manner that
 competes with the business of Gaussian, Inc. or will provide
 assistance to any competitor of Gaussian, Inc.  The licensee
 of this program is prohibited from giving any competitor of
 Gaussian, Inc. access to this program.  By using this program,
 the user acknowledges that Gaussian, Inc. is engaged in the
 business of creating and licensing software in the field of
 computational chemistry and represents and warrants to the
 licensee that it is not a competitor of Gaussian, Inc. and that
 it will not use this program in any manner prohibited above.
 ---------------------------------------------------------------
  

 Cite this work as:
 Gaussian 16, Revision A.03,
 M. J. Frisch, G. W. Trucks, H. B. Schlegel, G. E. Scuseria, 
 M. A. Robb, J. R. Cheeseman, G. Scalmani, V. Barone, 
 G. A. Petersson, H. Nakatsuji, X. Li, M. Caricato, A. V. Marenich, 
 J. Bloino, B. G. Janesko, R. Gomperts, B. Mennucci, H. P. Hratchian, 
 J. V. Ortiz, A. F. Izmaylov, J. L. Sonnenberg, D. Williams-Young, 
 F. Ding, F. Lipparini, F. Egidi, J. Goings, B. Peng, A. Petrone, 
 T. Henderson, D. Ranasinghe, V. G. Zakrzewski, J. Gao, N. Rega, 
 G. Zheng, W. Liang, M. Hada, M. Ehara, K. Toyota, R. Fukuda, 
 J. Hasegawa, M. Ishida, T. Nakajima, Y. Honda, O. Kitao, H. Nakai, 
 T. Vreven, K. Throssell, J. A. Montgomery, Jr., J. E. Peralta, 
 F. Ogliaro, M. J. Bearpark, J. J. Heyd, E. N. Brothers, K. N. Kudin, 
 V. N. Staroverov, T. A. Keith, R. Kobayashi, J. Normand, 
 K. Raghavachari, A. P. Rendell, J. C. Burant, S. S. Iyengar, 
 J. Tomasi, M. Cossi, J. M. Millam, M. Klene, C. Adamo, R. Cammi, 
 J. W. Ochterski, R. L. Martin, K. Morokuma, O. Farkas, 
 J. B. Foresman, and D. J. Fox, Gaussian, Inc., Wallingford CT, 2016.
 
 ******************************************
 Gaussian 16:  ES64L-G16RevA.03 25-Dec-2016
                13-Oct-2019 
 ******************************************
 %chk=25.chk
 %nprocshared=24
 Will use up to   24 processors via shared memory.
 %mem=80GB
 -------------------------------------------------------------------
 #P opt freq m062x/6-311++g(d,p) geom=connectivity temperature=0.001
 -------------------------------------------------------------------
 1/18=20,19=15,26=3,38=1,57=2,112=-1000/1,3;
 2/9=110,12=2,17=6,18=5,40=1/2;
 3/5=4,6=6,7=1111,11=2,25=1,30=1,71=1,74=-55/1,2,3;
 4//1;
 5/5=2,38=5/2;
 6/7=2,8=2,9=2,10=2,28=1/1;
 7//1,2,3,16;
 1/18=20,19=15,26=3/3(2);
 2/9=110/2;
 99//99;
 2/9=110/2;
 3/5=4,6=6,7=1111,11=2,25=1,30=1,71=1,74=-55/1,2,3;
 4/5=5,16=3,69=1/1;
 5/5=2,38=5/2;
 7//1,2,3,16;
 1/18=20,19=15,26=3/3(-5);
 2/9=110/2;
 6/7=2,8=2,9=2,10=2,19=2,28=1/1;
 99/9=1/99;
 Leave Link    1 at Sun Oct 13 21:41:49 2019, MaxMem= 10737418240 cpu:               1.7 elap:               0.1
 (Enter /apps/cent7/gaussian/g16-A.03/g16-haswell/g16/l101.exe)
 -------------------
 Title Card Required
 -------------------
 Symbolic Z-matrix:
 Charge =  0 Multiplicity = 1
 C                    -0.7976    1.3965    0.4798 
 S                     0.0515   -0.0164   -0.3119 
 O                    -0.5829   -1.3904    0.2187 
 C                     1.8321    0.0362    0.101 
 O                    -0.1341    0.0679   -1.9025 
 H                    -0.7371    1.2958    1.5635 
 H                    -0.3181    2.3263    0.174 
 H                    -1.8437    1.4094    0.174 
 H                     1.9539    0.0398    1.1842 
 H                     2.3281   -0.8395   -0.3175 
 H                     2.2756    0.9397   -0.3175 
 
 ITRead=  0  0  0  0  0  0  0  0  0  0  0
 MicOpt= -1 -1 -1 -1 -1 -1 -1 -1 -1 -1 -1
 NAtoms=     11 NQM=       11 NQMF=       0 NMMI=      0 NMMIF=      0
                NMic=       0 NMicF=      0.
                    Isotopes and Nuclear Properties:
 (Nuclear quadrupole moments (NQMom) in fm**2, nuclear magnetic moments (NMagM)
  in nuclear magnetons)

  Atom         1           2           3           4           5           6           7           8           9          10
 IAtWgt=          12          32          16          12          16           1           1           1           1           1
 AtmWgt=  12.0000000  31.9720718  15.9949146  12.0000000  15.9949146   1.0078250   1.0078250   1.0078250   1.0078250   1.0078250
 NucSpn=           0           0           0           0           0           1           1           1           1           1
 AtZEff=  -0.0000000  -0.0000000  -0.0000000  -0.0000000  -0.0000000  -0.0000000  -0.0000000  -0.0000000  -0.0000000  -0.0000000
 NQMom=    0.0000000   0.0000000   0.0000000   0.0000000   0.0000000   0.0000000   0.0000000   0.0000000   0.0000000   0.0000000
 NMagM=    0.0000000   0.0000000   0.0000000   0.0000000   0.0000000   2.7928460   2.7928460   2.7928460   2.7928460   2.7928460
 AtZNuc=   6.0000000  16.0000000   8.0000000   6.0000000   8.0000000   1.0000000   1.0000000   1.0000000   1.0000000   1.0000000

  Atom        11
 IAtWgt=           1
 AtmWgt=   1.0078250
 NucSpn=           1
 AtZEff=  -0.0000000
 NQMom=    0.0000000
 NMagM=    2.7928460
 AtZNuc=   1.0000000
 Leave Link  101 at Sun Oct 13 21:41:49 2019, MaxMem= 10737418240 cpu:               8.3 elap:               0.4
 (Enter /apps/cent7/gaussian/g16-A.03/g16-haswell/g16/l103.exe)

 GradGradGradGradGradGradGradGradGradGradGradGradGradGradGradGradGradGrad
 Berny optimization.
 Initialization pass.
                           ----------------------------
                           !    Initial Parameters    !
                           ! (Angstroms and Degrees)  !
 --------------------------                            --------------------------
 ! Name  Definition              Value          Derivative Info.                !
 --------------------------------------------------------------------------------
 ! R1    R(1,2)                  1.8287         estimate D2E/DX2                !
 ! R2    R(1,6)                  1.09           estimate D2E/DX2                !
 ! R3    R(1,7)                  1.0899         estimate D2E/DX2                !
 ! R4    R(1,8)                  1.09           estimate D2E/DX2                !
 ! R5    R(2,3)                  1.6037         estimate D2E/DX2                !
 ! R6    R(2,4)                  1.8286         estimate D2E/DX2                !
 ! R7    R(2,5)                  1.6036         estimate D2E/DX2                !
 ! R8    R(4,9)                  1.09           estimate D2E/DX2                !
 ! R9    R(4,10)                 1.09           estimate D2E/DX2                !
 ! R10   R(4,11)                 1.09           estimate D2E/DX2                !
 ! A1    A(2,1,6)              109.4672         estimate D2E/DX2                !
 ! A2    A(2,1,7)              109.474          estimate D2E/DX2                !
 ! A3    A(2,1,8)              109.4705         estimate D2E/DX2                !
 ! A4    A(6,1,7)              109.4706         estimate D2E/DX2                !
 ! A5    A(6,1,8)              109.4686         estimate D2E/DX2                !
 ! A6    A(7,1,8)              109.4765         estimate D2E/DX2                !
 ! A7    A(1,2,3)              109.5754         estimate D2E/DX2                !
 ! A8    A(1,2,4)              109.3996         estimate D2E/DX2                !
 ! A9    A(1,2,5)              109.5766         estimate D2E/DX2                !
 ! A10   A(3,2,4)              109.5808         estimate D2E/DX2                !
 ! A11   A(3,2,5)              109.1128         estimate D2E/DX2                !
 ! A12   A(4,2,5)              109.5821         estimate D2E/DX2                !
 ! A13   A(2,4,9)              109.4684         estimate D2E/DX2                !
 ! A14   A(2,4,10)             109.4697         estimate D2E/DX2                !
 ! A15   A(2,4,11)             109.4717         estimate D2E/DX2                !
 ! A16   A(9,4,10)             109.4727         estimate D2E/DX2                !
 ! A17   A(9,4,11)             109.471          estimate D2E/DX2                !
 ! A18   A(10,4,11)            109.4738         estimate D2E/DX2                !
 ! D1    D(6,1,2,3)             55.9196         estimate D2E/DX2                !
 ! D2    D(6,1,2,4)            -64.2346         estimate D2E/DX2                !
 ! D3    D(6,1,2,5)            175.6089         estimate D2E/DX2                !
 ! D4    D(7,1,2,3)            175.9181         estimate D2E/DX2                !
 ! D5    D(7,1,2,4)             55.7639         estimate D2E/DX2                !
 ! D6    D(7,1,2,5)            -64.3926         estimate D2E/DX2                !
 ! D7    D(8,1,2,3)            -64.0742         estimate D2E/DX2                !
 ! D8    D(8,1,2,4)            175.7716         estimate D2E/DX2                !
 ! D9    D(8,1,2,5)             55.6151         estimate D2E/DX2                !
 ! D10   D(1,2,4,9)             56.4414         estimate D2E/DX2                !
 ! D11   D(1,2,4,10)           176.4406         estimate D2E/DX2                !
 ! D12   D(1,2,4,11)           -63.5569         estimate D2E/DX2                !
 ! D13   D(3,2,4,9)            -63.7095         estimate D2E/DX2                !
 ! D14   D(3,2,4,10)            56.2897         estimate D2E/DX2                !
 ! D15   D(3,2,4,11)           176.2922         estimate D2E/DX2                !
 ! D16   D(5,2,4,9)            176.5946         estimate D2E/DX2                !
 ! D17   D(5,2,4,10)           -63.4063         estimate D2E/DX2                !
 ! D18   D(5,2,4,11)            56.5963         estimate D2E/DX2                !
 --------------------------------------------------------------------------------
 Trust Radius=3.00D-01 FncErr=1.00D-07 GrdErr=1.00D-06 EigMax=2.50D+02 EigMin=1.00D-04
 Number of steps in this run=     56 maximum allowed number of steps=    100.
 GradGradGradGradGradGradGradGradGradGradGradGradGradGradGradGradGradGrad

 Leave Link  103 at Sun Oct 13 21:41:49 2019, MaxMem= 10737418240 cpu:               0.4 elap:               0.0
 (Enter /apps/cent7/gaussian/g16-A.03/g16-haswell/g16/l202.exe)
                          Input orientation:                          
 ---------------------------------------------------------------------
 Center     Atomic      Atomic             Coordinates (Angstroms)
 Number     Number       Type             X           Y           Z
 ---------------------------------------------------------------------
      1          6           0       -0.797600    1.396500    0.479800
      2         16           0        0.051500   -0.016400   -0.311900
      3          8           0       -0.582900   -1.390400    0.218700
      4          6           0        1.832100    0.036200    0.101000
      5          8           0       -0.134100    0.067900   -1.902500
      6          1           0       -0.737100    1.295800    1.563500
      7          1           0       -0.318100    2.326300    0.174000
      8          1           0       -1.843700    1.409400    0.174000
      9          1           0        1.953900    0.039800    1.184200
     10          1           0        2.328100   -0.839500   -0.317500
     11          1           0        2.275600    0.939700   -0.317500
 ---------------------------------------------------------------------
                    Distance matrix (angstroms):
                    1          2          3          4          5
     1  C    0.000000
     2  S    1.828673   0.000000
     3  O    2.807326   1.603707   0.000000
     4  C    2.984833   1.828603   2.807359   0.000000
     5  O    2.807270   1.603609   2.612958   2.807305   0.000000
     6  H    1.090049   2.420926   3.007979   3.213454   3.726192
     7  H    1.089937   2.420939   3.726389   3.142172   3.073447
     8  H    1.089957   2.420906   3.070911   3.924604   3.005696
     9  H    3.147629   2.420867   3.068064   1.090032   3.726694
    10  H    3.924969   2.420833   3.010801   1.089958   3.065620
    11  H    3.207633   2.420905   3.726647   1.090021   3.013124
                    6          7          8          9         10
     6  H    0.000000
     7  H    1.779944   0.000000
     8  H    1.779938   1.779933   0.000000
     9  H    2.993808   3.377954   4.161499   0.000000
    10  H    4.182478   4.155266   4.764771   1.779971   0.000000
    11  H    3.569500   2.981864   4.175024   1.780004   1.779974
                   11
    11  H    0.000000
 Stoichiometry    C2H6O2S
 Framework group  C1[X(C2H6O2S)]
 Deg. of freedom    27
 Full point group                 C1      NOp   1
 Largest Abelian subgroup         C1      NOp   1
 Largest concise Abelian subgroup C1      NOp   1
                         Standard orientation:                         
 ---------------------------------------------------------------------
 Center     Atomic      Atomic             Coordinates (Angstroms)
 Number     Number       Type             X           Y           Z
 ---------------------------------------------------------------------
      1          6           0        1.492368   -0.948760    0.000030
      2         16           0       -0.000035    0.108019   -0.000035
      3          8           0        0.000115    1.038098    1.306421
      4          6           0       -1.492465   -0.948599    0.000089
      5          8           0        0.000066    1.037866   -1.306537
      6          1           0        1.530691   -1.523206    0.925637
      7          1           0        1.454800   -1.630634   -0.849441
      8          1           0        2.381106   -0.322345   -0.075814
      9          1           0       -1.460686   -1.622109    0.856560
     10          1           0       -2.381617   -0.321420    0.063850
     11          1           0       -1.524600   -1.532137   -0.920019
 ---------------------------------------------------------------------
 Rotational constants (GHZ):           4.0764412           3.8382458           3.6084961
 Leave Link  202 at Sun Oct 13 21:41:49 2019, MaxMem= 10737418240 cpu:               0.6 elap:               0.0
 (Enter /apps/cent7/gaussian/g16-A.03/g16-haswell/g16/l301.exe)
 Standard basis: 6-311++G(d,p) (5D, 7F)
 Ernie: Thresh=  0.10000D-02 Tol=  0.10000D-05 Strict=F.
 There are   165 symmetry adapted cartesian basis functions of A   symmetry.
 There are   160 symmetry adapted basis functions of A   symmetry.
   160 basis functions,   248 primitive gaussians,   165 cartesian basis functions
    25 alpha electrons       25 beta electrons
       nuclear repulsion energy       258.3989075843 Hartrees.
 IExCor= 4336 DFT=T Ex+Corr=M062X ExCW=0 ScaHFX=  0.540000
 ScaDFX=  1.000000  1.000000  1.000000  1.000000 ScalE2=  1.000000  1.000000
 IRadAn=      5 IRanWt=     -1 IRanGd=            0 ICorTp=0 IEmpDi=  4
 NAtoms=   11 NActive=   11 NUniq=   11 SFac= 1.00D+00 NAtFMM=   60 NAOKFM=F Big=F
 Integral buffers will be    131072 words long.
 Raffenetti 2 integral format.
 Two-electron integral symmetry is turned on.
 Leave Link  301 at Sun Oct 13 21:41:49 2019, MaxMem= 10737418240 cpu:               1.3 elap:               0.1
 (Enter /apps/cent7/gaussian/g16-A.03/g16-haswell/g16/l302.exe)
 NPDir=0 NMtPBC=     1 NCelOv=     1 NCel=       1 NClECP=     1 NCelD=      1
         NCelK=      1 NCelE2=     1 NClLst=     1 CellRange=     0.0.
 One-electron integrals computed using PRISM.
 One-electron integral symmetry used in STVInt
 NBasis=   160 RedAO= T EigKep=  1.16D-04  NBF=   160
 NBsUse=   160 1.00D-06 EigRej= -1.00D+00 NBFU=   160
 Precomputing XC quadrature grid using
 IXCGrd= 4 IRadAn=           5 IRanWt=          -1 IRanGd=           0 AccXCQ= 0.00D+00.
 Generated NRdTot=       0 NPtTot=           0 NUsed=           0 NTot=          32
 NSgBfM=   165   165   165   165   165 MxSgAt=    11 MxSgA2=    11.
 Leave Link  302 at Sun Oct 13 21:41:50 2019, MaxMem= 10737418240 cpu:               3.1 elap:               0.2
 (Enter /apps/cent7/gaussian/g16-A.03/g16-haswell/g16/l303.exe)
 DipDrv:  MaxL=1.
 Leave Link  303 at Sun Oct 13 21:41:50 2019, MaxMem= 10737418240 cpu:               0.7 elap:               0.1
 (Enter /apps/cent7/gaussian/g16-A.03/g16-haswell/g16/l401.exe)
 ExpMin= 3.60D-02 ExpMax= 9.34D+04 ExpMxC= 3.17D+03 IAcc=3 IRadAn=         5 AccDes= 0.00D+00
 Harris functional with IExCor= 1009 and IRadAn=       5 diagonalized for initial guess.
 HarFok:  IExCor= 1009 AccDes= 0.00D+00 IRadAn=         5 IDoV= 1 UseB2=F ITyADJ=14
 ICtDFT=  3500011 ScaDFX=  1.000000  1.000000  1.000000  1.000000
 FoFCou: FMM=F IPFlag=           0 FMFlag=      100000 FMFlg1=           0
         NFxFlg=           0 DoJE=T BraDBF=F KetDBF=T FulRan=T
         wScrn=  0.000000 ICntrl=       500 IOpCl=  0 I1Cent=   200000004 NGrid=           0
         NMat0=    1 NMatS0=      1 NMatT0=    0 NMatD0=    1 NMtDS0=    0 NMtDT0=    0
 Petite list used in FoFCou.
 Harris En= -628.182111429856    
 JPrj=0 DoOrth=F DoCkMO=F.
 Leave Link  401 at Sun Oct 13 21:41:50 2019, MaxMem= 10737418240 cpu:               5.6 elap:               0.3
 (Enter /apps/cent7/gaussian/g16-A.03/g16-haswell/g16/l502.exe)
 Keep R1 ints in memory in canonical form, NReq=106775950.
 FoFCou: FMM=F IPFlag=           0 FMFlag=           0 FMFlg1=           0
         NFxFlg=           0 DoJE=F BraDBF=F KetDBF=F FulRan=T
         wScrn=  0.000000 ICntrl=       600 IOpCl=  0 I1Cent=           0 NGrid=           0
         NMat0=    1 NMatS0=  12880 NMatT0=    0 NMatD0=    1 NMtDS0=    0 NMtDT0=    0
 Symmetry not used in FoFCou.
 Two-electron integral symmetry not used.
 Closed shell SCF:
 Using DIIS extrapolation, IDIIS=  1040.
 NGot= 10737418240 LenX= 10654404460 LenY= 10654376794
 Requested convergence on RMS density matrix=1.00D-08 within 128 cycles.
 Requested convergence on MAX density matrix=1.00D-06.
 Requested convergence on             energy=1.00D-06.
 No special actions if energy rises.

 Cycle   1  Pass 1  IDiag  1:
 E= -627.933407108778    
 DIIS: error= 7.62D-02 at cycle   1 NSaved=   1.
 NSaved= 1 IEnMin= 1 EnMin= -627.933407108778     IErMin= 1 ErrMin= 7.62D-02
 ErrMax= 7.62D-02  0.00D+00 EMaxC= 1.00D-01 BMatC= 5.55D-01 BMatP= 5.55D-01
 IDIUse=3 WtCom= 2.38D-01 WtEn= 7.62D-01
 Coeff-Com:  0.100D+01
 Coeff-En:   0.100D+01
 Coeff:      0.100D+01
 Gap=     0.212 Goal=   None    Shift=    0.000
 GapD=    0.212 DampG=1.000 DampE=0.500 DampFc=0.5000 IDamp=-1.
 Damping current iteration by 5.00D-01
 RMSDP=1.53D-02 MaxDP=5.44D-01              OVMax= 3.10D-01

 Cycle   2  Pass 1  IDiag  1:
 E= -628.034771734160     Delta-E=       -0.101364625382 Rises=F Damp=T
 DIIS: error= 2.80D-02 at cycle   2 NSaved=   2.
 NSaved= 2 IEnMin= 2 EnMin= -628.034771734160     IErMin= 2 ErrMin= 2.80D-02
 ErrMax= 2.80D-02  0.00D+00 EMaxC= 1.00D-01 BMatC= 6.35D-02 BMatP= 5.55D-01
 IDIUse=3 WtCom= 7.20D-01 WtEn= 2.80D-01
 Coeff-Com:  0.179D+00 0.821D+00
 Coeff-En:   0.351D+00 0.649D+00
 Coeff:      0.227D+00 0.773D+00
 Gap=     0.329 Goal=   None    Shift=    0.000
 RMSDP=4.28D-03 MaxDP=1.81D-01 DE=-1.01D-01 OVMax= 1.94D-01

 Cycle   3  Pass 1  IDiag  1:
 E= -628.291752893145     Delta-E=       -0.256981158985 Rises=F Damp=F
 DIIS: error= 1.61D-02 at cycle   3 NSaved=   3.
 NSaved= 3 IEnMin= 3 EnMin= -628.291752893145     IErMin= 3 ErrMin= 1.61D-02
 ErrMax= 1.61D-02  0.00D+00 EMaxC= 1.00D-01 BMatC= 2.30D-02 BMatP= 6.35D-02
 IDIUse=3 WtCom= 8.39D-01 WtEn= 1.61D-01
 Coeff-Com:  0.436D-01 0.364D+00 0.592D+00
 Coeff-En:   0.000D+00 0.000D+00 0.100D+01
 Coeff:      0.366D-01 0.306D+00 0.658D+00
 Gap=     0.335 Goal=   None    Shift=    0.000
 RMSDP=1.41D-03 MaxDP=3.57D-02 DE=-2.57D-01 OVMax= 4.56D-02

 Cycle   4  Pass 1  IDiag  1:
 E= -628.309998171378     Delta-E=       -0.018245278232 Rises=F Damp=F
 DIIS: error= 5.90D-03 at cycle   4 NSaved=   4.
 NSaved= 4 IEnMin= 4 EnMin= -628.309998171378     IErMin= 4 ErrMin= 5.90D-03
 ErrMax= 5.90D-03  0.00D+00 EMaxC= 1.00D-01 BMatC= 3.45D-03 BMatP= 2.30D-02
 IDIUse=3 WtCom= 9.41D-01 WtEn= 5.90D-02
 Coeff-Com: -0.169D-02 0.700D-02 0.280D+00 0.715D+00
 Coeff-En:   0.000D+00 0.000D+00 0.821D-01 0.918D+00
 Coeff:     -0.159D-02 0.659D-02 0.268D+00 0.727D+00
 Gap=     0.323 Goal=   None    Shift=    0.000
 RMSDP=4.43D-04 MaxDP=1.48D-02 DE=-1.82D-02 OVMax= 1.55D-02

 Cycle   5  Pass 1  IDiag  1:
 E= -628.313052006064     Delta-E=       -0.003053834686 Rises=F Damp=F
 DIIS: error= 5.90D-04 at cycle   5 NSaved=   5.
 NSaved= 5 IEnMin= 5 EnMin= -628.313052006064     IErMin= 5 ErrMin= 5.90D-04
 ErrMax= 5.90D-04  0.00D+00 EMaxC= 1.00D-01 BMatC= 4.42D-05 BMatP= 3.45D-03
 IDIUse=3 WtCom= 9.94D-01 WtEn= 5.90D-03
 Coeff-Com: -0.794D-05-0.652D-02 0.506D-01 0.192D+00 0.764D+00
 Coeff-En:   0.000D+00 0.000D+00 0.000D+00 0.000D+00 0.100D+01
 Coeff:     -0.790D-05-0.648D-02 0.503D-01 0.191D+00 0.765D+00
 Gap=     0.320 Goal=   None    Shift=    0.000
 RMSDP=7.02D-05 MaxDP=2.63D-03 DE=-3.05D-03 OVMax= 2.19D-03

 Cycle   6  Pass 1  IDiag  1:
 E= -628.313098360669     Delta-E=       -0.000046354606 Rises=F Damp=F
 DIIS: error= 2.41D-04 at cycle   6 NSaved=   6.
 NSaved= 6 IEnMin= 6 EnMin= -628.313098360669     IErMin= 6 ErrMin= 2.41D-04
 ErrMax= 2.41D-04  0.00D+00 EMaxC= 1.00D-01 BMatC= 4.64D-06 BMatP= 4.42D-05
 IDIUse=3 WtCom= 9.98D-01 WtEn= 2.41D-03
 Coeff-Com:  0.368D-03-0.340D-02-0.144D-01-0.172D-01 0.218D+00 0.817D+00
 Coeff-En:   0.000D+00 0.000D+00 0.000D+00 0.000D+00 0.000D+00 0.100D+01
 Coeff:      0.367D-03-0.339D-02-0.143D-01-0.172D-01 0.217D+00 0.817D+00
 Gap=     0.321 Goal=   None    Shift=    0.000
 RMSDP=3.78D-05 MaxDP=1.42D-03 DE=-4.64D-05 OVMax= 1.05D-03

 Cycle   7  Pass 1  IDiag  1:
 E= -628.313105238083     Delta-E=       -0.000006877414 Rises=F Damp=F
 DIIS: error= 8.33D-05 at cycle   7 NSaved=   7.
 NSaved= 7 IEnMin= 7 EnMin= -628.313105238083     IErMin= 7 ErrMin= 8.33D-05
 ErrMax= 8.33D-05  0.00D+00 EMaxC= 1.00D-01 BMatC= 2.48D-07 BMatP= 4.64D-06
 IDIUse=1 WtCom= 1.00D+00 WtEn= 0.00D+00
 Coeff-Com: -0.196D-03 0.908D-03-0.574D-02-0.191D-01-0.749D-01-0.506D-02
 Coeff-Com:  0.110D+01
 Coeff:     -0.196D-03 0.908D-03-0.574D-02-0.191D-01-0.749D-01-0.506D-02
 Coeff:      0.110D+01
 Gap=     0.321 Goal=   None    Shift=    0.000
 RMSDP=1.85D-05 MaxDP=6.46D-04 DE=-6.88D-06 OVMax= 5.37D-04

 Cycle   8  Pass 1  IDiag  1:
 E= -628.313105995463     Delta-E=       -0.000000757379 Rises=F Damp=F
 DIIS: error= 1.47D-05 at cycle   8 NSaved=   8.
 NSaved= 8 IEnMin= 8 EnMin= -628.313105995463     IErMin= 8 ErrMin= 1.47D-05
 ErrMax= 1.47D-05  0.00D+00 EMaxC= 1.00D-01 BMatC= 2.60D-08 BMatP= 2.48D-07
 IDIUse=1 WtCom= 1.00D+00 WtEn= 0.00D+00
 Coeff-Com: -0.645D-04 0.343D-03-0.119D-02-0.413D-02-0.254D-01-0.165D-01
 Coeff-Com:  0.223D+00 0.824D+00
 Coeff:     -0.645D-04 0.343D-03-0.119D-02-0.413D-02-0.254D-01-0.165D-01
 Coeff:      0.223D+00 0.824D+00
 Gap=     0.321 Goal=   None    Shift=    0.000
 RMSDP=3.68D-06 MaxDP=9.52D-05 DE=-7.57D-07 OVMax= 1.15D-04

 Cycle   9  Pass 1  IDiag  1:
 E= -628.313106016540     Delta-E=       -0.000000021078 Rises=F Damp=F
 DIIS: error= 1.96D-05 at cycle   9 NSaved=   9.
 NSaved= 9 IEnMin= 9 EnMin= -628.313106016540     IErMin= 8 ErrMin= 1.47D-05
 ErrMax= 1.96D-05  0.00D+00 EMaxC= 1.00D-01 BMatC= 2.72D-08 BMatP= 2.60D-08
 IDIUse=1 WtCom= 1.00D+00 WtEn= 0.00D+00
 Coeff-Com:  0.890D-05 0.385D-05 0.605D-03 0.198D-02 0.143D-02-0.816D-02
 Coeff-Com: -0.142D+00 0.606D+00 0.540D+00
 Coeff:      0.890D-05 0.385D-05 0.605D-03 0.198D-02 0.143D-02-0.816D-02
 Coeff:     -0.142D+00 0.606D+00 0.540D+00
 Gap=     0.321 Goal=   None    Shift=    0.000
 RMSDP=1.98D-06 MaxDP=5.18D-05 DE=-2.11D-08 OVMax= 6.27D-05

 Cycle  10  Pass 1  IDiag  1:
 E= -628.313106039919     Delta-E=       -0.000000023379 Rises=F Damp=F
 DIIS: error= 1.74D-06 at cycle  10 NSaved=  10.
 NSaved=10 IEnMin=10 EnMin= -628.313106039919     IErMin=10 ErrMin= 1.74D-06
 ErrMax= 1.74D-06  0.00D+00 EMaxC= 1.00D-01 BMatC= 3.83D-10 BMatP= 2.60D-08
 IDIUse=1 WtCom= 1.00D+00 WtEn= 0.00D+00
 Coeff-Com:  0.106D-04-0.250D-04 0.181D-03 0.434D-03 0.155D-02-0.102D-02
 Coeff-Com: -0.346D-01 0.374D-01 0.970D-01 0.899D+00
 Coeff:      0.106D-04-0.250D-04 0.181D-03 0.434D-03 0.155D-02-0.102D-02
 Coeff:     -0.346D-01 0.374D-01 0.970D-01 0.899D+00
 Gap=     0.321 Goal=   None    Shift=    0.000
 RMSDP=5.49D-07 MaxDP=2.26D-05 DE=-2.34D-08 OVMax= 1.63D-05

 Cycle  11  Pass 1  IDiag  1:
 E= -628.313106040494     Delta-E=       -0.000000000575 Rises=F Damp=F
 DIIS: error= 3.32D-07 at cycle  11 NSaved=  11.
 NSaved=11 IEnMin=11 EnMin= -628.313106040494     IErMin=11 ErrMin= 3.32D-07
 ErrMax= 3.32D-07  0.00D+00 EMaxC= 1.00D-01 BMatC= 1.63D-11 BMatP= 3.83D-10
 IDIUse=1 WtCom= 1.00D+00 WtEn= 0.00D+00
 Coeff-Com:  0.462D-06-0.316D-05-0.652D-05-0.635D-04 0.164D-03 0.381D-03
 Coeff-Com:  0.532D-02-0.329D-01-0.248D-01 0.605D-01 0.991D+00
 Coeff:      0.462D-06-0.316D-05-0.652D-05-0.635D-04 0.164D-03 0.381D-03
 Coeff:      0.532D-02-0.329D-01-0.248D-01 0.605D-01 0.991D+00
 Gap=     0.321 Goal=   None    Shift=    0.000
 RMSDP=1.20D-07 MaxDP=4.15D-06 DE=-5.75D-10 OVMax= 4.36D-06

 Cycle  12  Pass 1  IDiag  1:
 E= -628.313106040534     Delta-E=       -0.000000000040 Rises=F Damp=F
 DIIS: error= 1.33D-07 at cycle  12 NSaved=  12.
 NSaved=12 IEnMin=12 EnMin= -628.313106040534     IErMin=12 ErrMin= 1.33D-07
 ErrMax= 1.33D-07  0.00D+00 EMaxC= 1.00D-01 BMatC= 1.31D-12 BMatP= 1.63D-11
 IDIUse=1 WtCom= 1.00D+00 WtEn= 0.00D+00
 Coeff-Com: -0.144D-05 0.286D-05-0.125D-04-0.217D-04-0.117D-03 0.108D-03
 Coeff-Com:  0.235D-02-0.155D-02-0.736D-02-0.859D-01-0.153D-01 0.111D+01
 Coeff:     -0.144D-05 0.286D-05-0.125D-04-0.217D-04-0.117D-03 0.108D-03
 Coeff:      0.235D-02-0.155D-02-0.736D-02-0.859D-01-0.153D-01 0.111D+01
 Gap=     0.321 Goal=   None    Shift=    0.000
 RMSDP=4.40D-08 MaxDP=1.70D-06 DE=-4.00D-11 OVMax= 1.49D-06

 Cycle  13  Pass 1  IDiag  1:
 E= -628.313106040538     Delta-E=       -0.000000000004 Rises=F Damp=F
 DIIS: error= 3.08D-08 at cycle  13 NSaved=  13.
 NSaved=13 IEnMin=13 EnMin= -628.313106040538     IErMin=13 ErrMin= 3.08D-08
 ErrMax= 3.08D-08  0.00D+00 EMaxC= 1.00D-01 BMatC= 7.31D-14 BMatP= 1.31D-12
 IDIUse=1 WtCom= 1.00D+00 WtEn= 0.00D+00
 Coeff-Com: -0.148D-06 0.418D-06-0.168D-05-0.674D-06-0.923D-05-0.274D-04
 Coeff-Com: -0.174D-03 0.148D-02 0.108D-02-0.263D-02-0.399D-01-0.662D-02
 Coeff-Com:  0.105D+01
 Coeff:     -0.148D-06 0.418D-06-0.168D-05-0.674D-06-0.923D-05-0.274D-04
 Coeff:     -0.174D-03 0.148D-02 0.108D-02-0.263D-02-0.399D-01-0.662D-02
 Coeff:      0.105D+01
 Gap=     0.321 Goal=   None    Shift=    0.000
 RMSDP=5.38D-09 MaxDP=1.68D-07 DE=-3.64D-12 OVMax= 2.12D-07

 SCF Done:  E(RM062X) =  -628.313106041     A.U. after   13 cycles
            NFock= 13  Conv=0.54D-08     -V/T= 2.0031
 KE= 6.263998624357D+02 PE=-2.001851461966D+03 EE= 4.887395859053D+02
 Leave Link  502 at Sun Oct 13 21:41:54 2019, MaxMem= 10737418240 cpu:              75.7 elap:               4.5
 (Enter /apps/cent7/gaussian/g16-A.03/g16-haswell/g16/l601.exe)
 Copying SCF densities to generalized density rwf, IOpCl= 0 IROHF=0.

 **********************************************************************

            Population analysis using the SCF density.

 **********************************************************************

 Orbital symmetries:
       Occupied  (A) (A) (A) (A) (A) (A) (A) (A) (A) (A) (A) (A)
                 (A) (A) (A) (A) (A) (A) (A) (A) (A) (A) (A) (A)
                 (A)
       Virtual   (A) (A) (A) (A) (A) (A) (A) (A) (A) (A) (A) (A)
                 (A) (A) (A) (A) (A) (A) (A) (A) (A) (A) (A) (A)
                 (A) (A) (A) (A) (A) (A) (A) (A) (A) (A) (A) (A)
                 (A) (A) (A) (A) (A) (A) (A) (A) (A) (A) (A) (A)
                 (A) (A) (A) (A) (A) (A) (A) (A) (A) (A) (A) (A)
                 (A) (A) (A) (A) (A) (A) (A) (A) (A) (A) (A) (A)
                 (A) (A) (A) (A) (A) (A) (A) (A) (A) (A) (A) (A)
                 (A) (A) (A) (A) (A) (A) (A) (A) (A) (A) (A) (A)
                 (A) (A) (A) (A) (A) (A) (A) (A) (A) (A) (A) (A)
                 (A) (A) (A) (A) (A) (A) (A) (A) (A) (A) (A) (A)
                 (A) (A) (A) (A) (A) (A) (A) (A) (A) (A) (A) (A)
                 (A) (A) (A)
 The electronic state is 1-A.
 Alpha  occ. eigenvalues --  -90.11482 -19.61445 -19.61443 -10.61363 -10.61360
 Alpha  occ. eigenvalues --   -8.45713  -6.37826  -6.37806  -6.37793  -1.15856
 Alpha  occ. eigenvalues --   -1.05566  -0.91691  -0.86414  -0.72226  -0.57939
 Alpha  occ. eigenvalues --   -0.57022  -0.56792  -0.53437  -0.51267  -0.50971
 Alpha  occ. eigenvalues --   -0.47968  -0.37922  -0.36489  -0.36016  -0.34329
 Alpha virt. eigenvalues --   -0.02215   0.00236   0.01077   0.01343   0.03461
 Alpha virt. eigenvalues --    0.03943   0.04203   0.04446   0.05509   0.07063
 Alpha virt. eigenvalues --    0.08082   0.08678   0.09272   0.10426   0.10837
 Alpha virt. eigenvalues --    0.11981   0.12098   0.12705   0.12991   0.14576
 Alpha virt. eigenvalues --    0.15711   0.15778   0.17033   0.18133   0.18535
 Alpha virt. eigenvalues --    0.21250   0.24882   0.25493   0.26690   0.30370
 Alpha virt. eigenvalues --    0.30638   0.32980   0.33182   0.34155   0.34403
 Alpha virt. eigenvalues --    0.37513   0.37973   0.38348   0.38401   0.39374
 Alpha virt. eigenvalues --    0.42406   0.51119   0.51805   0.52254   0.55607
 Alpha virt. eigenvalues --    0.63718   0.64595   0.64898   0.66397   0.67633
 Alpha virt. eigenvalues --    0.74727   0.75354   0.75834   0.83931   0.85342
 Alpha virt. eigenvalues --    0.91006   0.92521   0.95743   0.97431   1.08165
 Alpha virt. eigenvalues --    1.09925   1.12083   1.14662   1.20323   1.22552
 Alpha virt. eigenvalues --    1.23520   1.27102   1.27174   1.28967   1.44419
 Alpha virt. eigenvalues --    1.44470   1.54824   1.55977   1.57165   1.58681
 Alpha virt. eigenvalues --    1.59964   1.63085   1.65332   1.66260   1.70407
 Alpha virt. eigenvalues --    1.71905   1.74032   1.75599   1.90274   1.92989
 Alpha virt. eigenvalues --    1.96837   1.99538   1.99819   2.12736   2.15382
 Alpha virt. eigenvalues --    2.21641   2.22843   2.44246   2.45652   2.45930
 Alpha virt. eigenvalues --    2.49435   2.50194   2.51186   2.52993   2.55075
 Alpha virt. eigenvalues --    2.59487   2.64525   2.83558   2.88609   2.93366
 Alpha virt. eigenvalues --    2.93953   2.94375   2.94977   2.95485   2.99057
 Alpha virt. eigenvalues --    3.04794   3.05088   3.13187   3.32926   3.42896
 Alpha virt. eigenvalues --    3.50723   3.71683   3.72632   3.74970   3.75103
 Alpha virt. eigenvalues --    5.12035   5.15887   5.16027   5.20435   5.23283
 Alpha virt. eigenvalues --    5.27573   8.11066  17.48703  17.50167  17.50640
 Alpha virt. eigenvalues --   23.93927  23.94636  49.97687  50.00650 189.36104
          Condensed to atoms (all electrons):
               1          2          3          4          5          6
     1  C    5.624392   0.049826  -0.052501  -0.141421  -0.074023   0.376272
     2  S    0.049826  15.666692   0.081153   0.049927   0.078555  -0.056176
     3  O   -0.052501   0.081153   8.542038  -0.073648  -0.179838  -0.010580
     4  C   -0.141421   0.049927  -0.073648   5.623769  -0.052934   0.009058
     5  O   -0.074023   0.078555  -0.179838  -0.052934   8.544207   0.016804
     6  H    0.376272  -0.056176  -0.010580   0.009058   0.016804   0.528311
     7  H    0.357432  -0.039555   0.012580   0.006202  -0.008138  -0.057313
     8  H    0.379668  -0.011788  -0.015008   0.005771  -0.014907  -0.028457
     9  H    0.007015  -0.040270  -0.008209   0.357695   0.012844  -0.007522
    10  H    0.005614  -0.011775  -0.015274   0.379833  -0.014858  -0.001638
    11  H    0.008251  -0.055807   0.016552   0.376551  -0.010598   0.008941
               7          8          9         10         11
     1  C    0.357432   0.379668   0.007015   0.005614   0.008251
     2  S   -0.039555  -0.011788  -0.040270  -0.011775  -0.055807
     3  O    0.012580  -0.015008  -0.008209  -0.015274   0.016552
     4  C    0.006202   0.005771   0.357695   0.379833   0.376551
     5  O   -0.008138  -0.014907   0.012844  -0.014858  -0.010598
     6  H   -0.057313  -0.028457  -0.007522  -0.001638   0.008941
     7  H    0.541654  -0.029516   0.008878  -0.002192  -0.007630
     8  H   -0.029516   0.465644  -0.002288  -0.000744  -0.001565
     9  H    0.008878  -0.002288   0.540897  -0.029681  -0.057389
    10  H   -0.002192  -0.000744  -0.029681   0.465873  -0.028389
    11  H   -0.007630  -0.001565  -0.057389  -0.028389   0.528941
 Mulliken charges:
               1
     1  C   -0.540526
     2  S    0.289219
     3  O   -0.297263
     4  C   -0.540803
     5  O   -0.297116
     6  H    0.222298
     7  H    0.217599
     8  H    0.253189
     9  H    0.218030
    10  H    0.253231
    11  H    0.222141
 Sum of Mulliken charges =  -0.00000
 Mulliken charges with hydrogens summed into heavy atoms:
               1
     1  C    0.152560
     2  S    0.289219
     3  O   -0.297263
     4  C    0.152600
     5  O   -0.297116
 Electronic spatial extent (au):  <R**2>=            499.9102
 Charge=              0.0000 electrons
 Dipole moment (field-independent basis, Debye):
    X=             -0.0007    Y=             -6.7698    Z=              0.0002  Tot=              6.7698
 Quadrupole moment (field-independent basis, Debye-Ang):
   XX=            -29.7361   YY=            -40.1157   ZZ=            -46.0667
   XY=             -0.0006   XZ=             -0.0155   YZ=             -0.0028
 Traceless Quadrupole moment (field-independent basis, Debye-Ang):
   XX=              8.9034   YY=             -1.4762   ZZ=             -7.4272
   XY=             -0.0006   XZ=             -0.0155   YZ=             -0.0028
 Octapole moment (field-independent basis, Debye-Ang**2):
  XXX=             -0.0031  YYY=             -7.3142  ZZZ=              0.0356  XYY=             -0.0031
  XXY=             -4.0071  XXZ=             -0.0162  XZZ=              0.0040  YZZ=            -10.5498
  YYZ=             -0.0205  XYZ=             -0.1946
 Hexadecapole moment (field-independent basis, Debye-Ang**3):
 XXXX=           -218.4784 YYYY=           -217.1581 ZZZZ=           -192.3560 XXXY=             -0.0110
 XXXZ=             -0.9374 YYYX=              0.0035 YYYZ=              0.0722 ZZZX=              0.7529
 ZZZY=             -0.0464 XXYY=            -74.2728 XXZZ=            -72.4459 YYZZ=            -66.0072
 XXYZ=             -0.0463 YYXZ=             -0.0119 ZZXY=              0.0059
 N-N= 2.583989075843D+02 E-N=-2.001851462294D+03  KE= 6.263998624357D+02
 No NMR shielding tensors so no spin-rotation constants.
 Leave Link  601 at Sun Oct 13 21:41:54 2019, MaxMem= 10737418240 cpu:               2.2 elap:               0.1
 (Enter /apps/cent7/gaussian/g16-A.03/g16-haswell/g16/l701.exe)
 ... and contract with generalized density number  0.
 Compute integral first derivatives.
 Leave Link  701 at Sun Oct 13 21:41:55 2019, MaxMem= 10737418240 cpu:               2.9 elap:               0.1
 (Enter /apps/cent7/gaussian/g16-A.03/g16-haswell/g16/l702.exe)
 L702 exits ... SP integral derivatives will be done elsewhere.
 Leave Link  702 at Sun Oct 13 21:41:55 2019, MaxMem= 10737418240 cpu:               0.5 elap:               0.0
 (Enter /apps/cent7/gaussian/g16-A.03/g16-haswell/g16/l703.exe)
 Integral derivatives from FoFJK, PRISM(SPDF).
 Compute integral first derivatives, UseDBF=F ICtDFT=           0.
 Calling FoFJK, ICntrl=      2127 FMM=F ISym2X=0 I1Cent= 0 IOpClX= 0 NMat=1 NMatS=1 NMatT=0.
 FoFJK:  IHMeth= 1 ICntrl=    2127 DoSepK=F KAlg= 0 I1Cent=           0 FoldK=F
 IRaf=         0 NMat=       1 IRICut=       1 DoRegI=T DoRafI=F ISym2E= 0 IDoP0=0 IntGTp=1.
 FoFCou: FMM=F IPFlag=           0 FMFlag=      100000 FMFlg1=         800
         NFxFlg=           0 DoJE=F BraDBF=F KetDBF=F FulRan=T
         wScrn=  0.000000 ICntrl=      2127 IOpCl=  0 I1Cent=           0 NGrid=           0
         NMat0=    1 NMatS0=      1 NMatT0=    0 NMatD0=    1 NMtDS0=    0 NMtDT0=    0
 Symmetry not used in FoFCou.
 Leave Link  703 at Sun Oct 13 21:41:55 2019, MaxMem= 10737418240 cpu:              15.8 elap:               0.7
 (Enter /apps/cent7/gaussian/g16-A.03/g16-haswell/g16/l716.exe)
 Dipole        =-2.91443682D-04-2.66344917D+00 8.21490231D-05
 ***** Axes restored to original set *****
 -------------------------------------------------------------------
 Center     Atomic                   Forces (Hartrees/Bohr)
 Number     Number              X              Y              Z
 -------------------------------------------------------------------
      1        6           0.011987606    0.000169394    0.003227539
      2       16          -0.062706054   -0.098578403   -0.080995250
      3        8           0.045457929    0.092126578   -0.014718546
      4        6          -0.005620405    0.009809182    0.005165367
      5        8           0.021169970    0.012646736    0.100774623
      6        1           0.001547813   -0.004250335   -0.000606264
      7        1           0.001912426   -0.001876025   -0.003288773
      8        1           0.003152038   -0.007771484   -0.004824773
      9        1          -0.004002995   -0.001340619    0.000545443
     10        1          -0.009096501   -0.001578990   -0.002883300
     11        1          -0.003801828    0.000643964   -0.002396065
 -------------------------------------------------------------------
 Cartesian Forces:  Max     0.100774623 RMS     0.035809822
 Leave Link  716 at Sun Oct 13 21:41:55 2019, MaxMem= 10737418240 cpu:               0.6 elap:               0.0
 (Enter /apps/cent7/gaussian/g16-A.03/g16-haswell/g16/l103.exe)

 GradGradGradGradGradGradGradGradGradGradGradGradGradGradGradGradGradGrad
 Berny optimization.
 FormGI is forming the generalized inverse of G from B-inverse, IUseBI=4.
 Internal  Forces:  Max     0.101783043 RMS     0.022538393
 Search for a local minimum.
 Step number   1 out of a maximum of   56
 All quantities printed in internal units (Hartrees-Bohrs-Radians)
 RMS Force = .22538D-01 SwitMx=.10000D-02 MixMth= 1
 Mixed Optimization -- RFO/linear search
 Second derivative matrix not updated -- first step.
 ITU=  0
     Eigenvalues ---    0.00230   0.00230   0.05715   0.05715   0.05716
     Eigenvalues ---    0.05716   0.05878   0.07047   0.11889   0.16000
     Eigenvalues ---    0.16000   0.16000   0.16000   0.16000   0.16000
     Eigenvalues ---    0.18247   0.23982   0.23987   0.25000   0.34807
     Eigenvalues ---    0.34809   0.34810   0.34817   0.34818   0.34820
     Eigenvalues ---    0.50507   0.50526
 RFO step:  Lambda=-5.23397215D-02 EMin= 2.30000000D-03
 Linear search not attempted -- first point.
 Maximum step size (   0.300) exceeded in Quadratic search.
    -- Step size scaled by   0.896
 Iteration  1 RMS(Cart)=  0.07282361 RMS(Int)=  0.00200702
 Iteration  2 RMS(Cart)=  0.00241785 RMS(Int)=  0.00061128
 Iteration  3 RMS(Cart)=  0.00000426 RMS(Int)=  0.00061127
 Iteration  4 RMS(Cart)=  0.00000000 RMS(Int)=  0.00061127
 ITry= 1 IFail=0 DXMaxC= 1.60D-01 DCOld= 1.00D+10 DXMaxT= 3.00D-01 DXLimC= 3.00D+00 Rises=F
 Variable       Old X    -DE/DX   Delta X   Delta X   Delta X     New X
                                 (Linear)    (Quad)   (Total)
    R1        3.45569  -0.02162   0.00000  -0.06633  -0.06633   3.38936
    R2        2.05989  -0.00012   0.00000  -0.00028  -0.00028   2.05962
    R3        2.05968   0.00016   0.00000   0.00036   0.00036   2.06005
    R4        2.05972  -0.00176   0.00000  -0.00395  -0.00395   2.05577
    R5        3.03057  -0.10178   0.00000  -0.16366  -0.16366   2.86691
    R6        3.45556  -0.02162   0.00000  -0.06630  -0.06630   3.38926
    R7        3.03038  -0.10174   0.00000  -0.16354  -0.16354   2.86685
    R8        2.05986   0.00009   0.00000   0.00020   0.00020   2.06006
    R9        2.05972  -0.00176   0.00000  -0.00395  -0.00395   2.05578
   R10        2.05984  -0.00009   0.00000  -0.00021  -0.00021   2.05963
    A1        1.91056  -0.00327   0.00000  -0.01226  -0.01257   1.89799
    A2        1.91068  -0.00255   0.00000  -0.00919  -0.00947   1.90122
    A3        1.91062  -0.01275   0.00000  -0.05698  -0.05761   1.85301
    A4        1.91062   0.00490   0.00000   0.02697   0.02697   1.93759
    A5        1.91059   0.00701   0.00000   0.02644   0.02572   1.93631
    A6        1.91072   0.00667   0.00000   0.02502   0.02439   1.93512
    A7        1.91245  -0.00158   0.00000  -0.01284  -0.01428   1.89818
    A8        1.90938  -0.00850   0.00000  -0.05816  -0.06011   1.84927
    A9        1.91247  -0.00158   0.00000  -0.01283  -0.01427   1.89820
   A10        1.91255  -0.00159   0.00000  -0.01288  -0.01432   1.89822
   A11        1.90438   0.01490   0.00000   0.11001   0.11039   2.01477
   A12        1.91257  -0.00160   0.00000  -0.01295  -0.01439   1.89818
   A13        1.91058  -0.00260   0.00000  -0.00939  -0.00967   1.90091
   A14        1.91061  -0.01275   0.00000  -0.05697  -0.05760   1.85301
   A15        1.91064  -0.00322   0.00000  -0.01204  -0.01235   1.89829
   A16        1.91066   0.00669   0.00000   0.02512   0.02449   1.93515
   A17        1.91063   0.00490   0.00000   0.02697   0.02697   1.93760
   A18        1.91068   0.00698   0.00000   0.02630   0.02559   1.93627
    D1        0.97598  -0.00929   0.00000  -0.06812  -0.06756   0.90842
    D2       -1.12110  -0.00114   0.00000  -0.00863  -0.00843  -1.12953
    D3        3.06495   0.00703   0.00000   0.05095   0.05079   3.11574
    D4        3.07035  -0.00686   0.00000  -0.04822  -0.04804   3.02231
    D5        0.97326   0.00129   0.00000   0.01127   0.01109   0.98436
    D6       -1.12386   0.00946   0.00000   0.07085   0.07031  -1.05355
    D7       -1.11831  -0.00807   0.00000  -0.05811  -0.05777  -1.17608
    D8        3.06779   0.00008   0.00000   0.00138   0.00136   3.06915
    D9        0.97067   0.00825   0.00000   0.06096   0.06057   1.03124
   D10        0.98509   0.00128   0.00000   0.01103   0.01085   0.99594
   D11        3.07947   0.00007   0.00000   0.00117   0.00115   3.08061
   D12       -1.10928  -0.00115   0.00000  -0.00888  -0.00868  -1.11795
   D13       -1.11194   0.00943   0.00000   0.07050   0.06996  -1.04198
   D14        0.98244   0.00822   0.00000   0.06064   0.06025   1.04269
   D15        3.07688   0.00700   0.00000   0.05059   0.05043   3.12731
   D16        3.08216  -0.00687   0.00000  -0.04848  -0.04829   3.03387
   D17       -1.10665  -0.00808   0.00000  -0.05834  -0.05800  -1.16465
   D18        0.98779  -0.00930   0.00000  -0.06838  -0.06782   0.91997
         Item               Value     Threshold  Converged?
 Maximum Force            0.101783     0.000450     NO 
 RMS     Force            0.022538     0.000300     NO 
 Maximum Displacement     0.159553     0.001800     NO 
 RMS     Displacement     0.073864     0.001200     NO 
 Predicted change in Energy=-2.930956D-02
 Lowest energy point so far.  Saving SCF results.
 GradGradGradGradGradGradGradGradGradGradGradGradGradGradGradGradGradGrad

 Leave Link  103 at Sun Oct 13 21:41:56 2019, MaxMem= 10737418240 cpu:               0.9 elap:               0.1
 (Enter /apps/cent7/gaussian/g16-A.03/g16-haswell/g16/l202.exe)
                          Input orientation:                          
 ---------------------------------------------------------------------
 Center     Atomic      Atomic             Coordinates (Angstroms)
 Number     Number       Type             X           Y           Z
 ---------------------------------------------------------------------
      1          6           0       -0.747323    1.364256    0.468422
      2         16           0        0.038282   -0.037149   -0.328946
      3          8           0       -0.539176   -1.314852    0.250383
      4          6           0        1.775884    0.059117    0.104849
      5          8           0       -0.098559    0.116926   -1.831955
      6          1           0       -0.672064    1.240143    1.548616
      7          1           0       -0.251196    2.279317    0.144532
      8          1           0       -1.786589    1.352211    0.147115
      9          1           0        1.869468    0.059268    1.190963
     10          1           0        2.244689   -0.823676   -0.324521
     11          1           0        2.194283    0.969740   -0.323657
 ---------------------------------------------------------------------
                    Distance matrix (angstroms):
                    1          2          3          4          5
     1  C    0.000000
     2  S    1.793574   0.000000
     3  O    2.696013   1.517104   0.000000
     4  C    2.863939   1.793518   2.696011   0.000000
     5  O    2.696008   1.517070   2.565202   2.695939   0.000000
     6  H    1.089902   2.379350   2.868984   3.077619   3.608155
     7  H    1.090130   2.382015   3.607241   3.006645   2.933554
     8  H    1.087868   2.342458   2.946172   3.790131   2.879599
     9  H    3.012085   2.381735   2.928219   1.090139   3.607560
    10  H    3.790506   2.342408   2.884731   1.087869   2.940731
    11  H    3.071820   2.379537   3.608418   1.089912   2.873913
                    6          7          8          9         10
     6  H    0.000000
     7  H    1.796793   0.000000
     8  H    1.794138   1.793590   0.000000
     9  H    2.825202   3.243587   4.015977   0.000000
    10  H    4.034283   4.009740   4.605228   1.793620   0.000000
    11  H    3.434308   2.813283   4.026816   1.796813   1.794124
                   11
    11  H    0.000000
 Stoichiometry    C2H6O2S
 Framework group  C1[X(C2H6O2S)]
 Deg. of freedom    27
 Full point group                 C1      NOp   1
 RotChk:  IX=3 Diff= 3.09D-04
 Largest Abelian subgroup         C1      NOp   1
 Largest concise Abelian subgroup C1      NOp   1
                         Standard orientation:                         
 ---------------------------------------------------------------------
 Center     Atomic      Atomic             Coordinates (Angstroms)
 Number     Number       Type             X           Y           Z
 ---------------------------------------------------------------------
      1          6           0        1.432062   -0.927056    0.000386
      2         16           0       -0.000025    0.152775   -0.000018
      3          8           0       -0.000307    0.963181    1.282497
      4          6           0       -1.431877   -0.927276   -0.000179
      5          8           0        0.000136    0.962845   -1.282705
      6          1           0        1.446185   -1.489785    0.933672
      7          1           0        1.371071   -1.595720   -0.858421
      8          1           0        2.301370   -0.277396   -0.075139
      9          1           0       -1.376498   -1.587626    0.865427
     10          1           0       -2.301778   -0.277116    0.063248
     11          1           0       -1.439685   -1.498972   -0.928085
 ---------------------------------------------------------------------
 Rotational constants (GHZ):           4.3486596           4.0831999           3.9412904
 Leave Link  202 at Sun Oct 13 21:41:56 2019, MaxMem= 10737418240 cpu:               0.2 elap:               0.0
 (Enter /apps/cent7/gaussian/g16-A.03/g16-haswell/g16/l301.exe)
 Standard basis: 6-311++G(d,p) (5D, 7F)
 Ernie: Thresh=  0.10000D-02 Tol=  0.10000D-05 Strict=F.
 There are   165 symmetry adapted cartesian basis functions of A   symmetry.
 There are   160 symmetry adapted basis functions of A   symmetry.
   160 basis functions,   248 primitive gaussians,   165 cartesian basis functions
    25 alpha electrons       25 beta electrons
       nuclear repulsion energy       267.7276810949 Hartrees.
 IExCor= 4336 DFT=T Ex+Corr=M062X ExCW=0 ScaHFX=  0.540000
 ScaDFX=  1.000000  1.000000  1.000000  1.000000 ScalE2=  1.000000  1.000000
 IRadAn=      5 IRanWt=     -1 IRanGd=            0 ICorTp=0 IEmpDi=  4
 NAtoms=   11 NActive=   11 NUniq=   11 SFac= 1.00D+00 NAtFMM=   60 NAOKFM=F Big=F
 Integral buffers will be    131072 words long.
 Raffenetti 2 integral format.
 Two-electron integral symmetry is turned on.
 Leave Link  301 at Sun Oct 13 21:41:56 2019, MaxMem= 10737418240 cpu:               1.2 elap:               0.1
 (Enter /apps/cent7/gaussian/g16-A.03/g16-haswell/g16/l302.exe)
 NPDir=0 NMtPBC=     1 NCelOv=     1 NCel=       1 NClECP=     1 NCelD=      1
         NCelK=      1 NCelE2=     1 NClLst=     1 CellRange=     0.0.
 One-electron integrals computed using PRISM.
 One-electron integral symmetry used in STVInt
 NBasis=   160 RedAO= T EigKep=  9.28D-05  NBF=   160
 NBsUse=   160 1.00D-06 EigRej= -1.00D+00 NBFU=   160
 Precomputing XC quadrature grid using
 IXCGrd= 4 IRadAn=           5 IRanWt=          -1 IRanGd=           0 AccXCQ= 0.00D+00.
 Generated NRdTot=       0 NPtTot=           0 NUsed=           0 NTot=          32
 NSgBfM=   165   165   165   165   165 MxSgAt=    11 MxSgA2=    11.
 Leave Link  302 at Sun Oct 13 21:41:56 2019, MaxMem= 10737418240 cpu:               2.9 elap:               0.1
 (Enter /apps/cent7/gaussian/g16-A.03/g16-haswell/g16/l303.exe)
 DipDrv:  MaxL=1.
 Leave Link  303 at Sun Oct 13 21:41:56 2019, MaxMem= 10737418240 cpu:               0.6 elap:               0.0
 (Enter /apps/cent7/gaussian/g16-A.03/g16-haswell/g16/l401.exe)
 Initial guess from the checkpoint file:  "25.chk"
 B after Tr=    -0.000000    0.000000   -0.000000
         Rot=    1.000000    0.000014    0.000095   -0.000071 Ang=   0.01 deg.
 Guess basis will be translated and rotated to current coordinates.
 JPrj=2 DoOrth=T DoCkMO=T.
 Generating alternative initial guess.
 ExpMin= 3.60D-02 ExpMax= 9.34D+04 ExpMxC= 3.17D+03 IAcc=3 IRadAn=         5 AccDes= 0.00D+00
 Harris functional with IExCor= 1009 and IRadAn=       5 diagonalized for initial guess.
 HarFok:  IExCor= 1009 AccDes= 0.00D+00 IRadAn=         5 IDoV= 1 UseB2=F ITyADJ=14
 ICtDFT=  3500011 ScaDFX=  1.000000  1.000000  1.000000  1.000000
 FoFCou: FMM=F IPFlag=           0 FMFlag=      100000 FMFlg1=           0
         NFxFlg=           0 DoJE=T BraDBF=F KetDBF=T FulRan=T
         wScrn=  0.000000 ICntrl=       500 IOpCl=  0 I1Cent=   200000004 NGrid=           0
         NMat0=    1 NMatS0=      1 NMatT0=    0 NMatD0=    1 NMtDS0=    0 NMtDT0=    0
 Petite list used in FoFCou.
 Harris En= -628.197129386769    
 Leave Link  401 at Sun Oct 13 21:41:56 2019, MaxMem= 10737418240 cpu:               7.2 elap:               0.3
 (Enter /apps/cent7/gaussian/g16-A.03/g16-haswell/g16/l502.exe)
 Keep R1 ints in memory in canonical form, NReq=106775950.
 FoFCou: FMM=F IPFlag=           0 FMFlag=           0 FMFlg1=           0
         NFxFlg=           0 DoJE=F BraDBF=F KetDBF=F FulRan=T
         wScrn=  0.000000 ICntrl=       600 IOpCl=  0 I1Cent=           0 NGrid=           0
         NMat0=    1 NMatS0=  12880 NMatT0=    0 NMatD0=    1 NMtDS0=    0 NMtDT0=    0
 Symmetry not used in FoFCou.
 Two-electron integral symmetry not used.
 Closed shell SCF:
 Using DIIS extrapolation, IDIIS=  1040.
 NGot= 10737418240 LenX= 10654404460 LenY= 10654376794
 Requested convergence on RMS density matrix=1.00D-08 within 128 cycles.
 Requested convergence on MAX density matrix=1.00D-06.
 Requested convergence on             energy=1.00D-06.
 No special actions if energy rises.

 Cycle   1  Pass 1  IDiag  1:
 E= -628.334058677186    
 DIIS: error= 8.56D-03 at cycle   1 NSaved=   1.
 NSaved= 1 IEnMin= 1 EnMin= -628.334058677186     IErMin= 1 ErrMin= 8.56D-03
 ErrMax= 8.56D-03  0.00D+00 EMaxC= 1.00D-01 BMatC= 1.08D-02 BMatP= 1.08D-02
 IDIUse=3 WtCom= 9.14D-01 WtEn= 8.56D-02
 Coeff-Com:  0.100D+01
 Coeff-En:   0.100D+01
 Coeff:      0.100D+01
 Gap=     0.484 Goal=   None    Shift=    0.000
 GapD=    0.484 DampG=2.000 DampE=1.000 DampFc=2.0000 IDamp=-1.
 RMSDP=1.94D-03 MaxDP=5.03D-02              OVMax= 5.11D-02

 Cycle   2  Pass 1  IDiag  1:
 E= -628.347568257590     Delta-E=       -0.013509580404 Rises=F Damp=F
 DIIS: error= 5.07D-03 at cycle   2 NSaved=   2.
 NSaved= 2 IEnMin= 2 EnMin= -628.347568257590     IErMin= 2 ErrMin= 5.07D-03
 ErrMax= 5.07D-03  0.00D+00 EMaxC= 1.00D-01 BMatC= 2.18D-03 BMatP= 1.08D-02
 IDIUse=3 WtCom= 9.49D-01 WtEn= 5.07D-02
 Coeff-Com:  0.187D+00 0.813D+00
 Coeff-En:   0.000D+00 0.100D+01
 Coeff:      0.178D+00 0.822D+00
 Gap=     0.339 Goal=   None    Shift=    0.000
 RMSDP=7.95D-04 MaxDP=3.44D-02 DE=-1.35D-02 OVMax= 1.98D-02

 Cycle   3  Pass 1  IDiag  1:
 E= -628.348450867304     Delta-E=       -0.000882609714 Rises=F Damp=F
 DIIS: error= 4.79D-03 at cycle   3 NSaved=   3.
 NSaved= 3 IEnMin= 3 EnMin= -628.348450867304     IErMin= 3 ErrMin= 4.79D-03
 ErrMax= 4.79D-03  0.00D+00 EMaxC= 1.00D-01 BMatC= 1.55D-03 BMatP= 2.18D-03
 IDIUse=3 WtCom= 9.52D-01 WtEn= 4.79D-02
 Coeff-Com: -0.539D-01 0.461D+00 0.593D+00
 Coeff-En:   0.000D+00 0.316D+00 0.684D+00
 Coeff:     -0.513D-01 0.454D+00 0.597D+00
 Gap=     0.345 Goal=   None    Shift=    0.000
 RMSDP=3.46D-04 MaxDP=1.11D-02 DE=-8.83D-04 OVMax= 1.02D-02

 Cycle   4  Pass 1  IDiag  1:
 E= -628.349562836650     Delta-E=       -0.001111969346 Rises=F Damp=F
 DIIS: error= 1.15D-03 at cycle   4 NSaved=   4.
 NSaved= 4 IEnMin= 4 EnMin= -628.349562836650     IErMin= 4 ErrMin= 1.15D-03
 ErrMax= 1.15D-03  0.00D+00 EMaxC= 1.00D-01 BMatC= 9.46D-05 BMatP= 1.55D-03
 IDIUse=3 WtCom= 9.88D-01 WtEn= 1.15D-02
 Coeff-Com: -0.396D-01 0.931D-01 0.252D+00 0.694D+00
 Coeff-En:   0.000D+00 0.000D+00 0.000D+00 0.100D+01
 Coeff:     -0.391D-01 0.920D-01 0.250D+00 0.698D+00
 Gap=     0.345 Goal=   None    Shift=    0.000
 RMSDP=1.39D-04 MaxDP=5.49D-03 DE=-1.11D-03 OVMax= 3.43D-03

 Cycle   5  Pass 1  IDiag  1:
 E= -628.349650728506     Delta-E=       -0.000087891856 Rises=F Damp=F
 DIIS: error= 2.73D-04 at cycle   5 NSaved=   5.
 NSaved= 5 IEnMin= 5 EnMin= -628.349650728506     IErMin= 5 ErrMin= 2.73D-04
 ErrMax= 2.73D-04  0.00D+00 EMaxC= 1.00D-01 BMatC= 6.35D-06 BMatP= 9.46D-05
 IDIUse=3 WtCom= 9.97D-01 WtEn= 2.73D-03
 Coeff-Com: -0.116D-02-0.358D-01-0.168D-01 0.206D+00 0.847D+00
 Coeff-En:   0.000D+00 0.000D+00 0.000D+00 0.000D+00 0.100D+01
 Coeff:     -0.116D-02-0.357D-01-0.167D-01 0.206D+00 0.848D+00
 Gap=     0.344 Goal=   None    Shift=    0.000
 RMSDP=3.42D-05 MaxDP=9.85D-04 DE=-8.79D-05 OVMax= 1.45D-03

 Cycle   6  Pass 1  IDiag  1:
 E= -628.349659257698     Delta-E=       -0.000008529192 Rises=F Damp=F
 DIIS: error= 4.76D-05 at cycle   6 NSaved=   6.
 NSaved= 6 IEnMin= 6 EnMin= -628.349659257698     IErMin= 6 ErrMin= 4.76D-05
 ErrMax= 4.76D-05  0.00D+00 EMaxC= 1.00D-01 BMatC= 2.57D-07 BMatP= 6.35D-06
 IDIUse=1 WtCom= 1.00D+00 WtEn= 0.00D+00
 Coeff-Com:  0.221D-02-0.144D-01-0.252D-01-0.108D-01 0.134D+00 0.915D+00
 Coeff:      0.221D-02-0.144D-01-0.252D-01-0.108D-01 0.134D+00 0.915D+00
 Gap=     0.344 Goal=   None    Shift=    0.000
 RMSDP=1.15D-05 MaxDP=2.68D-04 DE=-8.53D-06 OVMax= 5.16D-04

 Cycle   7  Pass 1  IDiag  1:
 E= -628.349659699398     Delta-E=       -0.000000441700 Rises=F Damp=F
 DIIS: error= 1.71D-05 at cycle   7 NSaved=   7.
 NSaved= 7 IEnMin= 7 EnMin= -628.349659699398     IErMin= 7 ErrMin= 1.71D-05
 ErrMax= 1.71D-05  0.00D+00 EMaxC= 1.00D-01 BMatC= 2.58D-08 BMatP= 2.57D-07
 IDIUse=1 WtCom= 1.00D+00 WtEn= 0.00D+00
 Coeff-Com:  0.754D-03-0.221D-02-0.672D-02-0.149D-01-0.697D-02 0.271D+00
 Coeff-Com:  0.760D+00
 Coeff:      0.754D-03-0.221D-02-0.672D-02-0.149D-01-0.697D-02 0.271D+00
 Coeff:      0.760D+00
 Gap=     0.344 Goal=   None    Shift=    0.000
 RMSDP=2.18D-06 MaxDP=6.03D-05 DE=-4.42D-07 OVMax= 7.35D-05

 Cycle   8  Pass 1  IDiag  1:
 E= -628.349659730034     Delta-E=       -0.000000030636 Rises=F Damp=F
 DIIS: error= 5.30D-06 at cycle   8 NSaved=   8.
 NSaved= 8 IEnMin= 8 EnMin= -628.349659730034     IErMin= 8 ErrMin= 5.30D-06
 ErrMax= 5.30D-06  0.00D+00 EMaxC= 1.00D-01 BMatC= 2.31D-09 BMatP= 2.58D-08
 IDIUse=1 WtCom= 1.00D+00 WtEn= 0.00D+00
 Coeff-Com: -0.105D-03 0.124D-02 0.144D-02-0.163D-02-0.177D-01-0.528D-01
 Coeff-Com:  0.192D+00 0.877D+00
 Coeff:     -0.105D-03 0.124D-02 0.144D-02-0.163D-02-0.177D-01-0.528D-01
 Coeff:      0.192D+00 0.877D+00
 Gap=     0.344 Goal=   None    Shift=    0.000
 RMSDP=8.34D-07 MaxDP=2.42D-05 DE=-3.06D-08 OVMax= 2.94D-05

 Cycle   9  Pass 1  IDiag  1:
 E= -628.349659733215     Delta-E=       -0.000000003181 Rises=F Damp=F
 DIIS: error= 7.06D-07 at cycle   9 NSaved=   9.
 NSaved= 9 IEnMin= 9 EnMin= -628.349659733215     IErMin= 9 ErrMin= 7.06D-07
 ErrMax= 7.06D-07  0.00D+00 EMaxC= 1.00D-01 BMatC= 6.55D-11 BMatP= 2.31D-09
 IDIUse=1 WtCom= 1.00D+00 WtEn= 0.00D+00
 Coeff-Com: -0.253D-04 0.183D-03 0.304D-03 0.250D-03-0.250D-02-0.109D-01
 Coeff-Com: -0.306D-02 0.115D+00 0.901D+00
 Coeff:     -0.253D-04 0.183D-03 0.304D-03 0.250D-03-0.250D-02-0.109D-01
 Coeff:     -0.306D-02 0.115D+00 0.901D+00
 Gap=     0.344 Goal=   None    Shift=    0.000
 RMSDP=2.08D-07 MaxDP=8.77D-06 DE=-3.18D-09 OVMax= 5.16D-06

 Cycle  10  Pass 1  IDiag  1:
 E= -628.349659733251     Delta-E=       -0.000000000036 Rises=F Damp=F
 DIIS: error= 9.84D-07 at cycle  10 NSaved=  10.
 NSaved=10 IEnMin=10 EnMin= -628.349659733251     IErMin= 9 ErrMin= 7.06D-07
 ErrMax= 9.84D-07  0.00D+00 EMaxC= 1.00D-01 BMatC= 6.51D-11 BMatP= 6.55D-11
 IDIUse=1 WtCom= 1.00D+00 WtEn= 0.00D+00
 Coeff-Com: -0.340D-05-0.361D-04 0.170D-04 0.379D-03 0.574D-03-0.524D-03
 Coeff-Com: -0.269D-01-0.328D-01 0.592D+00 0.467D+00
 Coeff:     -0.340D-05-0.361D-04 0.170D-04 0.379D-03 0.574D-03-0.524D-03
 Coeff:     -0.269D-01-0.328D-01 0.592D+00 0.467D+00
 Gap=     0.344 Goal=   None    Shift=    0.000
 RMSDP=8.10D-08 MaxDP=2.45D-06 DE=-3.64D-11 OVMax= 2.26D-06

 Cycle  11  Pass 1  IDiag  1:
 E= -628.349659733301     Delta-E=       -0.000000000050 Rises=F Damp=F
 DIIS: error= 6.82D-08 at cycle  11 NSaved=  11.
 NSaved=11 IEnMin=11 EnMin= -628.349659733301     IErMin=11 ErrMin= 6.82D-08
 ErrMax= 6.82D-08  0.00D+00 EMaxC= 1.00D-01 BMatC= 6.42D-13 BMatP= 6.51D-11
 IDIUse=1 WtCom= 1.00D+00 WtEn= 0.00D+00
 Coeff-Com:  0.178D-05-0.208D-04-0.301D-04 0.116D-04 0.393D-03 0.925D-03
 Coeff-Com: -0.208D-02-0.141D-01-0.529D-01 0.392D-01 0.103D+01
 Coeff:      0.178D-05-0.208D-04-0.301D-04 0.116D-04 0.393D-03 0.925D-03
 Coeff:     -0.208D-02-0.141D-01-0.529D-01 0.392D-01 0.103D+01
 Gap=     0.344 Goal=   None    Shift=    0.000
 RMSDP=3.04D-08 MaxDP=1.49D-06 DE=-5.00D-11 OVMax= 8.57D-07

 Cycle  12  Pass 1  IDiag  1:
 E= -628.349659733304     Delta-E=       -0.000000000002 Rises=F Damp=F
 DIIS: error= 1.57D-08 at cycle  12 NSaved=  12.
 NSaved=12 IEnMin=12 EnMin= -628.349659733304     IErMin=12 ErrMin= 1.57D-08
 ErrMax= 1.57D-08  0.00D+00 EMaxC= 1.00D-01 BMatC= 2.52D-14 BMatP= 6.42D-13
 IDIUse=1 WtCom= 1.00D+00 WtEn= 0.00D+00
 Coeff-Com:  0.225D-06 0.191D-05-0.563D-06-0.208D-04-0.256D-04 0.876D-04
 Coeff-Com:  0.130D-02 0.123D-02-0.333D-01-0.264D-01-0.830D-02 0.107D+01
 Coeff:      0.225D-06 0.191D-05-0.563D-06-0.208D-04-0.256D-04 0.876D-04
 Coeff:      0.130D-02 0.123D-02-0.333D-01-0.264D-01-0.830D-02 0.107D+01
 Gap=     0.344 Goal=   None    Shift=    0.000
 RMSDP=9.33D-09 MaxDP=4.66D-07 DE=-2.27D-12 OVMax= 2.27D-07

 SCF Done:  E(RM062X) =  -628.349659733     A.U. after   12 cycles
            NFock= 12  Conv=0.93D-08     -V/T= 2.0024
 KE= 6.268158367412D+02 PE=-2.020756970987D+03 EE= 4.978637934180D+02
 Leave Link  502 at Sun Oct 13 21:42:00 2019, MaxMem= 10737418240 cpu:              70.1 elap:               4.2
 (Enter /apps/cent7/gaussian/g16-A.03/g16-haswell/g16/l701.exe)
 ... and contract with generalized density number  0.
 Compute integral first derivatives.
 Leave Link  701 at Sun Oct 13 21:42:00 2019, MaxMem= 10737418240 cpu:               2.4 elap:               0.1
 (Enter /apps/cent7/gaussian/g16-A.03/g16-haswell/g16/l702.exe)
 L702 exits ... SP integral derivatives will be done elsewhere.
 Leave Link  702 at Sun Oct 13 21:42:01 2019, MaxMem= 10737418240 cpu:               1.1 elap:               0.1
 (Enter /apps/cent7/gaussian/g16-A.03/g16-haswell/g16/l703.exe)
 Integral derivatives from FoFJK, PRISM(SPDF).
 Compute integral first derivatives, UseDBF=F ICtDFT=           0.
 Calling FoFJK, ICntrl=      2127 FMM=F ISym2X=0 I1Cent= 0 IOpClX= 0 NMat=1 NMatS=1 NMatT=0.
 FoFJK:  IHMeth= 1 ICntrl=    2127 DoSepK=F KAlg= 0 I1Cent=           0 FoldK=F
 IRaf=         0 NMat=       1 IRICut=       1 DoRegI=T DoRafI=F ISym2E= 0 IDoP0=0 IntGTp=1.
 FoFCou: FMM=F IPFlag=           0 FMFlag=      100000 FMFlg1=         800
         NFxFlg=           0 DoJE=F BraDBF=F KetDBF=F FulRan=T
         wScrn=  0.000000 ICntrl=      2127 IOpCl=  0 I1Cent=           0 NGrid=           0
         NMat0=    1 NMatS0=      1 NMatT0=    0 NMatD0=    1 NMtDS0=    0 NMtDT0=    0
 Symmetry not used in FoFCou.
 Leave Link  703 at Sun Oct 13 21:42:01 2019, MaxMem= 10737418240 cpu:              15.6 elap:               0.7
 (Enter /apps/cent7/gaussian/g16-A.03/g16-haswell/g16/l716.exe)
 Dipole        = 1.76994288D-04-2.29633097D+00 2.09558744D-04
 ***** Axes restored to original set *****
 -------------------------------------------------------------------
 Center     Atomic                   Forces (Hartrees/Bohr)
 Number     Number              X              Y              Z
 -------------------------------------------------------------------
      1        6           0.006312574    0.000130663    0.001840473
      2       16          -0.034465024   -0.054201741   -0.044522521
      3        8           0.024807000    0.051546031   -0.012408128
      4        6          -0.002867395    0.005266177    0.002710727
      5        8           0.010135891    0.003417452    0.057532665
      6        1          -0.000618115   -0.001096602   -0.000720416
      7        1          -0.000798776   -0.000762963   -0.001354502
      8        1           0.000011159   -0.001271631   -0.000856599
      9        1          -0.000662690   -0.001484399   -0.000555982
     10        1          -0.001215687   -0.000624510   -0.000694155
     11        1          -0.000638937   -0.000918479   -0.000971563
 -------------------------------------------------------------------
 Cartesian Forces:  Max     0.057532665 RMS     0.019893846
 Leave Link  716 at Sun Oct 13 21:42:01 2019, MaxMem= 10737418240 cpu:               1.0 elap:               0.1
 (Enter /apps/cent7/gaussian/g16-A.03/g16-haswell/g16/l103.exe)

 GradGradGradGradGradGradGradGradGradGradGradGradGradGradGradGradGradGrad
 Berny optimization.
 Using GEDIIS/GDIIS optimizer.
 FormGI is forming the generalized inverse of G from B-inverse, IUseBI=4.
 Internal  Forces:  Max     0.057592523 RMS     0.012298283
 Search for a local minimum.
 Step number   2 out of a maximum of   56
 All quantities printed in internal units (Hartrees-Bohrs-Radians)
 RMS Force = .12298D-01 SwitMx=.10000D-02 MixMth= 1
 Mixed Optimization -- RFO/linear search
 Update second derivatives using D2CorX and points    1    2
 DE= -3.66D-02 DEPred=-2.93D-02 R= 1.25D+00
 TightC=F SS=  1.41D+00  RLast= 3.65D-01 DXNew= 5.0454D-01 1.0950D+00
 Trust test= 1.25D+00 RLast= 3.65D-01 DXMaxT set to 5.05D-01
 ITU=  1  0
 Use linear search instead of GDIIS.
     Eigenvalues ---    0.00230   0.00230   0.05845   0.05846   0.06139
     Eigenvalues ---    0.06139   0.06847   0.07757   0.10725   0.16000
     Eigenvalues ---    0.16000   0.16000   0.16000   0.16000   0.16916
     Eigenvalues ---    0.17273   0.23985   0.24356   0.25396   0.29060
     Eigenvalues ---    0.34808   0.34810   0.34814   0.34818   0.34821
     Eigenvalues ---    0.34870   0.50517
 RFO step:  Lambda=-5.54318568D-03 EMin= 2.29990794D-03
 Quartic linear search produced a step of  0.65412.
 Iteration  1 RMS(Cart)=  0.03475419 RMS(Int)=  0.00059527
 Iteration  2 RMS(Cart)=  0.00039915 RMS(Int)=  0.00042047
 Iteration  3 RMS(Cart)=  0.00000074 RMS(Int)=  0.00042047
 ITry= 1 IFail=0 DXMaxC= 1.57D-01 DCOld= 1.00D+10 DXMaxT= 5.05D-01 DXLimC= 3.00D+00 Rises=F
 Variable       Old X    -DE/DX   Delta X   Delta X   Delta X     New X
                                 (Linear)    (Quad)   (Total)
    R1        3.38936  -0.00498  -0.04339   0.03305  -0.01034   3.37903
    R2        2.05962  -0.00063  -0.00018  -0.00272  -0.00291   2.05671
    R3        2.06005  -0.00060   0.00024  -0.00315  -0.00291   2.05714
    R4        2.05577   0.00026  -0.00258   0.00468   0.00210   2.05787
    R5        2.86691  -0.05759  -0.10705  -0.05755  -0.16460   2.70231
    R6        3.38926  -0.00498  -0.04337   0.03303  -0.01034   3.37892
    R7        2.86685  -0.05757  -0.10697  -0.05750  -0.16447   2.70237
    R8        2.06006  -0.00061   0.00013  -0.00305  -0.00292   2.05715
    R9        2.05578   0.00026  -0.00258   0.00468   0.00210   2.05788
   R10        2.05963  -0.00063  -0.00014  -0.00278  -0.00292   2.05672
    A1        1.89799  -0.00044  -0.00822   0.01178   0.00333   1.90132
    A2        1.90122  -0.00038  -0.00619   0.00819   0.00180   1.90302
    A3        1.85301  -0.00239  -0.03768   0.04509   0.00697   1.85998
    A4        1.93759   0.00147   0.01764  -0.01568   0.00195   1.93954
    A5        1.93631   0.00081   0.01683  -0.02246  -0.00613   1.93018
    A6        1.93512   0.00071   0.01596  -0.02292  -0.00739   1.92773
    A7        1.89818  -0.00164  -0.00934   0.00357  -0.00675   1.89143
    A8        1.84927  -0.00190  -0.03932   0.04333   0.00269   1.85196
    A9        1.89820  -0.00175  -0.00934   0.00247  -0.00786   1.89034
   A10        1.89822  -0.00175  -0.00937   0.00259  -0.00776   1.89046
   A11        2.01477   0.00790   0.07221  -0.04758   0.02494   2.03970
   A12        1.89818  -0.00165  -0.00941   0.00350  -0.00689   1.89129
   A13        1.90091  -0.00038  -0.00633   0.00843   0.00190   1.90282
   A14        1.85301  -0.00239  -0.03767   0.04507   0.00696   1.85997
   A15        1.89829  -0.00044  -0.00808   0.01151   0.00320   1.90149
   A16        1.93515   0.00072   0.01602  -0.02287  -0.00727   1.92788
   A17        1.93760   0.00147   0.01764  -0.01566   0.00197   1.93957
   A18        1.93627   0.00080   0.01674  -0.02249  -0.00624   1.93003
    D1        0.90842  -0.00434  -0.04419   0.03500  -0.00880   0.89963
    D2       -1.12953  -0.00051  -0.00551   0.00750   0.00213  -1.12741
    D3        3.11574   0.00327   0.03322  -0.02053   0.01258   3.12832
    D4        3.02231  -0.00305  -0.03142   0.02799  -0.00330   3.01901
    D5        0.98436   0.00078   0.00726   0.00049   0.00763   0.99198
    D6       -1.05355   0.00456   0.04599  -0.02754   0.01808  -1.03548
    D7       -1.17608  -0.00375  -0.03779   0.03037  -0.00719  -1.18327
    D8        3.06915   0.00009   0.00089   0.00286   0.00373   3.07288
    D9        1.03124   0.00387   0.03962  -0.02516   0.01418   1.04542
   D10        0.99594   0.00077   0.00710  -0.00038   0.00660   1.00254
   D11        3.08061   0.00008   0.00075   0.00217   0.00290   3.08351
   D12       -1.11795  -0.00052  -0.00568   0.00663   0.00109  -1.11686
   D13       -1.04198   0.00453   0.04576  -0.02854   0.01684  -1.02514
   D14        1.04269   0.00385   0.03941  -0.02600   0.01314   1.05583
   D15        3.12731   0.00324   0.03299  -0.02153   0.01133   3.13864
   D16        3.03387  -0.00308  -0.03159   0.02695  -0.00450   3.02937
   D17       -1.16465  -0.00376  -0.03794   0.02949  -0.00820  -1.17285
   D18        0.91997  -0.00437  -0.04436   0.03396  -0.01001   0.90996
         Item               Value     Threshold  Converged?
 Maximum Force            0.057593     0.000450     NO 
 RMS     Force            0.012298     0.000300     NO 
 Maximum Displacement     0.156629     0.001800     NO 
 RMS     Displacement     0.034778     0.001200     NO 
 Predicted change in Energy=-1.205180D-02
 Lowest energy point so far.  Saving SCF results.
 GradGradGradGradGradGradGradGradGradGradGradGradGradGradGradGradGradGrad

 Leave Link  103 at Sun Oct 13 21:42:01 2019, MaxMem= 10737418240 cpu:               0.4 elap:               0.0
 (Enter /apps/cent7/gaussian/g16-A.03/g16-haswell/g16/l202.exe)
                          Input orientation:                          
 ---------------------------------------------------------------------
 Center     Atomic      Atomic             Coordinates (Angstroms)
 Number     Number       Type             X           Y           Z
 ---------------------------------------------------------------------
      1          6           0       -0.750343    1.354242    0.460413
      2         16           0        0.034929   -0.042406   -0.333337
      3          8           0       -0.504031   -1.241829    0.228636
      4          6           0        1.767548    0.051229    0.098371
      5          8           0       -0.085963    0.119081   -1.749070
      6          1           0       -0.676071    1.234855    1.539657
      7          1           0       -0.261637    2.269991    0.132390
      8          1           0       -1.792576    1.345132    0.144907
      9          1           0        1.863932    0.044372    1.182669
     10          1           0        2.242730   -0.829234   -0.331591
     11          1           0        2.189183    0.959867   -0.327244
 ---------------------------------------------------------------------
                    Distance matrix (angstroms):
                    1          2          3          4          5
     1  C    0.000000
     2  S    1.788104   0.000000
     3  O    2.618009   1.430002   0.000000
     4  C    2.858093   1.788045   2.617067   0.000000
     5  O    2.617028   1.430033   2.436838   2.617851   0.000000
     6  H    1.088365   2.375925   2.807550   3.074012   3.522628
     7  H    1.088591   2.377401   3.521491   3.006935   2.863070
     8  H    1.088979   2.343876   2.891319   3.788249   2.828936
     9  H    3.011951   2.377195   2.858626   1.088595   3.521756
    10  H    3.788578   2.343819   2.833510   1.088982   2.886410
    11  H    3.068672   2.376005   3.522764   1.088369   2.811548
                    6          7          8          9         10
     6  H    0.000000
     7  H    1.795456   0.000000
     8  H    1.789992   1.788657   0.000000
     9  H    2.827774   3.251847   4.017335   0.000000
    10  H    4.035026   4.011525   4.608537   1.788759   0.000000
    11  H    3.430834   2.816773   4.028121   1.795482   1.789908
                   11
    11  H    0.000000
 Stoichiometry    C2H6O2S
 Framework group  C1[X(C2H6O2S)]
 Deg. of freedom    27
 Full point group                 C1      NOp   1
 RotChk:  IX=3 Diff= 2.33D-03
 Largest Abelian subgroup         C1      NOp   1
 Largest concise Abelian subgroup C1      NOp   1
                         Standard orientation:                         
 ---------------------------------------------------------------------
 Center     Atomic      Atomic             Coordinates (Angstroms)
 Number     Number       Type             X           Y           Z
 ---------------------------------------------------------------------
      1          6           0        1.429168   -0.903910    0.002410
      2         16           0       -0.000026    0.170668   -0.000000
      3          8           0       -0.002766    0.919702    1.218132
      4          6           0       -1.428922   -0.904209   -0.001896
      5          8           0        0.002522    0.918839   -1.218700
      6          1           0        1.444676   -1.468949    0.932479
      7          1           0        1.375941   -1.567419   -0.858957
      8          1           0        2.303263   -0.258260   -0.068088
      9          1           0       -1.380847   -1.559906    0.865738
     10          1           0       -2.303570   -0.258162    0.057219
     11          1           0       -1.438579   -1.477596   -0.926927
 ---------------------------------------------------------------------
 Rotational constants (GHZ):           4.7097600           4.2660643           4.0660996
 Leave Link  202 at Sun Oct 13 21:42:01 2019, MaxMem= 10737418240 cpu:               0.3 elap:               0.0
 (Enter /apps/cent7/gaussian/g16-A.03/g16-haswell/g16/l301.exe)
 Standard basis: 6-311++G(d,p) (5D, 7F)
 Ernie: Thresh=  0.10000D-02 Tol=  0.10000D-05 Strict=F.
 There are   165 symmetry adapted cartesian basis functions of A   symmetry.
 There are   160 symmetry adapted basis functions of A   symmetry.
   160 basis functions,   248 primitive gaussians,   165 cartesian basis functions
    25 alpha electrons       25 beta electrons
       nuclear repulsion energy       275.5702563477 Hartrees.
 IExCor= 4336 DFT=T Ex+Corr=M062X ExCW=0 ScaHFX=  0.540000
 ScaDFX=  1.000000  1.000000  1.000000  1.000000 ScalE2=  1.000000  1.000000
 IRadAn=      5 IRanWt=     -1 IRanGd=            0 ICorTp=0 IEmpDi=  4
 NAtoms=   11 NActive=   11 NUniq=   11 SFac= 1.00D+00 NAtFMM=   60 NAOKFM=F Big=F
 Integral buffers will be    131072 words long.
 Raffenetti 2 integral format.
 Two-electron integral symmetry is turned on.
 Leave Link  301 at Sun Oct 13 21:42:01 2019, MaxMem= 10737418240 cpu:               1.3 elap:               0.1
 (Enter /apps/cent7/gaussian/g16-A.03/g16-haswell/g16/l302.exe)
 NPDir=0 NMtPBC=     1 NCelOv=     1 NCel=       1 NClECP=     1 NCelD=      1
         NCelK=      1 NCelE2=     1 NClLst=     1 CellRange=     0.0.
 One-electron integrals computed using PRISM.
 One-electron integral symmetry used in STVInt
 NBasis=   160 RedAO= T EigKep=  9.25D-05  NBF=   160
 NBsUse=   160 1.00D-06 EigRej= -1.00D+00 NBFU=   160
 Precomputing XC quadrature grid using
 IXCGrd= 4 IRadAn=           5 IRanWt=          -1 IRanGd=           0 AccXCQ= 0.00D+00.
 Generated NRdTot=       0 NPtTot=           0 NUsed=           0 NTot=          32
 NSgBfM=   165   165   165   165   165 MxSgAt=    11 MxSgA2=    11.
 Leave Link  302 at Sun Oct 13 21:42:02 2019, MaxMem= 10737418240 cpu:               3.0 elap:               0.1
 (Enter /apps/cent7/gaussian/g16-A.03/g16-haswell/g16/l303.exe)
 DipDrv:  MaxL=1.
 Leave Link  303 at Sun Oct 13 21:42:02 2019, MaxMem= 10737418240 cpu:               0.6 elap:               0.0
 (Enter /apps/cent7/gaussian/g16-A.03/g16-haswell/g16/l401.exe)
 Initial guess from the checkpoint file:  "25.chk"
 B after Tr=     0.000000   -0.000000   -0.000000
         Rot=    1.000000    0.000073    0.000829   -0.000015 Ang=   0.10 deg.
 Guess basis will be translated and rotated to current coordinates.
 JPrj=2 DoOrth=T DoCkMO=T.
 Generating alternative initial guess.
 ExpMin= 3.60D-02 ExpMax= 9.34D+04 ExpMxC= 3.17D+03 IAcc=3 IRadAn=         5 AccDes= 0.00D+00
 Harris functional with IExCor= 1009 and IRadAn=       5 diagonalized for initial guess.
 HarFok:  IExCor= 1009 AccDes= 0.00D+00 IRadAn=         5 IDoV= 1 UseB2=F ITyADJ=14
 ICtDFT=  3500011 ScaDFX=  1.000000  1.000000  1.000000  1.000000
 FoFCou: FMM=F IPFlag=           0 FMFlag=      100000 FMFlg1=           0
         NFxFlg=           0 DoJE=T BraDBF=F KetDBF=T FulRan=T
         wScrn=  0.000000 ICntrl=       500 IOpCl=  0 I1Cent=   200000004 NGrid=           0
         NMat0=    1 NMatS0=      1 NMatT0=    0 NMatD0=    1 NMtDS0=    0 NMtDT0=    0
 Petite list used in FoFCou.
 Harris En= -628.191890185635    
 Leave Link  401 at Sun Oct 13 21:42:02 2019, MaxMem= 10737418240 cpu:               7.0 elap:               0.3
 (Enter /apps/cent7/gaussian/g16-A.03/g16-haswell/g16/l502.exe)
 Keep R1 ints in memory in canonical form, NReq=106775950.
 FoFCou: FMM=F IPFlag=           0 FMFlag=           0 FMFlg1=           0
         NFxFlg=           0 DoJE=F BraDBF=F KetDBF=F FulRan=T
         wScrn=  0.000000 ICntrl=       600 IOpCl=  0 I1Cent=           0 NGrid=           0
         NMat0=    1 NMatS0=  12880 NMatT0=    0 NMatD0=    1 NMtDS0=    0 NMtDT0=    0
 Symmetry not used in FoFCou.
 Two-electron integral symmetry not used.
 Closed shell SCF:
 Using DIIS extrapolation, IDIIS=  1040.
 NGot= 10737418240 LenX= 10654404460 LenY= 10654376794
 Requested convergence on RMS density matrix=1.00D-08 within 128 cycles.
 Requested convergence on MAX density matrix=1.00D-06.
 Requested convergence on             energy=1.00D-06.
 No special actions if energy rises.

 Cycle   1  Pass 1  IDiag  1:
 E= -628.344154608806    
 DIIS: error= 8.29D-03 at cycle   1 NSaved=   1.
 NSaved= 1 IEnMin= 1 EnMin= -628.344154608806     IErMin= 1 ErrMin= 8.29D-03
 ErrMax= 8.29D-03  0.00D+00 EMaxC= 1.00D-01 BMatC= 1.01D-02 BMatP= 1.01D-02
 IDIUse=3 WtCom= 9.17D-01 WtEn= 8.29D-02
 Coeff-Com:  0.100D+01
 Coeff-En:   0.100D+01
 Coeff:      0.100D+01
 Gap=     0.500 Goal=   None    Shift=    0.000
 GapD=    0.500 DampG=2.000 DampE=1.000 DampFc=2.0000 IDamp=-1.
 RMSDP=1.15D-03 MaxDP=2.31D-02              OVMax= 3.21D-02

 Cycle   2  Pass 1  IDiag  1:
 E= -628.354190919800     Delta-E=       -0.010036310994 Rises=F Damp=F
 DIIS: error= 5.73D-03 at cycle   2 NSaved=   2.
 NSaved= 2 IEnMin= 2 EnMin= -628.354190919800     IErMin= 2 ErrMin= 5.73D-03
 ErrMax= 5.73D-03  0.00D+00 EMaxC= 1.00D-01 BMatC= 1.97D-03 BMatP= 1.01D-02
 IDIUse=3 WtCom= 9.43D-01 WtEn= 5.73D-02
 Coeff-Com:  0.208D+00 0.792D+00
 Coeff-En:   0.000D+00 0.100D+01
 Coeff:      0.196D+00 0.804D+00
 Gap=     0.345 Goal=   None    Shift=    0.000
 RMSDP=7.95D-04 MaxDP=3.38D-02 DE=-1.00D-02 OVMax= 1.83D-02

 Cycle   3  Pass 1  IDiag  1:
 E= -628.354988588739     Delta-E=       -0.000797668939 Rises=F Damp=F
 DIIS: error= 3.58D-03 at cycle   3 NSaved=   3.
 NSaved= 3 IEnMin= 3 EnMin= -628.354988588739     IErMin= 3 ErrMin= 3.58D-03
 ErrMax= 3.58D-03  0.00D+00 EMaxC= 1.00D-01 BMatC= 1.13D-03 BMatP= 1.97D-03
 IDIUse=3 WtCom= 9.64D-01 WtEn= 3.58D-02
 Coeff-Com: -0.343D-01 0.424D+00 0.610D+00
 Coeff-En:   0.000D+00 0.295D+00 0.705D+00
 Coeff:     -0.331D-01 0.420D+00 0.613D+00
 Gap=     0.350 Goal=   None    Shift=    0.000
 RMSDP=3.30D-04 MaxDP=1.30D-02 DE=-7.98D-04 OVMax= 6.70D-03

 Cycle   4  Pass 1  IDiag  1:
 E= -628.355770763192     Delta-E=       -0.000782174453 Rises=F Damp=F
 DIIS: error= 9.47D-04 at cycle   4 NSaved=   4.
 NSaved= 4 IEnMin= 4 EnMin= -628.355770763192     IErMin= 4 ErrMin= 9.47D-04
 ErrMax= 9.47D-04  0.00D+00 EMaxC= 1.00D-01 BMatC= 5.71D-05 BMatP= 1.13D-03
 IDIUse=3 WtCom= 9.91D-01 WtEn= 9.47D-03
 Coeff-Com: -0.298D-01 0.777D-01 0.237D+00 0.715D+00
 Coeff-En:   0.000D+00 0.000D+00 0.000D+00 0.100D+01
 Coeff:     -0.295D-01 0.770D-01 0.235D+00 0.718D+00
 Gap=     0.351 Goal=   None    Shift=    0.000
 RMSDP=1.08D-04 MaxDP=4.50D-03 DE=-7.82D-04 OVMax= 2.23D-03

 Cycle   5  Pass 1  IDiag  1:
 E= -628.355819361202     Delta-E=       -0.000048598011 Rises=F Damp=F
[...]
    A8        1.81142   0.00000   0.00000   0.00001   0.00001   1.81144
    A9        1.88196   0.00001   0.00000   0.00007   0.00007   1.88203
   A10        1.88197   0.00001   0.00000   0.00006   0.00006   1.88203
   A11        2.10307   0.00000   0.00000  -0.00000  -0.00000   2.10307
   A12        1.88209  -0.00000   0.00000  -0.00005  -0.00005   1.88204
   A13        1.90342   0.00001   0.00000   0.00011   0.00011   1.90353
   A14        1.84274   0.00000   0.00000   0.00002   0.00002   1.84276
   A15        1.90361  -0.00000   0.00000  -0.00008  -0.00008   1.90353
   A16        1.92619   0.00000   0.00000   0.00010   0.00010   1.92629
   A17        1.95770  -0.00000   0.00000  -0.00007  -0.00007   1.95764
   A18        1.92636  -0.00000   0.00000  -0.00007  -0.00007   1.92629
    D1        0.92176   0.00000   0.00000   0.00004   0.00004   0.92179
    D2       -1.07165  -0.00000   0.00000  -0.00000  -0.00000  -1.07166
    D3       -3.06513  -0.00000   0.00000   0.00002   0.00002  -3.06511
    D4        3.06514  -0.00000   0.00000  -0.00003  -0.00003   3.06510
    D5        1.07173  -0.00000   0.00000  -0.00007  -0.00007   1.07165
    D6       -0.92175  -0.00000   0.00000  -0.00005  -0.00005  -0.92180
    D7       -1.14829   0.00000   0.00000   0.00014   0.00014  -1.14814
    D8        3.14149   0.00000   0.00000   0.00010   0.00010   3.14159
    D9        1.14801   0.00000   0.00000   0.00013   0.00013   1.14814
   D10        1.07169  -0.00001   0.00000  -0.00004  -0.00004   1.07165
   D11        3.14144  -0.00000   0.00000   0.00014   0.00014   3.14159
   D12       -1.07169  -0.00000   0.00000   0.00003   0.00003  -1.07166
   D13       -0.92184  -0.00000   0.00000   0.00003   0.00003  -0.92180
   D14        1.14792   0.00001   0.00000   0.00022   0.00022   1.14813
   D15       -3.06521   0.00000   0.00000   0.00010   0.00010  -3.06511
   D16        3.06507  -0.00000   0.00000   0.00003   0.00003   3.06510
   D17       -1.14836   0.00001   0.00000   0.00021   0.00021  -1.14815
   D18        0.92169   0.00000   0.00000   0.00010   0.00010   0.92179
         Item               Value     Threshold  Converged?
 Maximum Force            0.000013     0.000450     YES
 RMS     Force            0.000004     0.000300     YES
 Maximum Displacement     0.000261     0.001800     YES
 RMS     Displacement     0.000083     0.001200     YES
 Predicted change in Energy=-5.228964D-09
 Optimization completed.
    -- Stationary point found.
                           ----------------------------
                           !   Optimized Parameters   !
                           ! (Angstroms and Degrees)  !
 --------------------------                            --------------------------
 ! Name  Definition              Value          Derivative Info.                !
 --------------------------------------------------------------------------------
 ! R1    R(1,2)                  1.7882         -DE/DX =    0.0                 !
 ! R2    R(1,6)                  1.0885         -DE/DX =    0.0                 !
 ! R3    R(1,7)                  1.0885         -DE/DX =    0.0                 !
 ! R4    R(1,8)                  1.0896         -DE/DX =    0.0                 !
 ! R5    R(2,3)                  1.4551         -DE/DX =    0.0                 !
 ! R6    R(2,4)                  1.7882         -DE/DX =    0.0                 !
 ! R7    R(2,5)                  1.4551         -DE/DX =    0.0                 !
 ! R8    R(4,9)                  1.0885         -DE/DX =    0.0                 !
 ! R9    R(4,10)                 1.0896         -DE/DX =    0.0                 !
 ! R10   R(4,11)                 1.0885         -DE/DX =    0.0                 !
 ! A1    A(2,1,6)              109.0682         -DE/DX =    0.0                 !
 ! A2    A(2,1,7)              109.0592         -DE/DX =    0.0                 !
 ! A3    A(2,1,8)              105.581          -DE/DX =    0.0                 !
 ! A4    A(6,1,7)              112.1681         -DE/DX =    0.0                 !
 ! A5    A(6,1,8)              110.3722         -DE/DX =    0.0                 !
 ! A6    A(7,1,8)              110.3623         -DE/DX =    0.0                 !
 ! A7    A(1,2,3)              107.8381         -DE/DX =    0.0                 !
 ! A8    A(1,2,4)              103.787          -DE/DX =    0.0                 !
 ! A9    A(1,2,5)              107.8284         -DE/DX =    0.0                 !
 ! A10   A(3,2,4)              107.8291         -DE/DX =    0.0                 !
 ! A11   A(3,2,5)              120.497          -DE/DX =    0.0                 !
 ! A12   A(4,2,5)              107.836          -DE/DX =    0.0                 !
 ! A13   A(2,4,9)              109.058          -DE/DX =    0.0                 !
 ! A14   A(2,4,10)             105.5813         -DE/DX =    0.0                 !
 ! A15   A(2,4,11)             109.0689         -DE/DX =    0.0                 !
 ! A16   A(9,4,10)             110.3624         -DE/DX =    0.0                 !
 ! A17   A(9,4,11)             112.1682         -DE/DX =    0.0                 !
 ! A18   A(10,4,11)            110.3722         -DE/DX =    0.0                 !
 ! D1    D(6,1,2,3)             52.8128         -DE/DX =    0.0                 !
 ! D2    D(6,1,2,4)            -61.4013         -DE/DX =    0.0                 !
 ! D3    D(6,1,2,5)           -175.6191         -DE/DX =    0.0                 !
 ! D4    D(7,1,2,3)            175.6194         -DE/DX =    0.0                 !
 ! D5    D(7,1,2,4)             61.4053         -DE/DX =    0.0                 !
 ! D6    D(7,1,2,5)            -52.8125         -DE/DX =    0.0                 !
 ! D7    D(8,1,2,3)            -65.7919         -DE/DX =    0.0                 !
 ! D8    D(8,1,2,4)            179.994          -DE/DX =    0.0                 !
 ! D9    D(8,1,2,5)             65.7762         -DE/DX =    0.0                 !
 ! D10   D(1,2,4,9)             61.4031         -DE/DX =    0.0                 !
 ! D11   D(1,2,4,10)           179.9914         -DE/DX =    0.0                 !
 ! D12   D(1,2,4,11)           -61.4033         -DE/DX =    0.0                 !
 ! D13   D(3,2,4,9)            -52.8174         -DE/DX =    0.0                 !
 ! D14   D(3,2,4,10)            65.7708         -DE/DX =    0.0                 !
 ! D15   D(3,2,4,11)          -175.6238         -DE/DX =    0.0                 !
 ! D16   D(5,2,4,9)            175.6155         -DE/DX =    0.0                 !
 ! D17   D(5,2,4,10)           -65.7962         -DE/DX =    0.0                 !
 ! D18   D(5,2,4,11)            52.8091         -DE/DX =    0.0                 !
 --------------------------------------------------------------------------------
 GradGradGradGradGradGradGradGradGradGradGradGradGradGradGradGradGradGrad

 Leave Link  103 at Sun Oct 13 21:42:57 2019, MaxMem= 10737418240 cpu:               0.7 elap:               0.1
 (Enter /apps/cent7/gaussian/g16-A.03/g16-haswell/g16/l9999.exe)

 ----------------------------------------------------------------------

 Electric dipole moment (input orientation):
 (Debye = 10**-18 statcoulomb cm , SI units = C m)
                  (au)            (Debye)         (10**-30 SI)
   Tot        0.198068D+01      0.503439D+01      0.167929D+02
   x          0.872345D+00      0.221728D+01      0.739605D+01
   y          0.137123D+01      0.348532D+01      0.116258D+02
   z          0.113218D+01      0.287772D+01      0.959902D+01

 Dipole polarizability, Alpha (input orientation).
 (esu units = cm**3 , SI units = C**2 m**2 J**-1)
 Alpha(0;0):
               (au)            (10**-24 esu)      (10**-40 SI)
   iso        0.496484D+02      0.735714D+01      0.818592D+01
   aniso      0.316271D+01      0.468665D+00      0.521461D+00
   xx         0.510360D+02      0.756276D+01      0.841471D+01
   yx        -0.128652D+01     -0.190642D+00     -0.212118D+00
   yy         0.492628D+02      0.729999D+01      0.812233D+01
   zx        -0.340824D+00     -0.505049D-01     -0.561942D-01
   zy         0.154677D+00      0.229207D-01      0.255027D-01
   zz         0.486465D+02      0.720867D+01      0.802072D+01

 ----------------------------------------------------------------------

 Dipole orientation:
     6         -2.07577506          1.45475837          1.65520324
    16          0.35188279          0.37006374         -0.43024185
     8         -0.62175036         -1.80967019         -1.79481692
     6          2.77961436         -0.71461597          1.65512184
     8          1.32552410          2.54981155         -1.79475004
     1         -2.73050367         -0.12225357          2.80218629
     1         -1.33762882          2.99473004          2.80192533
     1         -3.59053808          2.13176424          0.43590493
     1          2.04145189         -2.25452397          2.80191081
     1          4.29430260         -1.39171448          0.43578081
     1          3.43445036          0.86240541          2.80203811

 Electric dipole moment (dipole orientation):
 (Debye = 10**-18 statcoulomb cm , SI units = C m)
                  (au)            (Debye)         (10**-30 SI)
   Tot        0.198068D+01      0.503439D+01      0.167929D+02
   x          0.000000D+00      0.000000D+00      0.000000D+00
   y          0.000000D+00      0.000000D+00      0.000000D+00
   z          0.198068D+01      0.503439D+01      0.167929D+02

 Dipole polarizability, Alpha (dipole orientation).
 (esu units = cm**3 , SI units = C**2 m**2 J**-1)
 Alpha(0;0):
               (au)            (10**-24 esu)      (10**-40 SI)
   iso        0.496484D+02      0.735714D+01      0.818592D+01
   aniso      0.316271D+01      0.468665D+00      0.521461D+00
   xx         0.512330D+02      0.759194D+01      0.844717D+01
   yx        -0.117058D+01     -0.173462D+00     -0.193002D+00
   yy         0.491407D+02      0.728190D+01      0.810221D+01
   zx        -0.285357D-04     -0.422855D-05     -0.470490D-05
   zy         0.359280D-03      0.532398D-04      0.592373D-04
   zz         0.485716D+02      0.719758D+01      0.800838D+01

 ----------------------------------------------------------------------
 1\1\GINC-BROWN-A419\Freq\RM062X\6-311++G(d,p)\C2H6O2S1\FINEJ\13-Oct-20
 19\0\\#P Geom=AllCheck Guess=TCheck SCRF=Check GenChk RM062X/6-311++G(
 d,p) Freq\\Title Card Required\\0,1\C,-0.7264624952,1.3545534718,0.451
 5083818\S,0.0249588885,-0.0576373735,-0.3477257337\O,-0.5209230323,-1.
 2592930719,0.2649787842\C,1.7484777935,0.0581502185,0.1146206265\O,-0.
 0652075579,0.1442198557,-1.7859413863\H,-0.6009416965,1.2619490389,1.5
 287861527\H,-0.27490631,2.2652719098,0.0621679377\H,-1.7827857538,1.31
 2377745,0.1877047682\H,1.8314421222,-0.0123127652,1.197692039\H,2.2364
 171389,-0.7930987342,-0.3591738908\H,2.1576309024,0.991119705,-0.26881
 76793\\Version=ES64L-G16RevA.03\State=1-A\HF=-628.3586341\RMSD=1.667e-
 09\RMSF=7.036e-06\ZeroPoint=0.0857016\Thermal=0.0857016\Dipole=0.87234
 46,1.371231,1.1321802\DipoleDeriv=-0.2498798,0.0734415,0.0214646,0.084
 5822,-0.2526009,-0.0715702,0.0290994,-0.0740266,-0.1646405,1.8028482,0
 .0981072,0.0086599,0.0981376,1.9523381,-0.0562863,0.0086348,-0.0562609
 ,2.0297946,-0.7960355,-0.2133473,0.0556515,-0.2329203,-1.1638451,0.105
 0018,0.1308441,0.2485149,-0.686842,-0.3485536,0.0328964,-0.0282423,0.0
 217471,-0.1713092,-0.0299432,-0.0358507,-0.0274841,-0.1472517,-0.68749
 67,0.0194904,-0.0429181,0.0390238,-0.6385741,0.0815774,-0.1180887,-0.0
 619761,-1.3206731,0.087425,0.0248479,-0.0127958,0.0287016,0.0434069,-0
 .0078565,-0.0123801,-0.0077915,-0.0138166,0.0609488,-0.0228392,0.03683
 61,-0.0212575,-0.0063056,0.0030726,0.0401437,0.0018177,0.0623541,0.027
 1252,0.0014896,-0.0173564,0.0161537,0.0703169,-0.0234388,-0.0073345,-0
 .0267032,0.0899098,0.0305372,-0.0102955,-0.0100998,-0.0140944,0.099819
 1,0.0006328,-0.0107322,0.0001811,-0.0133695,0.044732,0.0253709,0.00290
 1,0.0107145,0.0558049,-0.0345714,-0.0071291,-0.0312999,0.0868153,0.028
 3491,-0.0291619,-0.0141006,-0.0307885,0.0109491,0.0333818,-0.0172068,0
 .0350288,0.0777197\Polar=51.0360374,-1.2865184,49.2627537,-0.3408237,0
 .1546766,48.6465001\Quadrupole=3.6218111,-0.5644297,-3.0573814,-2.6239
 479,0.0111732,2.1143157\PG=C01 [X(C2H6O2S1)]\NImag=0\\0.53812234,0.074
 50511,0.47335763,0.03652541,-0.07226212,0.56198482,-0.09543745,0.03111
 044,0.01462826,0.54089950,0.03443037,-0.12756920,-0.03482904,0.1009995
 3,0.73425779,0.01690442,-0.03557505,-0.08606592,-0.04082050,-0.1838977
 2,0.90088625,0.01250666,0.00738768,0.00036293,-0.15948782,-0.15113333,
 0.07991585,0.13620662,-0.01818323,-0.02190811,0.01591998,-0.14955408,-
 0.42170483,0.17279176,0.17874467,0.44477295,-0.00115520,-0.00844382,0.
 00790209,0.07382837,0.16116292,-0.16888336,-0.08557831,-0.18939205,0.1
 5415917,-0.00689970,-0.00107307,-0.00406749,-0.16080916,-0.00315011,-0
 .02333823,-0.00415276,-0.00269658,-0.00408969,0.39758288,0.02295984,0.
 00721717,0.00450387,0.00017676,-0.07375019,-0.00561851,-0.03283776,-0.
 00440070,-0.00024350,0.00089699,0.58918788,0.01237687,-0.00083667,0.01
 027098,-0.02106786,-0.00635803,-0.07451278,0.01195861,0.00892738,0.007
 02992,-0.04515273,-0.00947845,0.58669748,0.01209509,-0.00010794,0.0125
 2426,-0.09199142,0.00742430,-0.03424767,0.01841575,-0.00707925,0.01515
 691,0.00510783,-0.00021083,-0.03191675,0.05851821,-0.00246831,0.007261
 93,-0.02303372,0.00584030,-0.09497562,0.05734006,-0.00172167,0.0075441
 5,0.03548098,-0.00241603,0.00920903,0.00074012,-0.00191795,0.06876588,
 -0.00507326,0.00754312,-0.02088159,-0.02815702,0.06896398,-0.56315464,
 -0.00544599,-0.00385843,-0.00508997,0.00324373,0.00370158,-0.01582075,
 0.03879501,-0.06989609,0.60790653,-0.04864596,0.00148178,-0.03321559,0
 .00097524,-0.00237995,0.01343782,-0.00074553,-0.00085886,-0.00103073,0
 .00000670,-0.00051570,-0.00118994,-0.00053164,0.00314736,0.00381279,0.
 04878373,0.00199384,-0.04873790,0.02610130,-0.00626989,0.00407299,-0.0
 2344492,0.00031841,-0.00017905,0.00277789,-0.00046883,0.00034254,0.001
 73283,0.00341065,-0.00379164,-0.00621159,-0.00393132,0.04798134,-0.034
 12719,0.02529361,-0.32676004,-0.00283076,0.00379226,-0.01370504,0.0000
 4808,0.00028712,0.00249749,-0.00009276,0.00021397,0.00074233,0.0016518
 9,-0.00252528,-0.00079833,0.03592578,-0.02645480,0.34790136,-0.0946325
 8,-0.10071687,0.04234859,0.00551991,0.01094067,-0.00555754,0.00009359,
 0.00539897,0.00101345,-0.00019783,-0.00132204,-0.00002393,-0.00079217,
 -0.00082261,-0.00058476,0.00084560,0.00476448,-0.00150730,0.09869272,-
 0.10113874,-0.24507761,0.08591094,-0.01295099,-0.01855649,0.01105267,0
 .00245695,-0.00573458,-0.00185454,0.00012749,0.00163518,-0.00019152,0.
 00125382,0.00325381,-0.00069952,0.00087199,0.00130970,-0.00087214,0.10
 749136,0.26116406,0.04332347,0.08670181,-0.08439402,-0.00829428,-0.010
 01136,0.00437116,0.00133921,-0.00494193,0.00051687,-0.00009737,0.00099
 486,-0.00034436,0.00056370,0.00106499,-0.00088734,0.01280767,0.0256672
 8,-0.00615985,-0.04707769,-0.09226943,0.08478572,-0.31348391,-0.011773
 15,-0.06785074,-0.01668404,-0.00035856,-0.00395980,0.00209014,-0.00016
 519,-0.00004435,-0.00001184,0.00235452,0.00162874,0.00215241,-0.000705
 01,0.00080632,0.00004146,-0.00035598,0.00065642,-0.00881437,0.00110373
 ,-0.00271725,0.33472615,-0.01082240,-0.04413649,-0.00207620,0.02914964
 ,0.00108279,0.00720578,-0.00368151,0.00063378,0.00017463,0.00132062,-0
 .00520110,-0.00320294,-0.00297244,0.00057837,0.00045289,0.00170819,-0.
 00093309,0.00049092,-0.02610802,0.00176567,-0.00726204,0.01010176,0.04
 563880,-0.06720268,-0.00228854,-0.06113874,0.01622820,0.00064707,0.004
 07303,-0.00103473,0.00105186,-0.00063061,0.00092128,-0.00297290,-0.001
 92107,-0.00215959,0.00085998,-0.00063571,-0.03053566,-0.00039034,-0.00
 421744,0.01127210,-0.00078962,0.00193220,0.07175999,0.00395979,0.06180
 551,0.00117672,-0.00022213,0.00199700,0.00161386,0.00129894,-0.0303039
 2,0.00064574,0.00040165,0.00334410,-0.04604539,0.00015881,-0.02030372,
 -0.00771112,0.00049535,-0.00577125,-0.00089757,0.00092689,0.00044006,-
 0.00009328,-0.00003348,0.00005166,0.00027156,-0.00040939,0.00001926,0.
 04770122,-0.00006920,-0.00034121,-0.00007396,0.00113962,-0.00190967,-0
 .00158728,-0.00033822,-0.00087787,0.00047554,-0.00006836,-0.04768638,0
 .01947143,-0.00029755,0.00150874,-0.00017286,0.00047179,0.00004610,-0.
 00010355,0.00006045,-0.00008033,0.00014169,-0.00004587,-0.00001027,-0.
 00008377,-0.00120544,0.04543379,0.00012943,-0.00002539,0.00025758,0.00
 156466,0.00094304,-0.00836989,0.00057667,-0.00025932,0.00180603,-0.020
 49292,0.01818075,-0.33037625,-0.00157329,0.00003643,0.00107762,0.00000
 559,0.00006229,0.00042324,-0.00001121,-0.00007896,-0.00009942,-0.00001
 860,-0.00005367,0.00014509,0.02258883,-0.01979733,0.35151219,-0.006479
 69,-0.00206878,-0.00283514,-0.01692892,0.02902024,0.01608632,0.0030531
 1,-0.00304734,-0.00097390,-0.10062405,0.10070831,0.05644192,0.00300358
 ,-0.00265479,-0.00116816,0.00025896,-0.00038579,-0.00010257,0.00026215
 ,-0.00020587,-0.00023853,-0.00063033,0.00184685,0.00103819,0.00206858,
 -0.00437760,-0.00181830,0.10868355,-0.00103483,0.00012379,-0.00008256,
 -0.00048608,0.00128464,0.00075556,0.00029039,-0.00019983,0.00005233,0.
 09975935,-0.21943732,-0.09739925,-0.00021056,-0.00008039,0.00104945,-0
 .00003073,-0.00002694,-0.00006013,-0.00012507,0.00020815,-0.00001129,-
 0.00009502,0.00046678,0.00003566,-0.00275981,0.00295939,0.00224987,-0.
 10833916,0.23178845,-0.00212778,-0.00031252,-0.00077809,-0.00410367,0.
 00731655,0.00411613,0.00069522,0.00047015,-0.00075786,0.05579208,-0.09
 718512,-0.09869775,0.00112085,-0.00065415,-0.00083008,-0.00010907,0.00
 003072,0.00017429,0.00006595,-0.00019898,-0.00006401,-0.00029050,0.000
 46720,0.00063903,0.01519120,-0.02394456,-0.01014431,-0.05953828,0.1049
 6132,0.10169824,0.00167850,0.00147692,-0.00041749,-0.00766970,-0.02709
 210,0.01188325,-0.00862551,-0.00296076,-0.00047065,-0.08395668,-0.0923
 6890,0.03724879,0.00173349,0.00322335,-0.00045741,-0.00009098,-0.00000
 246,-0.00006164,-0.00088376,0.00102374,0.00033941,0.00034276,-0.000133
 30,-0.00030637,0.00126968,0.00473038,-0.00095085,0.00733305,0.01303152
 ,-0.00669600,0.08886916,-0.00017245,-0.00018999,-0.00007850,0.00084473
 ,-0.00223222,0.00097764,0.00051439,0.00205409,-0.00019038,-0.09223147,
 -0.25711612,0.08659510,0.00070775,0.00072574,-0.00087253,0.00003543,-0
 .00008407,-0.00006199,0.00043868,0.00011244,-0.00007459,-0.00006121,0.
 00011476,-0.00002920,0.00134861,0.00095771,-0.00125770,-0.01049606,-0.
 01708672,0.00904939,0.09907160,0.27274439,0.00042650,0.00020555,-0.000
 39705,-0.00097541,-0.00772967,0.00124506,-0.00283752,-0.00099652,0.001
 45022,0.03737410,0.08790343,-0.08306774,0.00008469,0.00058669,-0.00088
 574,0.00009134,0.00012933,-0.00009799,0.00006234,-0.00000890,0.0003430
 6,0.00002977,-0.00015636,-0.00005129,0.01274677,0.02567463,-0.00623188
 ,-0.00689154,-0.01155096,0.00464442,-0.04011104,-0.09405723,0.08304892
 \\0.00000409,0.00000191,0.00001949,-0.00000781,-0.00000411,-0.00000886
 ,0.00000508,-0.00000531,-0.00000220,0.00000924,0.00001882,-0.00000769,
 -0.00000170,0.00000158,0.00001344,-0.00000003,-0.00000055,-0.00000602,
 -0.00000287,0.00000124,-0.00000829,0.00000045,0.00000355,-0.00000676,-
 0.00000456,-0.00000806,0.00000038,-0.00000081,-0.00000541,0.00000536,-
 0.00000108,-0.00000366,0.00000116\\\@


 AN OPTIMIST IS A GUY
 THAT HAS NEVER HAD
 MUCH EXPERIENCE
   (CERTAIN MAXIMS OF ARCHY  -- DON MARQUIS)
 Job cpu time:       0 days  0 hours  9 minutes 44.3 seconds.
 Elapsed time:       0 days  0 hours  0 minutes 25.0 seconds.
 File lengths (MBytes):  RWF=     34 Int=      0 D2E=      0 Chk=      3 Scr=      1
 Normal termination of Gaussian 16 at Sun Oct 13 21:42:57 2019.
real 68.23
user 1335.61
sys 12.49
Machine:
brown-a419
brown-a419
brown-a419
brown-a419
brown-a419
brown-a419
brown-a419
brown-a419
brown-a419
brown-a419
brown-a419
brown-a419
brown-a419
brown-a419
brown-a419
brown-a419
brown-a419
brown-a419
brown-a419
brown-a419
brown-a419
brown-a419
brown-a419
brown-a419
