 Entering Gaussian System, Link 0=/apps/cent7/gaussian/g16-A.03/g16-haswell/g16/g16
 Initial command:
 /apps/cent7/gaussian/g16-A.03/g16-haswell/g16/l1.exe "/scratch/brown/finej/gaussian/Gau-251307.inp" -scrdir="/scratch/brown/finej/gaussian/"
 Entering Link 1 = /apps/cent7/gaussian/g16-A.03/g16-haswell/g16/l1.exe PID=    251310.
  
 Copyright (c) 1988,1990,1992,1993,1995,1998,2003,2009,2016,
            Gaussian, Inc.  All Rights Reserved.
  
 This is part of the Gaussian(R) 16 program.  It is based on
 the Gaussian(R) 09 system (copyright 2009, Gaussian, Inc.),
 the Gaussian(R) 03 system (copyright 2003, Gaussian, Inc.),
 the Gaussian(R) 98 system (copyright 1998, Gaussian, Inc.),
 the Gaussian(R) 94 system (copyright 1995, Gaussian, Inc.),
 the Gaussian 92(TM) system (copyright 1992, Gaussian, Inc.),
 the Gaussian 90(TM) system (copyright 1990, Gaussian, Inc.),
 the Gaussian 88(TM) system (copyright 1988, Gaussian, Inc.),
 the Gaussian 86(TM) system (copyright 1986, Carnegie Mellon
 University), and the Gaussian 82(TM) system (copyright 1983,
 Carnegie Mellon University). Gaussian is a federally registered
 trademark of Gaussian, Inc.
  
 This software contains proprietary and confidential information,
 including trade secrets, belonging to Gaussian, Inc.
  
 This software is provided under written license and may be
 used, copied, transmitted, or stored only in accord with that
 written license.
  
 The following legend is applicable only to US Government
 contracts under FAR:
  
                    RESTRICTED RIGHTS LEGEND
  
 Use, reproduction and disclosure by the US Government is
 subject to restrictions as set forth in subparagraphs (a)
 and (c) of the Commercial Computer Software - Restricted
 Rights clause in FAR 52.227-19.
  
 Gaussian, Inc.
 340 Quinnipiac St., Bldg. 40, Wallingford CT 06492
  
  
 ---------------------------------------------------------------
 Warning -- This program may not be used in any manner that
 competes with the business of Gaussian, Inc. or will provide
 assistance to any competitor of Gaussian, Inc.  The licensee
 of this program is prohibited from giving any competitor of
 Gaussian, Inc. access to this program.  By using this program,
 the user acknowledges that Gaussian, Inc. is engaged in the
 business of creating and licensing software in the field of
 computational chemistry and represents and warrants to the
 licensee that it is not a competitor of Gaussian, Inc. and that
 it will not use this program in any manner prohibited above.
 ---------------------------------------------------------------
  

 Cite this work as:
 Gaussian 16, Revision A.03,
 M. J. Frisch, G. W. Trucks, H. B. Schlegel, G. E. Scuseria, 
 M. A. Robb, J. R. Cheeseman, G. Scalmani, V. Barone, 
 G. A. Petersson, H. Nakatsuji, X. Li, M. Caricato, A. V. Marenich, 
 J. Bloino, B. G. Janesko, R. Gomperts, B. Mennucci, H. P. Hratchian, 
 J. V. Ortiz, A. F. Izmaylov, J. L. Sonnenberg, D. Williams-Young, 
 F. Ding, F. Lipparini, F. Egidi, J. Goings, B. Peng, A. Petrone, 
 T. Henderson, D. Ranasinghe, V. G. Zakrzewski, J. Gao, N. Rega, 
 G. Zheng, W. Liang, M. Hada, M. Ehara, K. Toyota, R. Fukuda, 
 J. Hasegawa, M. Ishida, T. Nakajima, Y. Honda, O. Kitao, H. Nakai, 
 T. Vreven, K. Throssell, J. A. Montgomery, Jr., J. E. Peralta, 
 F. Ogliaro, M. J. Bearpark, J. J. Heyd, E. N. Brothers, K. N. Kudin, 
 V. N. Staroverov, T. A. Keith, R. Kobayashi, J. Normand, 
 K. Raghavachari, A. P. Rendell, J. C. Burant, S. S. Iyengar, 
 J. Tomasi, M. Cossi, J. M. Millam, M. Klene, C. Adamo, R. Cammi, 
 J. W. Ochterski, R. L. Martin, K. Morokuma, O. Farkas, 
 J. B. Foresman, and D. J. Fox, Gaussian, Inc., Wallingford CT, 2016.
 
 ******************************************
 Gaussian 16:  ES64L-G16RevA.03 25-Dec-2016
                13-Oct-2019 
 ******************************************
 %chk=25_p.chk
 %nprocshared=24
 Will use up to   24 processors via shared memory.
 %mem=80GB
 -------------------------------------------------------------------
 #P opt freq m062x/6-311++g(d,p) geom=connectivity temperature=0.001
 -------------------------------------------------------------------
 1/18=20,19=15,26=3,38=1,57=2,112=-1000/1,3;
 2/9=110,12=2,17=6,18=5,40=1/2;
 3/5=4,6=6,7=1111,11=2,25=1,30=1,71=1,74=-55/1,2,3;
 4//1;
 5/5=2,38=5/2;
 6/7=2,8=2,9=2,10=2,28=1/1;
 7//1,2,3,16;
 1/18=20,19=15,26=3/3(2);
 2/9=110/2;
 99//99;
 2/9=110/2;
 3/5=4,6=6,7=1111,11=2,25=1,30=1,71=1,74=-55/1,2,3;
 4/5=5,16=3,69=1/1;
 5/5=2,38=5/2;
 7//1,2,3,16;
 1/18=20,19=15,26=3/3(-5);
 2/9=110/2;
 6/7=2,8=2,9=2,10=2,19=2,28=1/1;
 99/9=1/99;
 Leave Link    1 at Sun Oct 13 21:41:57 2019, MaxMem= 10737418240 cpu:               1.0 elap:               0.0
 (Enter /apps/cent7/gaussian/g16-A.03/g16-haswell/g16/l101.exe)
 -------------------
 Title Card Required
 -------------------
 Symbolic Z-matrix:
 Charge =  1 Multiplicity = 1
 C                    -0.7976    1.3965    0.4798 
 S                     0.0515   -0.0164   -0.3119 
 O                    -0.5829   -1.3904    0.2187 
 C                     1.8321    0.0362    0.101 
 O                    -0.1341    0.0679   -1.9025 
 H                    -0.7371    1.2958    1.5635 
 H                    -0.3181    2.3263    0.174 
 H                    -1.8437    1.4094    0.174 
 H                     1.9539    0.0398    1.1842 
 H                     2.3281   -0.8395   -0.3175 
 H                     2.2756    0.9397   -0.3175 
 H                    -0.00921  -2.10845   0.49599 
 
 ITRead=  0  0  0  0  0  0  0  0  0  0  0  0
 MicOpt= -1 -1 -1 -1 -1 -1 -1 -1 -1 -1 -1 -1
 NAtoms=     12 NQM=       12 NQMF=       0 NMMI=      0 NMMIF=      0
                NMic=       0 NMicF=      0.
                    Isotopes and Nuclear Properties:
 (Nuclear quadrupole moments (NQMom) in fm**2, nuclear magnetic moments (NMagM)
  in nuclear magnetons)

  Atom         1           2           3           4           5           6           7           8           9          10
 IAtWgt=          12          32          16          12          16           1           1           1           1           1
 AtmWgt=  12.0000000  31.9720718  15.9949146  12.0000000  15.9949146   1.0078250   1.0078250   1.0078250   1.0078250   1.0078250
 NucSpn=           0           0           0           0           0           1           1           1           1           1
 AtZEff=  -0.0000000  -0.0000000  -0.0000000  -0.0000000  -0.0000000  -0.0000000  -0.0000000  -0.0000000  -0.0000000  -0.0000000
 NQMom=    0.0000000   0.0000000   0.0000000   0.0000000   0.0000000   0.0000000   0.0000000   0.0000000   0.0000000   0.0000000
 NMagM=    0.0000000   0.0000000   0.0000000   0.0000000   0.0000000   2.7928460   2.7928460   2.7928460   2.7928460   2.7928460
 AtZNuc=   6.0000000  16.0000000   8.0000000   6.0000000   8.0000000   1.0000000   1.0000000   1.0000000   1.0000000   1.0000000

  Atom        11          12
 IAtWgt=           1           1
 AtmWgt=   1.0078250   1.0078250
 NucSpn=           1           1
 AtZEff=  -0.0000000  -0.0000000
 NQMom=    0.0000000   0.0000000
 NMagM=    2.7928460   2.7928460
 AtZNuc=   1.0000000   1.0000000
 Leave Link  101 at Sun Oct 13 21:41:57 2019, MaxMem= 10737418240 cpu:               8.2 elap:               0.4
 (Enter /apps/cent7/gaussian/g16-A.03/g16-haswell/g16/l103.exe)

 GradGradGradGradGradGradGradGradGradGradGradGradGradGradGradGradGradGrad
 Berny optimization.
 Initialization pass.
                           ----------------------------
                           !    Initial Parameters    !
                           ! (Angstroms and Degrees)  !
 --------------------------                            --------------------------
 ! Name  Definition              Value          Derivative Info.                !
 --------------------------------------------------------------------------------
 ! R1    R(1,2)                  1.8287         estimate D2E/DX2                !
 ! R2    R(1,6)                  1.09           estimate D2E/DX2                !
 ! R3    R(1,7)                  1.0899         estimate D2E/DX2                !
 ! R4    R(1,8)                  1.09           estimate D2E/DX2                !
 ! R5    R(2,3)                  1.6037         estimate D2E/DX2                !
 ! R6    R(2,4)                  1.8286         estimate D2E/DX2                !
 ! R7    R(2,5)                  1.6036         estimate D2E/DX2                !
 ! R8    R(3,12)                 0.96           estimate D2E/DX2                !
 ! R9    R(4,9)                  1.09           estimate D2E/DX2                !
 ! R10   R(4,10)                 1.09           estimate D2E/DX2                !
 ! R11   R(4,11)                 1.09           estimate D2E/DX2                !
 ! A1    A(2,1,6)              109.4672         estimate D2E/DX2                !
 ! A2    A(2,1,7)              109.474          estimate D2E/DX2                !
 ! A3    A(2,1,8)              109.4705         estimate D2E/DX2                !
 ! A4    A(6,1,7)              109.4706         estimate D2E/DX2                !
 ! A5    A(6,1,8)              109.4686         estimate D2E/DX2                !
 ! A6    A(7,1,8)              109.4765         estimate D2E/DX2                !
 ! A7    A(1,2,3)              109.5754         estimate D2E/DX2                !
 ! A8    A(1,2,4)              109.3996         estimate D2E/DX2                !
 ! A9    A(1,2,5)              109.5766         estimate D2E/DX2                !
 ! A10   A(3,2,4)              109.5808         estimate D2E/DX2                !
 ! A11   A(3,2,5)              109.1128         estimate D2E/DX2                !
 ! A12   A(4,2,5)              109.5821         estimate D2E/DX2                !
 ! A13   A(2,3,12)             120.0            estimate D2E/DX2                !
 ! A14   A(2,4,9)              109.4684         estimate D2E/DX2                !
 ! A15   A(2,4,10)             109.4697         estimate D2E/DX2                !
 ! A16   A(2,4,11)             109.4717         estimate D2E/DX2                !
 ! A17   A(9,4,10)             109.4727         estimate D2E/DX2                !
 ! A18   A(9,4,11)             109.471          estimate D2E/DX2                !
 ! A19   A(10,4,11)            109.4738         estimate D2E/DX2                !
 ! D1    D(6,1,2,3)             55.9196         estimate D2E/DX2                !
 ! D2    D(6,1,2,4)            -64.2346         estimate D2E/DX2                !
 ! D3    D(6,1,2,5)            175.6089         estimate D2E/DX2                !
 ! D4    D(7,1,2,3)            175.9181         estimate D2E/DX2                !
 ! D5    D(7,1,2,4)             55.7639         estimate D2E/DX2                !
 ! D6    D(7,1,2,5)            -64.3926         estimate D2E/DX2                !
 ! D7    D(8,1,2,3)            -64.0742         estimate D2E/DX2                !
 ! D8    D(8,1,2,4)            175.7716         estimate D2E/DX2                !
 ! D9    D(8,1,2,5)             55.6151         estimate D2E/DX2                !
 ! D10   D(1,2,3,12)          -133.6097         estimate D2E/DX2                !
 ! D11   D(4,2,3,12)           -13.5661         estimate D2E/DX2                !
 ! D12   D(5,2,3,12)           106.4171         estimate D2E/DX2                !
 ! D13   D(1,2,4,9)             56.4414         estimate D2E/DX2                !
 ! D14   D(1,2,4,10)           176.4406         estimate D2E/DX2                !
 ! D15   D(1,2,4,11)           -63.5569         estimate D2E/DX2                !
 ! D16   D(3,2,4,9)            -63.7095         estimate D2E/DX2                !
 ! D17   D(3,2,4,10)            56.2897         estimate D2E/DX2                !
 ! D18   D(3,2,4,11)           176.2922         estimate D2E/DX2                !
 ! D19   D(5,2,4,9)            176.5946         estimate D2E/DX2                !
 ! D20   D(5,2,4,10)           -63.4063         estimate D2E/DX2                !
 ! D21   D(5,2,4,11)            56.5963         estimate D2E/DX2                !
 --------------------------------------------------------------------------------
 Trust Radius=3.00D-01 FncErr=1.00D-07 GrdErr=1.00D-06 EigMax=2.50D+02 EigMin=1.00D-04
 Number of steps in this run=     61 maximum allowed number of steps=    100.
 GradGradGradGradGradGradGradGradGradGradGradGradGradGradGradGradGradGrad

 Leave Link  103 at Sun Oct 13 21:41:57 2019, MaxMem= 10737418240 cpu:               0.3 elap:               0.0
 (Enter /apps/cent7/gaussian/g16-A.03/g16-haswell/g16/l202.exe)
                          Input orientation:                          
 ---------------------------------------------------------------------
 Center     Atomic      Atomic             Coordinates (Angstroms)
 Number     Number       Type             X           Y           Z
 ---------------------------------------------------------------------
      1          6           0       -0.797600    1.396500    0.479800
      2         16           0        0.051500   -0.016400   -0.311900
      3          8           0       -0.582900   -1.390400    0.218700
      4          6           0        1.832100    0.036200    0.101000
      5          8           0       -0.134100    0.067900   -1.902500
      6          1           0       -0.737100    1.295800    1.563500
      7          1           0       -0.318100    2.326300    0.174000
      8          1           0       -1.843700    1.409400    0.174000
      9          1           0        1.953900    0.039800    1.184200
     10          1           0        2.328100   -0.839500   -0.317500
     11          1           0        2.275600    0.939700   -0.317500
     12          1           0       -0.009212   -2.108447    0.495990
 ---------------------------------------------------------------------
                    Distance matrix (angstroms):
                    1          2          3          4          5
     1  C    0.000000
     2  S    1.828673   0.000000
     3  O    2.807326   1.603707   0.000000
     4  C    2.984833   1.828603   2.807359   0.000000
     5  O    2.807270   1.603609   2.612958   2.807305   0.000000
     6  H    1.090049   2.420926   3.007979   3.213454   3.726192
     7  H    1.089937   2.420939   3.726389   3.142172   3.073447
     8  H    1.089957   2.420906   3.070911   3.924604   3.005696
     9  H    3.147629   2.420867   3.068064   1.090032   3.726694
    10  H    3.924969   2.420833   3.010801   1.089958   3.065620
    11  H    3.207633   2.420905   3.726647   1.090021   3.013124
    12  H    3.592558   2.243443   0.960000   2.854113   3.241117
                    6          7          8          9         10
     6  H    0.000000
     7  H    1.779944   0.000000
     8  H    1.779938   1.779933   0.000000
     9  H    2.993808   3.377954   4.161499   0.000000
    10  H    4.182478   4.155266   4.764771   1.779971   0.000000
    11  H    3.569500   2.981864   4.175024   1.780004   1.779974
    12  H    3.641195   4.457137   3.980487   2.990386   2.781190
                   11         12
    11  H    0.000000
    12  H    3.895296   0.000000
 Stoichiometry    C2H7O2S(1+)
 Framework group  C1[X(C2H7O2S)]
 Deg. of freedom    30
 Full point group                 C1      NOp   1
 Largest Abelian subgroup         C1      NOp   1
 Largest concise Abelian subgroup C1      NOp   1
                         Standard orientation:                         
 ---------------------------------------------------------------------
 Center     Atomic      Atomic             Coordinates (Angstroms)
 Number     Number       Type             X           Y           Z
 ---------------------------------------------------------------------
      1          6           0        1.617735    0.687817   -0.357349
      2         16           0        0.008136   -0.074455    0.057597
      3          8           0       -0.271504   -1.308998   -0.927076
      4          6           0       -1.318933    1.169892   -0.127538
      5          8           0        0.039340   -0.605938    1.570249
      6          1           0        1.622129    0.978091   -1.408029
      7          1           0        1.773007    1.569814    0.263887
      8          1           0        2.417390   -0.030152   -0.175477
      9          1           0       -1.299506    1.573882   -1.139756
     10          1           0       -2.285173    0.700893    0.058012
     11          1           0       -1.163061    1.976642    0.588706
     12          1           0       -1.130471   -1.404663   -1.344956
 ---------------------------------------------------------------------
 Rotational constants (GHZ):           3.9443595           3.7350169           3.5479464
 Leave Link  202 at Sun Oct 13 21:41:57 2019, MaxMem= 10737418240 cpu:               0.6 elap:               0.0
 (Enter /apps/cent7/gaussian/g16-A.03/g16-haswell/g16/l301.exe)
 Standard basis: 6-311++G(d,p) (5D, 7F)
 Ernie: Thresh=  0.10000D-02 Tol=  0.10000D-05 Strict=F.
 There are   172 symmetry adapted cartesian basis functions of A   symmetry.
 There are   167 symmetry adapted basis functions of A   symmetry.
   167 basis functions,   257 primitive gaussians,   172 cartesian basis functions
    25 alpha electrons       25 beta electrons
       nuclear repulsion energy       270.7852350888 Hartrees.
 IExCor= 4336 DFT=T Ex+Corr=M062X ExCW=0 ScaHFX=  0.540000
 ScaDFX=  1.000000  1.000000  1.000000  1.000000 ScalE2=  1.000000  1.000000
 IRadAn=      5 IRanWt=     -1 IRanGd=            0 ICorTp=0 IEmpDi=  4
 NAtoms=   12 NActive=   12 NUniq=   12 SFac= 1.00D+00 NAtFMM=   60 NAOKFM=F Big=F
 Integral buffers will be    131072 words long.
 Raffenetti 2 integral format.
 Two-electron integral symmetry is turned on.
 Leave Link  301 at Sun Oct 13 21:41:57 2019, MaxMem= 10737418240 cpu:               1.6 elap:               0.1
 (Enter /apps/cent7/gaussian/g16-A.03/g16-haswell/g16/l302.exe)
 NPDir=0 NMtPBC=     1 NCelOv=     1 NCel=       1 NClECP=     1 NCelD=      1
         NCelK=      1 NCelE2=     1 NClLst=     1 CellRange=     0.0.
 One-electron integrals computed using PRISM.
 One-electron integral symmetry used in STVInt
 NBasis=   167 RedAO= T EigKep=  9.34D-05  NBF=   167
 NBsUse=   167 1.00D-06 EigRej= -1.00D+00 NBFU=   167
 Precomputing XC quadrature grid using
 IXCGrd= 4 IRadAn=           5 IRanWt=          -1 IRanGd=           0 AccXCQ= 0.00D+00.
 Generated NRdTot=       0 NPtTot=           0 NUsed=           0 NTot=          32
 NSgBfM=   172   172   172   172   172 MxSgAt=    12 MxSgA2=    12.
 Leave Link  302 at Sun Oct 13 21:41:57 2019, MaxMem= 10737418240 cpu:               3.5 elap:               0.2
 (Enter /apps/cent7/gaussian/g16-A.03/g16-haswell/g16/l303.exe)
 DipDrv:  MaxL=1.
 Leave Link  303 at Sun Oct 13 21:41:57 2019, MaxMem= 10737418240 cpu:               0.9 elap:               0.1
 (Enter /apps/cent7/gaussian/g16-A.03/g16-haswell/g16/l401.exe)
 ExpMin= 3.60D-02 ExpMax= 9.34D+04 ExpMxC= 3.17D+03 IAcc=3 IRadAn=         5 AccDes= 0.00D+00
 Harris functional with IExCor= 1009 and IRadAn=       5 diagonalized for initial guess.
 HarFok:  IExCor= 1009 AccDes= 0.00D+00 IRadAn=         5 IDoV= 1 UseB2=F ITyADJ=14
 ICtDFT=  3500011 ScaDFX=  1.000000  1.000000  1.000000  1.000000
 FoFCou: FMM=F IPFlag=           0 FMFlag=      100000 FMFlg1=           0
         NFxFlg=           0 DoJE=T BraDBF=F KetDBF=T FulRan=T
         wScrn=  0.000000 ICntrl=       500 IOpCl=  0 I1Cent=   200000004 NGrid=           0
         NMat0=    1 NMatS0=      1 NMatT0=    0 NMatD0=    1 NMtDS0=    0 NMtDT0=    0
 Petite list used in FoFCou.
 Harris En= -628.559568964834    
 JPrj=0 DoOrth=F DoCkMO=F.
 Leave Link  401 at Sun Oct 13 21:41:58 2019, MaxMem= 10737418240 cpu:               6.3 elap:               0.3
 (Enter /apps/cent7/gaussian/g16-A.03/g16-haswell/g16/l502.exe)
 Keep R1 ints in memory in canonical form, NReq=122420357.
 FoFCou: FMM=F IPFlag=           0 FMFlag=           0 FMFlg1=           0
         NFxFlg=           0 DoJE=F BraDBF=F KetDBF=F FulRan=T
         wScrn=  0.000000 ICntrl=       600 IOpCl=  0 I1Cent=           0 NGrid=           0
         NMat0=    1 NMatS0=  14028 NMatT0=    0 NMatD0=    1 NMtDS0=    0 NMtDT0=    0
 Symmetry not used in FoFCou.
 Two-electron integral symmetry not used.
 Closed shell SCF:
 Using DIIS extrapolation, IDIIS=  1040.
 NGot= 10737418240 LenX= 10638953723 LenY= 10638923698
 Requested convergence on RMS density matrix=1.00D-08 within 128 cycles.
 Requested convergence on MAX density matrix=1.00D-06.
 Requested convergence on             energy=1.00D-06.
 No special actions if energy rises.

 Cycle   1  Pass 1  IDiag  1:
 E= -628.264769310157    
 DIIS: error= 4.58D-02 at cycle   1 NSaved=   1.
 NSaved= 1 IEnMin= 1 EnMin= -628.264769310157     IErMin= 1 ErrMin= 4.58D-02
 ErrMax= 4.58D-02  0.00D+00 EMaxC= 1.00D-01 BMatC= 5.21D-01 BMatP= 5.21D-01
 IDIUse=3 WtCom= 5.42D-01 WtEn= 4.58D-01
 Coeff-Com:  0.100D+01
 Coeff-En:   0.100D+01
 Coeff:      0.100D+01
 Gap=     0.199 Goal=   None    Shift=    0.000
 GapD=    0.199 DampG=1.000 DampE=0.500 DampFc=0.5000 IDamp=-1.
 Damping current iteration by 5.00D-01
 RMSDP=1.32D-02 MaxDP=4.02D-01              OVMax= 3.84D-01

 Cycle   2  Pass 1  IDiag  1:
 E= -628.333885954446     Delta-E=       -0.069116644289 Rises=F Damp=T
 DIIS: error= 2.47D-02 at cycle   2 NSaved=   2.
 NSaved= 2 IEnMin= 2 EnMin= -628.333885954446     IErMin= 2 ErrMin= 2.47D-02
 ErrMax= 2.47D-02  0.00D+00 EMaxC= 1.00D-01 BMatC= 8.22D-02 BMatP= 5.21D-01
 IDIUse=3 WtCom= 7.53D-01 WtEn= 2.47D-01
 Coeff-Com:  0.203D+00 0.797D+00
 Coeff-En:   0.404D+00 0.596D+00
 Coeff:      0.253D+00 0.747D+00
 Gap=     0.373 Goal=   None    Shift=    0.000
 RMSDP=4.29D-03 MaxDP=1.38D-01 DE=-6.91D-02 OVMax= 2.77D-01

 Cycle   3  Pass 1  IDiag  1:
 E= -628.581102108544     Delta-E=       -0.247216154098 Rises=F Damp=F
 DIIS: error= 1.95D-02 at cycle   3 NSaved=   3.
 NSaved= 3 IEnMin= 3 EnMin= -628.581102108544     IErMin= 3 ErrMin= 1.95D-02
 ErrMax= 1.95D-02  0.00D+00 EMaxC= 1.00D-01 BMatC= 6.56D-02 BMatP= 8.22D-02
 IDIUse=3 WtCom= 8.05D-01 WtEn= 1.95D-01
 Coeff-Com:  0.584D-01 0.460D+00 0.481D+00
 Coeff-En:   0.000D+00 0.000D+00 0.100D+01
 Coeff:      0.471D-01 0.370D+00 0.582D+00
 Gap=     0.370 Goal=   None    Shift=    0.000
 RMSDP=2.31D-03 MaxDP=4.59D-02 DE=-2.47D-01 OVMax= 8.61D-02

 Cycle   4  Pass 1  IDiag  1:
 E= -628.626553972546     Delta-E=       -0.045451864002 Rises=F Damp=F
 DIIS: error= 6.93D-03 at cycle   4 NSaved=   4.
 NSaved= 4 IEnMin= 4 EnMin= -628.626553972546     IErMin= 4 ErrMin= 6.93D-03
 ErrMax= 6.93D-03  0.00D+00 EMaxC= 1.00D-01 BMatC= 1.07D-02 BMatP= 6.56D-02
 IDIUse=3 WtCom= 9.31D-01 WtEn= 6.93D-02
 Coeff-Com: -0.485D-02 0.334D-01 0.294D+00 0.677D+00
 Coeff-En:   0.000D+00 0.000D+00 0.127D+00 0.873D+00
 Coeff:     -0.452D-02 0.311D-01 0.283D+00 0.691D+00
 Gap=     0.367 Goal=   None    Shift=    0.000
 RMSDP=7.13D-04 MaxDP=1.33D-02 DE=-4.55D-02 OVMax= 2.96D-02

 Cycle   5  Pass 1  IDiag  1:
 E= -628.634163064604     Delta-E=       -0.007609092057 Rises=F Damp=F
 DIIS: error= 1.34D-03 at cycle   5 NSaved=   5.
 NSaved= 5 IEnMin= 5 EnMin= -628.634163064604     IErMin= 5 ErrMin= 1.34D-03
 ErrMax= 1.34D-03  0.00D+00 EMaxC= 1.00D-01 BMatC= 4.50D-04 BMatP= 1.07D-02
 IDIUse=3 WtCom= 9.87D-01 WtEn= 1.34D-02
 Coeff-Com: -0.434D-02-0.604D-02 0.108D+00 0.333D+00 0.569D+00
 Coeff-En:   0.000D+00 0.000D+00 0.000D+00 0.000D+00 0.100D+01
 Coeff:     -0.428D-02-0.596D-02 0.107D+00 0.329D+00 0.575D+00
 Gap=     0.364 Goal=   None    Shift=    0.000
 RMSDP=1.51D-04 MaxDP=3.13D-03 DE=-7.61D-03 OVMax= 5.84D-03

 Cycle   6  Pass 1  IDiag  1:
 E= -628.634501592414     Delta-E=       -0.000338527811 Rises=F Damp=F
 DIIS: error= 3.91D-04 at cycle   6 NSaved=   6.
 NSaved= 6 IEnMin= 6 EnMin= -628.634501592414     IErMin= 6 ErrMin= 3.91D-04
 ErrMax= 3.91D-04  0.00D+00 EMaxC= 1.00D-01 BMatC= 2.67D-05 BMatP= 4.50D-04
 IDIUse=3 WtCom= 9.96D-01 WtEn= 3.91D-03
 Coeff-Com:  0.182D-03-0.624D-02-0.651D-02 0.114D-02 0.189D+00 0.822D+00
 Coeff-En:   0.000D+00 0.000D+00 0.000D+00 0.000D+00 0.000D+00 0.100D+01
 Coeff:      0.182D-03-0.622D-02-0.648D-02 0.113D-02 0.188D+00 0.823D+00
 Gap=     0.365 Goal=   None    Shift=    0.000
 RMSDP=5.14D-05 MaxDP=1.18D-03 DE=-3.39D-04 OVMax= 2.21D-03

 Cycle   7  Pass 1  IDiag  1:
 E= -628.634530736783     Delta-E=       -0.000029144369 Rises=F Damp=F
 DIIS: error= 8.30D-05 at cycle   7 NSaved=   7.
 NSaved= 7 IEnMin= 7 EnMin= -628.634530736783     IErMin= 7 ErrMin= 8.30D-05
 ErrMax= 8.30D-05  0.00D+00 EMaxC= 1.00D-01 BMatC= 1.59D-06 BMatP= 2.67D-05
 IDIUse=1 WtCom= 1.00D+00 WtEn= 0.00D+00
 Coeff-Com:  0.370D-03-0.126D-02-0.112D-01-0.263D-01 0.910D-02 0.223D+00
 Coeff-Com:  0.806D+00
 Coeff:      0.370D-03-0.126D-02-0.112D-01-0.263D-01 0.910D-02 0.223D+00
 Coeff:      0.806D+00
 Gap=     0.365 Goal=   None    Shift=    0.000
 RMSDP=2.09D-05 MaxDP=4.33D-04 DE=-2.91D-05 OVMax= 7.08D-04

 Cycle   8  Pass 1  IDiag  1:
 E= -628.634533369220     Delta-E=       -0.000002632436 Rises=F Damp=F
 DIIS: error= 5.27D-05 at cycle   8 NSaved=   8.
 NSaved= 8 IEnMin= 8 EnMin= -628.634533369220     IErMin= 8 ErrMin= 5.27D-05
 ErrMax= 5.27D-05  0.00D+00 EMaxC= 1.00D-01 BMatC= 2.15D-07 BMatP= 1.59D-06
 IDIUse=1 WtCom= 1.00D+00 WtEn= 0.00D+00
 Coeff-Com: -0.711D-04 0.667D-03-0.208D-02-0.543D-02-0.240D-01-0.609D-01
 Coeff-Com:  0.156D+00 0.936D+00
 Coeff:     -0.711D-04 0.667D-03-0.208D-02-0.543D-02-0.240D-01-0.609D-01
 Coeff:      0.156D+00 0.936D+00
 Gap=     0.365 Goal=   None    Shift=    0.000
 RMSDP=8.76D-06 MaxDP=1.88D-04 DE=-2.63D-06 OVMax= 4.01D-04

 Cycle   9  Pass 1  IDiag  1:
 E= -628.634533775759     Delta-E=       -0.000000406539 Rises=F Damp=F
 DIIS: error= 1.18D-05 at cycle   9 NSaved=   9.
 NSaved= 9 IEnMin= 9 EnMin= -628.634533775759     IErMin= 9 ErrMin= 1.18D-05
 ErrMax= 1.18D-05  0.00D+00 EMaxC= 1.00D-01 BMatC= 1.07D-08 BMatP= 2.15D-07
 IDIUse=1 WtCom= 1.00D+00 WtEn= 0.00D+00
 Coeff-Com: -0.135D-04 0.103D-03 0.224D-03 0.994D-03-0.174D-02-0.130D-01
 Coeff-Com: -0.390D-01-0.412D-01 0.109D+01
 Coeff:     -0.135D-04 0.103D-03 0.224D-03 0.994D-03-0.174D-02-0.130D-01
 Coeff:     -0.390D-01-0.412D-01 0.109D+01
 Gap=     0.365 Goal=   None    Shift=    0.000
 RMSDP=2.60D-06 MaxDP=6.05D-05 DE=-4.07D-07 OVMax= 1.10D-04

 Cycle  10  Pass 1  IDiag  1:
 E= -628.634533799634     Delta-E=       -0.000000023874 Rises=F Damp=F
 DIIS: error= 1.22D-06 at cycle  10 NSaved=  10.
 NSaved=10 IEnMin=10 EnMin= -628.634533799634     IErMin=10 ErrMin= 1.22D-06
 ErrMax= 1.22D-06  0.00D+00 EMaxC= 1.00D-01 BMatC= 5.53D-10 BMatP= 1.07D-08
 IDIUse=1 WtCom= 1.00D+00 WtEn= 0.00D+00
 Coeff-Com:  0.855D-05-0.254D-04 0.156D-03 0.404D-03 0.850D-03 0.149D-02
 Coeff-Com: -0.130D-01-0.597D-01 0.189D+00 0.881D+00
 Coeff:      0.855D-05-0.254D-04 0.156D-03 0.404D-03 0.850D-03 0.149D-02
 Coeff:     -0.130D-01-0.597D-01 0.189D+00 0.881D+00
 Gap=     0.365 Goal=   None    Shift=    0.000
 RMSDP=5.61D-07 MaxDP=1.88D-05 DE=-2.39D-08 OVMax= 1.76D-05

 Cycle  11  Pass 1  IDiag  1:
 E= -628.634533800477     Delta-E=       -0.000000000844 Rises=F Damp=F
 DIIS: error= 5.39D-07 at cycle  11 NSaved=  11.
 NSaved=11 IEnMin=11 EnMin= -628.634533800477     IErMin=11 ErrMin= 5.39D-07
 ErrMax= 5.39D-07  0.00D+00 EMaxC= 1.00D-01 BMatC= 5.86D-11 BMatP= 5.53D-10
 IDIUse=1 WtCom= 1.00D+00 WtEn= 0.00D+00
 Coeff-Com:  0.224D-05-0.862D-05 0.311D-04 0.174D-04 0.184D-03 0.797D-03
 Coeff-Com: -0.165D-03-0.589D-02-0.213D-01 0.137D+00 0.889D+00
 Coeff:      0.224D-05-0.862D-05 0.311D-04 0.174D-04 0.184D-03 0.797D-03
 Coeff:     -0.165D-03-0.589D-02-0.213D-01 0.137D+00 0.889D+00
 Gap=     0.365 Goal=   None    Shift=    0.000
 RMSDP=1.34D-07 MaxDP=4.06D-06 DE=-8.44D-10 OVMax= 5.36D-06

 Cycle  12  Pass 1  IDiag  1:
 E= -628.634533800563     Delta-E=       -0.000000000086 Rises=F Damp=F
 DIIS: error= 2.21D-07 at cycle  12 NSaved=  12.
 NSaved=12 IEnMin=12 EnMin= -628.634533800563     IErMin=12 ErrMin= 2.21D-07
 ErrMax= 2.21D-07  0.00D+00 EMaxC= 1.00D-01 BMatC= 8.28D-12 BMatP= 5.86D-11
 IDIUse=1 WtCom= 1.00D+00 WtEn= 0.00D+00
 Coeff-Com: -0.468D-06 0.124D-06-0.374D-05-0.314D-04-0.312D-04 0.135D-03
 Coeff-Com:  0.126D-02 0.401D-02-0.264D-01-0.481D-01 0.296D+00 0.773D+00
 Coeff:     -0.468D-06 0.124D-06-0.374D-05-0.314D-04-0.312D-04 0.135D-03
 Coeff:      0.126D-02 0.401D-02-0.264D-01-0.481D-01 0.296D+00 0.773D+00
 Gap=     0.365 Goal=   None    Shift=    0.000
 RMSDP=5.58D-08 MaxDP=1.49D-06 DE=-8.62D-11 OVMax= 1.78D-06

 Cycle  13  Pass 1  IDiag  1:
 E= -628.634533800576     Delta-E=       -0.000000000013 Rises=F Damp=F
 DIIS: error= 9.21D-08 at cycle  13 NSaved=  13.
 NSaved=13 IEnMin=13 EnMin= -628.634533800576     IErMin=13 ErrMin= 9.21D-08
 ErrMax= 9.21D-08  0.00D+00 EMaxC= 1.00D-01 BMatC= 1.35D-12 BMatP= 8.28D-12
 IDIUse=1 WtCom= 1.00D+00 WtEn= 0.00D+00
 Coeff-Com: -0.732D-06 0.171D-05-0.671D-05-0.873D-05-0.365D-04-0.604D-04
 Coeff-Com:  0.328D-03 0.162D-02-0.343D-02-0.330D-01-0.683D-01 0.192D+00
 Coeff-Com:  0.911D+00
 Coeff:     -0.732D-06 0.171D-05-0.671D-05-0.873D-05-0.365D-04-0.604D-04
 Coeff:      0.328D-03 0.162D-02-0.343D-02-0.330D-01-0.683D-01 0.192D+00
 Coeff:      0.911D+00
 Gap=     0.365 Goal=   None    Shift=    0.000
 RMSDP=2.58D-08 MaxDP=8.53D-07 DE=-1.25D-11 OVMax= 9.95D-07

 Cycle  14  Pass 1  IDiag  1:
 E= -628.634533800579     Delta-E=       -0.000000000003 Rises=F Damp=F
 DIIS: error= 2.04D-08 at cycle  14 NSaved=  14.
 NSaved=14 IEnMin=14 EnMin= -628.634533800579     IErMin=14 ErrMin= 2.04D-08
 ErrMax= 2.04D-08  0.00D+00 EMaxC= 1.00D-01 BMatC= 7.12D-14 BMatP= 1.35D-12
 IDIUse=1 WtCom= 1.00D+00 WtEn= 0.00D+00
 Coeff-Com: -0.117D-06 0.348D-06-0.103D-05-0.314D-06-0.820D-06-0.703D-05
 Coeff-Com: -0.579D-04-0.839D-04 0.106D-02 0.138D-02-0.175D-01-0.395D-01
 Coeff-Com:  0.196D-01 0.104D+01
 Coeff:     -0.117D-06 0.348D-06-0.103D-05-0.314D-06-0.820D-06-0.703D-05
 Coeff:     -0.579D-04-0.839D-04 0.106D-02 0.138D-02-0.175D-01-0.395D-01
 Coeff:      0.196D-01 0.104D+01
 Gap=     0.365 Goal=   None    Shift=    0.000
 RMSDP=5.47D-09 MaxDP=2.03D-07 DE=-3.41D-12 OVMax= 2.18D-07

 SCF Done:  E(RM062X) =  -628.634533801     A.U. after   14 cycles
            NFock= 14  Conv=0.55D-08     -V/T= 2.0027
 KE= 6.269251602623D+02 PE=-2.015993793088D+03 EE= 4.896488639358D+02
 Leave Link  502 at Sun Oct 13 21:42:03 2019, MaxMem= 10737418240 cpu:              93.0 elap:               5.6
 (Enter /apps/cent7/gaussian/g16-A.03/g16-haswell/g16/l601.exe)
 Copying SCF densities to generalized density rwf, IOpCl= 0 IROHF=0.

 **********************************************************************

            Population analysis using the SCF density.

 **********************************************************************

 Orbital symmetries:
       Occupied  (A) (A) (A) (A) (A) (A) (A) (A) (A) (A) (A) (A)
                 (A) (A) (A) (A) (A) (A) (A) (A) (A) (A) (A) (A)
                 (A)
       Virtual   (A) (A) (A) (A) (A) (A) (A) (A) (A) (A) (A) (A)
                 (A) (A) (A) (A) (A) (A) (A) (A) (A) (A) (A) (A)
                 (A) (A) (A) (A) (A) (A) (A) (A) (A) (A) (A) (A)
                 (A) (A) (A) (A) (A) (A) (A) (A) (A) (A) (A) (A)
                 (A) (A) (A) (A) (A) (A) (A) (A) (A) (A) (A) (A)
                 (A) (A) (A) (A) (A) (A) (A) (A) (A) (A) (A) (A)
                 (A) (A) (A) (A) (A) (A) (A) (A) (A) (A) (A) (A)
                 (A) (A) (A) (A) (A) (A) (A) (A) (A) (A) (A) (A)
                 (A) (A) (A) (A) (A) (A) (A) (A) (A) (A) (A) (A)
                 (A) (A) (A) (A) (A) (A) (A) (A) (A) (A) (A) (A)
                 (A) (A) (A) (A) (A) (A) (A) (A) (A) (A) (A) (A)
                 (A) (A) (A) (A) (A) (A) (A) (A) (A) (A)
 The electronic state is 1-A.
 Alpha  occ. eigenvalues --  -90.34638 -19.91691 -19.83332 -10.80723 -10.80424
 Alpha  occ. eigenvalues --   -8.69029  -6.61287  -6.61007  -6.60978  -1.45953
 Alpha  occ. eigenvalues --   -1.31565  -1.13688  -1.05624  -0.97999  -0.86313
 Alpha  occ. eigenvalues --   -0.79634  -0.77519  -0.73696  -0.72089  -0.70739
 Alpha  occ. eigenvalues --   -0.70161  -0.68676  -0.65064  -0.57506  -0.56550
 Alpha virt. eigenvalues --   -0.20035  -0.17013  -0.15838  -0.15169  -0.13959
 Alpha virt. eigenvalues --   -0.12848  -0.11316  -0.10207  -0.08304  -0.07511
 Alpha virt. eigenvalues --   -0.07348  -0.06635  -0.05666  -0.04737  -0.04431
 Alpha virt. eigenvalues --   -0.02845  -0.02736  -0.01449  -0.01161   0.00359
 Alpha virt. eigenvalues --    0.01279   0.02188   0.02525   0.02903   0.03612
 Alpha virt. eigenvalues --    0.03826   0.04825   0.06589   0.07764   0.10330
 Alpha virt. eigenvalues --    0.11493   0.13002   0.14752   0.16150   0.17266
 Alpha virt. eigenvalues --    0.17635   0.17972   0.19535   0.21301   0.21652
 Alpha virt. eigenvalues --    0.22544   0.23986   0.26550   0.33289   0.35392
 Alpha virt. eigenvalues --    0.36884   0.37353   0.40809   0.46751   0.47311
 Alpha virt. eigenvalues --    0.47978   0.48039   0.49408   0.55348   0.55871
 Alpha virt. eigenvalues --    0.59091   0.65134   0.66770   0.70004   0.72669
 Alpha virt. eigenvalues --    0.74763   0.75723   0.87775   0.87962   0.90765
 Alpha virt. eigenvalues --    0.91608   0.99714   1.00706   1.02616   1.04998
 Alpha virt. eigenvalues --    1.08227   1.09074   1.20406   1.26718   1.27509
 Alpha virt. eigenvalues --    1.30334   1.37248   1.38700   1.40301   1.41120
 Alpha virt. eigenvalues --    1.42696   1.45285   1.46420   1.48369   1.53817
 Alpha virt. eigenvalues --    1.55182   1.56243   1.58548   1.70738   1.73306
 Alpha virt. eigenvalues --    1.77427   1.81327   1.82727   1.88269   1.95316
 Alpha virt. eigenvalues --    1.97758   2.03458   2.04999   2.25658   2.27824
 Alpha virt. eigenvalues --    2.28685   2.31318   2.32362   2.32929   2.34783
 Alpha virt. eigenvalues --    2.36438   2.37958   2.42769   2.48040   2.66283
 Alpha virt. eigenvalues --    2.67450   2.71233   2.73668   2.76297   2.80253
 Alpha virt. eigenvalues --    2.81629   2.84428   2.89763   2.92536   3.13615
 Alpha virt. eigenvalues --    3.17881   3.27028   3.53672   3.54490   3.56780
 Alpha virt. eigenvalues --    3.56893   3.63934   4.85013   4.88645   4.97830
 Alpha virt. eigenvalues --    4.99062   5.01976   5.35497   7.88903  17.25835
 Alpha virt. eigenvalues --   17.27750  17.29201  23.75158  23.75838  49.73383
 Alpha virt. eigenvalues --   49.77970 189.14444
          Condensed to atoms (all electrons):
               1          2          3          4          5          6
     1  C    5.697625   0.053276  -0.045610  -0.226764  -0.109928   0.345302
     2  S    0.053276  15.975383  -0.169412  -0.121943   0.217091  -0.047092
     3  O   -0.045610  -0.169412   8.189718  -0.023393  -0.098826  -0.005017
     4  C   -0.226764  -0.121943  -0.023393   5.905459  -0.060692   0.017768
     5  O   -0.109928   0.217091  -0.098826  -0.060692   8.220574   0.015528
     6  H    0.345302  -0.047092  -0.005017   0.017768   0.015528   0.489607
     7  H    0.339385  -0.014629   0.012880   0.007112  -0.010902  -0.041903
     8  H    0.393069  -0.029481  -0.012232  -0.001760  -0.014329  -0.034329
     9  H    0.018817  -0.003791  -0.014702   0.306181   0.014651  -0.008177
    10  H   -0.002215  -0.017339  -0.009146   0.387269  -0.016793  -0.000277
    11  H    0.004522  -0.040432   0.014560   0.376748  -0.014598   0.007243
    12  H    0.018010   0.003588   0.245374  -0.027669  -0.000578   0.001485
               7          8          9         10         11         12
     1  C    0.339385   0.393069   0.018817  -0.002215   0.004522   0.018010
     2  S   -0.014629  -0.029481  -0.003791  -0.017339  -0.040432   0.003588
     3  O    0.012880  -0.012232  -0.014702  -0.009146   0.014560   0.245374
     4  C    0.007112  -0.001760   0.306181   0.387269   0.376748  -0.027669
     5  O   -0.010902  -0.014329   0.014651  -0.016793  -0.014598  -0.000578
     6  H   -0.041903  -0.034329  -0.008177  -0.000277   0.007243   0.001485
     7  H    0.448653  -0.020406   0.005402  -0.000874  -0.007839  -0.001569
     8  H   -0.020406   0.418535   0.000177  -0.002186  -0.001021   0.002487
     9  H    0.005402   0.000177   0.494007  -0.043782  -0.036691   0.003170
    10  H   -0.000874  -0.002186  -0.043782   0.447294  -0.019500  -0.005076
    11  H   -0.007839  -0.001021  -0.036691  -0.019500   0.424355  -0.000772
    12  H   -0.001569   0.002487   0.003170  -0.005076  -0.000772   0.393945
 Mulliken charges:
               1
     1  C   -0.485490
     2  S    0.194780
     3  O   -0.084194
     4  C   -0.538318
     5  O   -0.141200
     6  H    0.259861
     7  H    0.284690
     8  H    0.301475
     9  H    0.264738
    10  H    0.282626
    11  H    0.293425
    12  H    0.367607
 Sum of Mulliken charges =   1.00000
 Mulliken charges with hydrogens summed into heavy atoms:
               1
     1  C    0.360536
     2  S    0.194780
     3  O    0.283413
     4  C    0.302471
     5  O   -0.141200
 Electronic spatial extent (au):  <R**2>=            497.0979
 Charge=              1.0000 electrons
 Dipole moment (field-independent basis, Debye):
    X=             -1.1451    Y=              3.8473    Z=             -4.5689  Tot=              6.0817
 Quadrupole moment (field-independent basis, Debye-Ang):
   XX=            -20.8834   YY=            -29.8485   ZZ=            -36.6139
   XY=              2.0631   XZ=              1.9604   YZ=              3.0193
 Traceless Quadrupole moment (field-independent basis, Debye-Ang):
   XX=              8.2318   YY=             -0.7332   ZZ=             -7.4986
   XY=              2.0631   XZ=              1.9604   YZ=              3.0193
 Octapole moment (field-independent basis, Debye-Ang**2):
  XXX=              1.2620  YYY=              4.7953  ZZZ=            -13.8160  XYY=             -6.4092
  XXY=              3.6676  XXZ=             -6.7924  XZZ=             -4.4048  YZZ=              0.6060
  YYZ=             -3.6652  XYZ=             -5.0775
 Hexadecapole moment (field-independent basis, Debye-Ang**3):
 XXXX=           -178.3643 YYYY=           -180.8154 ZZZZ=           -165.8491 XXXY=              5.6811
 XXXZ=              2.6778 YYYX=              5.5419 YYYZ=             12.9321 ZZZX=              6.7120
 ZZZY=              6.8320 XXYY=            -53.5115 XXZZ=            -60.4389 YYZZ=            -51.6831
 XXYZ=              6.1434 YYXZ=              7.9085 ZZXY=              7.9454
 N-N= 2.707852350888D+02 E-N=-2.015993793605D+03  KE= 6.269251602623D+02
 No NMR shielding tensors so no spin-rotation constants.
 Leave Link  601 at Sun Oct 13 21:42:04 2019, MaxMem= 10737418240 cpu:               2.4 elap:               0.1
 (Enter /apps/cent7/gaussian/g16-A.03/g16-haswell/g16/l701.exe)
 ... and contract with generalized density number  0.
 Compute integral first derivatives.
 Leave Link  701 at Sun Oct 13 21:42:04 2019, MaxMem= 10737418240 cpu:               4.6 elap:               0.2
 (Enter /apps/cent7/gaussian/g16-A.03/g16-haswell/g16/l702.exe)
 L702 exits ... SP integral derivatives will be done elsewhere.
 Leave Link  702 at Sun Oct 13 21:42:04 2019, MaxMem= 10737418240 cpu:               0.6 elap:               0.0
 (Enter /apps/cent7/gaussian/g16-A.03/g16-haswell/g16/l703.exe)
 Integral derivatives from FoFJK, PRISM(SPDF).
 Compute integral first derivatives, UseDBF=F ICtDFT=           0.
 Calling FoFJK, ICntrl=      2127 FMM=F ISym2X=0 I1Cent= 0 IOpClX= 0 NMat=1 NMatS=1 NMatT=0.
 FoFJK:  IHMeth= 1 ICntrl=    2127 DoSepK=F KAlg= 0 I1Cent=           0 FoldK=F
 IRaf=         0 NMat=       1 IRICut=       1 DoRegI=T DoRafI=F ISym2E= 0 IDoP0=0 IntGTp=1.
 FoFCou: FMM=F IPFlag=           0 FMFlag=      100000 FMFlg1=         800
         NFxFlg=           0 DoJE=F BraDBF=F KetDBF=F FulRan=T
         wScrn=  0.000000 ICntrl=      2127 IOpCl=  0 I1Cent=           0 NGrid=           0
         NMat0=    1 NMatS0=      1 NMatT0=    0 NMatD0=    1 NMtDS0=    0 NMtDT0=    0
 Symmetry not used in FoFCou.
 Leave Link  703 at Sun Oct 13 21:42:05 2019, MaxMem= 10737418240 cpu:              17.9 elap:               0.8
 (Enter /apps/cent7/gaussian/g16-A.03/g16-haswell/g16/l716.exe)
 Dipole        =-4.50534845D-01 1.51364484D+00-1.79752438D+00
 ***** Axes restored to original set *****
 -------------------------------------------------------------------
 Center     Atomic                   Forces (Hartrees/Bohr)
 Number     Number              X              Y              Z
 -------------------------------------------------------------------
      1        6          -0.002146193   -0.011807230    0.012778901
      2       16          -0.004038669    0.008427536   -0.135872397
      3        8          -0.007776151    0.034357573    0.005376532
      4        6          -0.006293434   -0.004279574    0.011949411
      5        8           0.015113942   -0.003811046    0.123596866
      6        1           0.001749876   -0.003906126    0.000911589
      7        1           0.006756505   -0.005063347   -0.007566491
      8        1           0.000847272   -0.006789256   -0.005453966
      9        1          -0.003189376    0.000002131    0.002309019
     10        1          -0.005671098   -0.002069819   -0.004787399
     11        1          -0.007598255    0.002100825   -0.004574929
     12        1           0.012245582   -0.007161668    0.001332865
 -------------------------------------------------------------------
 Cartesian Forces:  Max     0.135872397 RMS     0.031811442
 Leave Link  716 at Sun Oct 13 21:42:05 2019, MaxMem= 10737418240 cpu:               0.6 elap:               0.1
 (Enter /apps/cent7/gaussian/g16-A.03/g16-haswell/g16/l103.exe)

 GradGradGradGradGradGradGradGradGradGradGradGradGradGradGradGradGradGrad
 Berny optimization.
 FormGI is forming the generalized inverse of G from B-inverse, IUseBI=4.
 Internal  Forces:  Max     0.124544119 RMS     0.019212457
 Search for a local minimum.
 Step number   1 out of a maximum of   61
 All quantities printed in internal units (Hartrees-Bohrs-Radians)
 RMS Force = .19212D-01 SwitMx=.10000D-02 MixMth= 1
 Mixed Optimization -- RFO/linear search
 Second derivative matrix not updated -- first step.
 ITU=  0
     Eigenvalues ---    0.00230   0.00230   0.02570   0.05712   0.05715
     Eigenvalues ---    0.05715   0.05716   0.05716   0.06818   0.09891
     Eigenvalues ---    0.16000   0.16000   0.16000   0.16000   0.16000
     Eigenvalues ---    0.16000   0.16000   0.17826   0.21456   0.23982
     Eigenvalues ---    0.23987   0.34807   0.34809   0.34810   0.34817
     Eigenvalues ---    0.34818   0.34820   0.50507   0.50526   0.55473
 RFO step:  Lambda=-4.29373949D-02 EMin= 2.30000000D-03
 Linear search not attempted -- first point.
 Maximum step size (   0.300) exceeded in Quadratic search.
    -- Step size scaled by   0.937
 Iteration  1 RMS(Cart)=  0.06749421 RMS(Int)=  0.00237749
 Iteration  2 RMS(Cart)=  0.00269836 RMS(Int)=  0.00076642
 Iteration  3 RMS(Cart)=  0.00000176 RMS(Int)=  0.00076642
 Iteration  4 RMS(Cart)=  0.00000000 RMS(Int)=  0.00076642
 ITry= 1 IFail=0 DXMaxC= 1.89D-01 DCOld= 1.00D+10 DXMaxT= 3.00D-01 DXLimC= 3.00D+00 Rises=F
 Variable       Old X    -DE/DX   Delta X   Delta X   Delta X     New X
                                 (Linear)    (Quad)   (Total)
    R1        3.45569  -0.02435   0.00000  -0.08074  -0.08074   3.37496
    R2        2.05989   0.00136   0.00000   0.00327   0.00327   2.06317
    R3        2.05968   0.00078   0.00000   0.00186   0.00186   2.06154
    R4        2.05972   0.00064   0.00000   0.00153   0.00153   2.06124
    R5        3.03057  -0.02285   0.00000  -0.03908  -0.03908   2.99149
    R6        3.45556  -0.02117   0.00000  -0.07018  -0.07018   3.38538
    R7        3.03038  -0.12454   0.00000  -0.21296  -0.21296   2.81743
    R8        1.81414   0.01306   0.00000   0.02048   0.02048   1.83462
    R9        2.05986   0.00194   0.00000   0.00464   0.00464   2.06451
   R10        2.05972   0.00092   0.00000   0.00221   0.00221   2.06193
   R11        2.05984   0.00041   0.00000   0.00097   0.00097   2.06082
    A1        1.91056  -0.00102   0.00000  -0.00083  -0.00098   1.90958
    A2        1.91068  -0.01400   0.00000  -0.06687  -0.06808   1.84260
    A3        1.91062  -0.00976   0.00000  -0.04677  -0.04788   1.86274
    A4        1.91062   0.00841   0.00000   0.04227   0.04202   1.95265
    A5        1.91059   0.00654   0.00000   0.03460   0.03450   1.94509
    A6        1.91072   0.00983   0.00000   0.03759   0.03506   1.94579
    A7        1.91245  -0.01287   0.00000  -0.07811  -0.07861   1.83384
    A8        1.90938   0.00494   0.00000   0.00452   0.00270   1.91209
    A9        1.91247   0.00163   0.00000   0.02056   0.02091   1.93338
   A10        1.91255  -0.00130   0.00000  -0.02076  -0.02235   1.89019
   A11        1.90438   0.00760   0.00000   0.04956   0.05015   1.95453
   A12        1.91257  -0.00002   0.00000   0.02423   0.02397   1.93654
   A13        2.09440  -0.01005   0.00000  -0.04642  -0.04642   2.04798
   A14        1.91058  -0.00066   0.00000   0.00121   0.00116   1.91174
   A15        1.91061  -0.00836   0.00000  -0.03989  -0.04071   1.86990
   A16        1.91064  -0.01141   0.00000  -0.05571  -0.05662   1.85403
   A17        1.91066   0.00609   0.00000   0.03409   0.03411   1.94477
   A18        1.91063   0.00670   0.00000   0.03351   0.03337   1.94400
   A19        1.91068   0.00764   0.00000   0.02679   0.02487   1.93555
    D1        0.97598  -0.00278   0.00000  -0.02952  -0.02915   0.94683
    D2       -1.12110   0.00367   0.00000   0.04110   0.04074  -1.08037
    D3        3.06495  -0.00035   0.00000  -0.00402  -0.00417   3.06079
    D4        3.07035  -0.00168   0.00000  -0.01919  -0.01944   3.05091
    D5        0.97326   0.00477   0.00000   0.05142   0.05044   1.02370
    D6       -1.12386   0.00075   0.00000   0.00630   0.00554  -1.11832
    D7       -1.11831  -0.00419   0.00000  -0.04275  -0.04163  -1.15993
    D8        3.06779   0.00226   0.00000   0.02787   0.02826   3.09605
    D9        0.97067  -0.00177   0.00000  -0.01725  -0.01665   0.95402
   D10       -2.33193  -0.00020   0.00000   0.01162   0.01013  -2.32180
   D11       -0.23677  -0.00287   0.00000  -0.04379  -0.04282  -0.27959
   D12        1.85733   0.00096   0.00000   0.00352   0.00404   1.86137
   D13        0.98509  -0.00642   0.00000  -0.05012  -0.05019   0.93490
   D14        3.07947  -0.00449   0.00000  -0.03205  -0.03272   3.04675
   D15       -1.10928  -0.00724   0.00000  -0.05778  -0.05738  -1.16666
   D16       -1.11194   0.00712   0.00000   0.05562   0.05567  -1.05627
   D17        0.98244   0.00905   0.00000   0.07369   0.07314   1.05558
   D18        3.07688   0.00630   0.00000   0.04795   0.04848   3.12536
   D19        3.08216  -0.00139   0.00000  -0.00724  -0.00710   3.07506
   D20       -1.10665   0.00054   0.00000   0.01082   0.01037  -1.09628
   D21        0.98779  -0.00221   0.00000  -0.01491  -0.01429   0.97350
         Item               Value     Threshold  Converged?
 Maximum Force            0.124544     0.000450     NO 
 RMS     Force            0.019212     0.000300     NO 
 Maximum Displacement     0.189406     0.001800     NO 
 RMS     Displacement     0.068946     0.001200     NO 
 Predicted change in Energy=-2.388454D-02
 Lowest energy point so far.  Saving SCF results.
 GradGradGradGradGradGradGradGradGradGradGradGradGradGradGradGradGradGrad

 Leave Link  103 at Sun Oct 13 21:42:05 2019, MaxMem= 10737418240 cpu:               0.9 elap:               0.1
 (Enter /apps/cent7/gaussian/g16-A.03/g16-haswell/g16/l202.exe)
                          Input orientation:                          
 ---------------------------------------------------------------------
 Center     Atomic      Atomic             Coordinates (Angstroms)
 Number     Number       Type             X           Y           Z
 ---------------------------------------------------------------------
      1          6           0       -0.776457    1.357303    0.477533
      2         16           0        0.068516    0.016518   -0.345834
      3          8           0       -0.582170   -1.302022    0.240708
      4          6           0        1.802854    0.035452    0.102575
      5          8           0       -0.101158    0.112878   -1.823928
      6          1           0       -0.707796    1.220085    1.558477
      7          1           0       -0.270934    2.266960    0.150304
      8          1           0       -1.812470    1.331528    0.137271
      9          1           0        1.898858    0.032324    1.190834
     10          1           0        2.259161   -0.851186   -0.340384
     11          1           0        2.219754    0.945231   -0.330747
     12          1           0        0.020329   -2.008218    0.524981
 ---------------------------------------------------------------------
                    Distance matrix (angstroms):
                    1          2          3          4          5
     1  C    0.000000
     2  S    1.785950   0.000000
     3  O    2.676910   1.583026   0.000000
     4  C    2.922452   1.791468   2.737929   0.000000
     5  O    2.702101   1.490918   2.548732   2.709736   0.000000
     6  H    1.091780   2.382779   2.848389   3.134704   3.610344
     7  H    1.090921   2.329349   3.583668   3.046719   2.926856
     8  H    1.090764   2.345367   2.908595   3.840779   2.874022
     9  H    3.069475   2.389927   2.972998   1.092490   3.618749
    10  H    3.842055   2.356240   2.934975   1.091126   2.949818
    11  H    3.130559   2.343195   3.636961   1.090537   2.882540
    12  H    3.458880   2.204586   0.970839   2.744524   3.167204
                    6          7          8          9         10
     6  H    0.000000
     7  H    1.808245   0.000000
     8  H    1.803483   1.803202   0.000000
     9  H    2.888006   3.283945   4.070857   0.000000
    10  H    4.086400   4.045366   4.644413   1.804171   0.000000
    11  H    3.495034   2.860403   4.077634   1.803214   1.796876
    12  H    3.467019   4.301438   3.829279   2.852375   2.664573
                   11         12
    11  H    0.000000
    12  H    3.780556   0.000000
 Stoichiometry    C2H7O2S(1+)
 Framework group  C1[X(C2H7O2S)]
 Deg. of freedom    30
 Full point group                 C1      NOp   1
 RotChk:  IX=3 Diff= 2.12D-01
 Largest Abelian subgroup         C1      NOp   1
 Largest concise Abelian subgroup C1      NOp   1
                         Standard orientation:                         
 ---------------------------------------------------------------------
 Center     Atomic      Atomic             Coordinates (Angstroms)
 Number     Number       Type             X           Y           Z
 ---------------------------------------------------------------------
      1          6           0        1.497804    0.775222   -0.415140
      2         16           0        0.008970   -0.063563    0.103927
      3          8           0       -0.065735   -1.364041   -0.795600
      4          6           0       -1.415057    0.958630   -0.265705
      5          8           0        0.066508   -0.392472    1.556974
      6          1           0        1.468323    0.931713   -1.495244
      7          1           0        1.508340    1.718839    0.132202
      8          1           0        2.334270    0.137061   -0.127321
      9          1           0       -1.397720    1.241471   -1.320804
     10          1           0       -2.303056    0.372139   -0.024786
     11          1           0       -1.338881    1.832945    0.381629
     12          1           0       -0.917459   -1.568169   -1.214438
 ---------------------------------------------------------------------
 Rotational constants (GHZ):           4.2309825           3.9261321           3.8040734
 Leave Link  202 at Sun Oct 13 21:42:05 2019, MaxMem= 10737418240 cpu:               0.2 elap:               0.0
 (Enter /apps/cent7/gaussian/g16-A.03/g16-haswell/g16/l301.exe)
 Standard basis: 6-311++G(d,p) (5D, 7F)
 Ernie: Thresh=  0.10000D-02 Tol=  0.10000D-05 Strict=F.
 There are   172 symmetry adapted cartesian basis functions of A   symmetry.
 There are   167 symmetry adapted basis functions of A   symmetry.
   167 basis functions,   257 primitive gaussians,   172 cartesian basis functions
    25 alpha electrons       25 beta electrons
       nuclear repulsion energy       279.0748706972 Hartrees.
 IExCor= 4336 DFT=T Ex+Corr=M062X ExCW=0 ScaHFX=  0.540000
 ScaDFX=  1.000000  1.000000  1.000000  1.000000 ScalE2=  1.000000  1.000000
 IRadAn=      5 IRanWt=     -1 IRanGd=            0 ICorTp=0 IEmpDi=  4
 NAtoms=   12 NActive=   12 NUniq=   12 SFac= 1.00D+00 NAtFMM=   60 NAOKFM=F Big=F
 Integral buffers will be    131072 words long.
 Raffenetti 2 integral format.
 Two-electron integral symmetry is turned on.
 Leave Link  301 at Sun Oct 13 21:42:05 2019, MaxMem= 10737418240 cpu:               1.6 elap:               0.1
 (Enter /apps/cent7/gaussian/g16-A.03/g16-haswell/g16/l302.exe)
 NPDir=0 NMtPBC=     1 NCelOv=     1 NCel=       1 NClECP=     1 NCelD=      1
         NCelK=      1 NCelE2=     1 NClLst=     1 CellRange=     0.0.
 One-electron integrals computed using PRISM.
 One-electron integral symmetry used in STVInt
 NBasis=   167 RedAO= T EigKep=  7.65D-05  NBF=   167
 NBsUse=   167 1.00D-06 EigRej= -1.00D+00 NBFU=   167
 Precomputing XC quadrature grid using
 IXCGrd= 4 IRadAn=           5 IRanWt=          -1 IRanGd=           0 AccXCQ= 0.00D+00.
 Generated NRdTot=       0 NPtTot=           0 NUsed=           0 NTot=          32
 NSgBfM=   172   172   172   172   172 MxSgAt=    12 MxSgA2=    12.
 Leave Link  302 at Sun Oct 13 21:42:05 2019, MaxMem= 10737418240 cpu:               3.1 elap:               0.2
 (Enter /apps/cent7/gaussian/g16-A.03/g16-haswell/g16/l303.exe)
 DipDrv:  MaxL=1.
 Leave Link  303 at Sun Oct 13 21:42:05 2019, MaxMem= 10737418240 cpu:               0.6 elap:               0.0
 (Enter /apps/cent7/gaussian/g16-A.03/g16-haswell/g16/l401.exe)
 Initial guess from the checkpoint file:  "25_p.chk"
 B after Tr=     0.000000    0.000000    0.000000
         Rot=    0.996921    0.052866    0.009400   -0.057141 Ang=   8.99 deg.
 Guess basis will be translated and rotated to current coordinates.
 JPrj=2 DoOrth=T DoCkMO=T.
 Generating alternative initial guess.
 ExpMin= 3.60D-02 ExpMax= 9.34D+04 ExpMxC= 3.17D+03 IAcc=3 IRadAn=         5 AccDes= 0.00D+00
 Harris functional with IExCor= 1009 and IRadAn=       5 diagonalized for initial guess.
 HarFok:  IExCor= 1009 AccDes= 0.00D+00 IRadAn=         5 IDoV= 1 UseB2=F ITyADJ=14
 ICtDFT=  3500011 ScaDFX=  1.000000  1.000000  1.000000  1.000000
 FoFCou: FMM=F IPFlag=           0 FMFlag=      100000 FMFlg1=           0
         NFxFlg=           0 DoJE=T BraDBF=F KetDBF=T FulRan=T
         wScrn=  0.000000 ICntrl=       500 IOpCl=  0 I1Cent=   200000004 NGrid=           0
         NMat0=    1 NMatS0=      1 NMatT0=    0 NMatD0=    1 NMtDS0=    0 NMtDT0=    0
 Petite list used in FoFCou.
 Harris En= -628.568894850094    
 Leave Link  401 at Sun Oct 13 21:42:06 2019, MaxMem= 10737418240 cpu:               8.0 elap:               0.4
 (Enter /apps/cent7/gaussian/g16-A.03/g16-haswell/g16/l502.exe)
 Keep R1 ints in memory in canonical form, NReq=122420357.
 FoFCou: FMM=F IPFlag=           0 FMFlag=           0 FMFlg1=           0
         NFxFlg=           0 DoJE=F BraDBF=F KetDBF=F FulRan=T
         wScrn=  0.000000 ICntrl=       600 IOpCl=  0 I1Cent=           0 NGrid=           0
         NMat0=    1 NMatS0=  14028 NMatT0=    0 NMatD0=    1 NMtDS0=    0 NMtDT0=    0
 Symmetry not used in FoFCou.
 Two-electron integral symmetry not used.
 Closed shell SCF:
 Using DIIS extrapolation, IDIIS=  1040.
 NGot= 10737418240 LenX= 10638953723 LenY= 10638923698
 Requested convergence on RMS density matrix=1.00D-08 within 128 cycles.
 Requested convergence on MAX density matrix=1.00D-06.
 Requested convergence on             energy=1.00D-06.
 No special actions if energy rises.

 Cycle   1  Pass 1  IDiag  1:
 E= -628.651766755002    
 DIIS: error= 6.44D-03 at cycle   1 NSaved=   1.
 NSaved= 1 IEnMin= 1 EnMin= -628.651766755002     IErMin= 1 ErrMin= 6.44D-03
 ErrMax= 6.44D-03  0.00D+00 EMaxC= 1.00D-01 BMatC= 1.00D-02 BMatP= 1.00D-02
 IDIUse=3 WtCom= 9.36D-01 WtEn= 6.44D-02
 Coeff-Com:  0.100D+01
 Coeff-En:   0.100D+01
 Coeff:      0.100D+01
 Gap=     0.526 Goal=   None    Shift=    0.000
 GapD=    0.526 DampG=2.000 DampE=1.000 DampFc=2.0000 IDamp=-1.
 RMSDP=1.65D-03 MaxDP=3.77D-02              OVMax= 3.57D-02

 Cycle   2  Pass 1  IDiag  1:
 E= -628.662208292458     Delta-E=       -0.010441537456 Rises=F Damp=F
 DIIS: error= 3.82D-03 at cycle   2 NSaved=   2.
 NSaved= 2 IEnMin= 2 EnMin= -628.662208292458     IErMin= 2 ErrMin= 3.82D-03
 ErrMax= 3.82D-03  0.00D+00 EMaxC= 1.00D-01 BMatC= 3.11D-03 BMatP= 1.00D-02
 IDIUse=3 WtCom= 9.62D-01 WtEn= 3.82D-02
 Coeff-Com:  0.281D+00 0.719D+00
 Coeff-En:   0.000D+00 0.100D+01
 Coeff:      0.271D+00 0.729D+00
 Gap=     0.393 Goal=   None    Shift=    0.000
 RMSDP=6.50D-04 MaxDP=1.63D-02 DE=-1.04D-02 OVMax= 2.78D-02

 Cycle   3  Pass 1  IDiag  1:
 E= -628.663173796982     Delta-E=       -0.000965504524 Rises=F Damp=F
 DIIS: error= 3.66D-03 at cycle   3 NSaved=   3.
 NSaved= 3 IEnMin= 3 EnMin= -628.663173796982     IErMin= 3 ErrMin= 3.66D-03
 ErrMax= 3.66D-03  0.00D+00 EMaxC= 1.00D-01 BMatC= 2.18D-03 BMatP= 3.11D-03
 IDIUse=3 WtCom= 9.63D-01 WtEn= 3.66D-02
 Coeff-Com: -0.322D-01 0.456D+00 0.576D+00
 Coeff-En:   0.000D+00 0.382D+00 0.618D+00
 Coeff:     -0.310D-01 0.453D+00 0.577D+00
 Gap=     0.405 Goal=   None    Shift=    0.000
 RMSDP=3.56D-04 MaxDP=7.80D-03 DE=-9.66D-04 OVMax= 1.22D-02

 Cycle   4  Pass 1  IDiag  1:
 E= -628.664756845205     Delta-E=       -0.001583048223 Rises=F Damp=F
 DIIS: error= 6.70D-04 at cycle   4 NSaved=   4.
 NSaved= 4 IEnMin= 4 EnMin= -628.664756845205     IErMin= 4 ErrMin= 6.70D-04
 ErrMax= 6.70D-04  0.00D+00 EMaxC= 1.00D-01 BMatC= 9.83D-05 BMatP= 2.18D-03
 IDIUse=3 WtCom= 9.93D-01 WtEn= 6.70D-03
 Coeff-Com: -0.399D-01 0.109D+00 0.245D+00 0.685D+00
 Coeff-En:   0.000D+00 0.000D+00 0.000D+00 0.100D+01
 Coeff:     -0.396D-01 0.109D+00 0.244D+00 0.688D+00
 Gap=     0.405 Goal=   None    Shift=    0.000
 RMSDP=9.99D-05 MaxDP=2.79D-03 DE=-1.58D-03 OVMax= 3.22D-03

 Cycle   5  Pass 1  IDiag  1:
 E= -628.664849342293     Delta-E=       -0.000092497088 Rises=F Damp=F
 DIIS: error= 2.00D-04 at cycle   5 NSaved=   5.
 NSaved= 5 IEnMin= 5 EnMin= -628.664849342293     IErMin= 5 ErrMin= 2.00D-04
 ErrMax= 2.00D-04  0.00D+00 EMaxC= 1.00D-01 BMatC= 5.78D-06 BMatP= 9.83D-05
 IDIUse=3 WtCom= 9.98D-01 WtEn= 2.00D-03
 Coeff-Com: -0.565D-02-0.184D-01 0.100D-02 0.189D+00 0.834D+00
 Coeff-En:   0.000D+00 0.000D+00 0.000D+00 0.000D+00 0.100D+01
 Coeff:     -0.564D-02-0.184D-01 0.998D-03 0.188D+00 0.835D+00
 Gap=     0.404 Goal=   None    Shift=    0.000
 RMSDP=2.86D-05 MaxDP=9.78D-04 DE=-9.25D-05 OVMax= 1.06D-03

 Cycle   6  Pass 1  IDiag  1:
 E= -628.664856703444     Delta-E=       -0.000007361151 Rises=F Damp=F
 DIIS: error= 5.70D-05 at cycle   6 NSaved=   6.
 NSaved= 6 IEnMin= 6 EnMin= -628.664856703444     IErMin= 6 ErrMin= 5.70D-05
 ErrMax= 5.70D-05  0.00D+00 EMaxC= 1.00D-01 BMatC= 1.06D-06 BMatP= 5.78D-06
 IDIUse=1 WtCom= 1.00D+00 WtEn= 0.00D+00
 Coeff-Com:  0.154D-02-0.196D-01-0.293D-01 0.659D-02 0.318D+00 0.723D+00
 Coeff:      0.154D-02-0.196D-01-0.293D-01 0.659D-02 0.318D+00 0.723D+00
 Gap=     0.404 Goal=   None    Shift=    0.000
 RMSDP=1.39D-05 MaxDP=3.25D-04 DE=-7.36D-06 OVMax= 4.48D-04

 Cycle   7  Pass 1  IDiag  1:
 E= -628.664857677585     Delta-E=       -0.000000974141 Rises=F Damp=F
 DIIS: error= 3.54D-05 at cycle   7 NSaved=   7.
 NSaved= 7 IEnMin= 7 EnMin= -628.664857677585     IErMin= 7 ErrMin= 3.54D-05
 ErrMax= 3.54D-05  0.00D+00 EMaxC= 1.00D-01 BMatC= 1.85D-07 BMatP= 1.06D-06
 IDIUse=1 WtCom= 1.00D+00 WtEn= 0.00D+00
 Coeff-Com:  0.143D-02-0.567D-02-0.144D-01-0.245D-01 0.185D-01 0.329D+00
 Coeff-Com:  0.696D+00
 Coeff:      0.143D-02-0.567D-02-0.144D-01-0.245D-01 0.185D-01 0.329D+00
 Coeff:      0.696D+00
 Gap=     0.404 Goal=   None    Shift=    0.000
 RMSDP=3.70D-06 MaxDP=7.89D-05 DE=-9.74D-07 OVMax= 1.72D-04

 Cycle   8  Pass 1  IDiag  1:
 E= -628.664857837700     Delta-E=       -0.000000160115 Rises=F Damp=F
 DIIS: error= 4.64D-06 at cycle   8 NSaved=   8.
 NSaved= 8 IEnMin= 8 EnMin= -628.664857837700     IErMin= 8 ErrMin= 4.64D-06
 ErrMax= 4.64D-06  0.00D+00 EMaxC= 1.00D-01 BMatC= 6.14D-09 BMatP= 1.85D-07
 IDIUse=1 WtCom= 1.00D+00 WtEn= 0.00D+00
 Coeff-Com:  0.221D-03 0.234D-03-0.142D-02-0.605D-02-0.183D-01 0.234D-01
 Coeff-Com:  0.169D+00 0.833D+00
 Coeff:      0.221D-03 0.234D-03-0.142D-02-0.605D-02-0.183D-01 0.234D-01
 Coeff:      0.169D+00 0.833D+00
 Gap=     0.404 Goal=   None    Shift=    0.000
 RMSDP=1.16D-06 MaxDP=2.86D-05 DE=-1.60D-07 OVMax= 3.20D-05

 Cycle   9  Pass 1  IDiag  1:
 E= -628.664857844345     Delta-E=       -0.000000006645 Rises=F Damp=F
 DIIS: error= 2.75D-06 at cycle   9 NSaved=   9.
 NSaved= 9 IEnMin= 9 EnMin= -628.664857844345     IErMin= 9 ErrMin= 2.75D-06
 ErrMax= 2.75D-06  0.00D+00 EMaxC= 1.00D-01 BMatC= 9.49D-10 BMatP= 6.14D-09
 IDIUse=1 WtCom= 1.00D+00 WtEn= 0.00D+00
 Coeff-Com: -0.693D-04 0.681D-03 0.956D-03 0.467D-03-0.917D-02-0.265D-01
 Coeff-Com: -0.153D-01 0.315D+00 0.734D+00
 Coeff:     -0.693D-04 0.681D-03 0.956D-03 0.467D-03-0.917D-02-0.265D-01
 Coeff:     -0.153D-01 0.315D+00 0.734D+00
 Gap=     0.404 Goal=   None    Shift=    0.000
 RMSDP=3.05D-07 MaxDP=6.39D-06 DE=-6.64D-09 OVMax= 1.09D-05

 Cycle  10  Pass 1  IDiag  1:
 E= -628.664857845451     Delta-E=       -0.000000001106 Rises=F Damp=F
 DIIS: error= 1.82D-07 at cycle  10 NSaved=  10.
 NSaved=10 IEnMin=10 EnMin= -628.664857845451     IErMin=10 ErrMin= 1.82D-07
 ErrMax= 1.82D-07  0.00D+00 EMaxC= 1.00D-01 BMatC= 1.65D-11 BMatP= 9.49D-10
 IDIUse=1 WtCom= 1.00D+00 WtEn= 0.00D+00
 Coeff-Com: -0.479D-05-0.386D-04 0.335D-04 0.365D-03 0.632D-03 0.336D-03
 Coeff-Com: -0.672D-02-0.516D-01 0.798D-02 0.105D+01
 Coeff:     -0.479D-05-0.386D-04 0.335D-04 0.365D-03 0.632D-03 0.336D-03
 Coeff:     -0.672D-02-0.516D-01 0.798D-02 0.105D+01
 Gap=     0.404 Goal=   None    Shift=    0.000
 RMSDP=9.69D-08 MaxDP=1.81D-06 DE=-1.11D-09 OVMax= 3.47D-06

 Cycle  11  Pass 1  IDiag  1:
 E= -628.664857845488     Delta-E=       -0.000000000037 Rises=F Damp=F
 DIIS: error= 6.80D-08 at cycle  11 NSaved=  11.
 NSaved=11 IEnMin=11 EnMin= -628.664857845488     IErMin=11 ErrMin= 6.80D-08
 ErrMax= 6.80D-08  0.00D+00 EMaxC= 1.00D-01 BMatC= 6.17D-13 BMatP= 1.65D-11
 IDIUse=1 WtCom= 1.00D+00 WtEn= 0.00D+00
 Coeff-Com:  0.191D-05-0.248D-04-0.364D-04 0.102D-04 0.385D-03 0.872D-03
 Coeff-Com: -0.336D-04-0.137D-01-0.230D-01 0.369D-01 0.999D+00
 Coeff:      0.191D-05-0.248D-04-0.364D-04 0.102D-04 0.385D-03 0.872D-03
 Coeff:     -0.336D-04-0.137D-01-0.230D-01 0.369D-01 0.999D+00
 Gap=     0.404 Goal=   None    Shift=    0.000
 RMSDP=2.14D-08 MaxDP=5.99D-07 DE=-3.73D-11 OVMax= 7.11D-07

 Cycle  12  Pass 1  IDiag  1:
 E= -628.664857845482     Delta-E=        0.000000000005 Rises=F Damp=F
 DIIS: error= 1.40D-08 at cycle  12 NSaved=  12.
 NSaved=12 IEnMin=11 EnMin= -628.664857845488     IErMin=12 ErrMin= 1.40D-08
 ErrMax= 1.40D-08  0.00D+00 EMaxC= 1.00D-01 BMatC= 7.10D-14 BMatP= 6.17D-13
 IDIUse=1 WtCom= 1.00D+00 WtEn= 0.00D+00
 Coeff-Com:  0.761D-06-0.153D-05-0.975D-05-0.292D-04 0.333D-04 0.150D-03
 Coeff-Com:  0.595D-03 0.154D-02-0.500D-02-0.808D-01 0.180D+00 0.904D+00
 Coeff:      0.761D-06-0.153D-05-0.975D-05-0.292D-04 0.333D-04 0.150D-03
 Coeff:      0.595D-03 0.154D-02-0.500D-02-0.808D-01 0.180D+00 0.904D+00
 Gap=     0.404 Goal=   None    Shift=    0.000
 RMSDP=6.66D-09 MaxDP=1.97D-07 DE= 5.46D-12 OVMax= 2.31D-07

 SCF Done:  E(RM062X) =  -628.664857845     A.U. after   12 cycles
            NFock= 12  Conv=0.67D-08     -V/T= 2.0022
 KE= 6.272697351865D+02 PE=-2.032657682380D+03 EE= 4.976482186511D+02
 Leave Link  502 at Sun Oct 13 21:42:11 2019, MaxMem= 10737418240 cpu:              82.7 elap:               5.0
 (Enter /apps/cent7/gaussian/g16-A.03/g16-haswell/g16/l701.exe)
 ... and contract with generalized density number  0.
 Compute integral first derivatives.
 Leave Link  701 at Sun Oct 13 21:42:11 2019, MaxMem= 10737418240 cpu:               3.1 elap:               0.2
 (Enter /apps/cent7/gaussian/g16-A.03/g16-haswell/g16/l702.exe)
 L702 exits ... SP integral derivatives will be done elsewhere.
 Leave Link  702 at Sun Oct 13 21:42:11 2019, MaxMem= 10737418240 cpu:               0.9 elap:               0.1
 (Enter /apps/cent7/gaussian/g16-A.03/g16-haswell/g16/l703.exe)
 Integral derivatives from FoFJK, PRISM(SPDF).
 Compute integral first derivatives, UseDBF=F ICtDFT=           0.
 Calling FoFJK, ICntrl=      2127 FMM=F ISym2X=0 I1Cent= 0 IOpClX= 0 NMat=1 NMatS=1 NMatT=0.
 FoFJK:  IHMeth= 1 ICntrl=    2127 DoSepK=F KAlg= 0 I1Cent=           0 FoldK=F
 IRaf=         0 NMat=       1 IRICut=       1 DoRegI=T DoRafI=F ISym2E= 0 IDoP0=0 IntGTp=1.
 FoFCou: FMM=F IPFlag=           0 FMFlag=      100000 FMFlg1=         800
         NFxFlg=           0 DoJE=F BraDBF=F KetDBF=F FulRan=T
         wScrn=  0.000000 ICntrl=      2127 IOpCl=  0 I1Cent=           0 NGrid=           0
         NMat0=    1 NMatS0=      1 NMatT0=    0 NMatD0=    1 NMtDS0=    0 NMtDT0=    0
 Symmetry not used in FoFCou.
 Leave Link  703 at Sun Oct 13 21:42:12 2019, MaxMem= 10737418240 cpu:              17.6 elap:               0.8
 (Enter /apps/cent7/gaussian/g16-A.03/g16-haswell/g16/l716.exe)
 Dipole        =-6.22223939D-01 1.13020637D+00-1.74682467D+00
 ***** Axes restored to original set *****
 -------------------------------------------------------------------
 Center     Atomic                   Forces (Hartrees/Bohr)
 Number     Number              X              Y              Z
 -------------------------------------------------------------------
      1        6           0.002368170   -0.007784501    0.005833369
      2       16          -0.005540573    0.009020952   -0.075285440
      3        8           0.000931391    0.008914476    0.009148077
      4        6          -0.005564693   -0.003135164    0.007777324
      5        8           0.008480767   -0.004135196    0.062909816
      6        1           0.000019591   -0.000265388   -0.000968024
      7        1          -0.000571115   -0.000252284   -0.001453258
      8        1           0.000310998   -0.000956331   -0.001556383
      9        1          -0.000191912    0.000142828   -0.000553125
     10        1          -0.000321669    0.000448263   -0.002009187
     11        1          -0.000924765   -0.000128728   -0.001347062
     12        1           0.001003809   -0.001868928   -0.002496107
 -------------------------------------------------------------------
 Cartesian Forces:  Max     0.075285440 RMS     0.016846732
 Leave Link  716 at Sun Oct 13 21:42:12 2019, MaxMem= 10737418240 cpu:               0.5 elap:               0.0
 (Enter /apps/cent7/gaussian/g16-A.03/g16-haswell/g16/l103.exe)

 GradGradGradGradGradGradGradGradGradGradGradGradGradGradGradGradGradGrad
 Berny optimization.
 Using GEDIIS/GDIIS optimizer.
 FormGI is forming the generalized inverse of G from B-inverse, IUseBI=4.
 Internal  Forces:  Max     0.063600911 RMS     0.009237878
 Search for a local minimum.
 Step number   2 out of a maximum of   61
 All quantities printed in internal units (Hartrees-Bohrs-Radians)
 RMS Force = .92379D-02 SwitMx=.10000D-02 MixMth= 1
 Mixed Optimization -- RFO/linear search
 Update second derivatives using D2CorX and points    1    2
 DE= -3.03D-02 DEPred=-2.39D-02 R= 1.27D+00
 TightC=F SS=  1.41D+00  RLast= 3.44D-01 DXNew= 5.0454D-01 1.0319D+00
 Trust test= 1.27D+00 RLast= 3.44D-01 DXMaxT set to 5.05D-01
 ITU=  1  0
 Use linear search instead of GDIIS.
     Eigenvalues ---    0.00230   0.00230   0.02559   0.05675   0.05881
     Eigenvalues ---    0.05944   0.06210   0.06296   0.06937   0.09849
     Eigenvalues ---    0.15956   0.16000   0.16000   0.16000   0.16000
     Eigenvalues ---    0.16000   0.17401   0.17754   0.20839   0.23914
     Eigenvalues ---    0.24017   0.32344   0.34809   0.34810   0.34818
     Eigenvalues ---    0.34819   0.34823   0.34879   0.50984   0.55756
 RFO step:  Lambda=-3.97360675D-03 EMin= 2.29957842D-03
 Quartic linear search produced a step of  0.50154.
 Iteration  1 RMS(Cart)=  0.02936375 RMS(Int)=  0.00068069
 Iteration  2 RMS(Cart)=  0.00056467 RMS(Int)=  0.00044285
 Iteration  3 RMS(Cart)=  0.00000047 RMS(Int)=  0.00044285
 ITry= 1 IFail=0 DXMaxC= 1.35D-01 DCOld= 1.00D+10 DXMaxT= 5.05D-01 DXLimC= 3.00D+00 Rises=F
 Variable       Old X    -DE/DX   Delta X   Delta X   Delta X     New X
                                 (Linear)    (Quad)   (Total)
    R1        3.37496  -0.00710  -0.04049   0.01585  -0.02464   3.35032
    R2        2.06317  -0.00092   0.00164  -0.00605  -0.00441   2.05876
    R3        2.06154  -0.00004   0.00093  -0.00136  -0.00043   2.06111
    R4        2.06124   0.00021   0.00076  -0.00007   0.00070   2.06194
    R5        2.99149  -0.00420  -0.01960   0.01005  -0.00955   2.98194
    R6        3.38538  -0.00584  -0.03520   0.01585  -0.01935   3.36604
    R7        2.81743  -0.06360  -0.10680  -0.06540  -0.17221   2.64522
    R8        1.83462   0.00125   0.01027  -0.00813   0.00215   1.83677
    R9        2.06451  -0.00057   0.00233  -0.00540  -0.00307   2.06143
   R10        2.06193   0.00032   0.00111  -0.00007   0.00104   2.06297
   R11        2.06082   0.00007   0.00049  -0.00031   0.00018   2.06100
    A1        1.90958   0.00027  -0.00049   0.00441   0.00373   1.91331
    A2        1.84260  -0.00056  -0.03414   0.05872   0.02387   1.86647
    A3        1.86274  -0.00272  -0.02401   0.01567  -0.00893   1.85382
    A4        1.95265   0.00098   0.02108  -0.02219  -0.00144   1.95121
    A5        1.94509   0.00126   0.01730  -0.02343  -0.00619   1.93890
    A6        1.94579   0.00047   0.01759  -0.02606  -0.00975   1.93604
    A7        1.83384  -0.00589  -0.03943   0.01135  -0.02834   1.80550
    A8        1.91209   0.00196   0.00136   0.00929   0.00933   1.92142
    A9        1.93338   0.00177   0.01049   0.00938   0.02002   1.95340
   A10        1.89019  -0.00209  -0.01121  -0.00901  -0.02107   1.86912
   A11        1.95453   0.00372   0.02515  -0.00997   0.01564   1.97018
   A12        1.93654   0.00020   0.01202  -0.00992   0.00178   1.93831
   A13        2.04798  -0.00073  -0.02328   0.03468   0.01140   2.05938
   A14        1.91174   0.00071   0.00058   0.00725   0.00777   1.91951
   A15        1.86990  -0.00127  -0.02042   0.02482   0.00395   1.87385
   A16        1.85403  -0.00209  -0.02839   0.03097   0.00209   1.85612
   A17        1.94477   0.00114   0.01711  -0.01769  -0.00062   1.94415
   A18        1.94400   0.00101   0.01674  -0.01942  -0.00278   1.94122
   A19        1.93555   0.00026   0.01247  -0.02130  -0.00982   1.92574
    D1        0.94683  -0.00232  -0.01462   0.00688  -0.00757   0.93926
    D2       -1.08037   0.00229   0.02043   0.00695   0.02722  -1.05315
    D3        3.06079  -0.00046  -0.00209   0.00689   0.00457   3.06536
    D4        3.05091  -0.00133  -0.00975   0.01660   0.00681   3.05772
    D5        1.02370   0.00328   0.02530   0.01667   0.04160   1.06531
    D6       -1.11832   0.00053   0.00278   0.01661   0.01896  -1.09937
    D7       -1.15993  -0.00238  -0.02088   0.02328   0.00300  -1.15694
    D8        3.09605   0.00223   0.01417   0.02335   0.03778   3.13383
    D9        0.95402  -0.00052  -0.00835   0.02329   0.01514   0.96916
   D10       -2.32180  -0.00089   0.00508  -0.05358  -0.04953  -2.37133
   D11       -0.27959  -0.00261  -0.02147  -0.04133  -0.06199  -0.34158
   D12        1.86137  -0.00139   0.00202  -0.06656  -0.06432   1.79704
   D13        0.93490  -0.00365  -0.02517   0.00106  -0.02413   0.91077
   D14        3.04675  -0.00263  -0.01641  -0.00124  -0.01797   3.02878
   D15       -1.16666  -0.00403  -0.02878   0.00224  -0.02632  -1.19297
   D16       -1.05627   0.00342   0.02792  -0.01236   0.01558  -1.04069
   D17        1.05558   0.00444   0.03668  -0.01467   0.02175   1.07733
   D18        3.12536   0.00303   0.02431  -0.01118   0.01340   3.13876
   D19        3.07506   0.00005  -0.00356   0.01261   0.00910   3.08416
   D20       -1.09628   0.00107   0.00520   0.01031   0.01527  -1.08101
   D21        0.97350  -0.00033  -0.00717   0.01380   0.00692   0.98042
         Item               Value     Threshold  Converged?
 Maximum Force            0.063601     0.000450     NO 
 RMS     Force            0.009238     0.000300     NO 
 Maximum Displacement     0.135213     0.001800     NO 
 RMS     Displacement     0.029431     0.001200     NO 
 Predicted change in Energy=-7.854149D-03
 Lowest energy point so far.  Saving SCF results.
 GradGradGradGradGradGradGradGradGradGradGradGradGradGradGradGradGradGrad

 Leave Link  103 at Sun Oct 13 21:42:12 2019, MaxMem= 10737418240 cpu:               0.5 elap:               0.0
 (Enter /apps/cent7/gaussian/g16-A.03/g16-haswell/g16/l202.exe)
                          Input orientation:                          
 ---------------------------------------------------------------------
 Center     Atomic      Atomic             Coordinates (Angstroms)
 Number     Number       Type             X           Y           Z
 ---------------------------------------------------------------------
      1          6           0       -0.773230    1.351221    0.468570
      2         16           0        0.074415    0.034546   -0.362741
      3          8           0       -0.574323   -1.265680    0.252527
      4          6           0        1.795388    0.028622    0.096604
      5          8           0       -0.074965    0.112077   -1.752377
      6          1           0       -0.697900    1.211867    1.546440
      7          1           0       -0.306083    2.282892    0.147047
      8          1           0       -1.811866    1.301641    0.137895
      9          1           0        1.891129    0.026698    1.183256
     10          1           0        2.247264   -0.861874   -0.344511
     11          1           0        2.231838    0.929353   -0.336609
     12          1           0        0.016821   -1.994511    0.505686
 ---------------------------------------------------------------------
                    Distance matrix (angstroms):
                    1          2          3          4          5
     1  C    0.000000
     2  S    1.772911   0.000000
     3  O    2.633327   1.577974   0.000000
     4  C    2.912975   1.781230   2.704636   0.000000
     5  O    2.637358   1.399791   2.483387   2.631333   0.000000
     6  H    1.089448   2.372241   2.797806   3.117463   3.532673
     7  H    1.090694   2.336605   3.560259   3.082281   2.893728
     8  H    1.091132   2.326849   2.852331   3.825515   2.829313
     9  H    3.060057   2.385501   2.935123   1.090863   3.534226
    10  H    3.831746   2.350568   2.912192   1.091677   2.885033
    11  H    3.139542   2.335773   3.611065   1.090632   2.827310
    12  H    3.437947   2.207838   0.971974   2.724649   3.089496
                    6          7          8          9         10
     6  H    0.000000
     7  H    1.805246   0.000000
     8  H    1.798049   1.797309   0.000000
     9  H    2.870470   3.315401   4.053447   0.000000
    10  H    4.068180   4.080535   4.624938   1.802904   0.000000
    11  H    3.494145   2.916683   4.088434   1.800239   1.791311
    12  H    3.445991   4.304540   3.787345   2.838559   2.642078
                   11         12
    11  H    0.000000
    12  H    3.763607   0.000000
 Stoichiometry    C2H7O2S(1+)
 Framework group  C1[X(C2H7O2S)]
 Deg. of freedom    30
 Full point group                 C1      NOp   1
 RotChk:  IX=3 Diff= 1.23D-01
 Largest Abelian subgroup         C1      NOp   1
 Largest concise Abelian subgroup C1      NOp   1
                         Standard orientation:                         
 ---------------------------------------------------------------------
 Center     Atomic      Atomic             Coordinates (Angstroms)
 Number     Number       Type             X           Y           Z
 ---------------------------------------------------------------------
      1          6           0        1.491621    0.737076   -0.441008
      2         16           0        0.009901   -0.049782    0.132206
      3          8           0       -0.025784   -1.401702   -0.680838
      4          6           0       -1.415932    0.896365   -0.362351
      5          8           0        0.025973   -0.248168    1.517774
      6          1           0        1.473774    0.803028   -1.528311
      7          1           0        1.528193    1.723013    0.023971
      8          1           0        2.319441    0.113936   -0.098983
      9          1           0       -1.380775    1.090240   -1.435272
     10          1           0       -2.300998    0.317727   -0.091070
     11          1           0       -1.380877    1.825269    0.208076
     12          1           0       -0.872824   -1.678384   -1.069044
 ---------------------------------------------------------------------
 Rotational constants (GHZ):           4.4422672           4.0479827           3.8747839
 Leave Link  202 at Sun Oct 13 21:42:12 2019, MaxMem= 10737418240 cpu:               0.3 elap:               0.0
 (Enter /apps/cent7/gaussian/g16-A.03/g16-haswell/g16/l301.exe)
 Standard basis: 6-311++G(d,p) (5D, 7F)
 Ernie: Thresh=  0.10000D-02 Tol=  0.10000D-05 Strict=F.
 There are   172 symmetry adapted cartesian basis functions of A   symmetry.
 There are   167 symmetry adapted basis functions of A   symmetry.
   167 basis functions,   257 primitive gaussians,   172 cartesian basis functions
    25 alpha electrons       25 beta electrons
       nuclear repulsion energy       284.0601291289 Hartrees.
 IExCor= 4336 DFT=T Ex+Corr=M062X ExCW=0 ScaHFX=  0.540000
 ScaDFX=  1.000000  1.000000  1.000000  1.000000 ScalE2=  1.000000  1.000000
 IRadAn=      5 IRanWt=     -1 IRanGd=            0 ICorTp=0 IEmpDi=  4
 NAtoms=   12 NActive=   12 NUniq=   12 SFac= 1.00D+00 NAtFMM=   60 NAOKFM=F Big=F
 Integral buffers will be    131072 words long.
 Raffenetti 2 integral format.
 Two-electron integral symmetry is turned on.
 Leave Link  301 at Sun Oct 13 21:42:12 2019, MaxMem= 10737418240 cpu:               1.2 elap:               0.1
 (Enter /apps/cent7/gaussian/g16-A.03/g16-haswell/g16/l302.exe)
 NPDir=0 NMtPBC=     1 NCelOv=     1 NCel=       1 NClECP=     1 NCelD=      1
         NCelK=      1 NCelE2=     1 NClLst=     1 CellRange=     0.0.
 One-electron integrals computed using PRISM.
 One-electron integral symmetry used in STVInt
 NBasis=   167 RedAO= T EigKep=  7.25D-05  NBF=   167
 NBsUse=   167 1.00D-06 EigRej= -1.00D+00 NBFU=   167
 Precomputing XC quadrature grid using
 IXCGrd= 4 IRadAn=           5 IRanWt=          -1 IRanGd=           0 AccXCQ= 0.00D+00.
 Generated NRdTot=       0 NPtTot=           0 NUsed=           0 NTot=          32
 NSgBfM=   172   172   172   172   172 MxSgAt=    12 MxSgA2=    12.
 Leave Link  302 at Sun Oct 13 21:42:12 2019, MaxMem= 10737418240 cpu:               3.1 elap:               0.2
 (Enter /apps/cent7/gaussian/g16-A.03/g16-haswell/g16/l303.exe)
 DipDrv:  MaxL=1.
 Leave Link  303 at Sun Oct 13 21:42:12 2019, MaxMem= 10737418240 cpu:               0.6 elap:               0.0
 (Enter /apps/cent7/gaussian/g16-A.03/g16-haswell/g16/l401.exe)
 Initial guess from the checkpoint file:  "25_p.chk"
 B after Tr=    -0.000000   -0.000000   -0.000000
         Rot=    0.999066    0.041502    0.010618   -0.005716 Ang=   4.95 deg.
 Guess basis will be translated and rotated to current coordinates.
 JPrj=2 DoOrth=T DoCkMO=T.
 Generating alternative initial guess.
 ExpMin= 3.60D-02 ExpMax= 9.34D+04 ExpMxC= 3.17D+03 IAcc=3 IRadAn=         5 AccDes= 0.00D+00
 Harris functional with IExCor= 1009 and IRadAn=       5 diagonalized for initial guess.
 HarFok:  IExCor= 1009 AccDes= 0.00D+00 IRadAn=         5 IDoV= 1 UseB2=F ITyADJ=14
 ICtDFT=  3500011 ScaDFX=  1.000000  1.000000  1.000000  1.000000
[...]
   D19       -3.06507   0.00000   0.00000   0.00014   0.00014  -3.06493
   D20       -0.96461   0.00000   0.00000   0.00021   0.00021  -0.96439
   D21        1.09838   0.00000   0.00000   0.00014   0.00014   1.09852
         Item               Value     Threshold  Converged?
 Maximum Force            0.000015     0.000450     YES
 RMS     Force            0.000004     0.000300     YES
 Maximum Displacement     0.000268     0.001800     YES
 RMS     Displacement     0.000087     0.001200     YES
 Predicted change in Energy=-3.527765D-09
 Optimization completed.
    -- Stationary point found.
                           ----------------------------
                           !   Optimized Parameters   !
                           ! (Angstroms and Degrees)  !
 --------------------------                            --------------------------
 ! Name  Definition              Value          Derivative Info.                !
 --------------------------------------------------------------------------------
 ! R1    R(1,2)                  1.7669         -DE/DX =    0.0                 !
 ! R2    R(1,6)                  1.0904         -DE/DX =    0.0                 !
 ! R3    R(1,7)                  1.091          -DE/DX =    0.0                 !
 ! R4    R(1,8)                  1.0912         -DE/DX =    0.0                 !
 ! R5    R(2,3)                  1.584          -DE/DX =    0.0                 !
 ! R6    R(2,4)                  1.7719         -DE/DX =    0.0                 !
 ! R7    R(2,5)                  1.4342         -DE/DX =    0.0                 !
 ! R8    R(3,12)                 0.9749         -DE/DX =    0.0                 !
 ! R9    R(4,9)                  1.0902         -DE/DX =    0.0                 !
 ! R10   R(4,10)                 1.0915         -DE/DX =    0.0                 !
 ! R11   R(4,11)                 1.0913         -DE/DX =    0.0                 !
 ! A1    A(2,1,6)              108.7283         -DE/DX =    0.0                 !
 ! A2    A(2,1,7)              106.9181         -DE/DX =    0.0                 !
 ! A3    A(2,1,8)              106.0182         -DE/DX =    0.0                 !
 ! A4    A(6,1,7)              112.2405         -DE/DX =    0.0                 !
 ! A5    A(6,1,8)              111.5005         -DE/DX =    0.0                 !
 ! A6    A(7,1,8)              111.1044         -DE/DX =    0.0                 !
 ! A7    A(1,2,3)               99.8886         -DE/DX =    0.0                 !
 ! A8    A(1,2,4)              108.8699         -DE/DX =    0.0                 !
 ! A9    A(1,2,5)              114.7877         -DE/DX =    0.0                 !
 ! A10   A(3,2,4)              104.479          -DE/DX =    0.0                 !
 ! A11   A(3,2,5)              114.595          -DE/DX =    0.0                 !
 ! A12   A(4,2,5)              112.9995         -DE/DX =    0.0                 !
 ! A13   A(2,3,12)             113.4942         -DE/DX =    0.0                 !
 ! A14   A(2,4,9)              108.7319         -DE/DX =    0.0                 !
 ! A15   A(2,4,10)             106.5098         -DE/DX =    0.0                 !
 ! A16   A(2,4,11)             107.0481         -DE/DX =    0.0                 !
 ! A17   A(9,4,10)             111.5614         -DE/DX =    0.0                 !
 ! A18   A(9,4,11)             112.2272         -DE/DX =    0.0                 !
 ! A19   A(10,4,11)            110.4781         -DE/DX =    0.0                 !
 ! D1    D(6,1,2,3)             52.463          -DE/DX =    0.0                 !
 ! D2    D(6,1,2,4)            -56.6719         -DE/DX =    0.0                 !
 ! D3    D(6,1,2,5)            175.5461         -DE/DX =    0.0                 !
 ! D4    D(7,1,2,3)            173.8528         -DE/DX =    0.0                 !
 ! D5    D(7,1,2,4)             64.7179         -DE/DX =    0.0                 !
 ! D6    D(7,1,2,5)            -63.0641         -DE/DX =    0.0                 !
 ! D7    D(8,1,2,3)            -67.5348         -DE/DX =    0.0                 !
 ! D8    D(8,1,2,4)           -176.6697         -DE/DX =    0.0                 !
 ! D9    D(8,1,2,5)             55.5483         -DE/DX =    0.0                 !
 ! D10   D(1,2,3,12)           150.3139         -DE/DX =    0.0                 !
 ! D11   D(4,2,3,12)           -97.0994         -DE/DX =    0.0                 !
 ! D12   D(5,2,3,12)            27.0951         -DE/DX =    0.0                 !
 ! D13   D(1,2,4,9)             55.5984         -DE/DX =    0.0                 !
 ! D14   D(1,2,4,10)           175.9463         -DE/DX =    0.0                 !
 ! D15   D(1,2,4,11)           -65.8534         -DE/DX =    0.0                 !
 ! D16   D(3,2,4,9)            -50.4052         -DE/DX =    0.0                 !
 ! D17   D(3,2,4,10)            69.9427         -DE/DX =    0.0                 !
 ! D18   D(3,2,4,11)          -171.857          -DE/DX =    0.0                 !
 ! D19   D(5,2,4,9)           -175.6158         -DE/DX =    0.0                 !
 ! D20   D(5,2,4,10)           -55.2679         -DE/DX =    0.0                 !
 ! D21   D(5,2,4,11)            62.9324         -DE/DX =    0.0                 !
 --------------------------------------------------------------------------------
 GradGradGradGradGradGradGradGradGradGradGradGradGradGradGradGradGradGrad

 Leave Link  103 at Sun Oct 13 21:43:55 2019, MaxMem= 10737418240 cpu:               0.6 elap:               0.0
 (Enter /apps/cent7/gaussian/g16-A.03/g16-haswell/g16/l9999.exe)

 ----------------------------------------------------------------------

 Electric dipole moment (input orientation):
 (Debye = 10**-18 statcoulomb cm , SI units = C m)
                  (au)            (Debye)         (10**-30 SI)
   Tot        0.124644D+01      0.316814D+01      0.105678D+02
   x          0.566350D+00      0.143952D+01      0.480172D+01
   y          0.274847D+00      0.698591D+00      0.233025D+01
   z          0.107579D+01      0.273438D+01      0.912093D+01

 Dipole polarizability, Alpha (input orientation).
 (esu units = cm**3 , SI units = C**2 m**2 J**-1)
 Alpha(0;0):
               (au)            (10**-24 esu)      (10**-40 SI)
   iso        0.462928D+02      0.685988D+01      0.763264D+01
   aniso      0.384692D+01      0.570054D+00      0.634271D+00
   xx         0.475105D+02      0.704033D+01      0.783343D+01
   yx        -0.126641D+01     -0.187663D+00     -0.208803D+00
   yy         0.457505D+02      0.677953D+01      0.754324D+01
   zx        -0.562035D-01     -0.832851D-02     -0.926671D-02
   zy         0.148637D+01      0.220257D+00      0.245069D+00
   zz         0.456172D+02      0.675977D+01      0.752126D+01

 ----------------------------------------------------------------------

 Dipole orientation:
     6         -1.78161655          2.33316494          0.68373990
    16          0.48245121          0.12748070         -0.39229952
     8         -1.05412313         -2.41315142         -0.01265736
     6          2.96641730         -0.05402754          1.84576595
     8          1.36382928          0.54561104         -2.92099050
     1         -2.42904213          1.75800672          2.55339275
     1         -0.85811014          4.17628840          0.71053367
     1         -3.31599727          2.29141222         -0.69337544
     1          2.16595279         -0.51851085          3.68634171
     1          4.24678539         -1.52858529          1.18206959
     1          3.91413402          1.77747517          1.84698204
     1         -0.59299512         -3.73609722         -1.20895830

 Electric dipole moment (dipole orientation):
 (Debye = 10**-18 statcoulomb cm , SI units = C m)
                  (au)            (Debye)         (10**-30 SI)
   Tot        0.124644D+01      0.316814D+01      0.105678D+02
   x          0.000000D+00      0.000000D+00      0.000000D+00
   y          0.000000D+00      0.000000D+00      0.000000D+00
   z          0.124644D+01      0.316814D+01      0.105678D+02

 Dipole polarizability, Alpha (dipole orientation).
 (esu units = cm**3 , SI units = C**2 m**2 J**-1)
 Alpha(0;0):
               (au)            (10**-24 esu)      (10**-40 SI)
   iso        0.462928D+02      0.685988D+01      0.763264D+01
   aniso      0.384692D+01      0.570054D+00      0.634271D+00
   xx         0.473537D+02      0.701710D+01      0.780757D+01
   yx        -0.182833D+01     -0.270931D+00     -0.301452D+00
   yy         0.452421D+02      0.670418D+01      0.745941D+01
   zx         0.296564D+00      0.439462D-01      0.488968D-01
   zy         0.622331D+00      0.922200D-01      0.102609D+00
   zz         0.462825D+02      0.685836D+01      0.763095D+01

 ----------------------------------------------------------------------
 1\1\GINC-BROWN-A218\Freq\RM062X\6-311++G(d,p)\C2H7O2S1(1+)\FINEJ\13-Oc
 t-2019\0\\#P Geom=AllCheck Guess=TCheck SCRF=Check GenChk RM062X/6-311
 ++G(d,p) Freq\\Title Card Required\\1,1\C,-0.7403122449,1.3329196171,0
 .4684130596\S,0.129057378,0.0061938867,-0.3100515355\O,-0.4303749278,-
 1.215137261,0.5292585251\C,1.8411508986,0.1031143363,0.1360577772\O,-0
 .0761291728,-0.0984612861,-1.7256849737\H,-0.579035495,1.2730893306,1.
 5451165726\H,-0.351776661,2.2596499453,0.0435315077\H,-1.7922266065,1.
 1943760041,0.2132521599\H,1.9202761626,0.1012844615,1.2233640521\H,2.3
 259924401,-0.7707044311,-0.3028663737\H,2.235259032,1.0201821826,-0.30
 49710309\H,-0.4633925234,-2.049654276,0.0263699194\\Version=ES64L-G16R
 evA.03\State=1-A\HF=-628.6769267\RMSD=2.186e-09\RMSF=6.152e-06\ZeroPoi
 nt=0.0960082\Thermal=0.0960082\Dipole=0.56635,0.2748469,1.0757897\Dipo
 leDeriv=-0.2619919,-0.0013003,-0.0057064,-0.0571377,-0.1012679,0.01333
 79,-0.018869,-0.0349834,-0.1844843,1.727011,0.1377022,0.0041943,0.1400
 83,1.9069508,-0.0783954,-0.0229815,-0.0981555,1.9135364,-0.6735614,-0.
 2373598,0.0442297,-0.2708226,-1.2177156,0.2471723,0.0883818,0.2243339,
 -0.5450312,-0.1624284,0.0200832,0.0113464,0.0724872,-0.2429864,-0.0141
 425,0.0033536,-0.029234,-0.1839296,-0.5922946,-0.0051024,-0.0913188,0.
 0001361,-0.5661386,-0.0951334,-0.0830648,-0.0687337,-0.9666676,0.10160
 1,0.0498199,-0.006184,0.0397508,0.0708709,-0.0039114,-0.0347167,0.0278
 2,0.1296012,0.0897957,0.0136059,0.0441991,-0.0162256,0.1468886,0.00054
 15,0.0463801,-0.0271906,0.0964923,0.1595475,-0.0258672,-0.0130992,0.03
 2687,0.0780413,-0.0378952,0.0247407,-0.0473242,0.1116861,0.0472303,-0.
 0110075,0.0144908,-0.0072034,0.1315459,-0.0048709,0.0552407,-0.0049924
 ,0.1079903,0.0909634,-0.0052458,-0.0176228,-0.0629409,0.1176365,-0.022
 0184,-0.0538846,-0.0143987,0.1203989,0.1014905,0.0107509,-0.0265294,0.
 0499309,0.1081137,0.0227658,-0.05301,0.0117706,0.1151715,0.3726368,0.0
 539208,0.0420004,0.0792551,0.5680609,-0.0274503,0.0484297,0.061088,0.2
 852359\Polar=47.5105339,-1.2664112,45.7505193,-0.0562035,1.4863667,45.
 6172104\Quadrupole=2.3442182,4.291198,-6.6354163,-0.73068,-0.2185339,1
 .8180488\PG=C01 [X(C2H7O2S1)]\NImag=0\\0.52941772,0.08837234,0.4666084
 5,0.04753936,-0.07324085,0.56044792,-0.10019880,0.02683699,0.01357329,
 0.49516631,0.04180807,-0.11226479,-0.03272021,0.02541846,0.54504667,0.
 01915149,-0.02855047,-0.09279569,0.04970084,0.02196366,0.94078963,0.00
 606833,0.00610905,-0.00044148,-0.09092628,-0.05943416,0.04456582,0.076
 71134,-0.01927233,-0.02761183,0.01696325,-0.06520899,-0.21485835,0.080
 31224,0.09987351,0.59765084,-0.00234709,-0.01244788,0.01119812,0.03517
 699,0.04714186,-0.13568132,-0.05095837,0.12587512,0.29037016,-0.004088
 70,-0.00235903,-0.00443249,-0.15351387,-0.00235918,-0.02158837,-0.0016
 0129,-0.00065302,-0.00444939,0.37532514,0.02170989,0.01031242,0.006802
 67,0.00950343,-0.07467338,-0.00588284,-0.02874034,-0.00839460,0.000643
 30,-0.01066277,0.58475122,0.01256053,0.00079887,0.01179846,-0.01961849
 ,-0.00813513,-0.08039062,0.01295089,0.01005631,0.00598114,-0.04868150,
 -0.00500836,0.59056870,0.01241578,0.00164327,0.01415986,-0.09826115,-0
 .00564748,-0.08836692,0.01365091,-0.00222988,0.01398947,0.00752068,-0.
 00404784,-0.03134178,0.06807437,-0.00590522,0.00819008,-0.02236661,-0.
 00536710,-0.08771453,-0.04971353,0.00073901,0.01068476,0.03195362,-0.0
 0051790,0.01014759,-0.00191941,0.00778186,0.05330738,-0.00962464,0.008
 04619,-0.01108284,-0.08499208,-0.04662365,-0.64366681,-0.00238766,0.00
 109408,-0.01135980,0.00780635,-0.00036925,-0.00931736,0.09290618,0.045
 20459,0.68122614,-0.05067305,0.00306363,-0.04406983,0.00100223,-0.0027
 8948,0.01705553,-0.00037991,-0.00073906,-0.00102417,0.00000476,-0.0005
 8636,-0.00173302,-0.00100594,0.00407690,0.00329475,0.05113594,0.003207
 34,-0.04537935,0.01868843,-0.00600101,0.00115657,-0.02601457,0.0002620
 7,-0.00058149,0.00275804,-0.00046437,0.00028736,0.00190898,0.00375701,
 -0.00467729,-0.00481567,-0.00503640,0.04635847,-0.04357248,0.01626640,
 -0.32491742,-0.00052158,-0.00167681,-0.01334582,0.00023239,0.00184098,
 0.00112678,-0.00044179,0.00041558,0.00065900,0.00078954,-0.00060269,0.
 00045796,0.04502739,-0.01582846,0.34429329,-0.08211272,-0.08811056,0.0
 4134184,0.00515214,0.01318474,-0.00864566,-0.00002900,0.00654725,0.002
 49247,-0.00005186,-0.00152956,0.00028217,-0.00066489,-0.00112367,-0.00
 014921,0.00049421,0.00476824,-0.00192197,0.08392552,-0.08662901,-0.249
 24445,0.09369910,-0.00762715,-0.02205071,0.00871423,0.00089679,-0.0039
 1971,-0.00205090,-0.00007405,0.00126654,-0.00035280,0.00064441,0.00251
 141,-0.00071970,0.00069690,0.00312494,-0.00079502,0.09087725,0.2678828
 5,0.04164892,0.09541173,-0.08942463,-0.00753720,-0.01128980,0.00539263
 ,0.00109545,-0.00533581,-0.00125112,-0.00022587,0.00072781,-0.00055751
 ,0.00057214,0.00126390,-0.00115926,0.01033771,0.02596527,-0.00631797,-
 0.04427062,-0.09938866,0.09001835,-0.30918860,-0.03635749,-0.06506913,
 -0.01907665,0.00201872,-0.00204858,0.00121249,-0.00134912,0.00013948,0
 .00043525,0.00164458,0.00110829,0.00232659,-0.00074116,0.00007118,0.00
 030977,-0.00069934,0.00040926,-0.00578363,0.00001782,-0.00210157,0.329
 59457,-0.03847752,-0.04855343,-0.00937909,0.03051574,0.00044244,0.0069
 3399,-0.00173788,0.00125988,-0.00010131,0.00129766,-0.00562239,-0.0035
 0491,-0.00337034,0.00056323,0.00065556,0.00069419,-0.00067568,0.000898
 93,-0.02568124,0.00049804,-0.00695578,0.03545603,0.05129577,-0.0661821
 5,-0.00926802,-0.06019274,0.01759273,0.00205812,0.00377306,-0.00052629
 ,0.00131761,-0.00099461,0.00076455,-0.00359719,-0.00196457,-0.00245534
 ,0.00052772,-0.00073246,-0.02923676,-0.00263138,-0.00271303,0.01169596
 ,0.00022863,0.00188564,0.06761759,0.01125185,0.06000217,0.00132491,-0.
 00029988,0.00244374,-0.00215766,-0.00061472,-0.03316676,0.00074508,0.0
 0070577,0.00284297,-0.04535395,-0.00000165,-0.01696450,-0.00795002,-0.
 00048256,-0.00446487,-0.00114052,0.00095172,0.00029088,0.00003687,-0.0
 0009500,-0.00003863,0.00014983,-0.00044160,0.00002704,0.04911459,-0.00
 011084,-0.00036020,-0.00023609,0.00011952,-0.00288501,-0.00253944,-0.0
 0004354,-0.00104462,0.00090817,-0.00003579,-0.04411277,0.00133814,-0.0
 0080851,0.00161768,-0.00025484,0.00059982,0.00013288,-0.00003568,0.000
 11465,-0.00003599,0.00018889,0.00000024,-0.00002574,-0.00008778,0.0000
 7503,0.04251849,0.00041689,-0.00013141,0.00002541,-0.00295672,-0.00036
 665,-0.00651115,0.00094664,0.00090488,0.00085091,-0.01929321,0.0000279
 5,-0.33230225,0.00058737,0.00039046,0.00156939,0.00018478,-0.00003155,
 0.00057061,0.00002729,-0.00002007,-0.00006220,-0.00005601,-0.00013317,
 0.00010042,0.02204564,-0.00027199,0.35068116,-0.00578059,-0.00266952,-
 0.00317442,-0.02121048,0.02950047,0.01462021,0.00322638,-0.00181592,-0
 .00115345,-0.09766275,0.10001796,0.04979750,0.00340407,-0.00309781,-0.
 00052098,0.00025623,-0.00037228,-0.00014397,0.00007274,-0.00008792,-0.
 00017049,-0.00038027,0.00185709,0.00106428,0.00283131,-0.00473302,-0.0
 0116177,0.10833952,-0.00241034,-0.00022955,-0.00090965,-0.00072844,0.0
 0343439,0.00274775,0.00071577,-0.00044495,0.00015920,0.10103217,-0.228
 39042,-0.09276099,-0.00004412,-0.00025945,0.00069150,0.00009585,-0.000
 15123,-0.00017978,-0.00015309,0.00009190,-0.00000892,-0.00020494,0.000
 82212,0.00025557,-0.00226564,0.00168942,0.00175812,-0.10816117,0.23967
 092,-0.00253814,-0.00096859,-0.00096212,-0.00384583,0.00913355,0.00404
 598,0.00039819,0.00060476,-0.00101671,0.05041483,-0.09357844,-0.090550
 61,0.00094853,-0.00093248,-0.00096140,-0.00011008,0.00002526,0.0001243
 7,0.00014791,-0.00028046,-0.00007730,-0.00023180,0.00060772,0.00077482
 ,0.01483552,-0.02336446,-0.00775990,-0.05319297,0.09883278,0.09146112,
 0.00163286,0.00136775,-0.00057687,-0.01221831,-0.02679207,0.01256748,-
 0.00643755,-0.00395036,-0.00017244,-0.08022388,-0.08483525,0.03983913,
 0.00141826,0.00300021,-0.00084408,0.00000068,-0.00011726,-0.00005505,-
 0.00088109,0.00077039,0.00028546,0.00014623,-0.00007220,-0.00041130,0.
 00217405,0.00490817,-0.00084592,0.00793961,0.01244080,-0.00711038,0.08
 765419,-0.00028141,-0.00040337,0.00004903,-0.00256398,-0.00135921,-0.0
 0118418,0.00181145,0.00280198,0.00004170,-0.08562376,-0.24721669,0.097
 65859,0.00055557,0.00035907,-0.00038585,0.00006831,0.00000734,0.000011
 85,0.00052920,0.00014460,-0.00007388,-0.00006996,-0.00002860,-0.000046
 62,0.00237946,0.00237969,-0.00180852,-0.01007753,-0.01665617,0.0099781
 8,0.09263384,0.26010246,0.00026547,0.00004913,-0.00047592,-0.00078021,
 -0.00862188,0.00199034,-0.00313800,-0.00107138,0.00115003,0.04031863,0
 .09847200,-0.09205660,-0.00004194,0.00100823,-0.00114414,0.00015306,0.
 00012785,-0.00007594,0.00008559,-0.00000239,0.00032847,0.00005716,-0.0
 0013676,-0.00004844,0.01241435,0.02456443,-0.00715180,-0.00613607,-0.0
 1052203,0.00462548,-0.04322500,-0.10408645,0.09265100,0.00118287,0.002
 40346,-0.00129386,-0.00375747,-0.01429338,-0.00384508,-0.00224049,-0.0
 1190787,0.00546355,-0.00078952,-0.00247210,0.00180078,-0.00092866,0.00
 163745,-0.00109494,-0.00000440,-0.00025572,-0.00009262,-0.00015829,0.0
 0060954,0.00040469,0.00025441,-0.00003991,0.00004969,0.00022551,-0.000
 08571,0.00010503,-0.00103577,-0.00031683,0.00028422,-0.00120504,0.0006
 3881,0.00002697,0.00845687,-0.00201097,-0.00106397,0.00265001,-0.00489
 746,-0.03427408,-0.00678685,-0.02045173,-0.35554191,-0.19488092,0.0004
 2005,0.00164512,-0.00007928,0.00176604,0.00527008,-0.00252296,-0.00014
 429,0.00039748,-0.00031531,0.00057679,-0.00026943,-0.00050475,0.000284
 62,0.00002436,-0.00000852,0.00008906,0.00012617,-0.00031806,-0.0003603
 5,0.00042303,-0.00005783,0.00064598,-0.00013110,0.00021926,0.02408227,
 0.38339425,0.00268184,0.00403489,-0.00361854,0.00420828,0.02913693,0.0
 1639978,-0.00273759,-0.23256205,-0.16037359,-0.00019173,0.00134677,-0.
 00186777,-0.00174712,-0.00481379,-0.00382945,0.00012064,-0.00015219,0.
 00013816,-0.00108577,0.00096804,0.00122491,0.00010415,-0.00013703,0.00
 010974,-0.00026537,-0.00020935,-0.00001060,0.00017213,-0.00006356,0.00
 029626,0.00054898,-0.00015385,0.00020752,-0.00180844,0.20260520,0.1513
 2360\\0.00001386,0.00000553,0.00001100,-0.00000798,-0.00001981,-0.0000
 1218,0.00000611,0.00000450,-0.00000341,-0.00000298,0.00000766,-0.00000
 616,-0.00000160,0.00000571,0.00000437,-0.00000094,0.00000018,0.0000008
 3,-0.00000468,0.00000166,-0.00000106,0.00000288,-0.00000591,-0.0000057
 9,0.00000234,-0.00000070,0.00000386,-0.00000567,0.00000013,0.00000296,
 -0.00000049,0.00000044,0.00000173,-0.00000085,0.00000061,0.00000387\\\
 @


 IF YOU DON'T HAVE THE LAW - ARGUE THE FACTS.
 IF YOU DON'T HAVE THE FACTS - ARGUE THE LAW.
 IF YOU DON'T HAVE EITHER - POUND THE TABLE.
 Job cpu time:       0 days  0 hours 11 minutes 36.6 seconds.
 Elapsed time:       0 days  0 hours  0 minutes 29.8 seconds.
 File lengths (MBytes):  RWF=     39 Int=      0 D2E=      0 Chk=      3 Scr=      1
 Normal termination of Gaussian 16 at Sun Oct 13 21:43:55 2019.
real 118.46
user 2191.46
sys 24.32
Machine:
brown-a218
brown-a218
brown-a218
brown-a218
brown-a218
brown-a218
brown-a218
brown-a218
brown-a218
brown-a218
brown-a218
brown-a218
brown-a218
brown-a218
brown-a218
brown-a218
brown-a218
brown-a218
brown-a218
brown-a218
brown-a218
brown-a218
brown-a218
brown-a218
