Title Card Required                                                     
Freq      RM062X                                                      6-311++G(d,p)       
Number of atoms                            I               12
Info1-9                                    I   N=           9
          34          34        1002           0           0         100
           6          18        -502
Full Title                                 C   N=           2
Title Card Required     
Route                                      C   N=           6
#P opt freq m062x/6-311++g(d,p) geom=connectivity temperatur
e=0.001     
Charge                                     I                1
Multiplicity                               I                1
Number of electrons                        I               50
Number of alpha electrons                  I               25
Number of beta electrons                   I               25
Number of basis functions                  I              167
Number of independent functions            I              167
Number of point charges in /Mol/           I                0
Number of translation vectors              I                0
Atomic numbers                             I   N=          12
           6          16           8           6           8           1
           1           1           1           1           1           1
Nuclear charges                            R   N=          12
  6.00000000E+00  1.60000000E+01  8.00000000E+00  6.00000000E+00  8.00000000E+00
  1.00000000E+00  1.00000000E+00  1.00000000E+00  1.00000000E+00  1.00000000E+00
  1.00000000E+00  1.00000000E+00
Current cartesian coordinates              R   N=          36
  2.72987940E+00  1.71619232E+00 -1.38128797E-01 -1.44860434E-02 -1.48681991E-01
  2.35513705E-01  2.46980967E-01 -1.93258905E+00 -2.15390275E+00 -2.70279827E+00
  1.73751891E+00 -4.18086550E-01 -1.87381598E-01 -1.45418284E+00  2.60441916E+00
  2.74438903E+00  2.49737807E+00 -2.04472444E+00  2.65823598E+00  3.18531316E+00
  1.30659861E+00  4.32618770E+00  4.47863464E-01  1.71154031E-01 -2.50076127E+00
  2.54728149E+00 -2.30161327E+00 -4.33866812E+00  4.86650775E-01 -3.02265128E-01
 -2.79639523E+00  3.18523030E+00  1.04749934E+00 -5.00493138E-01 -3.59889771E+00
 -1.91170760E+00
Number of symbols in /Mol/                 I                0
Force Field                                I                0
Atom Types                                 C   N=          12
                                                            
                                                            
                        
Int Atom Types                             I   N=          12
           0           0           0           0           0           0
           0           0           0           0           0           0
MM charges                                 R   N=          12
  0.00000000E+00  0.00000000E+00  0.00000000E+00  0.00000000E+00  0.00000000E+00
  0.00000000E+00  0.00000000E+00  0.00000000E+00  0.00000000E+00  0.00000000E+00
  0.00000000E+00  0.00000000E+00
Integer atomic weights                     I   N=          12
          12          32          16          12          16           1
           1           1           1           1           1           1
Real atomic weights                        R   N=          12
  1.20000000E+01  3.19720718E+01  1.59949146E+01  1.20000000E+01  1.59949146E+01
  1.00782504E+00  1.00782504E+00  1.00782504E+00  1.00782504E+00  1.00782504E+00
  1.00782504E+00  1.00782504E+00
Atom fragment info                         I   N=          12
           0           0           0           0           0           0
           0           0           0           0           0           0
Atom residue num                           I   N=          12
           0           0           0           0           0           0
           0           0           0           0           0           0
Nuclear spins                              I   N=          12
           0           0           0           0           0           1
           1           1           1           1           1           1
Nuclear ZEff                               R   N=          12
 -3.60000000E+00 -1.36000000E+01 -5.60000000E+00 -3.60000000E+00 -5.60000000E+00
 -1.00000000E+00 -1.00000000E+00 -1.00000000E+00 -1.00000000E+00 -1.00000000E+00
 -1.00000000E+00 -1.00000000E+00
Nuclear ZNuc                               R   N=          12
  6.00000000E+00  1.60000000E+01  8.00000000E+00  6.00000000E+00  8.00000000E+00
  1.00000000E+00  1.00000000E+00  1.00000000E+00  1.00000000E+00  1.00000000E+00
  1.00000000E+00  1.00000000E+00
Nuclear QMom                               R   N=          12
  0.00000000E+00  0.00000000E+00  0.00000000E+00  0.00000000E+00  0.00000000E+00
  0.00000000E+00  0.00000000E+00  0.00000000E+00  0.00000000E+00  0.00000000E+00
  0.00000000E+00  0.00000000E+00
Nuclear GFac                               R   N=          12
  0.00000000E+00  0.00000000E+00  0.00000000E+00  0.00000000E+00  0.00000000E+00
  2.79284600E+00  2.79284600E+00  2.79284600E+00  2.79284600E+00  2.79284600E+00
  2.79284600E+00  2.79284600E+00
MicOpt                                     I   N=          12
          -1          -1          -1          -1          -1          -1
          -1          -1          -1          -1          -1          -1
Number of residues                         I                0
Number of secondary structures             I                0
Redundant internal dimensions              I   N=           4
          51          11          19          21
Redundant internal coordinate indices      I   N=         204
           1           2           0           0           1           6
           0           0           1           7           0           0
           1           8           0           0           2           3
           0           0           2           4           0           0
           2           5           0           0           3          12
           0           0           4           9           0           0
           4          10           0           0           4          11
           0           0           2           1           6           0
           2           1           7           0           2           1
           8           0           6           1           7           0
           6           1           8           0           7           1
           8           0           1           2           3           0
           1           2           4           0           1           2
           5           0           3           2           4           0
           3           2           5           0           4           2
           5           0           2           3          12           0
           2           4           9           0           2           4
          10           0           2           4          11           0
           9           4          10           0           9           4
          11           0          10           4          11           0
           6           1           2           3           6           1
           2           4           6           1           2           5
           7           1           2           3           7           1
           2           4           7           1           2           5
           8           1           2           3           8           1
           2           4           8           1           2           5
           1           2           3          12           4           2
           3          12           5           2           3          12
           1           2           4           9           1           2
           4          10           1           2           4          11
           3           2           4           9           3           2
           4          10           3           2           4          11
           5           2           4           9           5           2
           4          10           5           2           4          11
Redundant internal coordinates             R   N=          51
  3.33899785E+00  2.06047777E+00  2.06171921E+00  2.06216249E+00  2.99332598E+00
  3.34842796E+00  2.71033916E+00  1.84227050E+00  2.06014740E+00  2.06256051E+00
  2.06217619E+00  1.89766750E+00  1.86607314E+00  1.85036656E+00  1.95896600E+00
  1.94605161E+00  1.93913682E+00  1.74338410E+00  1.90013858E+00  2.00342411E+00
  1.82350283E+00  2.00006051E+00  1.97221310E+00  1.98084721E+00  1.89772998E+00
  1.85894694E+00  1.86834203E+00  1.94711379E+00  1.95873332E+00  1.92820687E+00
  9.15651298E-01 -9.89110909E-01  3.06385737E+00  3.03430342E+00  1.12954121E+00
 -1.10067582E+00 -1.17870495E+00 -3.08346715E+00  9.69501124E-01  2.62347198E+00
 -1.69470402E+00  4.72898234E-01  9.70375498E-01  3.07084293E+00 -1.14935809E+00
 -8.79737415E-01  1.22073002E+00 -2.99947100E+00 -3.06507410E+00 -9.64606669E-01
  1.09837762E+00
ZRed-IntVec                                I   N=          51
           0           0           0           0           0           0
           0           0           0           0           0           0
           0           0           0           0           0           0
           0           0           0           0           0           0
           0           0           0           0           0           0
           0           0           0           0           0           0
           0           0           0           0           0           0
           0           0           0           0           0           0
           0           0           0
ZRed-FPVec                                 R   N=          51
  0.00000000E+00  0.00000000E+00  0.00000000E+00  0.00000000E+00  0.00000000E+00
  0.00000000E+00  0.00000000E+00  0.00000000E+00  0.00000000E+00  0.00000000E+00
  0.00000000E+00  0.00000000E+00  0.00000000E+00  0.00000000E+00  0.00000000E+00
  0.00000000E+00  0.00000000E+00  0.00000000E+00  0.00000000E+00  0.00000000E+00
  0.00000000E+00  0.00000000E+00  0.00000000E+00  0.00000000E+00  0.00000000E+00
  0.00000000E+00  0.00000000E+00  0.00000000E+00  0.00000000E+00  0.00000000E+00
  0.00000000E+00  0.00000000E+00  0.00000000E+00  0.00000000E+00  0.00000000E+00
  0.00000000E+00  0.00000000E+00  0.00000000E+00  0.00000000E+00  0.00000000E+00
  0.00000000E+00  0.00000000E+00  0.00000000E+00  0.00000000E+00  0.00000000E+00
  0.00000000E+00  0.00000000E+00  0.00000000E+00  0.00000000E+00  0.00000000E+00
  0.00000000E+00
ZRed-Constraint1                           R   N=          51
  3.33899785E+00  2.06047777E+00  2.06171921E+00  2.06216249E+00  2.99332598E+00
  3.34842796E+00  2.71033916E+00  1.84227050E+00  2.06014740E+00  2.06256051E+00
  2.06217619E+00  1.89766750E+00  1.86607314E+00  1.85036656E+00  1.95896600E+00
  1.94605161E+00  1.93913682E+00  1.74338410E+00  1.90013858E+00  2.00342411E+00
  1.82350283E+00  2.00006051E+00  1.97221310E+00  1.98084721E+00  1.89772998E+00
  1.85894694E+00  1.86834203E+00  1.94711379E+00  1.95873332E+00  1.92820687E+00
  9.15651298E-01 -9.89110909E-01  3.06385737E+00  3.03430342E+00  1.12954121E+00
 -1.10067582E+00 -1.17870495E+00 -3.08346715E+00  9.69501124E-01  2.62347198E+00
 -1.69470402E+00  4.72898234E-01  9.70375498E-01  3.07084293E+00 -1.14935809E+00
 -8.79737415E-01  1.22073002E+00 -2.99947100E+00 -3.06507410E+00 -9.64606669E-01
  1.09837762E+00
ZRed-Constraint2                           R   N=          51
  3.45569175E+00  2.05989373E+00  2.05968179E+00  2.05971935E+00  3.03056677E+00
  3.45555917E+00  3.03038205E+00  1.81413708E+00  2.05986254E+00  2.05972237E+00
  2.05984200E+00  1.91056299E+00  1.91068099E+00  1.91062077E+00  1.91062298E+00
  1.91058705E+00  1.91072463E+00  1.91245215E+00  1.90938274E+00  1.91247312E+00
  1.91254569E+00  1.90437785E+00  1.91256868E+00  2.09439511E+00  1.91058404E+00
  1.91060672E+00  1.91064175E+00  1.91065918E+00  1.91062916E+00  1.91067858E+00
  9.75981299E-01 -1.12110459E+00  3.06495376E+00  3.07035007E+00  9.73264175E-01
 -1.12386278E+00 -1.11830659E+00  3.06779282E+00  9.70665869E-01 -2.33192845E+00
 -2.36773797E-01  1.85732822E+00  9.85088301E-01  3.07946881E+00 -1.10927690E+00
 -1.11194032E+00  9.82440187E-01  3.07687979E+00  3.08215675E+00 -1.10664805E+00
  9.87791553E-01
SymInf integers                            I   N=          26
           1           1           1           1           1           0
           0           0           0           0           0           0
           0           0           0           0           0           0
           0           0           0           0           0           0
           0           0
RotTr to input orientation                 R   N=          12
 -8.96953618E-01  4.10465845E-01  1.64292412E-01  4.41890760E-01  8.20200286E-01
  3.63323611E-01  1.43792494E-02  3.98483726E-01 -9.17062679E-01  2.93204478E-01
  4.57514088E-02 -3.13532032E-01
Number of contracted shells                I               72
Number of primitive shells                 I              125
Pure/Cartesian d shells                    I                0
Pure/Cartesian f shells                    I                0
Highest angular momentum                   I                2
Largest degree of contraction              I                6
Shell types                                I   N=          72
           0          -1          -1          -1          -1          -2
           0           0           0           0           0           0
          -1           1           1           1           1           1
          -2           0          -1          -1          -1          -1
          -2           0          -1          -1          -1          -1
          -2           0          -1          -1          -1          -1
          -2           0           0           0           0           1
           0           0           0           0           1           0
           0           0           0           1           0           0
           0           0           1           0           0           0
           0           1           0           0           0           0
           1           0           0           0           0           1
Number of primitives per shell             I   N=          72
           6           3           1           1           1           1
           6           3           1           1           1           1
           1           4           2           1           1           1
           1           6           3           1           1           1
           1           6           3           1           1           1
           1           6           3           1           1           1
           1           3           1           1           1           1
           3           1           1           1           1           3
           1           1           1           1           3           1
           1           1           1           3           1           1
           1           1           3           1           1           1
           1           3           1           1           1           1
Shell to atom map                          I   N=          72
           1           1           1           1           1           1
           2           2           2           2           2           2
           2           2           2           2           2           2
           2           3           3           3           3           3
           3           4           4           4           4           4
           4           5           5           5           5           5
           5           6           6           6           6           6
           7           7           7           7           7           8
           8           8           8           8           9           9
           9           9           9          10          10          10
          10          10          11          11          11          11
          11          12          12          12          12          12
Primitive exponents                        R   N=         125
  4.56324000E+03  6.82024000E+02  1.54973000E+02  4.44553000E+01  1.30290000E+01
  1.82773000E+00  2.09642000E+01  4.80331000E+00  1.45933000E+00  4.83456000E-01
  1.45585000E-01  4.38000000E-02  6.26000000E-01  9.34134000E+04  1.39617000E+04
  3.16991000E+03  9.02456000E+02  2.97158000E+02  1.08702000E+02  1.08702000E+02
  4.31553000E+01  1.81079000E+01  5.56009000E+00  2.13183000E+00  4.20403000E-01
  1.36045000E-01  4.05000000E-02  4.95040000E+02  1.17221000E+02  3.77749000E+01
  1.40584000E+01  5.56574000E+00  2.26297000E+00  8.07994000E-01  2.77460000E-01
  7.71410000E-02  6.50000000E-01  8.58850000E+03  1.29723000E+03  2.99296000E+02
  8.73771000E+01  2.56789000E+01  3.74004000E+00  4.21175000E+01  9.62837000E+00
  2.85332000E+00  9.05661000E-01  2.55611000E-01  8.45000000E-02  1.29200000E+00
  4.56324000E+03  6.82024000E+02  1.54973000E+02  4.44553000E+01  1.30290000E+01
  1.82773000E+00  2.09642000E+01  4.80331000E+00  1.45933000E+00  4.83456000E-01
  1.45585000E-01  4.38000000E-02  6.26000000E-01  8.58850000E+03  1.29723000E+03
  2.99296000E+02  8.73771000E+01  2.56789000E+01  3.74004000E+00  4.21175000E+01
  9.62837000E+00  2.85332000E+00  9.05661000E-01  2.55611000E-01  8.45000000E-02
  1.29200000E+00  3.38650000E+01  5.09479000E+00  1.15879000E+00  3.25840000E-01
  1.02741000E-01  3.60000000E-02  7.50000000E-01  3.38650000E+01  5.09479000E+00
  1.15879000E+00  3.25840000E-01  1.02741000E-01  3.60000000E-02  7.50000000E-01
  3.38650000E+01  5.09479000E+00  1.15879000E+00  3.25840000E-01  1.02741000E-01
  3.60000000E-02  7.50000000E-01  3.38650000E+01  5.09479000E+00  1.15879000E+00
  3.25840000E-01  1.02741000E-01  3.60000000E-02  7.50000000E-01  3.38650000E+01
  5.09479000E+00  1.15879000E+00  3.25840000E-01  1.02741000E-01  3.60000000E-02
  7.50000000E-01  3.38650000E+01  5.09479000E+00  1.15879000E+00  3.25840000E-01
  1.02741000E-01  3.60000000E-02  7.50000000E-01  3.38650000E+01  5.09479000E+00
  1.15879000E+00  3.25840000E-01  1.02741000E-01  3.60000000E-02  7.50000000E-01
Contraction coefficients                   R   N=         125
  1.96665025E-03  1.52306019E-02  7.61269097E-02  2.60801033E-01  6.16462078E-01
  2.21006028E-01  1.14660081E-01  9.19999648E-01 -3.03068213E-03  1.00000000E+00
  1.00000000E+00  1.00000000E+00  1.00000000E+00  7.42999957E-04  5.79299966E-03
  2.99539983E-02  1.19027993E-01  3.68431979E-01  5.77298966E-01  1.43186060E-01
  6.24465262E-01  2.83366119E-01  1.00000000E+00  1.00000000E+00  1.00000000E+00
  1.00000000E+00  1.00000000E+00  8.30900251E-03  6.40240194E-02  2.77614084E-01
  7.45076225E-01  6.13711672E-01  4.43817763E-01  1.00000000E+00  1.00000000E+00
  1.00000000E+00  1.00000000E+00  1.89515008E-03  1.43859006E-02  7.07320031E-02
  2.40001011E-01  5.94797026E-01  2.80802012E-01  1.13889012E-01  9.20811101E-01
 -3.27447036E-03  1.00000000E+00  1.00000000E+00  1.00000000E+00  1.00000000E+00
  1.96665025E-03  1.52306019E-02  7.61269097E-02  2.60801033E-01  6.16462078E-01
  2.21006028E-01  1.14660081E-01  9.19999648E-01 -3.03068213E-03  1.00000000E+00
  1.00000000E+00  1.00000000E+00  1.00000000E+00  1.89515008E-03  1.43859006E-02
  7.07320031E-02  2.40001011E-01  5.94797026E-01  2.80802012E-01  1.13889012E-01
  9.20811101E-01 -3.27447036E-03  1.00000000E+00  1.00000000E+00  1.00000000E+00
  1.00000000E+00  2.54938145E-02  1.90373109E-01  8.52161486E-01  1.00000000E+00
  1.00000000E+00  1.00000000E+00  1.00000000E+00  2.54938145E-02  1.90373109E-01
  8.52161486E-01  1.00000000E+00  1.00000000E+00  1.00000000E+00  1.00000000E+00
  2.54938145E-02  1.90373109E-01  8.52161486E-01  1.00000000E+00  1.00000000E+00
  1.00000000E+00  1.00000000E+00  2.54938145E-02  1.90373109E-01  8.52161486E-01
  1.00000000E+00  1.00000000E+00  1.00000000E+00  1.00000000E+00  2.54938145E-02
  1.90373109E-01  8.52161486E-01  1.00000000E+00  1.00000000E+00  1.00000000E+00
  1.00000000E+00  2.54938145E-02  1.90373109E-01  8.52161486E-01  1.00000000E+00
  1.00000000E+00  1.00000000E+00  1.00000000E+00  2.54938145E-02  1.90373109E-01
  8.52161486E-01  1.00000000E+00  1.00000000E+00  1.00000000E+00  1.00000000E+00
P(S=P) Contraction coefficients            R   N=         125
  0.00000000E+00  0.00000000E+00  0.00000000E+00  0.00000000E+00  0.00000000E+00
  0.00000000E+00  4.02486927E-02  2.37593957E-01  8.15853851E-01  1.00000000E+00
  1.00000000E+00  1.00000000E+00  0.00000000E+00  0.00000000E+00  0.00000000E+00
  0.00000000E+00  0.00000000E+00  0.00000000E+00  0.00000000E+00  0.00000000E+00
  0.00000000E+00  0.00000000E+00  0.00000000E+00  0.00000000E+00  0.00000000E+00
  0.00000000E+00  1.00000000E+00  0.00000000E+00  0.00000000E+00  0.00000000E+00
  0.00000000E+00  0.00000000E+00  0.00000000E+00  0.00000000E+00  0.00000000E+00
  0.00000000E+00  0.00000000E+00  0.00000000E+00  0.00000000E+00  0.00000000E+00
  0.00000000E+00  0.00000000E+00  0.00000000E+00  3.65113974E-02  2.37152983E-01
  8.19701941E-01  1.00000000E+00  1.00000000E+00  1.00000000E+00  0.00000000E+00
  0.00000000E+00  0.00000000E+00  0.00000000E+00  0.00000000E+00  0.00000000E+00
  0.00000000E+00  4.02486927E-02  2.37593957E-01  8.15853851E-01  1.00000000E+00
  1.00000000E+00  1.00000000E+00  0.00000000E+00  0.00000000E+00  0.00000000E+00
  0.00000000E+00  0.00000000E+00  0.00000000E+00  0.00000000E+00  3.65113974E-02
  2.37152983E-01  8.19701941E-01  1.00000000E+00  1.00000000E+00  1.00000000E+00
  0.00000000E+00  0.00000000E+00  0.00000000E+00  0.00000000E+00  0.00000000E+00
  0.00000000E+00  0.00000000E+00  0.00000000E+00  0.00000000E+00  0.00000000E+00
  0.00000000E+00  0.00000000E+00  0.00000000E+00  0.00000000E+00  0.00000000E+00
  0.00000000E+00  0.00000000E+00  0.00000000E+00  0.00000000E+00  0.00000000E+00
  0.00000000E+00  0.00000000E+00  0.00000000E+00  0.00000000E+00  0.00000000E+00
  0.00000000E+00  0.00000000E+00  0.00000000E+00  0.00000000E+00  0.00000000E+00
  0.00000000E+00  0.00000000E+00  0.00000000E+00  0.00000000E+00  0.00000000E+00
  0.00000000E+00  0.00000000E+00  0.00000000E+00  0.00000000E+00  0.00000000E+00
  0.00000000E+00  0.00000000E+00  0.00000000E+00  0.00000000E+00  0.00000000E+00
  0.00000000E+00  0.00000000E+00  0.00000000E+00  0.00000000E+00  0.00000000E+00
Coordinates of each shell                  R   N=         216
  2.72987940E+00  1.71619232E+00 -1.38128797E-01  2.72987940E+00  1.71619232E+00
 -1.38128797E-01  2.72987940E+00  1.71619232E+00 -1.38128797E-01  2.72987940E+00
  1.71619232E+00 -1.38128797E-01  2.72987940E+00  1.71619232E+00 -1.38128797E-01
  2.72987940E+00  1.71619232E+00 -1.38128797E-01 -1.44860434E-02 -1.48681991E-01
  2.35513705E-01 -1.44860434E-02 -1.48681991E-01  2.35513705E-01 -1.44860434E-02
 -1.48681991E-01  2.35513705E-01 -1.44860434E-02 -1.48681991E-01  2.35513705E-01
 -1.44860434E-02 -1.48681991E-01  2.35513705E-01 -1.44860434E-02 -1.48681991E-01
  2.35513705E-01 -1.44860434E-02 -1.48681991E-01  2.35513705E-01 -1.44860434E-02
 -1.48681991E-01  2.35513705E-01 -1.44860434E-02 -1.48681991E-01  2.35513705E-01
 -1.44860434E-02 -1.48681991E-01  2.35513705E-01 -1.44860434E-02 -1.48681991E-01
  2.35513705E-01 -1.44860434E-02 -1.48681991E-01  2.35513705E-01 -1.44860434E-02
 -1.48681991E-01  2.35513705E-01  2.46980967E-01 -1.93258905E+00 -2.15390275E+00
  2.46980967E-01 -1.93258905E+00 -2.15390275E+00  2.46980967E-01 -1.93258905E+00
 -2.15390275E+00  2.46980967E-01 -1.93258905E+00 -2.15390275E+00  2.46980967E-01
 -1.93258905E+00 -2.15390275E+00  2.46980967E-01 -1.93258905E+00 -2.15390275E+00
 -2.70279827E+00  1.73751891E+00 -4.18086550E-01 -2.70279827E+00  1.73751891E+00
 -4.18086550E-01 -2.70279827E+00  1.73751891E+00 -4.18086550E-01 -2.70279827E+00
  1.73751891E+00 -4.18086550E-01 -2.70279827E+00  1.73751891E+00 -4.18086550E-01
 -2.70279827E+00  1.73751891E+00 -4.18086550E-01 -1.87381598E-01 -1.45418284E+00
  2.60441916E+00 -1.87381598E-01 -1.45418284E+00  2.60441916E+00 -1.87381598E-01
 -1.45418284E+00  2.60441916E+00 -1.87381598E-01 -1.45418284E+00  2.60441916E+00
 -1.87381598E-01 -1.45418284E+00  2.60441916E+00 -1.87381598E-01 -1.45418284E+00
  2.60441916E+00  2.74438903E+00  2.49737807E+00 -2.04472444E+00  2.74438903E+00
  2.49737807E+00 -2.04472444E+00  2.74438903E+00  2.49737807E+00 -2.04472444E+00
  2.74438903E+00  2.49737807E+00 -2.04472444E+00  2.74438903E+00  2.49737807E+00
 -2.04472444E+00  2.65823598E+00  3.18531316E+00  1.30659861E+00  2.65823598E+00
  3.18531316E+00  1.30659861E+00  2.65823598E+00  3.18531316E+00  1.30659861E+00
  2.65823598E+00  3.18531316E+00  1.30659861E+00  2.65823598E+00  3.18531316E+00
  1.30659861E+00  4.32618770E+00  4.47863464E-01  1.71154031E-01  4.32618770E+00
  4.47863464E-01  1.71154031E-01  4.32618770E+00  4.47863464E-01  1.71154031E-01
  4.32618770E+00  4.47863464E-01  1.71154031E-01  4.32618770E+00  4.47863464E-01
  1.71154031E-01 -2.50076127E+00  2.54728149E+00 -2.30161327E+00 -2.50076127E+00
  2.54728149E+00 -2.30161327E+00 -2.50076127E+00  2.54728149E+00 -2.30161327E+00
 -2.50076127E+00  2.54728149E+00 -2.30161327E+00 -2.50076127E+00  2.54728149E+00
 -2.30161327E+00 -4.33866812E+00  4.86650775E-01 -3.02265128E-01 -4.33866812E+00
  4.86650775E-01 -3.02265128E-01 -4.33866812E+00  4.86650775E-01 -3.02265128E-01
 -4.33866812E+00  4.86650775E-01 -3.02265128E-01 -4.33866812E+00  4.86650775E-01
 -3.02265128E-01 -2.79639523E+00  3.18523030E+00  1.04749934E+00 -2.79639523E+00
  3.18523030E+00  1.04749934E+00 -2.79639523E+00  3.18523030E+00  1.04749934E+00
 -2.79639523E+00  3.18523030E+00  1.04749934E+00 -2.79639523E+00  3.18523030E+00
  1.04749934E+00 -5.00493138E-01 -3.59889771E+00 -1.91170760E+00 -5.00493138E-01
 -3.59889771E+00 -1.91170760E+00 -5.00493138E-01 -3.59889771E+00 -1.91170760E+00
 -5.00493138E-01 -3.59889771E+00 -1.91170760E+00 -5.00493138E-01 -3.59889771E+00
 -1.91170760E+00
Num ILSW                                   I              100
ILSW                                       I   N=         100
           0           0           0           0           2           0
           0           0           0           0        4336          -1
           5           0           0           0           2           0
           0           0           0           0           1           0
           1           0           0           0           0           0
           0           0      100000           0          -1           0
           0           0           0           0           0           0
           0           0           0           1           0           0
           0 -2000000000           1           0           0           0
           0           0           4          52           0           0
           0           0          55           0           0           0
           0           0           0          12           0           1
           0           0           0           0           0           0
           0           0           0           0           0           0
           0           0           0           0           0           0
           0           0           0           0           0           0
           0           0           0           0
Num RLSW                                   I               52
RLSW                                       R   N=          52
  1.00000000E+00  1.00000000E+00  1.00000000E+00  1.00000000E+00  5.40000000E-01
  0.00000000E+00  0.00000000E+00  1.00000000E+00  0.00000000E+00  0.00000000E+00
  0.00000000E+00  0.00000000E+00  1.00000000E+00  0.00000000E+00  0.00000000E+00
  0.00000000E+00  0.00000000E+00  1.00000000E+00  0.00000000E+00  0.00000000E+00
  0.00000000E+00  0.00000000E+00  1.00000000E+00  0.00000000E+00  0.00000000E+00
  0.00000000E+00  0.00000000E+00  1.00000000E+00  0.00000000E+00  0.00000000E+00
  0.00000000E+00  0.00000000E+00  1.00000000E+00  0.00000000E+00  0.00000000E+00
  0.00000000E+00  0.00000000E+00  0.00000000E+00  1.00000000E+00  1.00000000E+00
  0.00000000E+00  1.00000000E+00  0.00000000E+00  0.00000000E+00  0.00000000E+00
  0.00000000E+00  0.00000000E+00  0.00000000E+00  0.00000000E+00  0.00000000E+00
  0.00000000E+00  0.00000000E+00
MxBond                                     I                4
NBond                                      I   N=          12
           4           4           2           4           1           1
           1           1           1           1           1           1
IBond                                      I   N=          48
           2           6           7           8           1           3
           4           5           2          12           0           0
           2           9          10          11           2           0
           0           0           1           0           0           0
           1           0           0           0           1           0
           0           0           4           0           0           0
           4           0           0           0           4           0
           0           0           3           0           0           0
RBond                                      R   N=          48
  1.00000000E+00  1.00000000E+00  1.00000000E+00  1.00000000E+00  1.00000000E+00
  2.00000000E+00  1.00000000E+00  2.00000000E+00  2.00000000E+00  1.00000000E+00
  0.00000000E+00  0.00000000E+00  1.00000000E+00  1.00000000E+00  1.00000000E+00
  1.00000000E+00  2.00000000E+00  0.00000000E+00  0.00000000E+00  0.00000000E+00
  1.00000000E+00  0.00000000E+00  0.00000000E+00  0.00000000E+00  1.00000000E+00
  0.00000000E+00  0.00000000E+00  0.00000000E+00  1.00000000E+00  0.00000000E+00
  0.00000000E+00  0.00000000E+00  1.00000000E+00  0.00000000E+00  0.00000000E+00