 Entering Gaussian System, Link 0=/apps/cent7/gaussian/g16-A.03/g16-haswell/g16/g16
 Initial command:
 /apps/cent7/gaussian/g16-A.03/g16-haswell/g16/l1.exe "/scratch/brown/finej/gaussian/Gau-182044.inp" -scrdir="/scratch/brown/finej/gaussian/"
 Entering Link 1 = /apps/cent7/gaussian/g16-A.03/g16-haswell/g16/l1.exe PID=    182047.
  
 Copyright (c) 1988,1990,1992,1993,1995,1998,2003,2009,2016,
            Gaussian, Inc.  All Rights Reserved.
  
 This is part of the Gaussian(R) 16 program.  It is based on
 the Gaussian(R) 09 system (copyright 2009, Gaussian, Inc.),
 the Gaussian(R) 03 system (copyright 2003, Gaussian, Inc.),
 the Gaussian(R) 98 system (copyright 1998, Gaussian, Inc.),
 the Gaussian(R) 94 system (copyright 1995, Gaussian, Inc.),
 the Gaussian 92(TM) system (copyright 1992, Gaussian, Inc.),
 the Gaussian 90(TM) system (copyright 1990, Gaussian, Inc.),
 the Gaussian 88(TM) system (copyright 1988, Gaussian, Inc.),
 the Gaussian 86(TM) system (copyright 1986, Carnegie Mellon
 University), and the Gaussian 82(TM) system (copyright 1983,
 Carnegie Mellon University). Gaussian is a federally registered
 trademark of Gaussian, Inc.
  
 This software contains proprietary and confidential information,
 including trade secrets, belonging to Gaussian, Inc.
  
 This software is provided under written license and may be
 used, copied, transmitted, or stored only in accord with that
 written license.
  
 The following legend is applicable only to US Government
 contracts under FAR:
  
                    RESTRICTED RIGHTS LEGEND
  
 Use, reproduction and disclosure by the US Government is
 subject to restrictions as set forth in subparagraphs (a)
 and (c) of the Commercial Computer Software - Restricted
 Rights clause in FAR 52.227-19.
  
 Gaussian, Inc.
 340 Quinnipiac St., Bldg. 40, Wallingford CT 06492
  
  
 ---------------------------------------------------------------
 Warning -- This program may not be used in any manner that
 competes with the business of Gaussian, Inc. or will provide
 assistance to any competitor of Gaussian, Inc.  The licensee
 of this program is prohibited from giving any competitor of
 Gaussian, Inc. access to this program.  By using this program,
 the user acknowledges that Gaussian, Inc. is engaged in the
 business of creating and licensing software in the field of
 computational chemistry and represents and warrants to the
 licensee that it is not a competitor of Gaussian, Inc. and that
 it will not use this program in any manner prohibited above.
 ---------------------------------------------------------------
  

 Cite this work as:
 Gaussian 16, Revision A.03,
 M. J. Frisch, G. W. Trucks, H. B. Schlegel, G. E. Scuseria, 
 M. A. Robb, J. R. Cheeseman, G. Scalmani, V. Barone, 
 G. A. Petersson, H. Nakatsuji, X. Li, M. Caricato, A. V. Marenich, 
 J. Bloino, B. G. Janesko, R. Gomperts, B. Mennucci, H. P. Hratchian, 
 J. V. Ortiz, A. F. Izmaylov, J. L. Sonnenberg, D. Williams-Young, 
 F. Ding, F. Lipparini, F. Egidi, J. Goings, B. Peng, A. Petrone, 
 T. Henderson, D. Ranasinghe, V. G. Zakrzewski, J. Gao, N. Rega, 
 G. Zheng, W. Liang, M. Hada, M. Ehara, K. Toyota, R. Fukuda, 
 J. Hasegawa, M. Ishida, T. Nakajima, Y. Honda, O. Kitao, H. Nakai, 
 T. Vreven, K. Throssell, J. A. Montgomery, Jr., J. E. Peralta, 
 F. Ogliaro, M. J. Bearpark, J. J. Heyd, E. N. Brothers, K. N. Kudin, 
 V. N. Staroverov, T. A. Keith, R. Kobayashi, J. Normand, 
 K. Raghavachari, A. P. Rendell, J. C. Burant, S. S. Iyengar, 
 J. Tomasi, M. Cossi, J. M. Millam, M. Klene, C. Adamo, R. Cammi, 
 J. W. Ochterski, R. L. Martin, K. Morokuma, O. Farkas, 
 J. B. Foresman, and D. J. Fox, Gaussian, Inc., Wallingford CT, 2016.
 
 ******************************************
 Gaussian 16:  ES64L-G16RevA.03 25-Dec-2016
                13-Oct-2019 
 ******************************************
 %chk=26.chk
 %nprocshared=24
 Will use up to   24 processors via shared memory.
 %mem=80GB
 -------------------------------------------------------------------
 #P opt freq m062x/6-311++g(d,p) geom=connectivity temperature=0.001
 -------------------------------------------------------------------
 1/18=20,19=15,26=3,38=1,57=2,112=-1000/1,3;
 2/9=110,12=2,17=6,18=5,40=1/2;
 3/5=4,6=6,7=1111,11=2,25=1,30=1,71=1,74=-55/1,2,3;
 4//1;
 5/5=2,38=5/2;
 6/7=2,8=2,9=2,10=2,28=1/1;
 7//1,2,3,16;
 1/18=20,19=15,26=3/3(2);
 2/9=110/2;
 99//99;
 2/9=110/2;
 3/5=4,6=6,7=1111,11=2,25=1,30=1,71=1,74=-55/1,2,3;
 4/5=5,16=3,69=1/1;
 5/5=2,38=5/2;
 7//1,2,3,16;
 1/18=20,19=15,26=3/3(-5);
 2/9=110/2;
 6/7=2,8=2,9=2,10=2,19=2,28=1/1;
 99/9=1/99;
 Leave Link    1 at Sun Oct 13 21:58:59 2019, MaxMem= 10737418240 cpu:               0.8 elap:               0.0
 (Enter /apps/cent7/gaussian/g16-A.03/g16-haswell/g16/l101.exe)
 -------------------
 Title Card Required
 -------------------
 Symbolic Z-matrix:
 Charge =  0 Multiplicity = 1
 O                    -1.2111    1.9012    4.5834 
 C                    -1.7915    0.7974    4.4646 
 O                    -1.5966   -0.1365    5.4288 
 C                    -2.6674    0.5536    3.3005 
 C                    -3.3091   -0.7633    3.3116 
 C                    -4.5687   -1.0118    3.7855 
 C                    -5.5153   -0.1463    4.3743 
 C                    -6.7694   -0.6625    4.7486 
 F                    -7.6521    0.1248    5.2979 
 C                    -7.072    -2.0203    4.5212 
 C                    -6.1205   -2.8706    3.9264 
 C                    -4.8422   -2.3661    3.5982 
 C                    -2.7972   -1.9352    2.8838 
 C                    -1.4519   -2.1194    2.3294 
 C                    -3.7083   -2.9515    3.0667 
 C                    -3.4865   -4.2563    2.7804 
 C                    -4.2934   -5.3527    3.051 
 C                    -4.7391   -6.1694    1.9868 
 C                    -5.4567   -7.3514    2.2427 
 C                    -5.753    -7.7418    3.5652 
 S                    -6.6049   -9.2793    3.8214 
 O                    -5.7663   -10.464    3.1333 
 C                    -6.8476   -9.7099    5.5855 
 O                    -8.0417   -9.2205    3.1068 
 C                    -5.3441   -6.9118    4.6313 
 C                    -4.6088   -5.7358    4.3772 
 H                    -1.6741   -1.0132    5.0454 
 H                    -3.4785    1.2778    3.3774 
 H                    -2.0151    0.5567    2.4273 
 H                    -5.2812    0.9056    4.5377 
 H                    -8.0471   -2.4148    4.807 
 H                    -6.3715   -3.9114    3.7216 
 H                    -0.7338   -2.2177    3.1435 
 H                    -1.4318   -3.0204    1.7163 
 H                    -1.1904   -1.2569    1.7163 
 H                    -2.5428   -4.4475    2.2696 
 H                    -4.527    -5.8843    0.9564 
 H                    -5.7861   -7.9707    1.4084 
 H                    -6.8628   -10.7942   5.696 
 H                    -6.0306   -9.2959    6.1763 
 H                    -7.7939   -9.2959    5.9336 
 H                    -5.5976   -7.1806    5.6568 
 H                    -4.2814   -5.1177    5.2132 
 
 ITRead=  0  0  0  0  0  0  0  0  0  0  0  0  0  0  0  0  0  0  0  0
 ITRead=  0  0  0  0  0  0  0  0  0  0  0  0  0  0  0  0  0  0  0  0
 ITRead=  0  0  0
 MicOpt= -1 -1 -1 -1 -1 -1 -1 -1 -1 -1 -1 -1 -1 -1 -1 -1 -1 -1 -1 -1
 MicOpt= -1 -1 -1 -1 -1 -1 -1 -1 -1 -1 -1 -1 -1 -1 -1 -1 -1 -1 -1 -1
 MicOpt= -1 -1 -1
 NAtoms=     43 NQM=       43 NQMF=       0 NMMI=      0 NMMIF=      0
                NMic=       0 NMicF=      0.
                    Isotopes and Nuclear Properties:
 (Nuclear quadrupole moments (NQMom) in fm**2, nuclear magnetic moments (NMagM)
  in nuclear magnetons)

  Atom         1           2           3           4           5           6           7           8           9          10
 IAtWgt=          16          12          16          12          12          12          12          12          19          12
 AtmWgt=  15.9949146  12.0000000  15.9949146  12.0000000  12.0000000  12.0000000  12.0000000  12.0000000  18.9984033  12.0000000
 NucSpn=           0           0           0           0           0           0           0           0           1           0
 AtZEff=  -0.0000000  -0.0000000  -0.0000000  -0.0000000  -0.0000000  -0.0000000  -0.0000000  -0.0000000  -0.0000000  -0.0000000
 NQMom=    0.0000000   0.0000000   0.0000000   0.0000000   0.0000000   0.0000000   0.0000000   0.0000000   0.0000000   0.0000000
 NMagM=    0.0000000   0.0000000   0.0000000   0.0000000   0.0000000   0.0000000   0.0000000   0.0000000   2.6288670   0.0000000
 AtZNuc=   8.0000000   6.0000000   8.0000000   6.0000000   6.0000000   6.0000000   6.0000000   6.0000000   9.0000000   6.0000000

  Atom        11          12          13          14          15          16          17          18          19          20
 IAtWgt=          12          12          12          12          12          12          12          12          12          12
 AtmWgt=  12.0000000  12.0000000  12.0000000  12.0000000  12.0000000  12.0000000  12.0000000  12.0000000  12.0000000  12.0000000
 NucSpn=           0           0           0           0           0           0           0           0           0           0
 AtZEff=  -0.0000000  -0.0000000  -0.0000000  -0.0000000  -0.0000000  -0.0000000  -0.0000000  -0.0000000  -0.0000000  -0.0000000
 NQMom=    0.0000000   0.0000000   0.0000000   0.0000000   0.0000000   0.0000000   0.0000000   0.0000000   0.0000000   0.0000000
 NMagM=    0.0000000   0.0000000   0.0000000   0.0000000   0.0000000   0.0000000   0.0000000   0.0000000   0.0000000   0.0000000
 AtZNuc=   6.0000000   6.0000000   6.0000000   6.0000000   6.0000000   6.0000000   6.0000000   6.0000000   6.0000000   6.0000000

  Atom        21          22          23          24          25          26          27          28          29          30
 IAtWgt=          32          16          12          16          12          12           1           1           1           1
 AtmWgt=  31.9720718  15.9949146  12.0000000  15.9949146  12.0000000  12.0000000   1.0078250   1.0078250   1.0078250   1.0078250
 NucSpn=           0           0           0           0           0           0           1           1           1           1
 AtZEff=  -0.0000000  -0.0000000  -0.0000000  -0.0000000  -0.0000000  -0.0000000  -0.0000000  -0.0000000  -0.0000000  -0.0000000
 NQMom=    0.0000000   0.0000000   0.0000000   0.0000000   0.0000000   0.0000000   0.0000000   0.0000000   0.0000000   0.0000000
 NMagM=    0.0000000   0.0000000   0.0000000   0.0000000   0.0000000   0.0000000   2.7928460   2.7928460   2.7928460   2.7928460
 AtZNuc=  16.0000000   8.0000000   6.0000000   8.0000000   6.0000000   6.0000000   1.0000000   1.0000000   1.0000000   1.0000000

  Atom        31          32          33          34          35          36          37          38          39          40
 IAtWgt=           1           1           1           1           1           1           1           1           1           1
 AtmWgt=   1.0078250   1.0078250   1.0078250   1.0078250   1.0078250   1.0078250   1.0078250   1.0078250   1.0078250   1.0078250
 NucSpn=           1           1           1           1           1           1           1           1           1           1
 AtZEff=  -0.0000000  -0.0000000  -0.0000000  -0.0000000  -0.0000000  -0.0000000  -0.0000000  -0.0000000  -0.0000000  -0.0000000
 NQMom=    0.0000000   0.0000000   0.0000000   0.0000000   0.0000000   0.0000000   0.0000000   0.0000000   0.0000000   0.0000000
 NMagM=    2.7928460   2.7928460   2.7928460   2.7928460   2.7928460   2.7928460   2.7928460   2.7928460   2.7928460   2.7928460
 AtZNuc=   1.0000000   1.0000000   1.0000000   1.0000000   1.0000000   1.0000000   1.0000000   1.0000000   1.0000000   1.0000000

  Atom        41          42          43
 IAtWgt=           1           1           1
 AtmWgt=   1.0078250   1.0078250   1.0078250
 NucSpn=           1           1           1
 AtZEff=  -0.0000000  -0.0000000  -0.0000000
 NQMom=    0.0000000   0.0000000   0.0000000
 NMagM=    2.7928460   2.7928460   2.7928460
 AtZNuc=   1.0000000   1.0000000   1.0000000
 Leave Link  101 at Sun Oct 13 21:58:59 2019, MaxMem= 10737418240 cpu:               9.5 elap:               0.4
 (Enter /apps/cent7/gaussian/g16-A.03/g16-haswell/g16/l103.exe)

 GradGradGradGradGradGradGradGradGradGradGradGradGradGradGradGradGradGrad
 Berny optimization.
 Initialization pass.
                           ----------------------------
                           !    Initial Parameters    !
                           ! (Angstroms and Degrees)  !
 --------------------------                            --------------------------
 ! Name  Definition              Value          Derivative Info.                !
 --------------------------------------------------------------------------------
 ! R1    R(1,2)                  1.2527         estimate D2E/DX2                !
 ! R2    R(2,3)                  1.3564         estimate D2E/DX2                !
 ! R3    R(2,4)                  1.4771         estimate D2E/DX2                !
 ! R4    R(3,27)                 0.96           estimate D2E/DX2                !
 ! R5    R(4,5)                  1.465          estimate D2E/DX2                !
 ! R6    R(4,28)                 1.0901         estimate D2E/DX2                !
 ! R7    R(4,29)                 1.0899         estimate D2E/DX2                !
 ! R8    R(5,6)                  1.3685         estimate D2E/DX2                !
 ! R9    R(5,13)                 1.3485         estimate D2E/DX2                !
 ! R10   R(6,7)                  1.4113         estimate D2E/DX2                !
 ! R11   R(6,12)                 1.3943         estimate D2E/DX2                !
 ! R12   R(7,8)                  1.4069         estimate D2E/DX2                !
 ! R13   R(7,30)                 1.09           estimate D2E/DX2                !
 ! R14   R(8,9)                  1.3041         estimate D2E/DX2                !
 ! R15   R(8,10)                 1.4096         estimate D2E/DX2                !
 ! R16   R(10,11)                1.4079         estimate D2E/DX2                !
 ! R17   R(10,31)                1.09           estimate D2E/DX2                !
 ! R18   R(11,12)                1.4129         estimate D2E/DX2                !
 ! R19   R(11,32)                1.09           estimate D2E/DX2                !
 ! R20   R(12,15)                1.3824         estimate D2E/DX2                !
 ! R21   R(13,14)                1.4667         estimate D2E/DX2                !
 ! R22   R(13,15)                1.3771         estimate D2E/DX2                !
 ! R23   R(14,33)                1.09           estimate D2E/DX2                !
 ! R24   R(14,34)                1.09           estimate D2E/DX2                !
 ! R25   R(14,35)                1.09           estimate D2E/DX2                !
 ! R26   R(15,16)                1.3541         estimate D2E/DX2                !
 ! R27   R(16,17)                1.3879         estimate D2E/DX2                !
 ! R28   R(16,36)                1.09           estimate D2E/DX2                !
 ! R29   R(17,18)                1.4136         estimate D2E/DX2                !
 ! R30   R(17,26)                1.416          estimate D2E/DX2                !
 ! R31   R(18,19)                1.4063         estimate D2E/DX2                !
 ! R32   R(18,37)                1.09           estimate D2E/DX2                !
 ! R33   R(19,20)                1.4104         estimate D2E/DX2                !
 ! R34   R(19,38)                1.09           estimate D2E/DX2                !
 ! R35   R(20,21)                1.7763         estimate D2E/DX2                !
 ! R36   R(20,25)                1.4116         estimate D2E/DX2                !
 ! R37   R(21,22)                1.6063         estimate D2E/DX2                !
 ! R38   R(21,23)                1.832          estimate D2E/DX2                !
 ! R39   R(21,24)                1.6058         estimate D2E/DX2                !
 ! R40   R(23,39)                1.09           estimate D2E/DX2                !
 ! R41   R(23,40)                1.0899         estimate D2E/DX2                !
 ! R42   R(23,41)                1.09           estimate D2E/DX2                !
 ! R43   R(25,26)                1.41           estimate D2E/DX2                !
 ! R44   R(25,42)                1.09           estimate D2E/DX2                !
 ! R45   R(26,43)                1.09           estimate D2E/DX2                !
 ! A1    A(1,2,3)              118.2078         estimate D2E/DX2                !
 ! A2    A(1,2,4)              119.6636         estimate D2E/DX2                !
 ! A3    A(3,2,4)              122.1265         estimate D2E/DX2                !
 ! A4    A(2,3,27)             109.4675         estimate D2E/DX2                !
 ! A5    A(2,4,5)              113.7127         estimate D2E/DX2                !
 ! A6    A(2,4,28)             106.0204         estimate D2E/DX2                !
 ! A7    A(2,4,29)             106.0232         estimate D2E/DX2                !
 ! A8    A(5,4,28)             105.7087         estimate D2E/DX2                !
 ! A9    A(5,4,29)             105.7104         estimate D2E/DX2                !
 ! A10   A(28,4,29)            119.9957         estimate D2E/DX2                !
 ! A11   A(4,5,6)              124.6812         estimate D2E/DX2                !
 ! A12   A(4,5,13)             127.7726         estimate D2E/DX2                !
 ! A13   A(6,5,13)             107.5444         estimate D2E/DX2                !
 ! A14   A(5,6,7)              130.5745         estimate D2E/DX2                !
 ! A15   A(5,6,12)             108.0832         estimate D2E/DX2                !
 ! A16   A(7,6,12)             121.3422         estimate D2E/DX2                !
 ! A17   A(6,7,8)              118.9382         estimate D2E/DX2                !
 ! A18   A(6,7,30)             120.686          estimate D2E/DX2                !
 ! A19   A(8,7,30)             120.3759         estimate D2E/DX2                !
 ! A20   A(7,8,9)              119.5976         estimate D2E/DX2                !
 ! A21   A(7,8,10)             120.124          estimate D2E/DX2                !
 ! A22   A(9,8,10)             120.2766         estimate D2E/DX2                !
 ! A23   A(8,10,11)            120.3209         estimate D2E/DX2                !
 ! A24   A(8,10,31)            119.8923         estimate D2E/DX2                !
 ! A25   A(11,10,31)           119.7868         estimate D2E/DX2                !
 ! A26   A(10,11,12)           119.5996         estimate D2E/DX2                !
 ! A27   A(10,11,32)           120.0279         estimate D2E/DX2                !
 ! A28   A(12,11,32)           120.3725         estimate D2E/DX2                !
 ! A29   A(6,12,11)            119.5443         estimate D2E/DX2                !
 ! A30   A(6,12,15)            107.5829         estimate D2E/DX2                !
 ! A31   A(11,12,15)           132.8611         estimate D2E/DX2                !
 ! A32   A(5,13,14)            125.2582         estimate D2E/DX2                !
 ! A33   A(5,13,15)            110.3693         estimate D2E/DX2                !
 ! A34   A(14,13,15)           124.3588         estimate D2E/DX2                !
 ! A35   A(13,14,33)           109.469          estimate D2E/DX2                !
 ! A36   A(13,14,34)           109.4719         estimate D2E/DX2                !
 ! A37   A(13,14,35)           109.4681         estimate D2E/DX2                !
 ! A38   A(33,14,34)           109.4759         estimate D2E/DX2                !
 ! A39   A(33,14,35)           109.4753         estimate D2E/DX2                !
 ! A40   A(34,14,35)           109.4671         estimate D2E/DX2                !
 ! A41   A(12,15,13)           106.3337         estimate D2E/DX2                !
 ! A42   A(12,15,16)           128.5868         estimate D2E/DX2                !
 ! A43   A(13,15,16)           125.0761         estimate D2E/DX2                !
 ! A44   A(15,16,17)           128.6617         estimate D2E/DX2                !
 ! A45   A(15,16,36)           114.2            estimate D2E/DX2                !
 ! A46   A(17,16,36)           117.1383         estimate D2E/DX2                !
 ! A47   A(16,17,18)           119.5328         estimate D2E/DX2                !
 ! A48   A(16,17,26)           121.7229         estimate D2E/DX2                !
 ! A49   A(18,17,26)           118.5915         estimate D2E/DX2                !
 ! A50   A(17,18,19)           120.6319         estimate D2E/DX2                !
 ! A51   A(17,18,37)           119.9493         estimate D2E/DX2                !
 ! A52   A(19,18,37)           119.4188         estimate D2E/DX2                !
 ! A53   A(18,19,20)           120.6969         estimate D2E/DX2                !
 ! A54   A(18,19,38)           119.5042         estimate D2E/DX2                !
 ! A55   A(20,19,38)           119.7989         estimate D2E/DX2                !
 ! A56   A(19,20,21)           118.3975         estimate D2E/DX2                !
 ! A57   A(19,20,25)           118.9836         estimate D2E/DX2                !
 ! A58   A(21,20,25)           122.6103         estimate D2E/DX2                !
 ! A59   A(20,21,22)           109.039          estimate D2E/DX2                !
 ! A60   A(20,21,23)           113.9448         estimate D2E/DX2                !
 ! A61   A(20,21,24)           109.4657         estimate D2E/DX2                !
 ! A62   A(22,21,23)           107.9568         estimate D2E/DX2                !
 ! A63   A(22,21,24)           107.668          estimate D2E/DX2                !
 ! A64   A(23,21,24)           108.5775         estimate D2E/DX2                !
 ! A65   A(21,23,39)           109.4672         estimate D2E/DX2                !
 ! A66   A(21,23,40)           109.4737         estimate D2E/DX2                !
 ! A67   A(21,23,41)           109.4668         estimate D2E/DX2                !
 ! A68   A(39,23,40)           109.4724         estimate D2E/DX2                !
 ! A69   A(39,23,41)           109.4721         estimate D2E/DX2                !
 ! A70   A(40,23,41)           109.4751         estimate D2E/DX2                !
 ! A71   A(20,25,26)           120.3539         estimate D2E/DX2                !
 ! A72   A(20,25,42)           119.8785         estimate D2E/DX2                !
 ! A73   A(26,25,42)           119.7676         estimate D2E/DX2                !
 ! A74   A(17,26,25)           120.7024         estimate D2E/DX2                !
 ! A75   A(17,26,43)           119.8679         estimate D2E/DX2                !
 ! A76   A(25,26,43)           119.4297         estimate D2E/DX2                !
 ! D1    D(1,2,3,27)          -150.3963         estimate D2E/DX2                !
 ! D2    D(4,2,3,27)            30.1292         estimate D2E/DX2                !
 ! D3    D(1,2,4,5)           -178.3421         estimate D2E/DX2                !
 ! D4    D(1,2,4,28)           -62.6345         estimate D2E/DX2                !
 ! D5    D(1,2,4,29)            65.9465         estimate D2E/DX2                !
 ! D6    D(3,2,4,5)              1.125          estimate D2E/DX2                !
 ! D7    D(3,2,4,28)           116.8327         estimate D2E/DX2                !
 ! D8    D(3,2,4,29)          -114.5864         estimate D2E/DX2                !
 ! D9    D(2,4,5,6)             95.6423         estimate D2E/DX2                !
 ! D10   D(2,4,5,13)           -83.8151         estimate D2E/DX2                !
 ! D11   D(28,4,5,6)           -20.2486         estimate D2E/DX2                !
 ! D12   D(28,4,5,13)          160.294          estimate D2E/DX2                !
 ! D13   D(29,4,5,6)          -148.4624         estimate D2E/DX2                !
 ! D14   D(29,4,5,13)           32.0803         estimate D2E/DX2                !
 ! D15   D(4,5,6,7)             -1.412          estimate D2E/DX2                !
 ! D16   D(4,5,6,12)           178.4832         estimate D2E/DX2                !
 ! D17   D(13,5,6,7)           178.1382         estimate D2E/DX2                !
 ! D18   D(13,5,6,12)           -1.9666         estimate D2E/DX2                !
 ! D19   D(4,5,13,14)            1.0502         estimate D2E/DX2                !
 ! D20   D(4,5,13,15)          179.7465         estimate D2E/DX2                !
 ! D21   D(6,5,13,14)         -178.4818         estimate D2E/DX2                !
 ! D22   D(6,5,13,15)            0.2145         estimate D2E/DX2                !
 ! D23   D(5,6,7,8)            178.398          estimate D2E/DX2                !
 ! D24   D(5,6,7,30)            -1.6075         estimate D2E/DX2                !
 ! D25   D(12,6,7,8)            -1.4854         estimate D2E/DX2                !
 ! D26   D(12,6,7,30)          178.5092         estimate D2E/DX2                !
 ! D27   D(5,6,12,11)         -175.9379         estimate D2E/DX2                !
 ! D28   D(5,6,12,15)            2.9724         estimate D2E/DX2                !
 ! D29   D(7,6,12,11)            3.9689         estimate D2E/DX2                !
 ! D30   D(7,6,12,15)         -177.1208         estimate D2E/DX2                !
 ! D31   D(6,7,8,9)            179.7678         estimate D2E/DX2                !
 ! D32   D(6,7,8,10)            -0.7142         estimate D2E/DX2                !
 ! D33   D(30,7,8,9)            -0.2267         estimate D2E/DX2                !
 ! D34   D(30,7,8,10)          179.2912         estimate D2E/DX2                !
 ! D35   D(7,8,10,11)            0.3886         estimate D2E/DX2                !
 ! D36   D(7,8,10,31)         -179.6175         estimate D2E/DX2                !
 ! D37   D(9,8,10,11)          179.9032         estimate D2E/DX2                !
 ! D38   D(9,8,10,31)           -0.1029         estimate D2E/DX2                !
 ! D39   D(8,10,11,12)           2.0909         estimate D2E/DX2                !
 ! D40   D(8,10,11,32)        -177.9108         estimate D2E/DX2                !
 ! D41   D(31,10,11,12)       -177.903          estimate D2E/DX2                !
 ! D42   D(31,10,11,32)          2.0953         estimate D2E/DX2                !
 ! D43   D(10,11,12,6)          -4.2343         estimate D2E/DX2                !
 ! D44   D(10,11,12,15)        177.1828         estimate D2E/DX2                !
 ! D45   D(32,11,12,6)         175.7675         estimate D2E/DX2                !
 ! D46   D(32,11,12,15)         -2.8154         estimate D2E/DX2                !
 ! D47   D(6,12,15,13)          -2.781          estimate D2E/DX2                !
 ! D48   D(6,12,15,16)         176.562          estimate D2E/DX2                !
 ! D49   D(11,12,15,13)        175.9258         estimate D2E/DX2                !
 ! D50   D(11,12,15,16)         -4.7313         estimate D2E/DX2                !
 ! D51   D(5,13,14,33)          82.4707         estimate D2E/DX2                !
 ! D52   D(5,13,14,34)        -157.5245         estimate D2E/DX2                !
 ! D53   D(5,13,14,35)         -37.5311         estimate D2E/DX2                !
 ! D54   D(15,13,14,33)        -96.0488         estimate D2E/DX2                !
 ! D55   D(15,13,14,34)         23.956          estimate D2E/DX2                !
 ! D56   D(15,13,14,35)        143.9494         estimate D2E/DX2                !
 ! D57   D(5,13,15,12)           1.6225         estimate D2E/DX2                !
 ! D58   D(5,13,15,16)        -177.7499         estimate D2E/DX2                !
 ! D59   D(14,13,15,12)       -179.667          estimate D2E/DX2                !
 ! D60   D(14,13,15,16)          0.9606         estimate D2E/DX2                !
 ! D61   D(12,15,16,17)         -6.0651         estimate D2E/DX2                !
 ! D62   D(12,15,16,36)        173.9393         estimate D2E/DX2                !
 ! D63   D(13,15,16,17)        173.1644         estimate D2E/DX2                !
 ! D64   D(13,15,16,36)         -6.8312         estimate D2E/DX2                !
 ! D65   D(15,16,17,18)        121.6304         estimate D2E/DX2                !
 ! D66   D(15,16,17,26)        -62.9266         estimate D2E/DX2                !
 ! D67   D(36,16,17,18)        -58.3741         estimate D2E/DX2                !
 ! D68   D(36,16,17,26)        117.0688         estimate D2E/DX2                !
 ! D69   D(16,17,18,19)        174.2971         estimate D2E/DX2                !
 ! D70   D(16,17,18,37)         -5.7086         estimate D2E/DX2                !
 ! D71   D(26,17,18,19)         -1.2886         estimate D2E/DX2                !
 ! D72   D(26,17,18,37)        178.7057         estimate D2E/DX2                !
 ! D73   D(16,17,26,25)       -175.0618         estimate D2E/DX2                !
 ! D74   D(16,17,26,43)          4.9339         estimate D2E/DX2                !
 ! D75   D(18,17,26,25)          0.4227         estimate D2E/DX2                !
 ! D76   D(18,17,26,43)       -179.5817         estimate D2E/DX2                !
 ! D77   D(17,18,19,20)          0.3762         estimate D2E/DX2                !
 ! D78   D(17,18,19,38)       -179.6131         estimate D2E/DX2                !
 ! D79   D(37,18,19,20)       -179.6181         estimate D2E/DX2                !
 ! D80   D(37,18,19,38)          0.3926         estimate D2E/DX2                !
 ! D81   D(18,19,20,21)       -177.5499         estimate D2E/DX2                !
 ! D82   D(18,19,20,25)          1.407          estimate D2E/DX2                !
 ! D83   D(38,19,20,21)          2.4394         estimate D2E/DX2                !
 ! D84   D(38,19,20,25)       -178.6037         estimate D2E/DX2                !
 ! D85   D(19,20,21,22)         56.22           estimate D2E/DX2                !
 ! D86   D(19,20,21,23)        176.8904         estimate D2E/DX2                !
 ! D87   D(19,20,21,24)        -61.3284         estimate D2E/DX2                !
 ! D88   D(25,20,21,22)       -122.6967         estimate D2E/DX2                !
 ! D89   D(25,20,21,23)         -2.0264         estimate D2E/DX2                !
 ! D90   D(25,20,21,24)        119.7548         estimate D2E/DX2                !
 ! D91   D(19,20,25,26)         -2.2664         estimate D2E/DX2                !
 ! D92   D(19,20,25,42)        177.7367         estimate D2E/DX2                !
 ! D93   D(21,20,25,26)        176.6442         estimate D2E/DX2                !
 ! D94   D(21,20,25,42)         -3.3526         estimate D2E/DX2                !
 ! D95   D(20,21,23,39)       -150.1093         estimate D2E/DX2                !
 ! D96   D(20,21,23,40)        -30.1088         estimate D2E/DX2                !
 ! D97   D(20,21,23,41)         89.8948         estimate D2E/DX2                !
 ! D98   D(22,21,23,39)        -28.8357         estimate D2E/DX2                !
 ! D99   D(22,21,23,40)         91.1647         estimate D2E/DX2                !
 ! D100  D(22,21,23,41)       -148.8317         estimate D2E/DX2                !
 ! D101  D(24,21,23,39)         87.62           estimate D2E/DX2                !
 ! D102  D(24,21,23,40)       -152.3795         estimate D2E/DX2                !
 ! D103  D(24,21,23,41)        -32.3759         estimate D2E/DX2                !
 ! D104  D(20,25,26,17)          1.3653         estimate D2E/DX2                !
 ! D105  D(20,25,26,43)       -178.6304         estimate D2E/DX2                !
 ! D106  D(42,25,26,17)       -178.6379         estimate D2E/DX2                !
 ! D107  D(42,25,26,43)          1.3665         estimate D2E/DX2                !
 --------------------------------------------------------------------------------
 Trust Radius=3.00D-01 FncErr=1.00D-07 GrdErr=1.00D-06 EigMax=2.50D+02 EigMin=1.00D-04
 Number of steps in this run=    238 maximum allowed number of steps=    258.
 GradGradGradGradGradGradGradGradGradGradGradGradGradGradGradGradGradGrad

 Leave Link  103 at Sun Oct 13 21:58:59 2019, MaxMem= 10737418240 cpu:               0.3 elap:               0.0
 (Enter /apps/cent7/gaussian/g16-A.03/g16-haswell/g16/l202.exe)
                          Input orientation:                          
 ---------------------------------------------------------------------
 Center     Atomic      Atomic             Coordinates (Angstroms)
 Number     Number       Type             X           Y           Z
 ---------------------------------------------------------------------
      1          8           0       -1.211100    1.901200    4.583400
      2          6           0       -1.791500    0.797400    4.464600
      3          8           0       -1.596600   -0.136500    5.428800
      4          6           0       -2.667400    0.553600    3.300500
      5          6           0       -3.309100   -0.763300    3.311600
      6          6           0       -4.568700   -1.011800    3.785500
      7          6           0       -5.515300   -0.146300    4.374300
      8          6           0       -6.769400   -0.662500    4.748600
      9          9           0       -7.652100    0.124800    5.297900
     10          6           0       -7.072000   -2.020300    4.521200
     11          6           0       -6.120500   -2.870600    3.926400
     12          6           0       -4.842200   -2.366100    3.598200
     13          6           0       -2.797200   -1.935200    2.883800
     14          6           0       -1.451900   -2.119400    2.329400
     15          6           0       -3.708300   -2.951500    3.066700
     16          6           0       -3.486500   -4.256300    2.780400
     17          6           0       -4.293400   -5.352700    3.051000
     18          6           0       -4.739100   -6.169400    1.986800
     19          6           0       -5.456700   -7.351400    2.242700
     20          6           0       -5.753000   -7.741800    3.565200
     21         16           0       -6.604900   -9.279300    3.821400
     22          8           0       -5.766300  -10.464000    3.133300
     23          6           0       -6.847600   -9.709900    5.585500
     24          8           0       -8.041700   -9.220500    3.106800
     25          6           0       -5.344100   -6.911800    4.631300
     26          6           0       -4.608800   -5.735800    4.377200
     27          1           0       -1.674100   -1.013200    5.045400
     28          1           0       -3.478500    1.277800    3.377400
     29          1           0       -2.015100    0.556700    2.427300
     30          1           0       -5.281200    0.905600    4.537700
     31          1           0       -8.047100   -2.414800    4.807000
     32          1           0       -6.371500   -3.911400    3.721600
     33          1           0       -0.733800   -2.217700    3.143500
     34          1           0       -1.431800   -3.020400    1.716300
     35          1           0       -1.190400   -1.256900    1.716300
     36          1           0       -2.542800   -4.447500    2.269600
     37          1           0       -4.527000   -5.884300    0.956400
     38          1           0       -5.786100   -7.970700    1.408400
     39          1           0       -6.862800  -10.794200    5.696000
     40          1           0       -6.030600   -9.295900    6.176300
     41          1           0       -7.793900   -9.295900    5.933600
     42          1           0       -5.597600   -7.180600    5.656800
     43          1           0       -4.281400   -5.117700    5.213200
 ---------------------------------------------------------------------
                    Distance matrix (angstroms):
                    1          2          3          4          5
     1  O    0.000000
     2  C    1.252738   0.000000
     3  O    2.239539   1.356406   0.000000
     4  C    2.362767   1.477081   2.480426   0.000000
     5  C    3.621966   2.463393   2.794292   1.464967   0.000000
     6  C    4.516159   3.383374   3.507130   2.510108   1.368549
     7  C    4.770966   3.842579   4.058112   3.123050   2.525339
     8  C    6.123279   5.195330   5.243778   4.516890   3.748174
     9  F    6.719568   5.957635   6.062548   5.387087   4.857547
    10  C    7.052105   5.985509   5.861096   5.245529   4.147601
    11  C    6.877785   5.699485   5.495287   4.903141   3.566884
    12  C    5.689056   4.479414   4.342365   3.652811   2.236404
    13  C    4.485791   3.313226   3.339729   2.526779   1.348482
    14  C    4.615596   3.630720   3.682270   3.092799   2.500583
    15  C    5.664370   4.436496   4.238280   3.663859   2.237757
    16  C    6.807574   5.590120   5.249619   4.906788   3.537611
    17  C    8.029190   6.788335   6.335251   6.131110   4.700995
    18  C    9.182794   7.960160   7.623552   7.156569   5.746818
    19  C   10.445794   9.207251   8.781024   8.449151   7.011262
    20  C   10.707616   9.456233   8.865058   8.854640   7.398407
    21  S   12.436933  11.185813  10.547872  10.604771   9.145734
    22  O   13.257104  12.016261  11.371586  11.446338  10.008656
    23  C   12.945732  11.714261  10.920052  11.315243   9.886013
    24  O   13.135054  11.885577  11.377612  11.155880   9.693486
    25  C    9.734113   8.490025   7.783602   8.041638   6.609606
    26  C    8.361259   7.115302   6.444484   6.669698   5.248855
    27  H    2.986895   1.905094   0.960002   2.546799   2.396192
    28  H    2.642757   2.063676   3.122504   1.090075   2.049174
    29  H    2.665120   2.063619   3.108805   1.089946   2.049103
    30  H    4.190349   3.492142   3.931451   2.913163   2.859673
    31  H    8.087568   7.040454   6.869224   6.326303   5.235677
    32  H    7.820406   6.610692   6.321714   5.816692   4.411001
    33  H    4.389358   3.457580   3.209114   3.382833   2.962382
    34  H    5.700098   4.717853   4.703902   4.099985   3.341218
    35  H    4.265476   3.483479   3.899096   2.822965   2.697687
    36  H    6.887168   5.735107   5.427758   5.107767   3.904652
    37  H    9.206755   8.027175   7.850275   7.099259   5.766705
    38  H   11.334269  10.108252   9.751421   9.272002   7.855209
    39  H   13.941046  12.712184  11.890788  12.333384  10.905645
    40  H   12.293899  11.080370  10.203613  10.797870   9.403102
    41  H   13.058765  11.834757  11.070499  11.411699   9.989674
    42  H   10.142616   8.919429   8.104278   8.599772   7.205479
    43  H    7.686895   6.461301   5.662772   6.198956   4.849974
                    6          7          8          9         10
     6  C    0.000000
     7  C    1.411321   0.000000
     8  C    2.427479   1.406887   0.000000
     9  F    3.617536   2.343597   1.304121   0.000000
    10  C    2.797291   2.440650   1.409574   2.353982   0.000000
    11  C    2.425505   2.826427   2.443929   3.633075   1.407888
    12  C    1.394278   2.445998   2.817760   4.121784   2.437932
    13  C    2.191790   3.579081   4.568984   5.800132   4.578453
    14  C    3.614062   4.958423   6.020871   7.231245   6.033186
    15  C    2.240401   3.583883   4.175960   5.476809   3.781161
    16  C    3.564851   4.852695   5.250394   6.548593   4.570108
    17  C    4.411201   5.509153   5.568698   6.806793   4.581157
    18  C    5.464906   6.525364   6.486571   7.685435   5.392647
    19  C    6.584778   7.514028   7.262513   8.369444   6.018420
    20  C    6.836958   7.642170   7.249137   8.276003   5.948887
    21  S    8.514632   9.214370   8.668103   9.576731   7.307598
    22  O    9.550063  10.395096   9.984228  10.971072   8.656049
    23  C    9.170078   9.731622   9.086361   9.871740   7.766147
    24  O    8.938966   9.504228   8.806453   9.606630   7.401603
    25  C    6.010543   6.772544   6.410849   7.435386   5.188885
    26  C    4.761081   5.662531   5.526708   6.667533   4.460160
    27  H    3.156907   3.994585   5.115971   6.090590   5.516009
    28  H    2.568531   2.677765   4.058938   4.736736   5.009889
    29  H    3.290254   4.066499   5.429388   6.340556   6.049594
    30  H    2.179423   1.089952   2.172132   2.609352   3.430470
    31  H    3.887305   3.426855   2.169443   2.616596   1.090015
    32  H    3.414945   3.916002   3.430511   4.518359   2.169405
    33  H    4.070972   5.354279   6.436106   7.615223   6.489207
    34  H    4.261010   5.656888   6.576056   7.836598   6.378050
    35  H    3.969203   5.196456   6.377570   7.516018   6.560752
    36  H    4.266879   5.636119   6.191592   7.495430   5.610228
    37  H    5.634430   6.751550   6.832008   8.045132   5.840832
    38  H    7.453788   8.372045   8.095283   9.173183   6.837421
    39  H   10.227818  10.813899  10.176327  10.954727   8.854673
    40  H    8.745250   9.339589   8.781785   9.599502   7.533806
    41  H    9.145631   9.557124   8.774362   9.443189   7.446500
    42  H    6.527978   7.150731   6.684577   7.597279   5.485630
    43  H    4.356522   5.190480   5.123944   6.233185   4.226133
                   11         12         13         14         15
    11  C    0.000000
    12  C    1.412900   0.000000
    13  C    3.606426   2.208635   0.000000
    14  C    4.991046   3.628340   1.466670   0.000000
    15  C    2.562096   1.382358   1.377106   2.515421   0.000000
    16  C    3.189269   2.465679   2.423496   2.984852   1.354129
    17  C    3.203973   3.085513   3.734418   4.364523   2.471508
    18  C    4.068464   4.131868   4.743842   5.227385   3.547339
    19  C    4.832499   5.202711   6.067880   6.589367   4.805726
    20  C    4.898378   5.452412   6.551157   7.185962   5.232234
    21  S    6.427838   7.137875   8.325472   8.946711   7.000065
    22  O    7.642918   8.163705   9.034281   9.428290   7.789574
    23  C    7.075119   7.867807   9.173379   9.865671   7.866100
    24  O    6.684608   7.580308   8.979427   9.718819   7.621045
    25  C    4.175042   4.688559   5.857218   6.589011   4.561556
    26  C    3.270754   3.466438   4.467292   5.218990   3.206343
    27  H    4.946976   3.736520   2.604602   2.941038   3.436602
    28  H    4.948817   3.896978   3.321322   4.092234   4.246919
    29  H    5.554097   4.231579   2.651347   2.736474   3.947559
    30  H    3.916350   3.432113   4.120168   5.356375   4.417587
    31  H    2.166794   3.425632   5.611610   7.051413   4.705516
    32  H    1.090050   2.177599   4.169280   5.417744   2.905673
    33  H    5.482312   4.136149   2.098778   1.089995   3.064639
    34  H    5.185643   3.949745   2.098817   1.089998   2.647788
    35  H    5.638657   4.255293   2.098798   1.090037   3.321908
    36  H    4.246356   3.374114   2.598771   2.571709   2.057128
    37  H    4.521342   4.410917   4.722549   5.051321   3.704720
    38  H    5.697646   6.090789   6.894751   7.339703   5.679752
    39  H    8.152664   8.917200  10.144923  10.764014   8.852798
    40  H    6.808422   7.488726   8.687654   9.341589   7.437345
    41  H    6.936397   7.885985   9.404690  10.232955   8.072339
    42  H    4.673736   5.290357   6.560944   7.339902   5.306916
    43  H    3.176098   3.239448   4.213936   5.031121   3.102955
                   16         17         18         19         20
    16  C    0.000000
    17  C    1.387950   0.000000
    18  C    2.420487   1.413566   0.000000
    19  C    3.708160   2.449779   1.406257   0.000000
    20  C    4.231033   2.846512   2.447812   1.410394   0.000000
    21  S    6.003218   4.621118   4.064289   2.743621   1.776310
    22  O    6.622504   5.319924   4.562148   3.252276   2.756281
    23  C    6.993378   5.650913   5.470974   4.321046   3.025422
    24  O    6.745344   5.386348   4.633657   3.304910   2.763120
    25  C    3.732049   2.456036   2.812572   2.431324   1.411619
    26  C    2.449132   1.415998   2.432899   2.808058   2.447973
    27  H    4.351174   5.446983   6.733176   7.895313   8.006402
    28  H    5.566214   6.688358   7.680083   8.925464   9.303860
    29  H    5.045262   6.364013   7.270119   8.626513   9.172340
    30  H    5.740580   6.507868   7.540331   8.571807   8.714693
    31  H    5.319521   5.079868   5.743989   6.136434   5.931432
    32  H    3.054184   2.616400   3.282198   3.854556   3.883165
    33  H    3.444574   4.744211   5.744242   7.033641   7.475686
    34  H    2.623271   3.925532   4.574670   5.935864   6.662043
    35  H    3.924383   5.309012   6.066226   7.457972   8.141847
    36  H    1.089974   2.120041   2.805111   4.113900   4.778742
    37  H    2.657066   2.173595   1.089951   2.161317   3.429172
    38  H    4.579008   3.432231   2.162276   1.089997   2.169165
    39  H    7.914813   6.573261   6.297384   5.074965   3.884470
    40  H    6.588031   5.322987   5.384690   4.425342   3.051251
    41  H    7.341249   6.009302   5.889315   4.781875   3.491392
    42  H    4.613236   3.439818   3.902364   3.421272   2.171148
    43  H    2.700443   2.174966   3.424211   3.898027   3.430366
                   21         22         23         24         25
    21  S    0.000000
    22  O    1.606314   0.000000
    23  C    1.832039   2.784091   0.000000
    24  O    1.605772   2.593152   2.794520   0.000000
    25  C    2.801894   3.878193   3.316681   3.864096   0.000000
    26  C    4.104841   5.024238   4.718653   5.053895   1.410039
    27  H    9.702545  10.474724  10.133578  10.567132   6.959444
    28  H   11.019250  11.965094  11.702824  11.450342   8.492484
    29  H   10.943339  11.663008  11.778385  11.505445   8.468669
    30  H   10.295507  11.466275  10.781481  10.592721   7.818213
    31  H    7.083270   8.531878   7.433932   7.014860   5.249770
    32  H    5.373899   6.606734   6.109288   5.599472   3.299319
    33  H    9.208450   9.660622   9.973714  10.121559   6.745590
    34  H    8.388459   8.729431   9.436684   9.168724   6.240698
    35  H    9.904906  10.378701  10.882455  10.596826   7.597917
    36  H    6.500387   6.880058   7.564347   7.329416   4.415618
    37  H    4.904276   5.220001   6.438087   5.301657   3.902345
    38  H    2.864513   3.031867   4.647555   3.087765   3.421070
    39  H    2.423955   2.806916   1.090022   3.251199   4.302681
    40  H    2.423974   3.270193   1.089922   3.670428   2.922711
    41  H    2.423919   3.649288   1.089979   2.838642   3.658065
    42  H    2.964437   4.144542   2.822223   4.078887   1.090030
    43  H    4.965347   5.925693   5.273736   5.950609   2.164887
                   26         27         28         29         30
    26  C    0.000000
    27  H    5.600170   0.000000
    28  H    7.174104   3.359578   0.000000
    29  H    7.079897   3.071696   1.887913   0.000000
    30  H    6.677281   4.117126   2.175904   3.904219   0.000000
    31  H    4.799550   6.529659   6.045755   7.132868   4.329871
    32  H    2.620183   5.676053   5.951111   6.373174   5.005823
    33  H    5.377236   2.439715   4.450461   3.138784   5.690136
    34  H    4.954505   3.894928   5.042099   3.693427   6.179940
    35  H    6.231083   3.372872   3.797283   2.115371   5.419534
    36  H    3.220256   4.500458   5.906083   5.034417   6.426414
    37  H    3.424999   6.970407   7.632579   7.068215   7.713447
    38  H    3.898023   8.862456   9.733280   9.379507   9.425293
    39  H    5.692729  11.091161  12.750003  12.768223  11.862902
    40  H    4.234689   9.426619  11.231660  11.280646  10.359402
    41  H    5.024097  10.336536  11.702990  11.948322  10.598717
    42  H    2.168536   7.335154   9.012812   9.117554   8.169402
    43  H    1.090016   4.865500   6.702032   6.715368   6.142967
                   31         32         33         34         35
    31  H    0.000000
    32  H    2.495103   0.000000
    33  H    7.502695   5.914937   0.000000
    34  H    7.326757   5.405159   1.780009   0.000000
    35  H    7.609697   6.157223   1.780034   1.779946   0.000000
    36  H    6.392776   4.129728   3.001365   1.891316   3.509281
    37  H    6.265433   3.865339   5.711018   4.284814   5.755274
    38  H    6.894246   4.708663   7.850689   6.600015   8.141890
    39  H    8.509244   7.177226  10.846025  10.284247  11.788733
    40  H    7.300054   5.927445   9.346383   8.967857  10.389642
    41  H    6.977311   5.992412  10.379335   9.881490  11.225745
    42  H    5.425409   3.877059   7.389425   7.084398   8.369061
    43  H    4.653081   2.836996   5.027835   4.974655   6.057092
                   36         37         38         39         40
    36  H    0.000000
    37  H    2.779557   0.000000
    38  H    4.865552   2.478447   0.000000
    39  H    8.407331   7.212967   5.245469   0.000000
    40  H    7.136809   6.414607   4.954675   1.779929   0.000000
    41  H    8.031558   6.861791   5.124924   1.779973   1.779924
    42  H    5.317402   4.992027   4.325355   3.828887   2.220780
    43  H    3.483774   4.332244   4.988009   6.254548   4.630833
                   41         42         43
    41  H    0.000000
    42  H    3.061837   0.000000
    43  H    5.505814   2.486910   0.000000
 Stoichiometry    C20H17FO4S
 Framework group  C1[X(C20H17FO4S)]
 Deg. of freedom   123
 Full point group                 C1      NOp   1
 Largest Abelian subgroup         C1      NOp   1
 Largest concise Abelian subgroup C1      NOp   1
                         Standard orientation:                         
 ---------------------------------------------------------------------
 Center     Atomic      Atomic             Coordinates (Angstroms)
 Number     Number       Type             X           Y           Z
 ---------------------------------------------------------------------
      1          8           0        6.772382   -1.127891    0.971250
      2          6           0        5.534328   -0.985652    0.843409
      3          8           0        4.758547   -1.096381    1.950540
      4          6           0        4.965623   -0.694334   -0.488310
      5          6           0        3.511625   -0.515519   -0.481713
      6          6           0        2.876144    0.694138   -0.405424
      7          6           0        3.398906    2.000192   -0.292424
      8          6           0        2.509148    3.089677   -0.266289
      9          9           0        2.978008    4.301741   -0.157647
     10          6           0        1.120254    2.871346   -0.367307
     11          6           0        0.613202    1.563371   -0.486675
     12          6           0        1.501870    0.465258   -0.460159
     13          6           0        2.561654   -1.470987   -0.536852
     14          6           0        2.815001   -2.914467   -0.594318
     15          6           0        1.307724   -0.902745   -0.502487
     16          6           0        0.141430   -1.590790   -0.498192
     17          6           0       -1.149635   -1.107802   -0.336086
     18          6           0       -2.110277   -1.333675   -1.348172
     19          6           0       -3.452740   -0.960622   -1.157952
     20          6           0       -3.866248   -0.346730    0.042614
     21         16           0       -5.588335    0.039142    0.244603
     22          8           0       -6.451751   -1.301795    0.053176
     23          6           0       -6.004089    0.749804    1.881208
     24          8           0       -6.041250    1.077093   -0.893831
     25          6           0       -2.905289   -0.083596    1.042606
     26          6           0       -1.562496   -0.473491    0.860678
     27          1           0        3.891627   -1.425545    1.702134
     28          1           0        5.379999    0.268221   -0.788382
     29          1           0        5.151243   -1.580506   -1.095127
     30          1           0        4.474273    2.165106   -0.226201
     31          1           0        0.434693    3.718654   -0.352927
     32          1           0       -0.459014    1.402101   -0.598719
     33          1           0        2.994801   -3.292110    0.412234
     34          1           0        1.948557   -3.418683   -1.022264
     35          1           0        3.689978   -3.105285   -1.215754
     36          1           0        0.255876   -2.665039   -0.642881
     37          1           0       -1.812323   -1.801059   -2.286665
     38          1           0       -4.179426   -1.149167   -1.948188
     39          1           0       -7.025908    0.478152    2.146237
     40          1           0       -5.317759    0.358675    2.632141
     41          1           0       -5.916103    1.835397    1.838787
     42          1           0       -3.201907    0.423616    1.960713
     43          1           0       -0.837540   -0.282931    1.652044
 ---------------------------------------------------------------------
 Rotational constants (GHZ):           0.3806207           0.0793367           0.0706452
 Leave Link  202 at Sun Oct 13 21:58:59 2019, MaxMem= 10737418240 cpu:               2.0 elap:               0.1
 (Enter /apps/cent7/gaussian/g16-A.03/g16-haswell/g16/l301.exe)
 Standard basis: 6-311++G(d,p) (5D, 7F)
 Ernie: Thresh=  0.10000D-02 Tol=  0.10000D-05 Strict=F.
 There are   725 symmetry adapted cartesian basis functions of A   symmetry.
 There are   699 symmetry adapted basis functions of A   symmetry.
   699 basis functions,  1103 primitive gaussians,   725 cartesian basis functions
    97 alpha electrons       97 beta electrons
       nuclear repulsion energy      2346.5796931258 Hartrees.
 IExCor= 4336 DFT=T Ex+Corr=M062X ExCW=0 ScaHFX=  0.540000
 ScaDFX=  1.000000  1.000000  1.000000  1.000000 ScalE2=  1.000000  1.000000
 IRadAn=      5 IRanWt=     -1 IRanGd=            0 ICorTp=0 IEmpDi=  4
 NAtoms=   43 NActive=   43 NUniq=   43 SFac= 1.00D+00 NAtFMM=   60 NAOKFM=F Big=F
 Integral buffers will be    131072 words long.
 Raffenetti 2 integral format.
 Two-electron integral symmetry is turned on.
 Leave Link  301 at Sun Oct 13 21:58:59 2019, MaxMem= 10737418240 cpu:               1.4 elap:               0.1
 (Enter /apps/cent7/gaussian/g16-A.03/g16-haswell/g16/l302.exe)
 NPDir=0 NMtPBC=     1 NCelOv=     1 NCel=       1 NClECP=     1 NCelD=      1
         NCelK=      1 NCelE2=     1 NClLst=     1 CellRange=     0.0.
 One-electron integrals computed using PRISM.
 One-electron integral symmetry used in STVInt
 NBasis=   699 RedAO= T EigKep=  1.09D-06  NBF=   699
 NBsUse=   690 1.00D-06 EigRej=  7.44D-07 NBFU=   690
 Precomputing XC quadrature grid using
 IXCGrd= 4 IRadAn=           5 IRanWt=          -1 IRanGd=           0 AccXCQ= 0.00D+00.
 Generated NRdTot=       0 NPtTot=           0 NUsed=           0 NTot=          32
 NSgBfM=   709   709   709   709   709 MxSgAt=    43 MxSgA2=    43.
 Leave Link  302 at Sun Oct 13 21:59:00 2019, MaxMem= 10737418240 cpu:              18.5 elap:               0.8
 (Enter /apps/cent7/gaussian/g16-A.03/g16-haswell/g16/l303.exe)
 DipDrv:  MaxL=1.
 Leave Link  303 at Sun Oct 13 21:59:00 2019, MaxMem= 10737418240 cpu:               2.1 elap:               0.1
 (Enter /apps/cent7/gaussian/g16-A.03/g16-haswell/g16/l401.exe)
 ExpMin= 3.60D-02 ExpMax= 9.34D+04 ExpMxC= 3.17D+03 IAcc=3 IRadAn=         5 AccDes= 0.00D+00
 Harris functional with IExCor= 1009 and IRadAn=       5 diagonalized for initial guess.
 HarFok:  IExCor= 1009 AccDes= 0.00D+00 IRadAn=         5 IDoV= 1 UseB2=F ITyADJ=14
 ICtDFT=  3500011 ScaDFX=  1.000000  1.000000  1.000000  1.000000
 FoFCou: FMM=F IPFlag=           0 FMFlag=      100000 FMFlg1=           0
         NFxFlg=           0 DoJE=T BraDBF=F KetDBF=T FulRan=T
         wScrn=  0.000000 ICntrl=       500 IOpCl=  0 I1Cent=   200000004 NGrid=           0
         NMat0=    1 NMatS0=      1 NMatT0=    0 NMatD0=    1 NMtDS0=    0 NMtDT0=    0
 Petite list used in FoFCou.
 Harris En= -1570.37047438642    
 JPrj=0 DoOrth=F DoCkMO=F.
 Leave Link  401 at Sun Oct 13 21:59:02 2019, MaxMem= 10737418240 cpu:              45.4 elap:               1.9
 (Enter /apps/cent7/gaussian/g16-A.03/g16-haswell/g16/l502.exe)
 Integral symmetry usage will be decided dynamically.
 Closed shell SCF:
 Using DIIS extrapolation, IDIIS=  1040.
 NGot= 10737418240 LenX= 10736342788 LenY= 10735816438
 Requested convergence on RMS density matrix=1.00D-08 within 128 cycles.
 Requested convergence on MAX density matrix=1.00D-06.
 Requested convergence on             energy=1.00D-06.
 No special actions if energy rises.
 Fock matrices will be formed incrementally for  20 cycles.

 Cycle   1  Pass 1  IDiag  1:
 FoFJK:  IHMeth= 1 ICntrl=       0 DoSepK=F KAlg= 0 I1Cent=           0 FoldK=F
 IRaf= 780000000 NMat=       1 IRICut=       1 DoRegI=T DoRafI=F ISym2E= 0 IDoP0=0 IntGTp=1.
 FoFCou: FMM=F IPFlag=           0 FMFlag=      100000 FMFlg1=           0
         NFxFlg=           0 DoJE=F BraDBF=F KetDBF=F FulRan=T
         wScrn=  0.000000 ICntrl=         0 IOpCl=  0 I1Cent=           0 NGrid=           0
         NMat0=    1 NMatS0=      1 NMatT0=    0 NMatD0=    1 NMtDS0=    0 NMtDT0=    0
 Symmetry not used in FoFCou.
 E= -1570.09659917351    
 DIIS: error= 3.55D-02 at cycle   1 NSaved=   1.
 NSaved= 1 IEnMin= 1 EnMin= -1570.09659917351     IErMin= 1 ErrMin= 3.55D-02
 ErrMax= 3.55D-02  0.00D+00 EMaxC= 1.00D-01 BMatC= 1.19D+00 BMatP= 1.19D+00
 IDIUse=3 WtCom= 6.45D-01 WtEn= 3.55D-01
 Coeff-Com:  0.100D+01
 Coeff-En:   0.100D+01
 Coeff:      0.100D+01
 Gap=     0.190 Goal=   None    Shift=    0.000
 GapD=    0.190 DampG=1.000 DampE=0.500 DampFc=0.5000 IDamp=-1.
 Damping current iteration by 5.00D-01
 RMSDP=1.43D-01 MaxDP=1.21D+01              OVMax= 2.59D-01

 Cycle   2  Pass 1  IDiag  1:
 RMSU=  6.39D-02    CP:  1.47D+00
 E= -1570.39942072143     Delta-E=       -0.302821547928 Rises=F Damp=T
 DIIS: error= 1.25D-02 at cycle   2 NSaved=   2.
 NSaved= 2 IEnMin= 2 EnMin= -1570.39942072143     IErMin= 2 ErrMin= 1.25D-02
 ErrMax= 1.25D-02  0.00D+00 EMaxC= 1.00D-01 BMatC= 1.46D-01 BMatP= 1.19D+00
 IDIUse=3 WtCom= 8.75D-01 WtEn= 1.25D-01
 Coeff-Com:  0.110D+00 0.890D+00
 Coeff-En:   0.247D+00 0.753D+00
 Coeff:      0.127D+00 0.873D+00
 Gap=     0.322 Goal=   None    Shift=    0.000
 RMSDP=5.61D-02 MaxDP=4.67D+00 DE=-3.03D-01 OVMax= 2.34D-01

 Cycle   3  Pass 1  IDiag  1:
 RMSU=  1.33D-02    CP:  9.98D-01  3.18D-01
 E= -1570.87138373133     Delta-E=       -0.471963009892 Rises=F Damp=F
 DIIS: error= 1.57D-02 at cycle   3 NSaved=   3.
 NSaved= 3 IEnMin= 3 EnMin= -1570.87138373133     IErMin= 2 ErrMin= 1.25D-02
 ErrMax= 1.57D-02  0.00D+00 EMaxC= 1.00D-01 BMatC= 1.13D-01 BMatP= 1.46D-01
 IDIUse=3 WtCom= 8.43D-01 WtEn= 1.57D-01
 Coeff-Com: -0.423D-01 0.471D+00 0.571D+00
 Coeff-En:   0.000D+00 0.000D+00 0.100D+01
 Coeff:     -0.357D-01 0.397D+00 0.639D+00
 Gap=     0.193 Goal=   None    Shift=    0.000
 RMSDP=2.34D-02 MaxDP=1.96D+00 DE=-4.72D-01 OVMax= 8.31D-02

 Cycle   4  Pass 1  IDiag  1:
 RMSU=  4.11D-03    CP:  1.15D+00  6.28D-01  6.36D-01
 E= -1570.95028679014     Delta-E=       -0.078903058809 Rises=F Damp=F
 DIIS: error= 4.56D-03 at cycle   4 NSaved=   4.
 NSaved= 4 IEnMin= 4 EnMin= -1570.95028679014     IErMin= 4 ErrMin= 4.56D-03
 ErrMax= 4.56D-03  0.00D+00 EMaxC= 1.00D-01 BMatC= 1.99D-02 BMatP= 1.13D-01
 IDIUse=3 WtCom= 9.54D-01 WtEn= 4.56D-02
 Coeff-Com: -0.181D-01 0.799D-01 0.328D+00 0.610D+00
 Coeff-En:   0.000D+00 0.000D+00 0.149D+00 0.851D+00
 Coeff:     -0.173D-01 0.763D-01 0.320D+00 0.621D+00
 Gap=     0.189 Goal=   None    Shift=    0.000
 RMSDP=7.95D-03 MaxDP=6.42D-01 DE=-7.89D-02 OVMax= 3.02D-02

 Cycle   5  Pass 1  IDiag  1:
 RMSU=  1.30D-03    CP:  1.08D+00  5.39D-01  7.72D-01  6.79D-01
 E= -1570.96622961893     Delta-E=       -0.015942828798 Rises=F Damp=F
 DIIS: error= 1.39D-03 at cycle   5 NSaved=   5.
 NSaved= 5 IEnMin= 5 EnMin= -1570.96622961893     IErMin= 5 ErrMin= 1.39D-03
 ErrMax= 1.39D-03  0.00D+00 EMaxC= 1.00D-01 BMatC= 1.08D-03 BMatP= 1.99D-02
 IDIUse=3 WtCom= 9.86D-01 WtEn= 1.39D-02
 Coeff-Com: -0.609D-02 0.100D-01 0.123D+00 0.319D+00 0.554D+00
 Coeff-En:   0.000D+00 0.000D+00 0.000D+00 0.000D+00 0.100D+01
 Coeff:     -0.601D-02 0.989D-02 0.121D+00 0.314D+00 0.561D+00
 Gap=     0.192 Goal=   None    Shift=    0.000
 RMSDP=5.90D-04 MaxDP=4.31D-02 DE=-1.59D-02 OVMax= 8.25D-03

 Cycle   6  Pass 1  IDiag  1:
 RMSU=  3.36D-04    CP:  1.08D+00  5.43D-01  7.55D-01  7.28D-01  8.39D-01
 E= -1570.96714174974     Delta-E=       -0.000912130805 Rises=F Damp=F
 DIIS: error= 4.53D-04 at cycle   6 NSaved=   6.
 NSaved= 6 IEnMin= 6 EnMin= -1570.96714174974     IErMin= 6 ErrMin= 4.53D-04
 ErrMax= 4.53D-04  0.00D+00 EMaxC= 1.00D-01 BMatC= 1.13D-04 BMatP= 1.08D-03
 IDIUse=3 WtCom= 9.95D-01 WtEn= 4.53D-03
 Coeff-Com: -0.375D-03-0.459D-02 0.205D-01 0.799D-01 0.279D+00 0.626D+00
 Coeff-En:   0.000D+00 0.000D+00 0.000D+00 0.000D+00 0.239D-01 0.976D+00
 Coeff:     -0.373D-03-0.457D-02 0.204D-01 0.795D-01 0.278D+00 0.627D+00
 Gap=     0.191 Goal=   None    Shift=    0.000
 RMSDP=2.73D-04 MaxDP=2.22D-02 DE=-9.12D-04 OVMax= 3.96D-03

 Cycle   7  Pass 1  IDiag  1:
 RMSU=  1.54D-04    CP:  1.08D+00  5.40D-01  7.56D-01  7.30D-01  8.43D-01
                    CP:  8.36D-01
 E= -1570.96725571697     Delta-E=       -0.000113967231 Rises=F Damp=F
 DIIS: error= 9.66D-05 at cycle   7 NSaved=   7.
 NSaved= 7 IEnMin= 7 EnMin= -1570.96725571697     IErMin= 7 ErrMin= 9.66D-05
 ErrMax= 9.66D-05  0.00D+00 EMaxC= 1.00D-01 BMatC= 1.77D-05 BMatP= 1.13D-04
 IDIUse=1 WtCom= 1.00D+00 WtEn= 0.00D+00
 Coeff-Com:  0.933D-03-0.396D-02-0.938D-02-0.115D-01 0.441D-01 0.319D+00
 Coeff-Com:  0.661D+00
 Coeff:      0.933D-03-0.396D-02-0.938D-02-0.115D-01 0.441D-01 0.319D+00
 Coeff:      0.661D+00
 Gap=     0.192 Goal=   None    Shift=    0.000
 RMSDP=1.62D-04 MaxDP=1.17D-02 DE=-1.14D-04 OVMax= 1.53D-03

 Cycle   8  Pass 1  IDiag  1:
 RMSU=  6.87D-05    CP:  1.08D+00  5.38D-01  7.60D-01  7.29D-01  8.44D-01
                    CP:  8.88D-01  7.64D-01
 E= -1570.96727592667     Delta-E=       -0.000020209699 Rises=F Damp=F
 DIIS: error= 3.69D-05 at cycle   8 NSaved=   8.
 NSaved= 8 IEnMin= 8 EnMin= -1570.96727592667     IErMin= 8 ErrMin= 3.69D-05
 ErrMax= 3.69D-05  0.00D+00 EMaxC= 1.00D-01 BMatC= 1.88D-06 BMatP= 1.77D-05
 IDIUse=1 WtCom= 1.00D+00 WtEn= 0.00D+00
 Coeff-Com:  0.518D-03-0.129D-02-0.738D-02-0.168D-01-0.231D-01 0.548D-01
 Coeff-Com:  0.282D+00 0.711D+00
 Coeff:      0.518D-03-0.129D-02-0.738D-02-0.168D-01-0.231D-01 0.548D-01
 Coeff:      0.282D+00 0.711D+00
 Gap=     0.192 Goal=   None    Shift=    0.000
 RMSDP=8.08D-05 MaxDP=5.90D-03 DE=-2.02D-05 OVMax= 5.48D-04

 Cycle   9  Pass 1  IDiag  1:
 RMSU=  3.81D-05    CP:  1.08D+00  5.37D-01  7.60D-01  7.30D-01  8.52D-01
                    CP:  9.14D-01  7.22D-01  9.38D-01
 E= -1570.96727839285     Delta-E=       -0.000002466182 Rises=F Damp=F
 DIIS: error= 2.46D-05 at cycle   9 NSaved=   9.
 NSaved= 9 IEnMin= 9 EnMin= -1570.96727839285     IErMin= 9 ErrMin= 2.46D-05
 ErrMax= 2.46D-05  0.00D+00 EMaxC= 1.00D-01 BMatC= 4.54D-07 BMatP= 1.88D-06
 IDIUse=1 WtCom= 1.00D+00 WtEn= 0.00D+00
 Coeff-Com:  0.116D-03-0.108D-04-0.247D-02-0.719D-02-0.209D-01-0.231D-01
 Coeff-Com:  0.400D-01 0.371D+00 0.642D+00
 Coeff:      0.116D-03-0.108D-04-0.247D-02-0.719D-02-0.209D-01-0.231D-01
 Coeff:      0.400D-01 0.371D+00 0.642D+00
 Gap=     0.192 Goal=   None    Shift=    0.000
 RMSDP=5.06D-05 MaxDP=4.61D-03 DE=-2.47D-06 OVMax= 2.99D-04

 Cycle  10  Pass 1  IDiag  1:
 RMSU=  1.16D-05    CP:  1.08D+00  5.36D-01  7.60D-01  7.30D-01  8.54D-01
                    CP:  9.28D-01  7.27D-01  1.12D+00  1.01D+00
 E= -1570.96727895718     Delta-E=       -0.000000564328 Rises=F Damp=F
 DIIS: error= 9.87D-06 at cycle  10 NSaved=  10.
 NSaved=10 IEnMin=10 EnMin= -1570.96727895718     IErMin=10 ErrMin= 9.87D-06
 ErrMax= 9.87D-06  0.00D+00 EMaxC= 1.00D-01 BMatC= 6.52D-08 BMatP= 4.54D-07
 IDIUse=1 WtCom= 1.00D+00 WtEn= 0.00D+00
 Coeff-Com: -0.218D-04 0.183D-03-0.118D-03-0.965D-03-0.743D-02-0.209D-01
 Coeff-Com: -0.247D-01 0.681D-01 0.302D+00 0.684D+00
 Coeff:     -0.218D-04 0.183D-03-0.118D-03-0.965D-03-0.743D-02-0.209D-01
 Coeff:     -0.247D-01 0.681D-01 0.302D+00 0.684D+00
 Gap=     0.192 Goal=   None    Shift=    0.000
 RMSDP=1.47D-05 MaxDP=1.30D-03 DE=-5.64D-07 OVMax= 1.23D-04

 Cycle  11  Pass 1  IDiag  1:
 RMSU=  4.49D-06    CP:  1.08D+00  5.36D-01  7.60D-01  7.29D-01  8.53D-01
                    CP:  9.30D-01  7.36D-01  1.16D+00  1.11D+00  1.22D+00
 E= -1570.96727903441     Delta-E=       -0.000000077227 Rises=F Damp=F
 DIIS: error= 4.77D-06 at cycle  11 NSaved=  11.
 NSaved=11 IEnMin=11 EnMin= -1570.96727903441     IErMin=11 ErrMin= 4.77D-06
 ErrMax= 4.77D-06  0.00D+00 EMaxC= 1.00D-01 BMatC= 1.22D-08 BMatP= 6.52D-08
 IDIUse=1 WtCom= 1.00D+00 WtEn= 0.00D+00
 Coeff-Com: -0.286D-04 0.830D-04 0.390D-03 0.885D-03 0.241D-03-0.524D-02
 Coeff-Com: -0.172D-01-0.386D-01 0.142D-01 0.339D+00 0.706D+00
 Coeff:     -0.286D-04 0.830D-04 0.390D-03 0.885D-03 0.241D-03-0.524D-02
 Coeff:     -0.172D-01-0.386D-01 0.142D-01 0.339D+00 0.706D+00
 Gap=     0.192 Goal=   None    Shift=    0.000
 RMSDP=9.62D-06 MaxDP=8.67D-04 DE=-7.72D-08 OVMax= 6.63D-05

 Cycle  12  Pass 1  IDiag  1:
 RMSU=  1.61D-06    CP:  1.08D+00  5.36D-01  7.60D-01  7.29D-01  8.52D-01
                    CP:  9.32D-01  7.35D-01  1.19D+00  1.15D+00  1.37D+00
                    CP:  1.17D+00
 E= -1570.96727904878     Delta-E=       -0.000000014376 Rises=F Damp=F
 DIIS: error= 8.91D-07 at cycle  12 NSaved=  12.
 NSaved=12 IEnMin=12 EnMin= -1570.96727904878     IErMin=12 ErrMin= 8.91D-07
 ErrMax= 8.91D-07  0.00D+00 EMaxC= 1.00D-01 BMatC= 9.58D-10 BMatP= 1.22D-08
 IDIUse=1 WtCom= 1.00D+00 WtEn= 0.00D+00
 Coeff-Com: -0.696D-05 0.118D-04 0.148D-03 0.387D-03 0.734D-03-0.540D-04
 Coeff-Com: -0.381D-02-0.204D-01-0.244D-01 0.545D-01 0.260D+00 0.733D+00
 Coeff:     -0.696D-05 0.118D-04 0.148D-03 0.387D-03 0.734D-03-0.540D-04
 Coeff:     -0.381D-02-0.204D-01-0.244D-01 0.545D-01 0.260D+00 0.733D+00
 Gap=     0.192 Goal=   None    Shift=    0.000
 RMSDP=2.61D-06 MaxDP=2.67D-04 DE=-1.44D-08 OVMax= 1.75D-05

 Cycle  13  Pass 1  IDiag  1:
 RMSU=  6.32D-07    CP:  1.08D+00  5.36D-01  7.60D-01  7.29D-01  8.52D-01
                    CP:  9.32D-01  7.35D-01  1.20D+00  1.17D+00  1.45D+00
                    CP:  1.26D+00  9.93D-01
 E= -1570.96727905013     Delta-E=       -0.000000001348 Rises=F Damp=F
 DIIS: error= 4.45D-07 at cycle  13 NSaved=  13.
 NSaved=13 IEnMin=13 EnMin= -1570.96727905013     IErMin=13 ErrMin= 4.45D-07
 ErrMax= 4.45D-07  0.00D+00 EMaxC= 1.00D-01 BMatC= 2.27D-10 BMatP= 9.58D-10
 IDIUse=1 WtCom= 1.00D+00 WtEn= 0.00D+00
 Coeff-Com:  0.144D-05-0.702D-05 0.589D-05 0.327D-04 0.337D-03 0.891D-03
 Coeff-Com:  0.106D-02-0.342D-02-0.138D-01-0.286D-01 0.471D-02 0.352D+00
 Coeff-Com:  0.687D+00
 Coeff:      0.144D-05-0.702D-05 0.589D-05 0.327D-04 0.337D-03 0.891D-03
 Coeff:      0.106D-02-0.342D-02-0.138D-01-0.286D-01 0.471D-02 0.352D+00
 Coeff:      0.687D+00
 Gap=     0.192 Goal=   None    Shift=    0.000
 RMSDP=1.25D-06 MaxDP=1.36D-04 DE=-1.35D-09 OVMax= 8.51D-06

 Cycle  14  Pass 1  IDiag  1:
 RMSU=  2.57D-07    CP:  1.08D+00  5.36D-01  7.60D-01  7.29D-01  8.52D-01
                    CP:  9.32D-01  7.35D-01  1.20D+00  1.17D+00  1.48D+00
                    CP:  1.33D+00  1.19D+00  1.20D+00
 E= -1570.96727905046     Delta-E=       -0.000000000332 Rises=F Damp=F
 DIIS: error= 1.45D-07 at cycle  14 NSaved=  14.
 NSaved=14 IEnMin=14 EnMin= -1570.96727905046     IErMin=14 ErrMin= 1.45D-07
 ErrMax= 1.45D-07  0.00D+00 EMaxC= 1.00D-01 BMatC= 2.83D-11 BMatP= 2.27D-10
 IDIUse=1 WtCom= 1.00D+00 WtEn= 0.00D+00
 Coeff-Com:  0.126D-05-0.395D-05-0.204D-04-0.471D-04 0.349D-04 0.348D-03
 Coeff-Com:  0.980D-03 0.195D-02-0.120D-02-0.193D-01-0.439D-01 0.288D-01
 Coeff-Com:  0.279D+00 0.753D+00
 Coeff:      0.126D-05-0.395D-05-0.204D-04-0.471D-04 0.349D-04 0.348D-03
 Coeff:      0.980D-03 0.195D-02-0.120D-02-0.193D-01-0.439D-01 0.288D-01
 Coeff:      0.279D+00 0.753D+00
 Gap=     0.192 Goal=   None    Shift=    0.000
 RMSDP=4.28D-07 MaxDP=4.33D-05 DE=-3.32D-10 OVMax= 3.44D-06

 Cycle  15  Pass 1  IDiag  1:
 RMSU=  1.11D-07    CP:  1.08D+00  5.36D-01  7.60D-01  7.29D-01  8.52D-01
                    CP:  9.32D-01  7.35D-01  1.20D+00  1.17D+00  1.49D+00
                    CP:  1.35D+00  1.26D+00  1.27D+00  9.05D-01
 E= -1570.96727905051     Delta-E=       -0.000000000045 Rises=F Damp=F
 DIIS: error= 6.74D-08 at cycle  15 NSaved=  15.
 NSaved=15 IEnMin=15 EnMin= -1570.96727905051     IErMin=15 ErrMin= 6.74D-08
 ErrMax= 6.74D-08  0.00D+00 EMaxC= 1.00D-01 BMatC= 6.55D-12 BMatP= 2.83D-11
 IDIUse=1 WtCom= 1.00D+00 WtEn= 0.00D+00
 Coeff-Com:  0.185D-06-0.459D-06-0.120D-04-0.294D-04-0.341D-04 0.227D-04
 Coeff-Com:  0.337D-03 0.149D-02 0.162D-02-0.497D-02-0.239D-01-0.414D-01
 Coeff-Com:  0.322D-01 0.384D+00 0.650D+00
 Coeff:      0.185D-06-0.459D-06-0.120D-04-0.294D-04-0.341D-04 0.227D-04
 Coeff:      0.337D-03 0.149D-02 0.162D-02-0.497D-02-0.239D-01-0.414D-01
 Coeff:      0.322D-01 0.384D+00 0.650D+00
 Gap=     0.192 Goal=   None    Shift=    0.000
 RMSDP=1.05D-07 MaxDP=1.03D-05 DE=-4.50D-11 OVMax= 1.12D-06

 Cycle  16  Pass 1  IDiag  1:
 RMSU=  3.35D-08    CP:  1.08D+00  5.36D-01  7.60D-01  7.29D-01  8.52D-01
                    CP:  9.32D-01  7.36D-01  1.20D+00  1.17D+00  1.49D+00
                    CP:  1.36D+00  1.27D+00  1.31D+00  1.01D+00  9.11D-01
 E= -1570.96727905044     Delta-E=        0.000000000066 Rises=F Damp=F
 DIIS: error= 2.91D-08 at cycle  16 NSaved=  16.
 NSaved=16 IEnMin=15 EnMin= -1570.96727905051     IErMin=16 ErrMin= 2.91D-08
 ErrMax= 2.91D-08  0.00D+00 EMaxC= 1.00D-01 BMatC= 8.63D-13 BMatP= 6.55D-12
 IDIUse=1 WtCom= 1.00D+00 WtEn= 0.00D+00
 Coeff-Com: -0.157D-06 0.438D-06-0.348D-05-0.780D-05-0.221D-04-0.411D-04
 Coeff-Com:  0.404D-04 0.451D-03 0.953D-03 0.249D-03-0.570D-02-0.236D-01
 Coeff-Com: -0.231D-01 0.772D-01 0.300D+00 0.674D+00
 Coeff:     -0.157D-06 0.438D-06-0.348D-05-0.780D-05-0.221D-04-0.411D-04
 Coeff:      0.404D-04 0.451D-03 0.953D-03 0.249D-03-0.570D-02-0.236D-01
 Coeff:     -0.231D-01 0.772D-01 0.300D+00 0.674D+00
 Gap=     0.192 Goal=   None    Shift=    0.000
 RMSDP=4.64D-08 MaxDP=3.80D-06 DE= 6.64D-11 OVMax= 3.91D-07

 Cycle  17  Pass 1  IDiag  1:
 RMSU=  1.49D-08    CP:  1.08D+00  5.36D-01  7.60D-01  7.29D-01  8.52D-01
                    CP:  9.32D-01  7.36D-01  1.20D+00  1.17D+00  1.49D+00
                    CP:  1.36D+00  1.28D+00  1.32D+00  1.01D+00  1.05D+00
                    CP:  7.87D-01
 E= -1570.96727905056     Delta-E=       -0.000000000120 Rises=F Damp=F
 DIIS: error= 1.17D-08 at cycle  17 NSaved=  17.
 NSaved=17 IEnMin=17 EnMin= -1570.96727905056     IErMin=17 ErrMin= 1.17D-08
 ErrMax= 1.17D-08  0.00D+00 EMaxC= 1.00D-01 BMatC= 1.88D-13 BMatP= 8.63D-13
 IDIUse=1 WtCom= 1.00D+00 WtEn= 0.00D+00
 Coeff-Com: -0.132D-06 0.335D-06-0.190D-06 0.323D-06-0.692D-05-0.272D-04
 Coeff-Com: -0.291D-04 0.284D-05 0.249D-03 0.941D-03 0.631D-03-0.630D-02
 Coeff-Com: -0.180D-01-0.180D-01 0.623D-01 0.383D+00 0.595D+00
 Coeff:     -0.132D-06 0.335D-06-0.190D-06 0.323D-06-0.692D-05-0.272D-04
 Coeff:     -0.291D-04 0.284D-05 0.249D-03 0.941D-03 0.631D-03-0.630D-02
 Coeff:     -0.180D-01-0.180D-01 0.623D-01 0.383D+00 0.595D+00
 Gap=     0.192 Goal=   None    Shift=    0.000
 RMSDP=1.25D-08 MaxDP=1.06D-06 DE=-1.20D-10 OVMax= 1.19D-07

 Cycle  18  Pass 1  IDiag  1:
 RMSU=  4.58D-09    CP:  1.08D+00  5.36D-01  7.60D-01  7.29D-01  8.52D-01
                    CP:  9.32D-01  7.36D-01  1.20D+00  1.17D+00  1.49D+00
                    CP:  1.36D+00  1.29D+00  1.33D+00  1.03D+00  1.05D+00
                    CP:  9.27D-01  7.20D-01
 E= -1570.96727905052     Delta-E=        0.000000000043 Rises=F Damp=F
 DIIS: error= 3.77D-09 at cycle  18 NSaved=  18.
 NSaved=18 IEnMin=17 EnMin= -1570.96727905056     IErMin=18 ErrMin= 3.77D-09
 ErrMax= 3.77D-09  0.00D+00 EMaxC= 1.00D-01 BMatC= 1.48D-14 BMatP= 1.88D-13
 IDIUse=1 WtCom= 1.00D+00 WtEn= 0.00D+00
 Coeff-Com: -0.385D-07 0.966D-07 0.244D-06 0.906D-06-0.695D-06-0.706D-05
 Coeff-Com: -0.158D-04-0.482D-04-0.377D-06 0.382D-03 0.860D-03-0.892D-05
 Coeff-Com: -0.515D-02-0.156D-01-0.715D-02 0.861D-01 0.259D+00 0.681D+00
 Coeff:     -0.385D-07 0.966D-07 0.244D-06 0.906D-06-0.695D-06-0.706D-05
 Coeff:     -0.158D-04-0.482D-04-0.377D-06 0.382D-03 0.860D-03-0.892D-05
 Coeff:     -0.515D-02-0.156D-01-0.715D-02 0.861D-01 0.259D+00 0.681D+00
 Gap=     0.192 Goal=   None    Shift=    0.000
 RMSDP=4.59D-09 MaxDP=3.54D-07 DE= 4.27D-11 OVMax= 5.69D-08

 SCF Done:  E(RM062X) =  -1570.96727905     A.U. after   18 cycles
            NFock= 18  Conv=0.46D-08     -V/T= 2.0031
 KE= 1.566124677010D+03 PE=-8.375293968413D+03 EE= 2.891622319226D+03
 Leave Link  502 at Sun Oct 13 22:02:24 2019, MaxMem= 10737418240 cpu:            4832.3 elap:             202.0
 (Enter /apps/cent7/gaussian/g16-A.03/g16-haswell/g16/l601.exe)
 Copying SCF densities to generalized density rwf, IOpCl= 0 IROHF=0.

 **********************************************************************

            Population analysis using the SCF density.

 **********************************************************************

 Orbital symmetries:
       Occupied  (A) (A) (A) (A) (A) (A) (A) (A) (A) (A) (A) (A)
                 (A) (A) (A) (A) (A) (A) (A) (A) (A) (A) (A) (A)
                 (A) (A) (A) (A) (A) (A) (A) (A) (A) (A) (A) (A)
                 (A) (A) (A) (A) (A) (A) (A) (A) (A) (A) (A) (A)
                 (A) (A) (A) (A) (A) (A) (A) (A) (A) (A) (A) (A)
                 (A) (A) (A) (A) (A) (A) (A) (A) (A) (A) (A) (A)
                 (A) (A) (A) (A) (A) (A) (A) (A) (A) (A) (A) (A)
                 (A) (A) (A) (A) (A) (A) (A) (A) (A) (A) (A) (A)
                 (A)
       Virtual   (A) (A) (A) (A) (A) (A) (A) (A) (A) (A) (A) (A)
                 (A) (A) (A) (A) (A) (A) (A) (A) (A) (A) (A) (A)
                 (A) (A) (A) (A) (A) (A) (A) (A) (A) (A) (A) (A)
                 (A) (A) (A) (A) (A) (A) (A) (A) (A) (A) (A) (A)
                 (A) (A) (A) (A) (A) (A) (A) (A) (A) (A) (A) (A)
                 (A) (A) (A) (A) (A) (A) (A) (A) (A) (A) (A) (A)
                 (A) (A) (A) (A) (A) (A) (A) (A) (A) (A) (A) (A)
                 (A) (A) (A) (A) (A) (A) (A) (A) (A) (A) (A) (A)
                 (A) (A) (A) (A) (A) (A) (A) (A) (A) (A) (A) (A)
                 (A) (A) (A) (A) (A) (A) (A) (A) (A) (A) (A) (A)
                 (A) (A) (A) (A) (A) (A) (A) (A) (A) (A) (A) (A)
                 (A) (A) (A) (A) (A) (A) (A) (A) (A) (A) (A) (A)
                 (A) (A) (A) (A) (A) (A) (A) (A) (A) (A) (A) (A)
                 (A) (A) (A) (A) (A) (A) (A) (A) (A) (A) (A) (A)
                 (A) (A) (A) (A) (A) (A) (A) (A) (A) (A) (A) (A)
                 (A) (A) (A) (A) (A) (A) (A) (A) (A) (A) (A) (A)
                 (A) (A) (A) (A) (A) (A) (A) (A) (A) (A) (A) (A)
                 (A) (A) (A) (A) (A) (A) (A) (A) (A) (A) (A) (A)
                 (A) (A) (A) (A) (A) (A) (A) (A) (A) (A) (A) (A)
                 (A) (A) (A) (A) (A) (A) (A) (A) (A) (A) (A) (A)
                 (A) (A) (A) (A) (A) (A) (A) (A) (A) (A) (A) (A)
                 (A) (A) (A) (A) (A) (A) (A) (A) (A) (A) (A) (A)
                 (A) (A) (A) (A) (A) (A) (A) (A) (A) (A) (A) (A)
                 (A) (A) (A) (A) (A) (A) (A) (A) (A) (A) (A) (A)
                 (A) (A) (A) (A) (A) (A) (A) (A) (A) (A) (A) (A)
                 (A) (A) (A) (A) (A) (A) (A) (A) (A) (A) (A) (A)
                 (A) (A) (A) (A) (A) (A) (A) (A) (A) (A) (A) (A)
                 (A) (A) (A) (A) (A) (A) (A) (A) (A) (A) (A) (A)
                 (A) (A) (A) (A) (A) (A) (A) (A) (A) (A) (A) (A)
                 (A) (A) (A) (A) (A) (A) (A) (A) (A) (A) (A) (A)
                 (A) (A) (A) (A) (A) (A) (A) (A) (A) (A) (A) (A)
                 (A) (A) (A) (A) (A) (A) (A) (A) (A) (A) (A) (A)
                 (A) (A) (A) (A) (A) (A) (A) (A) (A) (A) (A) (A)
                 (A) (A) (A) (A) (A) (A) (A) (A) (A) (A) (A) (A)
                 (A) (A) (A) (A) (A) (A) (A) (A) (A) (A) (A) (A)
                 (A) (A) (A) (A) (A) (A) (A) (A) (A) (A) (A) (A)
                 (A) (A) (A) (A) (A) (A) (A) (A) (A) (A) (A) (A)
                 (A) (A) (A) (A) (A) (A) (A) (A) (A) (A) (A) (A)
                 (A) (A) (A) (A) (A) (A) (A) (A) (A) (A) (A) (A)
                 (A) (A) (A) (A) (A) (A) (A) (A) (A) (A) (A) (A)
                 (A) (A) (A) (A) (A) (A) (A) (A) (A) (A) (A) (A)
                 (A) (A) (A) (A) (A) (A) (A) (A) (A) (A) (A) (A)
                 (A) (A) (A) (A) (A) (A) (A) (A) (A) (A) (A) (A)
                 (A) (A) (A) (A) (A) (A) (A) (A) (A) (A) (A) (A)
                 (A) (A) (A) (A) (A) (A) (A) (A) (A) (A) (A) (A)
                 (A) (A) (A) (A) (A) (A) (A) (A) (A) (A) (A) (A)
                 (A) (A) (A) (A) (A) (A) (A) (A) (A) (A) (A) (A)
                 (A) (A) (A) (A) (A) (A) (A) (A) (A) (A) (A) (A)
                 (A) (A) (A) (A) (A) (A) (A) (A) (A) (A) (A) (A)
                 (A) (A) (A) (A) (A)
 The electronic state is 1-A.
 Alpha  occ. eigenvalues --  -90.12016 -25.27830 -19.68649 -19.62129 -19.61630
 Alpha  occ. eigenvalues --  -19.61616 -10.69840 -10.65653 -10.63286 -10.61907
 Alpha  occ. eigenvalues --  -10.61302 -10.60715 -10.60568 -10.60225 -10.59931
 Alpha  occ. eigenvalues --  -10.59629 -10.58412 -10.58036 -10.57796 -10.57464
 Alpha  occ. eigenvalues --  -10.57090 -10.57049 -10.56981 -10.56893 -10.56764
 Alpha  occ. eigenvalues --  -10.56258  -8.46263  -6.38397  -6.38362  -6.38326
 Alpha  occ. eigenvalues --   -1.41230  -1.24026  -1.16318  -1.13534  -1.06261
 Alpha  occ. eigenvalues --   -1.05616  -1.01997  -0.96734  -0.95957  -0.92691
 Alpha  occ. eigenvalues --   -0.90111  -0.89281  -0.89050  -0.87140  -0.85491
 Alpha  occ. eigenvalues --   -0.80766  -0.79693  -0.75585  -0.74610  -0.72402
 Alpha  occ. eigenvalues --   -0.71872  -0.70953  -0.68943  -0.66577  -0.64330
 Alpha  occ. eigenvalues --   -0.63843  -0.61830  -0.61265  -0.59798  -0.59542
 Alpha  occ. eigenvalues --   -0.59073  -0.58645  -0.56818  -0.56050  -0.55808
 Alpha  occ. eigenvalues --   -0.55696  -0.54831  -0.54144  -0.53913  -0.53284
 Alpha  occ. eigenvalues --   -0.53025  -0.51921  -0.51613  -0.50676  -0.50362
 Alpha  occ. eigenvalues --   -0.49294  -0.48766  -0.48625  -0.48259  -0.47013
 Alpha  occ. eigenvalues --   -0.46228  -0.45761  -0.45673  -0.44359  -0.42421
 Alpha  occ. eigenvalues --   -0.41108  -0.39537  -0.38297  -0.38051  -0.37491
 Alpha  occ. eigenvalues --   -0.36585  -0.35990  -0.35341  -0.35160  -0.33659
 Alpha  occ. eigenvalues --   -0.29887  -0.28597
 Alpha virt. eigenvalues --   -0.09393  -0.04476  -0.03523  -0.02838  -0.02042
 Alpha virt. eigenvalues --   -0.01570  -0.00718  -0.00245  -0.00129   0.00463
 Alpha virt. eigenvalues --    0.00789   0.00983   0.01635   0.01949   0.02262
 Alpha virt. eigenvalues --    0.02474   0.02842   0.03236   0.03642   0.03989
 Alpha virt. eigenvalues --    0.04251   0.04721   0.04871   0.05316   0.05373
 Alpha virt. eigenvalues --    0.05775   0.06121   0.06512   0.06792   0.07125
 Alpha virt. eigenvalues --    0.07296   0.07337   0.07700   0.08050   0.08442
 Alpha virt. eigenvalues --    0.08915   0.09085   0.09541   0.09803   0.09839
 Alpha virt. eigenvalues --    0.10032   0.10305   0.10762   0.10830   0.11025
 Alpha virt. eigenvalues --    0.11299   0.11650   0.12010   0.12298   0.12479
 Alpha virt. eigenvalues --    0.12703   0.12747   0.13176   0.13305   0.13479
 Alpha virt. eigenvalues --    0.13558   0.13745   0.14005   0.14121   0.14609
 Alpha virt. eigenvalues --    0.14808   0.14957   0.15187   0.15634   0.15667
 Alpha virt. eigenvalues --    0.15961   0.16181   0.16348   0.16667   0.16803
 Alpha virt. eigenvalues --    0.16952   0.17299   0.17567   0.18034   0.18101
 Alpha virt. eigenvalues --    0.18613   0.18745   0.19106   0.19468   0.19715
 Alpha virt. eigenvalues --    0.19795   0.20328   0.20535   0.20848   0.21118
 Alpha virt. eigenvalues --    0.21454   0.21819   0.22212   0.22630   0.23086
 Alpha virt. eigenvalues --    0.23515   0.23725   0.23883   0.24008   0.24173
 Alpha virt. eigenvalues --    0.24493   0.24707   0.25398   0.25536   0.25710
 Alpha virt. eigenvalues --    0.26211   0.26289   0.26719   0.26962   0.27421
 Alpha virt. eigenvalues --    0.27722   0.28042   0.28177   0.28690   0.28917
 Alpha virt. eigenvalues --    0.29087   0.29423   0.29878   0.29974   0.30593
 Alpha virt. eigenvalues --    0.30729   0.31267   0.31325   0.31652   0.31920
 Alpha virt. eigenvalues --    0.32087   0.32284   0.32576   0.32764   0.33532
[...]
 000077,-0.00000096,-0.00000040,-0.00000166,0.00000110,0.00000224,0.000
 00257,-0.00000063,0.00001087,0.00001036,0.00000093,0.00000543,0.000025
 18,-0.00001712,0.00002031,0.00002269,-0.00000849,-0.03844989,-0.057878
 02,0.06008871,-0.00000124,-0.00000477,-0.00000419,0.00000137,0.0000038
 2,0.00000892,-0.00000316,-0.00000032,-0.00000489,0.00000181,-0.0000014
 1,-0.00000183,0.00000740,-0.00000816,-0.00000512,-0.00001629,0.0000038
 3,0.00000628,0.00001640,-0.00000163,-0.00000489,-0.00001674,-0.0000038
 0,0.00000241,0.00001058,-0.00000830,-0.00000533,-0.00000683,0.00000319
 ,0.00000588,0.00001258,-0.00000405,-0.00000377,-0.00000977,0.00000943,
 0.00000562,0.00001353,0.00001277,-0.00000961,-0.00000264,-0.00000469,-
 0.00000035,-0.00001972,-0.00000779,0.00000853,0.00002481,-0.00000405,-
 0.00000639,0.00000230,-0.00009279,-0.00025002,0.00011587,0.00018403,-0
 .00008219,0.00011694,0.00007257,0.00012419,0.00074609,-0.00074265,-0.0
 0099717,-0.01253439,0.00154971,0.01544285,0.00205159,-0.00123658,-0.00
 200397,-0.17573359,0.04152668,0.13609216,-0.00278265,0.00425900,-0.000
 50910,0.00012250,0.00015203,0.00015646,-0.00022503,-0.00016588,0.00012
 203,0.00000450,0.00000024,0.00000359,-0.00000139,-0.00000149,-0.000000
 04,-0.00000049,-0.00000059,0.00000044,0.00000054,-0.00000020,-0.000000
 24,0.00000096,-0.00000313,0.00000134,-0.00001059,0.00000101,-0.0000008
 4,0.00000077,0.00000065,-0.00000026,0.00000181,0.00000107,-0.00000034,
 -0.00000145,-0.00000053,0.00000018,-0.00000572,-0.00000884,0.00000579,
 0.00002061,0.00000711,0.00001319,-0.00000809,0.00014070,-0.00011958,-0
 .00937065,0.00510320,0.00917807,0.18517084,0.00000494,0.00004392,0.000
 02094,-0.00000334,-0.00005011,-0.00003085,0.00000705,0.00002081,0.0000
 0760,-0.00000869,0.00000351,0.00001251,-0.00003045,0.00002477,0.000018
 60,0.00006120,-0.00000507,-0.00002038,-0.00005525,0.00001194,0.0000141
 4,0.00007166,-0.00001592,-0.00002290,-0.00005256,0.00004849,0.00002352
 ,0.00001430,-0.00000185,-0.00000532,-0.00003086,0.00000043,0.00000830,
 0.00003932,-0.00002899,-0.00001587,-0.00004471,-0.00005245,0.00001938,
 0.00000594,0.00000822,-0.00000203,0.00003904,0.00002989,-0.00001675,-0
 .00005798,-0.00003395,0.00001662,-0.00001379,0.00003227,0.00016505,-0.
 00018250,-0.00014590,0.00020436,-0.00030440,-0.00029867,-0.00002558,-0
 .00087786,0.00073283,0.00090352,0.01255468,-0.00472418,-0.01658171,-0.
 00230042,0.00038337,0.00087159,0.04172414,-0.05802508,-0.04549678,0.00
 571396,-0.00389066,0.00030133,-0.00008066,-0.00010484,-0.00030006,0.00
 018997,0.00009758,-0.00001389,-0.00001154,-0.00000913,-0.00001407,0.00
 000321,0.00000552,0.00000104,0.00000267,-0.00000028,0.00000002,-0.0000
 0022,0.00000072,0.00000067,-0.00000172,0.00000304,-0.00000057,0.000023
 12,-0.00000767,-0.00000208,-0.00000441,-0.00000087,-0.00000312,-0.0000
 0155,-0.00000379,0.00000393,0.00000349,0.00000538,-0.00000083,0.000009
 06,0.00000506,-0.00000059,-0.00002333,-0.00002489,-0.00000080,0.000135
 10,-0.00002644,0.00021230,-0.01736959,0.00897497,0.01793878,-0.0468420
 6,0.05998305,0.00000002,0.00000543,0.00000138,0.00000062,-0.00000733,-
 0.00000025,-0.00000116,0.00000423,-0.00000164,0.00000002,-0.00000001,0
 .00000066,-0.00000437,0.00000242,-0.00000224,0.00000491,0.00000090,-0.
 00000275,-0.00000394,0.00000125,0.00000244,0.00000610,-0.00000418,-0.0
 0000214,-0.00000452,0.00000515,0.00000224,-0.00000011,-0.00000006,-0.0
 0000141,-0.00000202,-0.00000095,-0.00000297,0.00000473,-0.00000057,0.0
 0000712,-0.00000163,-0.00000647,0.00000150,0.00000136,-0.00000126,0.00
 000165,0.00000334,0.00000267,0.00000267,-0.00000625,-0.00001354,-0.000
 00822,-0.00001933,0.00002296,0.00006187,-0.00006627,-0.00006623,-0.000
 12321,0.00010615,0.00040625,0.00025628,0.00052795,-0.00044525,-0.00025
 335,-0.00781116,0.00100384,0.00766484,0.00039022,0.00004999,-0.0005579
 1,0.13717938,-0.04550750,-0.19038188,-0.00371274,0.00336739,0.00158649
 ,-0.00008743,-0.00020411,-0.00016267,-0.00000759,0.00003278,-0.0000886
 6,0.00000050,-0.00000173,-0.00000050,0.00000048,0.00000063,0.00000020,
 0.00000036,0.00000001,0.00000041,0.00000012,0.00000002,-0.00000010,-0.
 00000002,-0.00000172,0.00000029,-0.00000251,-0.00000030,-0.00000069,-0
 .00000066,0.00000029,-0.00000028,0.00000019,0.00000049,-0.00000040,-0.
 00000017,0.00000085,-0.00000037,0.00000154,-0.00000090,0.00000110,0.00
 002982,0.00001374,0.00000355,-0.00005409,-0.00000137,-0.00010883,0.002
 61346,-0.00234463,-0.00425551,-0.14692642,0.04757157,0.19987287,-0.000
 00147,0.00000296,0.00000006,0.00000276,-0.00000545,0.00000357,-0.00000
 430,0.00000391,-0.00000363,0.00000016,0.00000104,0.00000099,-0.0000003
 2,-0.00000274,-0.00000295,-0.00000034,-0.00000085,0.00000221,-0.000003
 01,0.00000062,-0.00000139,0.00000483,-0.00000268,-0.00000010,-0.000003
 20,0.00000135,0.00000204,-0.00000217,-0.00000023,0.00000235,0.00000350
 ,0.00000377,0.00000381,-0.00000556,0.00000012,-0.00000036,0.00000567,0
 .00000072,-0.00000347,0.00000155,-0.00000415,0.00000381,-0.00000350,-0
 .00000685,-0.00000316,0.00000317,-0.00000557,0.00001151,-0.00005471,0.
 00006621,0.00020139,-0.00018844,-0.00016061,-0.00001845,0.00014257,-0.
 00002180,-0.00007669,0.00033738,0.00013084,0.00134500,-0.00798541,-0.0
 1051800,-0.01467152,-0.00239455,0.00301384,-0.00386624,-0.09831014,-0.
 04763376,-0.09911370,0.00107284,0.00071154,0.00259670,0.00016799,-0.00
 000591,-0.00021459,0.00005963,0.00018785,0.,0.00000376,-0.00000220,0.0
 0000187,-0.00000027,-0.00000051,-0.00000070,-0.00000048,-0.00000078,0.
 00000020,0.00000023,-0.00000005,-0.00000032,-0.00000111,0.00000122,-0.
 00000335,-0.00000157,0.00000335,-0.00000468,-0.00000047,0.00000079,-0.
 00000069,-0.00000109,0.00000103,-0.00000007,-0.00000110,0.00000020,-0.
 00000053,-0.00000234,-0.00001042,0.00000606,-0.00001714,0.00000146,-0.
 00000404,-0.00005922,-0.00000647,0.00000340,-0.00655770,-0.00368619,-0
 .01284513,0.01236640,0.00762421,0.01786388,0.10140963,0.00000406,0.000
 03074,0.00001350,-0.00000261,-0.00003643,-0.00001797,0.00000551,0.0000
 1628,0.00000213,-0.00000396,0.00000200,0.00000740,-0.00002007,0.000014
 15,0.00000870,0.00003597,-0.00000402,-0.00001164,-0.00003135,0.0000091
 2,0.00000875,0.00004368,-0.00001752,-0.00001447,-0.00003375,0.00003331
 ,0.00001469,0.00001029,0.00000215,-0.00000504,-0.00001916,-0.00000215,
 -0.00000588,0.00002521,-0.00001410,-0.00000544,-0.00002665,-0.00002990
 ,0.00001259,0.00000499,0.00000541,-0.00000019,0.00001934,0.00001612,-0
 .00000848,-0.00003150,-0.00002620,-0.00001607,0.00001918,-0.00002986,-
 0.00004156,0.00014913,-0.00001741,-0.00003194,-0.00003118,0.00015274,0
 .00001209,-0.00054820,-0.00002577,-0.00124367,0.00784736,0.00899075,0.
 01696306,0.00532828,-0.00210336,0.00549016,-0.04817440,-0.08755326,-0.
 09222014,-0.00143861,-0.00068109,-0.00108995,-0.00037793,-0.00032427,0
 .00041495,-0.00003763,-0.00020044,-0.00016293,-0.00000931,-0.00000706,
 -0.00000762,0.00000190,0.00000338,0.00000104,0.00000212,-0.00000001,0.
 00000008,0.00000009,0.00000044,0.00000062,0.00000035,-0.00000069,0.000
 00217,0.00001690,-0.00000526,0.00000903,-0.00000354,-0.00000077,-0.000
 00172,-0.00000092,-0.00000221,0.00000203,0.00000227,0.00000414,-0.0000
 0087,0.00000861,0.00001079,0.00000185,0.00000967,-0.00000386,0.0000002
 2,0.00007269,0.00007532,-0.00007036,-0.00924914,-0.00676043,-0.0217681
 6,-0.00386113,-0.00311766,-0.00389245,0.05013822,0.09176771,-0.0000041
 6,-0.00003396,-0.00001798,0.00000344,0.00003798,0.00002801,-0.00000575
 ,-0.00001486,-0.00000904,0.00000634,-0.00000357,-0.00000896,0.00002253
 ,-0.00001853,-0.00001517,-0.00004833,0.00000211,0.00001142,0.00003978,
 -0.00000994,-0.00000891,-0.00005473,0.00001888,0.00001547,0.00004083,-
 0.00003939,-0.00001823,-0.00000791,-0.00000196,0.00000490,0.00001902,0
 .00000526,-0.00000242,-0.00003139,0.00001930,0.00001349,0.00003236,0.0
 0003970,-0.00001215,-0.00000675,-0.00000633,-0.00000127,-0.00002464,-0
 .00002382,0.00000652,0.00002842,0.00004600,0.00000672,-0.00004189,0.00
 011001,0.00021403,-0.00017493,-0.00019604,-0.00003408,0.00025305,-0.00
 001572,-0.00037615,0.00019031,0.00018911,0.00086798,-0.00319873,-0.005
 24538,-0.01069009,-0.00217641,0.00179085,-0.00053428,-0.09999360,-0.09
 221139,-0.23798333,0.00149405,0.00022987,0.00142621,0.00009293,0.00005
 905,0.00014846,0.00025256,0.00021177,-0.00003272,0.00000981,0.00000686
 ,0.00001265,-0.00000272,-0.00000438,-0.00000100,-0.00000237,-0.0000000
 3,-0.00000014,0.00000015,-0.00000087,-0.00000029,0.00000100,0.00000029
 ,0.00000029,-0.00001427,0.00000881,-0.00000234,0.00000390,0.00000151,0
 .00000332,0.00000164,0.00000232,-0.00000311,-0.00000242,-0.00000467,0.
 00000108,-0.00000669,-0.00001094,-0.00000022,-0.00001948,-0.00000104,-
 0.00000382,-0.00004214,-0.00007798,0.00007500,0.00487848,0.00305294,0.
 00857698,-0.01023035,-0.00578950,-0.01350295,0.10879700,0.09777156,0.2
 5181852,-0.00000561,0.00000111,-0.00001617,0.00001283,-0.00001752,0.00
 004803,-0.00001281,0.00002007,-0.00003668,0.00000566,-0.00000148,-0.00
 000471,0.00001393,-0.00003409,-0.00001030,-0.00004388,-0.00005989,-0.0
 0001866,-0.00002852,0.00000382,0.00001173,0.00003262,0.00003430,-0.000
 00174,-0.00000800,-0.00000555,0.00000829,0.00001478,-0.00001997,-0.000
 04392,0.00001292,0.00007542,-0.00000502,-0.00008596,0.00008160,0.00002
 504,0.00002579,0.00003330,-0.00002771,-0.00000357,-0.00000992,0.000003
 31,-0.00002543,-0.00014325,-0.00006658,-0.00012685,0.00050808,0.000563
 43,0.00323990,-0.00562120,0.00191549,-0.00093315,-0.00009162,-0.000547
 12,0.00399674,-0.00381716,-0.00014507,0.00562978,0.00142307,-0.0048084
 0,-0.00019765,0.00036690,-0.00267433,-0.00030601,-0.00016683,0.0002635
 4,0.00013800,0.00032352,0.00021266,-0.00143292,0.00005554,0.00126836,-
 0.09831522,-0.01838216,0.11602447,-0.00168691,-0.00035463,0.01540532,0
 .00000913,-0.00000971,0.00002412,-0.00000323,-0.00000425,-0.00000210,-
 0.00000196,-0.00000176,0.00000042,-0.00000037,-0.00000217,0.00000391,-
 0.00000360,0.00001689,-0.00000636,0.00003810,-0.00003303,0.00002625,-0
 .00000128,0.00000267,0.00000420,0.00000039,0.00000111,-0.00000548,-0.0
 0000240,-0.00000301,-0.00000077,-0.00009380,-0.00008716,0.00005785,-0.
 00063394,0.00042117,-0.00020906,0.00046354,-0.00003663,-0.00035441,-0.
 00013851,0.00004495,-0.00013741,-0.00004433,0.00005399,-0.00002708,-0.
 00001328,0.00019292,-0.00007945,0.09281663,0.00000430,-0.00000183,-0.0
 0001519,-0.00000457,-0.00001287,0.00004249,0.00000475,0.00001404,-0.00
 003441,0.00002234,-0.00001327,-0.00000679,0.00002924,-0.00004718,-0.00
 002194,-0.00009101,0.00001904,0.00005993,0.00011669,0.00000047,-0.0000
 5033,-0.00008039,-0.00011405,0.00001647,0.00002404,0.00000954,-0.00001
 249,0.00002276,0.00007711,-0.00002374,0.00001129,-0.00012119,-0.000065
 79,-0.00003405,0.00005766,0.00006599,0.00006831,0.00007091,-0.00008688
 ,-0.00000335,-0.00001896,0.00000571,-0.00017623,-0.00000411,0.00004341
 ,-0.00020749,0.00016889,0.00088809,-0.00570286,-0.00133426,-0.00039387
 ,-0.00000494,-0.00129196,-0.00010010,-0.00384776,-0.00144568,-0.004116
 17,0.00941847,0.00619877,-0.01828490,0.00273742,-0.00186271,-0.0033647
 7,-0.00011164,0.00049442,0.00079109,-0.00062056,-0.00042401,0.00007293
 ,-0.00022369,0.00015488,0.00149923,-0.01818778,-0.05552078,0.01976243,
 -0.00979014,0.00281428,0.02216563,-0.00000675,-0.00000678,0.00002361,-
 0.00000892,-0.00001016,0.00000133,0.00000194,0.00000128,0.00000039,0.0
 0000372,-0.00000029,-0.00000078,0.00002732,-0.00002924,0.00002333,-0.0
 0003190,0.00004185,0.00010942,0.00000764,0.00000153,0.00000442,0.00000
 420,-0.00000029,-0.00001213,-0.00000151,-0.00000377,-0.00000151,-0.000
 17504,-0.00021285,0.00001670,0.00042967,-0.00019024,0.00021073,0.00049
 329,0.00041893,-0.00105434,0.00014931,-0.00011510,0.00015969,-0.000028
 96,0.00015424,0.00000415,0.00018159,-0.00014876,0.00009961,0.02321232,
 0.05278563,-0.00000327,-0.00000497,-0.00000818,0.00000783,0.00000267,0
 .00001890,-0.00000464,0.00000292,-0.00001190,-0.00000520,0.00000266,-0
 .00000074,0.00000318,-0.00000318,-0.00000103,-0.00000267,-0.00002576,-
 0.00002366,-0.00004383,-0.00000506,0.00001575,0.00002206,0.00006477,0.
 00000138,0.00000907,-0.00002669,-0.00000504,-0.00001375,-0.00005790,-0
 .00002048,0.00001935,0.00013388,0.00001748,-0.00002658,-0.00001506,-0.
 00000099,-0.00001420,0.00000043,0.00001510,-0.00000101,0.00000238,-0.0
 0000041,0.00007268,-0.00007017,-0.00005740,0.00002473,0.00007512,-0.00
 004607,0.00181205,-0.00096416,0.00236877,-0.00065683,-0.00003174,0.000
 48349,0.00005320,-0.00428395,-0.00044901,0.00867854,0.00225559,-0.0148
 4120,0.00109935,0.00042408,-0.00304739,-0.00018762,-0.00026398,0.00055
 606,0.00000113,0.00001731,0.00002836,0.00025997,0.00182871,0.00116830,
 0.11405521,0.01963822,-0.28942163,0.00108526,-0.00118813,0.00020629,0.
 00000386,0.00000064,0.00000741,0.00000092,0.00000073,-0.00000132,-0.00
 000198,-0.00000129,-0.00000011,-0.00000090,-0.00000157,0.00000358,-0.0
 0000632,0.00001907,0.00000352,0.00003092,0.00001111,-0.00006133,-0.000
 00119,0.00000182,0.00000055,-0.00000160,0.00000012,0.00000039,-0.00000
 040,-0.00000108,0.00000073,-0.00000297,0.00005390,-0.00003124,-0.00021
 173,0.00021867,-0.00014522,0.00053694,0.00021684,-0.00060105,-0.000030
 00,-0.00000053,-0.00001415,-0.00000974,0.00002569,-0.00000456,-0.00000
 037,-0.00012699,0.00003225,-0.12529152,-0.01888055,0.30387205,-0.00002
 052,0.00007852,0.00000454,0.00005902,-0.00011139,0.00004574,-0.0000429
 9,0.00007798,-0.00005722,-0.00006323,0.00002957,0.00001078,0.00006706,
 0.00009365,0.00001865,0.00013681,0.00021640,-0.00002257,0.00002002,-0.
 00013109,-0.00003379,-0.00006895,0.00005471,0.00001164,0.00001729,-0.0
 0007142,-0.00003471,-0.00020589,0.00001044,0.00018884,0.00017000,0.000
 18220,0.00009305,0.00052445,-0.00052618,-0.00023120,-0.00023187,-0.000
 11280,0.00014890,0.00000175,0.00001512,0.00002940,0.00032043,0.0000137
 7,-0.00057951,-0.00194334,0.00354110,-0.00060792,0.00479132,0.00743718
 ,0.00950137,0.00333085,-0.00260033,0.00433922,-0.00119159,0.00009773,0
 .00030570,0.00286518,-0.00590328,0.00258603,0.00076714,-0.00005559,-0.
 00086355,-0.00037805,-0.00023977,-0.00022724,-0.00007527,-0.00008316,0
 .00013855,-0.00020477,0.00006012,0.00027026,0.00087513,-0.01246817,-0.
 01295520,-0.05650594,-0.04558369,-0.03377642,0.00000311,-0.00006241,0.
 00002492,0.00002400,0.00002675,-0.00000948,-0.00000877,-0.00000533,-0.
 00000168,0.00000300,0.00000095,0.00000375,-0.00003132,0.00002648,-0.00
 001311,-0.00041060,0.00000118,-0.00064424,-0.00003252,0.00000519,0.000
 02079,-0.00001333,0.00000848,-0.00000433,0.00000154,-0.00000169,-0.000
 00475,-0.00000968,-0.00026237,0.00033486,0.00030561,0.00051089,0.00046
 057,-0.00059686,0.00041292,-0.00026319,0.00002080,-0.00002575,0.000034
 33,-0.00001545,0.00001686,0.00000430,0.00003079,-0.00003771,0.00000152
 ,-0.00230156,0.00236892,-0.00125794,0.05001720,0.00001337,0.00001581,0
 .00000799,-0.00002448,-0.00001409,0.00000047,0.00003768,0.00000974,-0.
 00001562,0.00004823,-0.00003215,0.00002427,-0.00003851,-0.00003177,-0.
 00000253,-0.00014929,-0.00013807,-0.00003582,-0.00004302,0.00003300,0.
 00000176,0.00008961,-0.00013262,-0.00004023,-0.00010856,0.00011183,0.0
 0004103,0.00005087,0.00002890,0.00003829,0.00073743,-0.00043041,0.0003
 4820,-0.00024365,-0.00024012,0.00040863,0.00000098,-0.00005536,-0.0002
 6452,0.00000729,0.00001001,-0.00001087,-0.00008848,-0.00002873,0.00045
 438,0.00138259,-0.00116286,0.00111800,0.00026721,0.00570891,0.00323079
 ,-0.00273113,0.00236298,0.00025942,0.00025503,-0.00016735,0.00083207,-
 0.00540445,-0.00051823,0.00096548,0.00046333,0.00044690,-0.00101765,-0
 .00037988,-0.00062672,-0.00026076,-0.00010698,-0.00010404,0.00005424,-
 0.00016730,0.00005536,0.00035830,-0.00341928,-0.01168471,-0.01723134,-
 0.04613185,-0.18963182,-0.14239493,-0.00004373,-0.00001341,0.00000897,
 -0.00002053,-0.00001605,0.00000517,0.00000913,0.00000016,0.00000243,-0
 .00000903,0.00000547,-0.00000169,-0.00000880,0.00001478,0.00000523,0.0
 0017602,-0.00016867,0.00021074,0.00001134,-0.00000127,-0.00000602,0.00
 001196,-0.00000086,0.00000263,0.00000989,0.00000391,-0.00000550,0.0001
 1100,0.00022639,-0.00015962,-0.00001147,0.00025036,0.00025896,0.000371
 47,-0.00029198,0.00006719,0.00004958,-0.00003408,0.00001400,0.00000276
 ,-0.00000161,0.00000355,-0.00000164,-0.00002207,0.00000651,0.00203026,
 -0.00055313,0.00095544,0.05299504,0.19681767,-0.00002121,-0.00006325,-
 0.00005662,0.00003483,0.00004317,0.00011648,-0.00003242,-0.00000344,-0
 .00006621,-0.00002946,0.00002429,-0.00003627,-0.00006527,0.00003386,-0
 .00001756,0.00015541,0.00027381,0.00007789,0.00007673,-0.00011863,-0.0
 0004940,-0.00019450,0.00006649,0.00003277,0.00015972,-0.00018345,-0.00
 008389,-0.00009942,-0.00004219,0.00004573,0.00009631,0.00018553,0.0001
 8734,-0.00019391,0.00007001,-0.00006584,-0.00003090,0.00008319,0.00015
 877,-0.00003088,-0.00003814,-0.00000328,0.00058813,0.00042836,-0.00030
 236,-0.00173502,-0.00026295,0.00025583,-0.00616138,-0.02031899,-0.0146
 1950,0.00433324,0.00054450,-0.00337487,0.00031128,0.00096061,-0.000445
 37,0.00273534,0.00062978,0.00157022,0.00010685,0.00023107,0.00043893,0
 .00017034,0.00028506,0.00011628,-0.00000190,0.00000266,-0.00001830,-0.
 00001568,-0.00009991,-0.00009867,0.00236939,0.00695881,0.00905515,-0.0
 3321751,-0.14076648,-0.19566451,0.00003345,0.00001557,0.00006177,0.000
 00695,0.00000077,-0.00000980,-0.00001496,-0.00000463,-0.00000150,0.000
 01041,-0.00000961,-0.00000423,0.00002221,-0.00001181,0.00001525,-0.000
 34738,-0.00015844,-0.00029024,0.00000682,0.00000489,0.00000046,-0.0000
 0595,0.00000133,0.00000622,-0.00002054,-0.00000725,0.00000835,-0.00003
 536,-0.00004629,0.00015354,-0.00033303,-0.00104725,-0.00074250,-0.0002
 7867,0.00010307,-0.00004697,-0.00000497,0.00000379,-0.00000055,-0.0000
 0132,0.00000221,-0.00000410,-0.00000972,0.00000695,-0.00000464,-0.0013
 4639,0.00045991,-0.00000625,0.03301034,0.15176300,0.20371245\\-0.00000
 105,-0.00000141,0.00000049,0.00000252,-0.00000061,0.00000255,0.0000044
 0,0.00000103,-0.00000309,-0.00000148,0.00000240,-0.00000229,0.00000124
 ,0.00000062,0.00000066,-0.00000386,0.00000087,-0.00000128,0.00000138,-
 0.00000158,0.00000292,-0.00000209,0.00000031,-0.00000070,0.00000155,-0
 .00000077,0.00000300,0.00000009,0.00000064,0.00000195,0.00000257,-0.00
 000133,0.00000633,0.00000102,-0.00000016,-0.00000836,-0.00000041,-0.00
 000179,0.00000007,0.00000067,0.00000078,0.00000091,-0.00000352,0.00000
 002,0.00001020,-0.00000164,0.00000022,-0.00000613,0.00000117,-0.000001
 08,-0.00000693,0.00000215,0.00000570,0.00000152,-0.00000524,-0.0000007
 5,0.00000312,0.00000188,-0.00000221,-0.00000824,0.00000107,-0.00000334
 ,0.00000056,-0.00000036,0.00000239,0.00000004,0.00000068,-0.00000076,-
 0.00000529,0.00000053,0.00000069,0.00000150,0.00000126,0.00000293,0.00
 000139,-0.00000280,-0.00000346,0.00000440,-0.00000211,-0.00000039,0.,0
 .00000195,0.00000041,0.00000088,0.00000047,-0.00000104,0.00000065,-0.0
 0000036,-0.00000019,0.00000131,0.00000041,-0.00000032,0.00000200,-0.00
 000006,-0.00000005,0.00000054,0.00000013,0.00000010,-0.00000147,-0.000
 00079,0.00000048,-0.00000125,-0.00000097,0.00000067,-0.00000157,-0.000
 00034,0.00000060,0.00000011,-0.00000137,-0.00000024,-0.00000092,-0.000
 00069,0.00000017,-0.00000045,-0.00000016,0.00000044,0.00000067,0.00000
 051,-0.00000013,0.00000020,0.00000021,-0.00000002,0.00000013,0.0000003
 4,-0.00000015,0.00000034,0.00000110,0.00000030,-0.00000048\\\@


 Happiness is a conscious choice, not an automatic response.
 -- Mildred Barthel
 Job cpu time:       0 days 15 hours 58 minutes 22.7 seconds.
 Elapsed time:       0 days  0 hours 40 minutes  4.2 seconds.
 File lengths (MBytes):  RWF=   1898 Int=      0 D2E=      0 Chk=     40 Scr=      1
 Normal termination of Gaussian 16 at Mon Oct 14 00:11:11 2019.
real 7932.81
user 188922.64
sys 102.19
Machine:
brown-a426
brown-a426
brown-a426
brown-a426
brown-a426
brown-a426
brown-a426
brown-a426
brown-a426
brown-a426
brown-a426
brown-a426
brown-a426
brown-a426
brown-a426
brown-a426
brown-a426
brown-a426
brown-a426
brown-a426
brown-a426
brown-a426
brown-a426
brown-a426
