 Entering Gaussian System, Link 0=/apps/cent7/gaussian/g16-A.03/g16-haswell/g16/g16
 Initial command:
 /apps/cent7/gaussian/g16-A.03/g16-haswell/g16/l1.exe "/scratch/brown/finej/gaussian/Gau-116903.inp" -scrdir="/scratch/brown/finej/gaussian/"
 Entering Link 1 = /apps/cent7/gaussian/g16-A.03/g16-haswell/g16/l1.exe PID=    116904.
  
 Copyright (c) 1988,1990,1992,1993,1995,1998,2003,2009,2016,
            Gaussian, Inc.  All Rights Reserved.
  
 This is part of the Gaussian(R) 16 program.  It is based on
 the Gaussian(R) 09 system (copyright 2009, Gaussian, Inc.),
 the Gaussian(R) 03 system (copyright 2003, Gaussian, Inc.),
 the Gaussian(R) 98 system (copyright 1998, Gaussian, Inc.),
 the Gaussian(R) 94 system (copyright 1995, Gaussian, Inc.),
 the Gaussian 92(TM) system (copyright 1992, Gaussian, Inc.),
 the Gaussian 90(TM) system (copyright 1990, Gaussian, Inc.),
 the Gaussian 88(TM) system (copyright 1988, Gaussian, Inc.),
 the Gaussian 86(TM) system (copyright 1986, Carnegie Mellon
 University), and the Gaussian 82(TM) system (copyright 1983,
 Carnegie Mellon University). Gaussian is a federally registered
 trademark of Gaussian, Inc.
  
 This software contains proprietary and confidential information,
 including trade secrets, belonging to Gaussian, Inc.
  
 This software is provided under written license and may be
 used, copied, transmitted, or stored only in accord with that
 written license.
  
 The following legend is applicable only to US Government
 contracts under FAR:
  
                    RESTRICTED RIGHTS LEGEND
  
 Use, reproduction and disclosure by the US Government is
 subject to restrictions as set forth in subparagraphs (a)
 and (c) of the Commercial Computer Software - Restricted
 Rights clause in FAR 52.227-19.
  
 Gaussian, Inc.
 340 Quinnipiac St., Bldg. 40, Wallingford CT 06492
  
  
 ---------------------------------------------------------------
 Warning -- This program may not be used in any manner that
 competes with the business of Gaussian, Inc. or will provide
 assistance to any competitor of Gaussian, Inc.  The licensee
 of this program is prohibited from giving any competitor of
 Gaussian, Inc. access to this program.  By using this program,
 the user acknowledges that Gaussian, Inc. is engaged in the
 business of creating and licensing software in the field of
 computational chemistry and represents and warrants to the
 licensee that it is not a competitor of Gaussian, Inc. and that
 it will not use this program in any manner prohibited above.
 ---------------------------------------------------------------
  

 Cite this work as:
 Gaussian 16, Revision A.03,
 M. J. Frisch, G. W. Trucks, H. B. Schlegel, G. E. Scuseria, 
 M. A. Robb, J. R. Cheeseman, G. Scalmani, V. Barone, 
 G. A. Petersson, H. Nakatsuji, X. Li, M. Caricato, A. V. Marenich, 
 J. Bloino, B. G. Janesko, R. Gomperts, B. Mennucci, H. P. Hratchian, 
 J. V. Ortiz, A. F. Izmaylov, J. L. Sonnenberg, D. Williams-Young, 
 F. Ding, F. Lipparini, F. Egidi, J. Goings, B. Peng, A. Petrone, 
 T. Henderson, D. Ranasinghe, V. G. Zakrzewski, J. Gao, N. Rega, 
 G. Zheng, W. Liang, M. Hada, M. Ehara, K. Toyota, R. Fukuda, 
 J. Hasegawa, M. Ishida, T. Nakajima, Y. Honda, O. Kitao, H. Nakai, 
 T. Vreven, K. Throssell, J. A. Montgomery, Jr., J. E. Peralta, 
 F. Ogliaro, M. J. Bearpark, J. J. Heyd, E. N. Brothers, K. N. Kudin, 
 V. N. Staroverov, T. A. Keith, R. Kobayashi, J. Normand, 
 K. Raghavachari, A. P. Rendell, J. C. Burant, S. S. Iyengar, 
 J. Tomasi, M. Cossi, J. M. Millam, M. Klene, C. Adamo, R. Cammi, 
 J. W. Ochterski, R. L. Martin, K. Morokuma, O. Farkas, 
 J. B. Foresman, and D. J. Fox, Gaussian, Inc., Wallingford CT, 2016.
 
 ******************************************
 Gaussian 16:  ES64L-G16RevA.03 25-Dec-2016
                13-Oct-2019 
 ******************************************
 %chk=26_p.chk
 %nprocshared=24
 Will use up to   24 processors via shared memory.
 %mem=80GB
 -------------------------------------------------------------------
 #P opt freq m062x/6-311++g(d,p) geom=connectivity temperature=0.001
 -------------------------------------------------------------------
 1/18=20,19=15,26=3,38=1,57=2,112=-1000/1,3;
 2/9=110,12=2,17=6,18=5,40=1/2;
 3/5=4,6=6,7=1111,11=2,25=1,30=1,71=1,74=-55/1,2,3;
 4//1;
 5/5=2,38=5/2;
 6/7=2,8=2,9=2,10=2,28=1/1;
 7//1,2,3,16;
 1/18=20,19=15,26=3/3(2);
 2/9=110/2;
 99//99;
 2/9=110/2;
 3/5=4,6=6,7=1111,11=2,25=1,30=1,71=1,74=-55/1,2,3;
 4/5=5,16=3,69=1/1;
 5/5=2,38=5/2;
 7//1,2,3,16;
 1/18=20,19=15,26=3/3(-5);
 2/9=110/2;
 6/7=2,8=2,9=2,10=2,19=2,28=1/1;
 99/9=1/99;
 Leave Link    1 at Sun Oct 13 22:02:14 2019, MaxMem= 10737418240 cpu:               1.8 elap:               0.1
 (Enter /apps/cent7/gaussian/g16-A.03/g16-haswell/g16/l101.exe)
 -------------------
 Title Card Required
 -------------------
 Symbolic Z-matrix:
 Charge =  1 Multiplicity = 1
 O                    -1.2111    1.9012    4.5834 
 C                    -1.7915    0.7974    4.4646 
 O                    -1.5966   -0.1365    5.4288 
 C                    -2.6674    0.5536    3.3005 
 C                    -3.3091   -0.7633    3.3116 
 C                    -4.5687   -1.0118    3.7855 
 C                    -5.5153   -0.1463    4.3743 
 C                    -6.7694   -0.6625    4.7486 
 F                    -7.6521    0.1248    5.2979 
 C                    -7.072    -2.0203    4.5212 
 C                    -6.1205   -2.8706    3.9264 
 C                    -4.8422   -2.3661    3.5982 
 C                    -2.7972   -1.9352    2.8838 
 C                    -1.4519   -2.1194    2.3294 
 C                    -3.7083   -2.9515    3.0667 
 C                    -3.4865   -4.2563    2.7804 
 C                    -4.2934   -5.3527    3.051 
 C                    -4.7391   -6.1694    1.9868 
 C                    -5.4567   -7.3514    2.2427 
 C                    -5.753    -7.7418    3.5652 
 S                    -6.6049   -9.2793    3.8214 
 O                    -5.7663   -10.464    3.1333 
 C                    -6.8476   -9.7099    5.5855 
 O                    -8.0417   -9.2205    3.1068 
 C                    -5.3441   -6.9118    4.6313 
 C                    -4.6088   -5.7358    4.3772 
 H                    -1.6741   -1.0132    5.0454 
 H                    -3.4785    1.2778    3.3774 
 H                    -2.0151    0.5567    2.4273 
 H                    -5.2812    0.9056    4.5377 
 H                    -8.0471   -2.4148    4.807 
 H                    -6.3715   -3.9114    3.7216 
 H                    -0.7338   -2.2177    3.1435 
 H                    -1.4318   -3.0204    1.7163 
 H                    -1.1904   -1.2569    1.7163 
 H                    -2.5428   -4.4475    2.2696 
 H                    -4.527    -5.8843    0.9564 
 H                    -5.7861   -7.9707    1.4084 
 H                    -6.8628   -10.7942   5.696 
 H                    -6.0306   -9.2959    6.1763 
 H                    -7.7939   -9.2959    5.9336 
 H                    -5.5976   -7.1806    5.6568 
 H                    -4.2814   -5.1177    5.2132 
 H                    -8.09996  -9.14192   2.1518 
 
 ITRead=  0  0  0  0  0  0  0  0  0  0  0  0  0  0  0  0  0  0  0  0
 ITRead=  0  0  0  0  0  0  0  0  0  0  0  0  0  0  0  0  0  0  0  0
 ITRead=  0  0  0  0
 MicOpt= -1 -1 -1 -1 -1 -1 -1 -1 -1 -1 -1 -1 -1 -1 -1 -1 -1 -1 -1 -1
 MicOpt= -1 -1 -1 -1 -1 -1 -1 -1 -1 -1 -1 -1 -1 -1 -1 -1 -1 -1 -1 -1
 MicOpt= -1 -1 -1 -1
 NAtoms=     44 NQM=       44 NQMF=       0 NMMI=      0 NMMIF=      0
                NMic=       0 NMicF=      0.
                    Isotopes and Nuclear Properties:
 (Nuclear quadrupole moments (NQMom) in fm**2, nuclear magnetic moments (NMagM)
  in nuclear magnetons)

  Atom         1           2           3           4           5           6           7           8           9          10
 IAtWgt=          16          12          16          12          12          12          12          12          19          12
 AtmWgt=  15.9949146  12.0000000  15.9949146  12.0000000  12.0000000  12.0000000  12.0000000  12.0000000  18.9984033  12.0000000
 NucSpn=           0           0           0           0           0           0           0           0           1           0
 AtZEff=  -0.0000000  -0.0000000  -0.0000000  -0.0000000  -0.0000000  -0.0000000  -0.0000000  -0.0000000  -0.0000000  -0.0000000
 NQMom=    0.0000000   0.0000000   0.0000000   0.0000000   0.0000000   0.0000000   0.0000000   0.0000000   0.0000000   0.0000000
 NMagM=    0.0000000   0.0000000   0.0000000   0.0000000   0.0000000   0.0000000   0.0000000   0.0000000   2.6288670   0.0000000
 AtZNuc=   8.0000000   6.0000000   8.0000000   6.0000000   6.0000000   6.0000000   6.0000000   6.0000000   9.0000000   6.0000000

  Atom        11          12          13          14          15          16          17          18          19          20
 IAtWgt=          12          12          12          12          12          12          12          12          12          12
 AtmWgt=  12.0000000  12.0000000  12.0000000  12.0000000  12.0000000  12.0000000  12.0000000  12.0000000  12.0000000  12.0000000
 NucSpn=           0           0           0           0           0           0           0           0           0           0
 AtZEff=  -0.0000000  -0.0000000  -0.0000000  -0.0000000  -0.0000000  -0.0000000  -0.0000000  -0.0000000  -0.0000000  -0.0000000
 NQMom=    0.0000000   0.0000000   0.0000000   0.0000000   0.0000000   0.0000000   0.0000000   0.0000000   0.0000000   0.0000000
 NMagM=    0.0000000   0.0000000   0.0000000   0.0000000   0.0000000   0.0000000   0.0000000   0.0000000   0.0000000   0.0000000
 AtZNuc=   6.0000000   6.0000000   6.0000000   6.0000000   6.0000000   6.0000000   6.0000000   6.0000000   6.0000000   6.0000000

  Atom        21          22          23          24          25          26          27          28          29          30
 IAtWgt=          32          16          12          16          12          12           1           1           1           1
 AtmWgt=  31.9720718  15.9949146  12.0000000  15.9949146  12.0000000  12.0000000   1.0078250   1.0078250   1.0078250   1.0078250
 NucSpn=           0           0           0           0           0           0           1           1           1           1
 AtZEff=  -0.0000000  -0.0000000  -0.0000000  -0.0000000  -0.0000000  -0.0000000  -0.0000000  -0.0000000  -0.0000000  -0.0000000
 NQMom=    0.0000000   0.0000000   0.0000000   0.0000000   0.0000000   0.0000000   0.0000000   0.0000000   0.0000000   0.0000000
 NMagM=    0.0000000   0.0000000   0.0000000   0.0000000   0.0000000   0.0000000   2.7928460   2.7928460   2.7928460   2.7928460
 AtZNuc=  16.0000000   8.0000000   6.0000000   8.0000000   6.0000000   6.0000000   1.0000000   1.0000000   1.0000000   1.0000000

  Atom        31          32          33          34          35          36          37          38          39          40
 IAtWgt=           1           1           1           1           1           1           1           1           1           1
 AtmWgt=   1.0078250   1.0078250   1.0078250   1.0078250   1.0078250   1.0078250   1.0078250   1.0078250   1.0078250   1.0078250
 NucSpn=           1           1           1           1           1           1           1           1           1           1
 AtZEff=  -0.0000000  -0.0000000  -0.0000000  -0.0000000  -0.0000000  -0.0000000  -0.0000000  -0.0000000  -0.0000000  -0.0000000
 NQMom=    0.0000000   0.0000000   0.0000000   0.0000000   0.0000000   0.0000000   0.0000000   0.0000000   0.0000000   0.0000000
 NMagM=    2.7928460   2.7928460   2.7928460   2.7928460   2.7928460   2.7928460   2.7928460   2.7928460   2.7928460   2.7928460
 AtZNuc=   1.0000000   1.0000000   1.0000000   1.0000000   1.0000000   1.0000000   1.0000000   1.0000000   1.0000000   1.0000000

  Atom        41          42          43          44
 IAtWgt=           1           1           1           1
 AtmWgt=   1.0078250   1.0078250   1.0078250   1.0078250
 NucSpn=           1           1           1           1
 AtZEff=  -0.0000000  -0.0000000  -0.0000000  -0.0000000
 NQMom=    0.0000000   0.0000000   0.0000000   0.0000000
 NMagM=    2.7928460   2.7928460   2.7928460   2.7928460
 AtZNuc=   1.0000000   1.0000000   1.0000000   1.0000000
 Leave Link  101 at Sun Oct 13 22:02:14 2019, MaxMem= 10737418240 cpu:               8.7 elap:               0.4
 (Enter /apps/cent7/gaussian/g16-A.03/g16-haswell/g16/l103.exe)

 GradGradGradGradGradGradGradGradGradGradGradGradGradGradGradGradGradGrad
 Berny optimization.
 Initialization pass.
                           ----------------------------
                           !    Initial Parameters    !
                           ! (Angstroms and Degrees)  !
 --------------------------                            --------------------------
 ! Name  Definition              Value          Derivative Info.                !
 --------------------------------------------------------------------------------
 ! R1    R(1,2)                  1.2527         estimate D2E/DX2                !
 ! R2    R(2,3)                  1.3564         estimate D2E/DX2                !
 ! R3    R(2,4)                  1.4771         estimate D2E/DX2                !
 ! R4    R(3,27)                 0.96           estimate D2E/DX2                !
 ! R5    R(4,5)                  1.465          estimate D2E/DX2                !
 ! R6    R(4,28)                 1.0901         estimate D2E/DX2                !
 ! R7    R(4,29)                 1.0899         estimate D2E/DX2                !
 ! R8    R(5,6)                  1.3685         estimate D2E/DX2                !
 ! R9    R(5,13)                 1.3485         estimate D2E/DX2                !
 ! R10   R(6,7)                  1.4113         estimate D2E/DX2                !
 ! R11   R(6,12)                 1.3943         estimate D2E/DX2                !
 ! R12   R(7,8)                  1.4069         estimate D2E/DX2                !
 ! R13   R(7,30)                 1.09           estimate D2E/DX2                !
 ! R14   R(8,9)                  1.3041         estimate D2E/DX2                !
 ! R15   R(8,10)                 1.4096         estimate D2E/DX2                !
 ! R16   R(10,11)                1.4079         estimate D2E/DX2                !
 ! R17   R(10,31)                1.09           estimate D2E/DX2                !
 ! R18   R(11,12)                1.4129         estimate D2E/DX2                !
 ! R19   R(11,32)                1.09           estimate D2E/DX2                !
 ! R20   R(12,15)                1.3824         estimate D2E/DX2                !
 ! R21   R(13,14)                1.4667         estimate D2E/DX2                !
 ! R22   R(13,15)                1.3771         estimate D2E/DX2                !
 ! R23   R(14,33)                1.09           estimate D2E/DX2                !
 ! R24   R(14,34)                1.09           estimate D2E/DX2                !
 ! R25   R(14,35)                1.09           estimate D2E/DX2                !
 ! R26   R(15,16)                1.3541         estimate D2E/DX2                !
 ! R27   R(16,17)                1.3879         estimate D2E/DX2                !
 ! R28   R(16,36)                1.09           estimate D2E/DX2                !
 ! R29   R(17,18)                1.4136         estimate D2E/DX2                !
 ! R30   R(17,26)                1.416          estimate D2E/DX2                !
 ! R31   R(18,19)                1.4063         estimate D2E/DX2                !
 ! R32   R(18,37)                1.09           estimate D2E/DX2                !
 ! R33   R(19,20)                1.4104         estimate D2E/DX2                !
 ! R34   R(19,38)                1.09           estimate D2E/DX2                !
 ! R35   R(20,21)                1.7763         estimate D2E/DX2                !
 ! R36   R(20,25)                1.4116         estimate D2E/DX2                !
 ! R37   R(21,22)                1.6063         estimate D2E/DX2                !
 ! R38   R(21,23)                1.832          estimate D2E/DX2                !
 ! R39   R(21,24)                1.6058         estimate D2E/DX2                !
 ! R40   R(23,39)                1.09           estimate D2E/DX2                !
 ! R41   R(23,40)                1.0899         estimate D2E/DX2                !
 ! R42   R(23,41)                1.09           estimate D2E/DX2                !
 ! R43   R(24,44)                0.96           estimate D2E/DX2                !
 ! R44   R(25,26)                1.41           estimate D2E/DX2                !
 ! R45   R(25,42)                1.09           estimate D2E/DX2                !
 ! R46   R(26,43)                1.09           estimate D2E/DX2                !
 ! A1    A(1,2,3)              118.2078         estimate D2E/DX2                !
 ! A2    A(1,2,4)              119.6636         estimate D2E/DX2                !
 ! A3    A(3,2,4)              122.1265         estimate D2E/DX2                !
 ! A4    A(2,3,27)             109.4675         estimate D2E/DX2                !
 ! A5    A(2,4,5)              113.7127         estimate D2E/DX2                !
 ! A6    A(2,4,28)             106.0204         estimate D2E/DX2                !
 ! A7    A(2,4,29)             106.0232         estimate D2E/DX2                !
 ! A8    A(5,4,28)             105.7087         estimate D2E/DX2                !
 ! A9    A(5,4,29)             105.7104         estimate D2E/DX2                !
 ! A10   A(28,4,29)            119.9957         estimate D2E/DX2                !
 ! A11   A(4,5,6)              124.6812         estimate D2E/DX2                !
 ! A12   A(4,5,13)             127.7726         estimate D2E/DX2                !
 ! A13   A(6,5,13)             107.5444         estimate D2E/DX2                !
 ! A14   A(5,6,7)              130.5745         estimate D2E/DX2                !
 ! A15   A(5,6,12)             108.0832         estimate D2E/DX2                !
 ! A16   A(7,6,12)             121.3422         estimate D2E/DX2                !
 ! A17   A(6,7,8)              118.9382         estimate D2E/DX2                !
 ! A18   A(6,7,30)             120.686          estimate D2E/DX2                !
 ! A19   A(8,7,30)             120.3759         estimate D2E/DX2                !
 ! A20   A(7,8,9)              119.5976         estimate D2E/DX2                !
 ! A21   A(7,8,10)             120.124          estimate D2E/DX2                !
 ! A22   A(9,8,10)             120.2766         estimate D2E/DX2                !
 ! A23   A(8,10,11)            120.3209         estimate D2E/DX2                !
 ! A24   A(8,10,31)            119.8923         estimate D2E/DX2                !
 ! A25   A(11,10,31)           119.7868         estimate D2E/DX2                !
 ! A26   A(10,11,12)           119.5996         estimate D2E/DX2                !
 ! A27   A(10,11,32)           120.0279         estimate D2E/DX2                !
 ! A28   A(12,11,32)           120.3725         estimate D2E/DX2                !
 ! A29   A(6,12,11)            119.5443         estimate D2E/DX2                !
 ! A30   A(6,12,15)            107.5829         estimate D2E/DX2                !
 ! A31   A(11,12,15)           132.8611         estimate D2E/DX2                !
 ! A32   A(5,13,14)            125.2582         estimate D2E/DX2                !
 ! A33   A(5,13,15)            110.3693         estimate D2E/DX2                !
 ! A34   A(14,13,15)           124.3588         estimate D2E/DX2                !
 ! A35   A(13,14,33)           109.469          estimate D2E/DX2                !
 ! A36   A(13,14,34)           109.4719         estimate D2E/DX2                !
 ! A37   A(13,14,35)           109.4681         estimate D2E/DX2                !
 ! A38   A(33,14,34)           109.4759         estimate D2E/DX2                !
 ! A39   A(33,14,35)           109.4753         estimate D2E/DX2                !
 ! A40   A(34,14,35)           109.4671         estimate D2E/DX2                !
 ! A41   A(12,15,13)           106.3337         estimate D2E/DX2                !
 ! A42   A(12,15,16)           128.5868         estimate D2E/DX2                !
 ! A43   A(13,15,16)           125.0761         estimate D2E/DX2                !
 ! A44   A(15,16,17)           128.6617         estimate D2E/DX2                !
 ! A45   A(15,16,36)           114.2            estimate D2E/DX2                !
 ! A46   A(17,16,36)           117.1383         estimate D2E/DX2                !
 ! A47   A(16,17,18)           119.5328         estimate D2E/DX2                !
 ! A48   A(16,17,26)           121.7229         estimate D2E/DX2                !
 ! A49   A(18,17,26)           118.5915         estimate D2E/DX2                !
 ! A50   A(17,18,19)           120.6319         estimate D2E/DX2                !
 ! A51   A(17,18,37)           119.9493         estimate D2E/DX2                !
 ! A52   A(19,18,37)           119.4188         estimate D2E/DX2                !
 ! A53   A(18,19,20)           120.6969         estimate D2E/DX2                !
 ! A54   A(18,19,38)           119.5042         estimate D2E/DX2                !
 ! A55   A(20,19,38)           119.7989         estimate D2E/DX2                !
 ! A56   A(19,20,21)           118.3975         estimate D2E/DX2                !
 ! A57   A(19,20,25)           118.9836         estimate D2E/DX2                !
 ! A58   A(21,20,25)           122.6103         estimate D2E/DX2                !
 ! A59   A(20,21,22)           109.039          estimate D2E/DX2                !
 ! A60   A(20,21,23)           113.9448         estimate D2E/DX2                !
 ! A61   A(20,21,24)           109.4657         estimate D2E/DX2                !
 ! A62   A(22,21,23)           107.9568         estimate D2E/DX2                !
 ! A63   A(22,21,24)           107.668          estimate D2E/DX2                !
 ! A64   A(23,21,24)           108.5775         estimate D2E/DX2                !
 ! A65   A(21,23,39)           109.4672         estimate D2E/DX2                !
 ! A66   A(21,23,40)           109.4737         estimate D2E/DX2                !
 ! A67   A(21,23,41)           109.4668         estimate D2E/DX2                !
 ! A68   A(39,23,40)           109.4724         estimate D2E/DX2                !
 ! A69   A(39,23,41)           109.4721         estimate D2E/DX2                !
 ! A70   A(40,23,41)           109.4751         estimate D2E/DX2                !
 ! A71   A(21,24,44)           120.0            estimate D2E/DX2                !
 ! A72   A(20,25,26)           120.3539         estimate D2E/DX2                !
 ! A73   A(20,25,42)           119.8785         estimate D2E/DX2                !
 ! A74   A(26,25,42)           119.7676         estimate D2E/DX2                !
 ! A75   A(17,26,25)           120.7024         estimate D2E/DX2                !
 ! A76   A(17,26,43)           119.8679         estimate D2E/DX2                !
 ! A77   A(25,26,43)           119.4297         estimate D2E/DX2                !
 ! D1    D(1,2,3,27)          -150.3963         estimate D2E/DX2                !
 ! D2    D(4,2,3,27)            30.1292         estimate D2E/DX2                !
 ! D3    D(1,2,4,5)           -178.3421         estimate D2E/DX2                !
 ! D4    D(1,2,4,28)           -62.6345         estimate D2E/DX2                !
 ! D5    D(1,2,4,29)            65.9465         estimate D2E/DX2                !
 ! D6    D(3,2,4,5)              1.125          estimate D2E/DX2                !
 ! D7    D(3,2,4,28)           116.8327         estimate D2E/DX2                !
 ! D8    D(3,2,4,29)          -114.5864         estimate D2E/DX2                !
 ! D9    D(2,4,5,6)             95.6423         estimate D2E/DX2                !
 ! D10   D(2,4,5,13)           -83.8151         estimate D2E/DX2                !
 ! D11   D(28,4,5,6)           -20.2486         estimate D2E/DX2                !
 ! D12   D(28,4,5,13)          160.294          estimate D2E/DX2                !
 ! D13   D(29,4,5,6)          -148.4624         estimate D2E/DX2                !
 ! D14   D(29,4,5,13)           32.0803         estimate D2E/DX2                !
 ! D15   D(4,5,6,7)             -1.412          estimate D2E/DX2                !
 ! D16   D(4,5,6,12)           178.4832         estimate D2E/DX2                !
 ! D17   D(13,5,6,7)           178.1382         estimate D2E/DX2                !
 ! D18   D(13,5,6,12)           -1.9666         estimate D2E/DX2                !
 ! D19   D(4,5,13,14)            1.0502         estimate D2E/DX2                !
 ! D20   D(4,5,13,15)          179.7465         estimate D2E/DX2                !
 ! D21   D(6,5,13,14)         -178.4818         estimate D2E/DX2                !
 ! D22   D(6,5,13,15)            0.2145         estimate D2E/DX2                !
 ! D23   D(5,6,7,8)            178.398          estimate D2E/DX2                !
 ! D24   D(5,6,7,30)            -1.6075         estimate D2E/DX2                !
 ! D25   D(12,6,7,8)            -1.4854         estimate D2E/DX2                !
 ! D26   D(12,6,7,30)          178.5092         estimate D2E/DX2                !
 ! D27   D(5,6,12,11)         -175.9379         estimate D2E/DX2                !
 ! D28   D(5,6,12,15)            2.9724         estimate D2E/DX2                !
 ! D29   D(7,6,12,11)            3.9689         estimate D2E/DX2                !
 ! D30   D(7,6,12,15)         -177.1208         estimate D2E/DX2                !
 ! D31   D(6,7,8,9)            179.7678         estimate D2E/DX2                !
 ! D32   D(6,7,8,10)            -0.7142         estimate D2E/DX2                !
 ! D33   D(30,7,8,9)            -0.2267         estimate D2E/DX2                !
 ! D34   D(30,7,8,10)          179.2912         estimate D2E/DX2                !
 ! D35   D(7,8,10,11)            0.3886         estimate D2E/DX2                !
 ! D36   D(7,8,10,31)         -179.6175         estimate D2E/DX2                !
 ! D37   D(9,8,10,11)          179.9032         estimate D2E/DX2                !
 ! D38   D(9,8,10,31)           -0.1029         estimate D2E/DX2                !
 ! D39   D(8,10,11,12)           2.0909         estimate D2E/DX2                !
 ! D40   D(8,10,11,32)        -177.9108         estimate D2E/DX2                !
 ! D41   D(31,10,11,12)       -177.903          estimate D2E/DX2                !
 ! D42   D(31,10,11,32)          2.0953         estimate D2E/DX2                !
 ! D43   D(10,11,12,6)          -4.2343         estimate D2E/DX2                !
 ! D44   D(10,11,12,15)        177.1828         estimate D2E/DX2                !
 ! D45   D(32,11,12,6)         175.7675         estimate D2E/DX2                !
 ! D46   D(32,11,12,15)         -2.8154         estimate D2E/DX2                !
 ! D47   D(6,12,15,13)          -2.781          estimate D2E/DX2                !
 ! D48   D(6,12,15,16)         176.562          estimate D2E/DX2                !
 ! D49   D(11,12,15,13)        175.9258         estimate D2E/DX2                !
 ! D50   D(11,12,15,16)         -4.7313         estimate D2E/DX2                !
 ! D51   D(5,13,14,33)          82.4707         estimate D2E/DX2                !
 ! D52   D(5,13,14,34)        -157.5245         estimate D2E/DX2                !
 ! D53   D(5,13,14,35)         -37.5311         estimate D2E/DX2                !
 ! D54   D(15,13,14,33)        -96.0488         estimate D2E/DX2                !
 ! D55   D(15,13,14,34)         23.956          estimate D2E/DX2                !
 ! D56   D(15,13,14,35)        143.9494         estimate D2E/DX2                !
 ! D57   D(5,13,15,12)           1.6225         estimate D2E/DX2                !
 ! D58   D(5,13,15,16)        -177.7499         estimate D2E/DX2                !
 ! D59   D(14,13,15,12)       -179.667          estimate D2E/DX2                !
 ! D60   D(14,13,15,16)          0.9606         estimate D2E/DX2                !
 ! D61   D(12,15,16,17)         -6.0651         estimate D2E/DX2                !
 ! D62   D(12,15,16,36)        173.9393         estimate D2E/DX2                !
 ! D63   D(13,15,16,17)        173.1644         estimate D2E/DX2                !
 ! D64   D(13,15,16,36)         -6.8312         estimate D2E/DX2                !
 ! D65   D(15,16,17,18)        121.6304         estimate D2E/DX2                !
 ! D66   D(15,16,17,26)        -62.9266         estimate D2E/DX2                !
 ! D67   D(36,16,17,18)        -58.3741         estimate D2E/DX2                !
 ! D68   D(36,16,17,26)        117.0688         estimate D2E/DX2                !
 ! D69   D(16,17,18,19)        174.2971         estimate D2E/DX2                !
 ! D70   D(16,17,18,37)         -5.7086         estimate D2E/DX2                !
 ! D71   D(26,17,18,19)         -1.2886         estimate D2E/DX2                !
 ! D72   D(26,17,18,37)        178.7057         estimate D2E/DX2                !
 ! D73   D(16,17,26,25)       -175.0618         estimate D2E/DX2                !
 ! D74   D(16,17,26,43)          4.9339         estimate D2E/DX2                !
 ! D75   D(18,17,26,25)          0.4227         estimate D2E/DX2                !
 ! D76   D(18,17,26,43)       -179.5817         estimate D2E/DX2                !
 ! D77   D(17,18,19,20)          0.3762         estimate D2E/DX2                !
 ! D78   D(17,18,19,38)       -179.6131         estimate D2E/DX2                !
 ! D79   D(37,18,19,20)       -179.6181         estimate D2E/DX2                !
 ! D80   D(37,18,19,38)          0.3926         estimate D2E/DX2                !
 ! D81   D(18,19,20,21)       -177.5499         estimate D2E/DX2                !
 ! D82   D(18,19,20,25)          1.407          estimate D2E/DX2                !
 ! D83   D(38,19,20,21)          2.4394         estimate D2E/DX2                !
 ! D84   D(38,19,20,25)       -178.6037         estimate D2E/DX2                !
 ! D85   D(19,20,21,22)         56.22           estimate D2E/DX2                !
 ! D86   D(19,20,21,23)        176.8904         estimate D2E/DX2                !
 ! D87   D(19,20,21,24)        -61.3284         estimate D2E/DX2                !
 ! D88   D(25,20,21,22)       -122.6967         estimate D2E/DX2                !
 ! D89   D(25,20,21,23)         -2.0264         estimate D2E/DX2                !
 ! D90   D(25,20,21,24)        119.7548         estimate D2E/DX2                !
 ! D91   D(19,20,25,26)         -2.2664         estimate D2E/DX2                !
 ! D92   D(19,20,25,42)        177.7367         estimate D2E/DX2                !
 ! D93   D(21,20,25,26)        176.6442         estimate D2E/DX2                !
 ! D94   D(21,20,25,42)         -3.3526         estimate D2E/DX2                !
 ! D95   D(20,21,23,39)       -150.1093         estimate D2E/DX2                !
 ! D96   D(20,21,23,40)        -30.1088         estimate D2E/DX2                !
 ! D97   D(20,21,23,41)         89.8948         estimate D2E/DX2                !
 ! D98   D(22,21,23,39)        -28.8357         estimate D2E/DX2                !
 ! D99   D(22,21,23,40)         91.1647         estimate D2E/DX2                !
 ! D100  D(22,21,23,41)       -148.8317         estimate D2E/DX2                !
 ! D101  D(24,21,23,39)         87.62           estimate D2E/DX2                !
 ! D102  D(24,21,23,40)       -152.3795         estimate D2E/DX2                !
 ! D103  D(24,21,23,41)        -32.3759         estimate D2E/DX2                !
 ! D104  D(20,21,24,44)         64.4747         estimate D2E/DX2                !
 ! D105  D(22,21,24,44)        -53.9301         estimate D2E/DX2                !
 ! D106  D(23,21,24,44)       -170.5715         estimate D2E/DX2                !
 ! D107  D(20,25,26,17)          1.3653         estimate D2E/DX2                !
 ! D108  D(20,25,26,43)       -178.6304         estimate D2E/DX2                !
 ! D109  D(42,25,26,17)       -178.6379         estimate D2E/DX2                !
 ! D110  D(42,25,26,43)          1.3665         estimate D2E/DX2                !
 --------------------------------------------------------------------------------
 Trust Radius=3.00D-01 FncErr=1.00D-07 GrdErr=1.00D-06 EigMax=2.50D+02 EigMin=1.00D-04
 Number of steps in this run=    243 maximum allowed number of steps=    264.
 GradGradGradGradGradGradGradGradGradGradGradGradGradGradGradGradGradGrad

 Leave Link  103 at Sun Oct 13 22:02:14 2019, MaxMem= 10737418240 cpu:               0.6 elap:               0.0
 (Enter /apps/cent7/gaussian/g16-A.03/g16-haswell/g16/l202.exe)
                          Input orientation:                          
 ---------------------------------------------------------------------
 Center     Atomic      Atomic             Coordinates (Angstroms)
 Number     Number       Type             X           Y           Z
 ---------------------------------------------------------------------
      1          8           0       -1.211100    1.901200    4.583400
      2          6           0       -1.791500    0.797400    4.464600
      3          8           0       -1.596600   -0.136500    5.428800
      4          6           0       -2.667400    0.553600    3.300500
      5          6           0       -3.309100   -0.763300    3.311600
      6          6           0       -4.568700   -1.011800    3.785500
      7          6           0       -5.515300   -0.146300    4.374300
      8          6           0       -6.769400   -0.662500    4.748600
      9          9           0       -7.652100    0.124800    5.297900
     10          6           0       -7.072000   -2.020300    4.521200
     11          6           0       -6.120500   -2.870600    3.926400
     12          6           0       -4.842200   -2.366100    3.598200
     13          6           0       -2.797200   -1.935200    2.883800
     14          6           0       -1.451900   -2.119400    2.329400
     15          6           0       -3.708300   -2.951500    3.066700
     16          6           0       -3.486500   -4.256300    2.780400
     17          6           0       -4.293400   -5.352700    3.051000
     18          6           0       -4.739100   -6.169400    1.986800
     19          6           0       -5.456700   -7.351400    2.242700
     20          6           0       -5.753000   -7.741800    3.565200
     21         16           0       -6.604900   -9.279300    3.821400
     22          8           0       -5.766300  -10.464000    3.133300
     23          6           0       -6.847600   -9.709900    5.585500
     24          8           0       -8.041700   -9.220500    3.106800
     25          6           0       -5.344100   -6.911800    4.631300
     26          6           0       -4.608800   -5.735800    4.377200
     27          1           0       -1.674100   -1.013200    5.045400
     28          1           0       -3.478500    1.277800    3.377400
     29          1           0       -2.015100    0.556700    2.427300
     30          1           0       -5.281200    0.905600    4.537700
     31          1           0       -8.047100   -2.414800    4.807000
     32          1           0       -6.371500   -3.911400    3.721600
     33          1           0       -0.733800   -2.217700    3.143500
     34          1           0       -1.431800   -3.020400    1.716300
     35          1           0       -1.190400   -1.256900    1.716300
     36          1           0       -2.542800   -4.447500    2.269600
     37          1           0       -4.527000   -5.884300    0.956400
     38          1           0       -5.786100   -7.970700    1.408400
     39          1           0       -6.862800  -10.794200    5.696000
     40          1           0       -6.030600   -9.295900    6.176300
     41          1           0       -7.793900   -9.295900    5.933600
     42          1           0       -5.597600   -7.180600    5.656800
     43          1           0       -4.281400   -5.117700    5.213200
     44          1           0       -8.099958   -9.141919    2.151797
 ---------------------------------------------------------------------
                    Distance matrix (angstroms):
                    1          2          3          4          5
     1  O    0.000000
     2  C    1.252738   0.000000
     3  O    2.239539   1.356406   0.000000
     4  C    2.362767   1.477081   2.480426   0.000000
     5  C    3.621966   2.463393   2.794292   1.464967   0.000000
     6  C    4.516159   3.383374   3.507130   2.510108   1.368549
     7  C    4.770966   3.842579   4.058112   3.123050   2.525339
     8  C    6.123279   5.195330   5.243778   4.516890   3.748174
     9  F    6.719568   5.957635   6.062548   5.387087   4.857547
    10  C    7.052105   5.985509   5.861096   5.245529   4.147601
    11  C    6.877785   5.699485   5.495287   4.903141   3.566884
    12  C    5.689056   4.479414   4.342365   3.652811   2.236404
    13  C    4.485791   3.313226   3.339729   2.526779   1.348482
    14  C    4.615596   3.630720   3.682270   3.092799   2.500583
    15  C    5.664370   4.436496   4.238280   3.663859   2.237757
    16  C    6.807574   5.590120   5.249619   4.906788   3.537611
    17  C    8.029190   6.788335   6.335251   6.131110   4.700995
    18  C    9.182794   7.960160   7.623552   7.156569   5.746818
    19  C   10.445794   9.207251   8.781024   8.449151   7.011262
    20  C   10.707616   9.456233   8.865058   8.854640   7.398407
    21  S   12.436933  11.185813  10.547872  10.604771   9.145734
    22  O   13.257104  12.016261  11.371586  11.446338  10.008656
    23  C   12.945732  11.714261  10.920052  11.315243   9.886013
    24  O   13.135054  11.885577  11.377612  11.155880   9.693486
    25  C    9.734113   8.490025   7.783602   8.041638   6.609606
    26  C    8.361259   7.115302   6.444484   6.669698   5.248855
    27  H    2.986895   1.905094   0.960002   2.546799   2.396192
    28  H    2.642757   2.063676   3.122504   1.090075   2.049174
    29  H    2.665120   2.063619   3.108805   1.089946   2.049103
    30  H    4.190349   3.492142   3.931451   2.913163   2.859673
    31  H    8.087568   7.040454   6.869224   6.326303   5.235677
    32  H    7.820406   6.610692   6.321714   5.816692   4.411001
    33  H    4.389358   3.457580   3.209114   3.382833   2.962382
    34  H    5.700098   4.717853   4.703902   4.099985   3.341218
    35  H    4.265476   3.483479   3.899096   2.822965   2.697687
    36  H    6.887168   5.735107   5.427758   5.107767   3.904652
    37  H    9.206755   8.027175   7.850275   7.099259   5.766705
    38  H   11.334269  10.108252   9.751421   9.272002   7.855209
    39  H   13.941046  12.712184  11.890788  12.333384  10.905645
    40  H   12.293899  11.080370  10.203613  10.797870   9.403102
    41  H   13.058765  11.834757  11.070499  11.411699   9.989674
    42  H   10.142616   8.919429   8.104278   8.599772   7.205479
    43  H    7.686895   6.461301   5.662772   6.198956   4.849974
    44  H   13.240828  11.997323  11.581450  11.172971   9.721045
                    6          7          8          9         10
     6  C    0.000000
     7  C    1.411321   0.000000
     8  C    2.427479   1.406887   0.000000
     9  F    3.617536   2.343597   1.304121   0.000000
    10  C    2.797291   2.440650   1.409574   2.353982   0.000000
    11  C    2.425505   2.826427   2.443929   3.633075   1.407888
    12  C    1.394278   2.445998   2.817760   4.121784   2.437932
    13  C    2.191790   3.579081   4.568984   5.800132   4.578453
    14  C    3.614062   4.958423   6.020871   7.231245   6.033186
    15  C    2.240401   3.583883   4.175960   5.476809   3.781161
    16  C    3.564851   4.852695   5.250394   6.548593   4.570108
    17  C    4.411201   5.509153   5.568698   6.806793   4.581157
    18  C    5.464906   6.525364   6.486571   7.685435   5.392647
    19  C    6.584778   7.514028   7.262513   8.369444   6.018420
    20  C    6.836958   7.642170   7.249137   8.276003   5.948887
    21  S    8.514632   9.214370   8.668103   9.576731   7.307598
    22  O    9.550063  10.395096   9.984228  10.971072   8.656049
    23  C    9.170078   9.731622   9.086361   9.871740   7.766147
    24  O    8.938966   9.504228   8.806453   9.606630   7.401603
    25  C    6.010543   6.772544   6.410849   7.435386   5.188885
    26  C    4.761081   5.662531   5.526708   6.667533   4.460160
    27  H    3.156907   3.994585   5.115971   6.090590   5.516009
    28  H    2.568531   2.677765   4.058938   4.736736   5.009889
    29  H    3.290254   4.066499   5.429388   6.340556   6.049594
    30  H    2.179423   1.089952   2.172132   2.609352   3.430470
    31  H    3.887305   3.426855   2.169443   2.616596   1.090015
    32  H    3.414945   3.916002   3.430511   4.518359   2.169405
    33  H    4.070972   5.354279   6.436106   7.615223   6.489207
    34  H    4.261010   5.656888   6.576056   7.836598   6.378050
    35  H    3.969203   5.196456   6.377570   7.516018   6.560752
    36  H    4.266879   5.636119   6.191592   7.495430   5.610228
    37  H    5.634430   6.751550   6.832008   8.045132   5.840832
    38  H    7.453788   8.372045   8.095283   9.173183   6.837421
    39  H   10.227818  10.813899  10.176327  10.954727   8.854673
    40  H    8.745250   9.339589   8.781785   9.599502   7.533806
    41  H    9.145631   9.557124   8.774362   9.443189   7.446500
    42  H    6.527978   7.150731   6.684577   7.597279   5.485630
    43  H    4.356522   5.190480   5.123944   6.233185   4.226133
    44  H    9.013190   9.619830   8.967403   9.796459   7.575501
                   11         12         13         14         15
    11  C    0.000000
    12  C    1.412900   0.000000
    13  C    3.606426   2.208635   0.000000
    14  C    4.991046   3.628340   1.466670   0.000000
    15  C    2.562096   1.382358   1.377106   2.515421   0.000000
    16  C    3.189269   2.465679   2.423496   2.984852   1.354129
    17  C    3.203973   3.085513   3.734418   4.364523   2.471508
    18  C    4.068464   4.131868   4.743842   5.227385   3.547339
    19  C    4.832499   5.202711   6.067880   6.589367   4.805726
    20  C    4.898378   5.452412   6.551157   7.185962   5.232234
    21  S    6.427838   7.137875   8.325472   8.946711   7.000065
    22  O    7.642918   8.163705   9.034281   9.428290   7.789574
    23  C    7.075119   7.867807   9.173379   9.865671   7.866100
    24  O    6.684608   7.580308   8.979427   9.718819   7.621045
    25  C    4.175042   4.688559   5.857218   6.589011   4.561556
    26  C    3.270754   3.466438   4.467292   5.218990   3.206343
    27  H    4.946976   3.736520   2.604602   2.941038   3.436602
    28  H    4.948817   3.896978   3.321322   4.092234   4.246919
    29  H    5.554097   4.231579   2.651347   2.736474   3.947559
    30  H    3.916350   3.432113   4.120168   5.356375   4.417587
    31  H    2.166794   3.425632   5.611610   7.051413   4.705516
    32  H    1.090050   2.177599   4.169280   5.417744   2.905673
    33  H    5.482312   4.136149   2.098778   1.089995   3.064639
    34  H    5.185643   3.949745   2.098817   1.089998   2.647788
    35  H    5.638657   4.255293   2.098798   1.090037   3.321908
    36  H    4.246356   3.374114   2.598771   2.571709   2.057128
    37  H    4.521342   4.410917   4.722549   5.051321   3.704720
    38  H    5.697646   6.090789   6.894751   7.339703   5.679752
    39  H    8.152664   8.917200  10.144923  10.764014   8.852798
    40  H    6.808422   7.488726   8.687654   9.341589   7.437345
    41  H    6.936397   7.885985   9.404690  10.232955   8.072339
    42  H    4.673736   5.290357   6.560944   7.339902   5.306916
    43  H    3.176098   3.239448   4.213936   5.031121   3.102955
    44  H    6.811528   7.656160   8.977297   9.671814   7.644932
                   16         17         18         19         20
    16  C    0.000000
    17  C    1.387950   0.000000
    18  C    2.420487   1.413566   0.000000
    19  C    3.708160   2.449779   1.406257   0.000000
    20  C    4.231033   2.846512   2.447812   1.410394   0.000000
    21  S    6.003218   4.621118   4.064289   2.743621   1.776310
    22  O    6.622504   5.319924   4.562148   3.252276   2.756281
    23  C    6.993378   5.650913   5.470974   4.321046   3.025422
    24  O    6.745344   5.386348   4.633657   3.304910   2.763120
    25  C    3.732049   2.456036   2.812572   2.431324   1.411619
    26  C    2.449132   1.415998   2.432899   2.808058   2.447973
    27  H    4.351174   5.446983   6.733176   7.895313   8.006402
    28  H    5.566214   6.688358   7.680083   8.925464   9.303860
    29  H    5.045262   6.364013   7.270119   8.626513   9.172340
    30  H    5.740580   6.507868   7.540331   8.571807   8.714693
    31  H    5.319521   5.079868   5.743989   6.136434   5.931432
    32  H    3.054184   2.616400   3.282198   3.854556   3.883165
    33  H    3.444574   4.744211   5.744242   7.033641   7.475686
    34  H    2.623271   3.925532   4.574670   5.935864   6.662043
    35  H    3.924383   5.309012   6.066226   7.457972   8.141847
    36  H    1.089974   2.120041   2.805111   4.113900   4.778742
    37  H    2.657066   2.173595   1.089951   2.161317   3.429172
    38  H    4.579008   3.432231   2.162276   1.089997   2.169165
    39  H    7.914813   6.573261   6.297384   5.074965   3.884470
    40  H    6.588031   5.322987   5.384690   4.425342   3.051251
    41  H    7.341249   6.009302   5.889315   4.781875   3.491392
    42  H    4.613236   3.439818   3.902364   3.421272   2.171148
    43  H    2.700443   2.174966   3.424211   3.898027   3.430366
    44  H    6.748956   5.445790   4.489817   3.193906   3.076728
                   21         22         23         24         25
    21  S    0.000000
    22  O    1.606314   0.000000
    23  C    1.832039   2.784091   0.000000
    24  O    1.605772   2.593152   2.794520   0.000000
    25  C    2.801894   3.878193   3.316681   3.864096   0.000000
    26  C    4.104841   5.024238   4.718653   5.053895   1.410039
    27  H    9.702545  10.474724  10.133578  10.567132   6.959444
    28  H   11.019250  11.965094  11.702824  11.450342   8.492484
    29  H   10.943339  11.663008  11.778385  11.505445   8.468669
    30  H   10.295507  11.466275  10.781481  10.592721   7.818213
    31  H    7.083270   8.531878   7.433932   7.014860   5.249770
    32  H    5.373899   6.606734   6.109288   5.599472   3.299319
    33  H    9.208450   9.660622   9.973714  10.121559   6.745590
    34  H    8.388459   8.729431   9.436684   9.168724   6.240698
    35  H    9.904906  10.378701  10.882455  10.596826   7.597917
    36  H    6.500387   6.880058   7.564347   7.329416   4.415618
    37  H    4.904276   5.220001   6.438087   5.301657   3.902345
    38  H    2.864513   3.031867   4.647555   3.087765   3.421070
    39  H    2.423955   2.806916   1.090022   3.251199   4.302681
    40  H    2.423974   3.270193   1.089922   3.670428   2.922711
    41  H    2.423919   3.649288   1.089979   2.838642   3.658065
    42  H    2.964437   4.144542   2.822223   4.078887   1.090030
    43  H    4.965347   5.925693   5.273736   5.950609   2.164887
    44  H    2.245361   2.856082   3.698827   0.960000   4.326213
                   26         27         28         29         30
    26  C    0.000000
    27  H    5.600170   0.000000
    28  H    7.174104   3.359578   0.000000
    29  H    7.079897   3.071696   1.887913   0.000000
    30  H    6.677281   4.117126   2.175904   3.904219   0.000000
    31  H    4.799550   6.529659   6.045755   7.132868   4.329871
    32  H    2.620183   5.676053   5.951111   6.373174   5.005823
    33  H    5.377236   2.439715   4.450461   3.138784   5.690136
    34  H    4.954505   3.894928   5.042099   3.693427   6.179940
    35  H    6.231083   3.372872   3.797283   2.115371   5.419534
    36  H    3.220256   4.500458   5.906083   5.034417   6.426414
    37  H    3.424999   6.970407   7.632579   7.068215   7.713447
    38  H    3.898023   8.862456   9.733280   9.379507   9.425293
    39  H    5.692729  11.091161  12.750003  12.768223  11.862902
    40  H    4.234689   9.426619  11.231660  11.280646  10.359402
    41  H    5.024097  10.336536  11.702990  11.948322  10.598717
    42  H    2.168536   7.335154   9.012812   9.117554   8.169402
    43  H    1.090016   4.865500   6.702032   6.715368   6.142967
    44  H    5.361180  10.758283  11.464315  11.452712  10.704698
                   31         32         33         34         35
    31  H    0.000000
    32  H    2.495103   0.000000
    33  H    7.502695   5.914937   0.000000
    34  H    7.326757   5.405159   1.780009   0.000000
    35  H    7.609697   6.157223   1.780034   1.779946   0.000000
    36  H    6.392776   4.129728   3.001365   1.891316   3.509281
    37  H    6.265433   3.865339   5.711018   4.284814   5.755274
    38  H    6.894246   4.708663   7.850689   6.600015   8.141890
    39  H    8.509244   7.177226  10.846025  10.284247  11.788733
    40  H    7.300054   5.927445   9.346383   8.967857  10.389642
    41  H    6.977311   5.992412  10.379335   9.881490  11.225745
    42  H    5.425409   3.877059   7.389425   7.084398   8.369061
    43  H    4.653081   2.836996   5.027835   4.974655   6.057092
    44  H    7.232360   5.728017  10.158177   9.062394  10.493101
                   36         37         38         39         40
    36  H    0.000000
    37  H    2.779557   0.000000
    38  H    4.865552   2.478447   0.000000
    39  H    8.407331   7.212967   5.245469   0.000000
    40  H    7.136809   6.414607   4.954675   1.779929   0.000000
    41  H    8.031558   6.861791   5.124924   1.779973   1.779924
    42  H    5.317402   4.992027   4.325355   3.828887   2.220780
    43  H    3.483774   4.332244   4.988009   6.254548   4.630833
    44  H    7.275538   4.980671   2.697838   4.101459   4.527977
                   41         42         43         44
    41  H    0.000000
    42  H    3.061837   0.000000
    43  H    5.505814   2.486910   0.000000
    44  H    3.797291   4.732189   6.336238   0.000000
 Stoichiometry    C20H18FO4S(1+)
 Framework group  C1[X(C20H18FO4S)]
 Deg. of freedom   126
 Full point group                 C1      NOp   1
 Largest Abelian subgroup         C1      NOp   1
 Largest concise Abelian subgroup C1      NOp   1
                         Standard orientation:                         
 ---------------------------------------------------------------------
 Center     Atomic      Atomic             Coordinates (Angstroms)
 Number     Number       Type             X           Y           Z
 ---------------------------------------------------------------------
      1          8           0        6.808808   -1.123037    0.952169
      2          6           0        5.570046   -0.982626    0.829261
      3          8           0        4.798426   -1.098842    1.938736
      4          6           0        4.996055   -0.687492   -0.499346
      5          6           0        3.541764   -0.511397   -0.486914
      6          6           0        2.904335    0.696793   -0.403929
      7          6           0        3.425093    2.003391   -0.288006
      8          6           0        2.533430    3.091123   -0.254709
      9          9           0        3.000444    4.303648   -0.143297
     10          6           0        1.144589    2.870589   -0.351577
     11          6           0        0.639522    1.562122   -0.473931
     12          6           0        1.530297    0.465568   -0.454606
     13          6           0        2.593362   -1.468416   -0.542170
     14          6           0        2.849157   -2.911204   -0.605828
     15          6           0        1.338519   -0.902628   -0.501256
     16          6           0        0.173516   -1.592845   -0.495327
     17          6           0       -1.117849   -1.112846   -0.326854
     18          6           0       -2.081680   -1.336795   -1.336332
     19          6           0       -3.424140   -0.966929   -1.139965
     20          6           0       -3.834489   -0.358200    0.064309
     21         16           0       -5.556551    0.023739    0.273844
     22          8           0       -6.418176   -1.318087    0.080581
     23          6           0       -5.967768    0.727637    1.914514
     24          8           0       -6.015436    1.065006   -0.859157
     25          6           0       -2.870452   -0.096945    1.061829
     26          6           0       -1.527602   -0.483683    0.873690
     27          1           0        3.931232   -1.428700    1.692216
     28          1           0        5.407586    0.276920   -0.797363
     29          1           0        5.181139   -1.571093   -1.110064
     30          1           0        4.500384    2.170054   -0.225011
     31          1           0        0.457525    3.716567   -0.331650
     32          1           0       -0.432789    1.399277   -0.582745
     33          1           0        3.033244   -3.292193    0.398686
     34          1           0        1.982121   -3.415456   -1.032529
     35          1           0        3.722261   -3.098125   -1.231072
     36          1           0        0.289422   -2.666343   -0.644359
     37          1           0       -1.786219   -1.800189   -2.277587
     38          1           0       -4.153293   -1.153928   -1.928292
     39          1           0       -6.988132    0.453125    2.182184
     40          1           0       -5.278043    0.335037    2.661558
     41          1           0       -5.881931    1.813539    1.875759
     42          1           0       -3.164724    0.406354    1.982839
     43          1           0       -0.800178   -0.294677    1.663161
     44          1           0       -6.002012    0.805551   -1.783333
 ---------------------------------------------------------------------
 Rotational constants (GHZ):           0.3795283           0.0788449           0.0702771
 Leave Link  202 at Sun Oct 13 22:02:14 2019, MaxMem= 10737418240 cpu:               0.4 elap:               0.0
 (Enter /apps/cent7/gaussian/g16-A.03/g16-haswell/g16/l301.exe)
 Standard basis: 6-311++G(d,p) (5D, 7F)
 Ernie: Thresh=  0.10000D-02 Tol=  0.10000D-05 Strict=F.
 There are   732 symmetry adapted cartesian basis functions of A   symmetry.
 There are   706 symmetry adapted basis functions of A   symmetry.
   706 basis functions,  1112 primitive gaussians,   732 cartesian basis functions
    97 alpha electrons       97 beta electrons
       nuclear repulsion energy      2369.1674663497 Hartrees.
 IExCor= 4336 DFT=T Ex+Corr=M062X ExCW=0 ScaHFX=  0.540000
 ScaDFX=  1.000000  1.000000  1.000000  1.000000 ScalE2=  1.000000  1.000000
 IRadAn=      5 IRanWt=     -1 IRanGd=            0 ICorTp=0 IEmpDi=  4
 NAtoms=   44 NActive=   44 NUniq=   44 SFac= 1.00D+00 NAtFMM=   60 NAOKFM=F Big=F
 Integral buffers will be    131072 words long.
 Raffenetti 2 integral format.
 Two-electron integral symmetry is turned on.
 Leave Link  301 at Sun Oct 13 22:02:15 2019, MaxMem= 10737418240 cpu:               1.8 elap:               0.1
 (Enter /apps/cent7/gaussian/g16-A.03/g16-haswell/g16/l302.exe)
 NPDir=0 NMtPBC=     1 NCelOv=     1 NCel=       1 NClECP=     1 NCelD=      1
         NCelK=      1 NCelE2=     1 NClLst=     1 CellRange=     0.0.
 One-electron integrals computed using PRISM.
 One-electron integral symmetry used in STVInt
 NBasis=   706 RedAO= T EigKep=  1.08D-06  NBF=   706
 NBsUse=   697 1.00D-06 EigRej=  7.28D-07 NBFU=   697
 Precomputing XC quadrature grid using
 IXCGrd= 4 IRadAn=           5 IRanWt=          -1 IRanGd=           0 AccXCQ= 0.00D+00.
 Generated NRdTot=       0 NPtTot=           0 NUsed=           0 NTot=          32
 NSgBfM=   714   713   713   713   714 MxSgAt=    44 MxSgA2=    44.
 Leave Link  302 at Sun Oct 13 22:02:15 2019, MaxMem= 10737418240 cpu:              17.0 elap:               0.7
 (Enter /apps/cent7/gaussian/g16-A.03/g16-haswell/g16/l303.exe)
 DipDrv:  MaxL=1.
 Leave Link  303 at Sun Oct 13 22:02:15 2019, MaxMem= 10737418240 cpu:               2.0 elap:               0.1
 (Enter /apps/cent7/gaussian/g16-A.03/g16-haswell/g16/l401.exe)
 ExpMin= 3.60D-02 ExpMax= 9.34D+04 ExpMxC= 3.17D+03 IAcc=3 IRadAn=         5 AccDes= 0.00D+00
 Harris functional with IExCor= 1009 and IRadAn=       5 diagonalized for initial guess.
 HarFok:  IExCor= 1009 AccDes= 0.00D+00 IRadAn=         5 IDoV= 1 UseB2=F ITyADJ=14
 ICtDFT=  3500011 ScaDFX=  1.000000  1.000000  1.000000  1.000000
 FoFCou: FMM=F IPFlag=           0 FMFlag=      100000 FMFlg1=           0
         NFxFlg=           0 DoJE=T BraDBF=F KetDBF=T FulRan=T
         wScrn=  0.000000 ICntrl=       500 IOpCl=  0 I1Cent=   200000004 NGrid=           0
         NMat0=    1 NMatS0=      1 NMatT0=    0 NMatD0=    1 NMtDS0=    0 NMtDT0=    0
 Petite list used in FoFCou.
 Harris En= -1570.74838456585    
 JPrj=0 DoOrth=F DoCkMO=F.
 Leave Link  401 at Sun Oct 13 22:02:17 2019, MaxMem= 10737418240 cpu:              46.4 elap:               2.0
 (Enter /apps/cent7/gaussian/g16-A.03/g16-haswell/g16/l502.exe)
 Integral symmetry usage will be decided dynamically.
 Closed shell SCF:
 Using DIIS extrapolation, IDIIS=  1040.
 NGot= 10737418240 LenX= 10736322137 LenY= 10735785581
 Requested convergence on RMS density matrix=1.00D-08 within 128 cycles.
 Requested convergence on MAX density matrix=1.00D-06.
 Requested convergence on             energy=1.00D-06.
 No special actions if energy rises.
 Fock matrices will be formed incrementally for  20 cycles.

 Cycle   1  Pass 1  IDiag  1:
 FoFJK:  IHMeth= 1 ICntrl=       0 DoSepK=F KAlg= 0 I1Cent=           0 FoldK=F
 IRaf= 780000000 NMat=       1 IRICut=       1 DoRegI=T DoRafI=F ISym2E= 0 IDoP0=0 IntGTp=1.
 FoFCou: FMM=F IPFlag=           0 FMFlag=      100000 FMFlg1=           0
         NFxFlg=           0 DoJE=F BraDBF=F KetDBF=F FulRan=T
         wScrn=  0.000000 ICntrl=         0 IOpCl=  0 I1Cent=           0 NGrid=           0
         NMat0=    1 NMatS0=      1 NMatT0=    0 NMatD0=    1 NMtDS0=    0 NMtDT0=    0
 Symmetry not used in FoFCou.
 E= -1570.42169415175    
 DIIS: error= 1.86D-02 at cycle   1 NSaved=   1.
 NSaved= 1 IEnMin= 1 EnMin= -1570.42169415175     IErMin= 1 ErrMin= 1.86D-02
 ErrMax= 1.86D-02  0.00D+00 EMaxC= 1.00D-01 BMatC= 1.17D+00 BMatP= 1.17D+00
 IDIUse=3 WtCom= 8.14D-01 WtEn= 1.86D-01
 Coeff-Com:  0.100D+01
 Coeff-En:   0.100D+01
 Coeff:      0.100D+01
 Gap=     0.172 Goal=   None    Shift=    0.000
 GapD=    0.172 DampG=1.000 DampE=0.500 DampFc=0.5000 IDamp=-1.
 Damping current iteration by 5.00D-01
 RMSDP=1.92D-01 MaxDP=2.78D+01              OVMax= 9.35D-01

 Cycle   2  Pass 1  IDiag  1:
 RMSU=  8.90D-02    CP:  1.54D+00
 E= -1569.46758866398     Delta-E=        0.954105487766 Rises=F Damp=T
 DIIS: error= 2.34D-02 at cycle   2 NSaved=   2.
 NSaved= 2 IEnMin= 1 EnMin= -1570.42169415175     IErMin= 1 ErrMin= 1.86D-02
 ErrMax= 2.34D-02  0.00D+00 EMaxC= 1.00D-01 BMatC= 5.19D-01 BMatP= 1.17D+00
 IDIUse=3 WtCom= 7.66D-01 WtEn= 2.34D-01
 Coeff-Com:  0.339D+00 0.661D+00
 Coeff-En:   0.742D+00 0.258D+00
 Coeff:      0.433D+00 0.567D+00
 Gap=    -0.599 Goal=   None    Shift=    0.000
 RMSDP=7.61D-02 MaxDP=1.41D+01 DE= 9.54D-01 OVMax= 8.97D-01

 Cycle   3  Pass 1  IDiag  1:
 RMSU=  2.71D-02    CP:  1.20D+00  2.44D-01
 E= -1570.86308085686     Delta-E=       -1.395492192877 Rises=F Damp=F
 DIIS: error= 1.89D-02 at cycle   3 NSaved=   3.
 NSaved= 3 IEnMin= 3 EnMin= -1570.86308085686     IErMin= 1 ErrMin= 1.86D-02
 ErrMax= 1.89D-02  0.00D+00 EMaxC= 1.00D-01 BMatC= 3.81D-01 BMatP= 5.19D-01
 IDIUse=3 WtCom= 8.11D-01 WtEn= 1.89D-01
 Coeff-Com:  0.986D-01 0.421D+00 0.480D+00
 Coeff-En:   0.000D+00 0.142D+00 0.858D+00
 Coeff:      0.800D-01 0.368D+00 0.552D+00
 Gap=     0.375 Goal=   None    Shift=    0.000
 RMSDP=1.54D-02 MaxDP=1.69D+00 DE=-1.40D+00 OVMax= 1.54D-01

 Cycle   4  Pass 1  IDiag  1:
 RMSU=  7.17D-03    CP:  1.08D+00  1.81D-01  6.57D-01
 E= -1571.25133883010     Delta-E=       -0.388257973239 Rises=F Damp=F
 DIIS: error= 4.94D-03 at cycle   4 NSaved=   4.
 NSaved= 4 IEnMin= 4 EnMin= -1571.25133883010     IErMin= 4 ErrMin= 4.94D-03
 ErrMax= 4.94D-03  0.00D+00 EMaxC= 1.00D-01 BMatC= 4.33D-02 BMatP= 3.81D-01
 IDIUse=3 WtCom= 9.51D-01 WtEn= 4.94D-02
 Coeff-Com: -0.503D-01 0.201D+00 0.167D+00 0.682D+00
 Coeff-En:   0.000D+00 0.000D+00 0.000D+00 0.100D+01
 Coeff:     -0.479D-01 0.191D+00 0.159D+00 0.698D+00
 Gap=     0.165 Goal=   None    Shift=    0.000
 RMSDP=6.97D-03 MaxDP=5.30D-01 DE=-3.88D-01 OVMax= 3.16D-02

 Cycle   5  Pass 1  IDiag  1:
 RMSU=  4.59D-03    CP:  1.07D+00  2.27D-01  7.71D-01  1.11D+00
 E= -1571.28143341926     Delta-E=       -0.030094589164 Rises=F Damp=F
 DIIS: error= 4.77D-03 at cycle   5 NSaved=   5.
 NSaved= 5 IEnMin= 5 EnMin= -1571.28143341926     IErMin= 5 ErrMin= 4.77D-03
 ErrMax= 4.77D-03  0.00D+00 EMaxC= 1.00D-01 BMatC= 1.48D-02 BMatP= 4.33D-02
 IDIUse=3 WtCom= 9.52D-01 WtEn= 4.77D-02
 Coeff-Com: -0.533D-01 0.806D-01-0.538D-01 0.286D+00 0.740D+00
 Coeff-En:   0.000D+00 0.000D+00 0.000D+00 0.000D+00 0.100D+01
 Coeff:     -0.508D-01 0.768D-01-0.512D-01 0.273D+00 0.753D+00
 Gap=     0.153 Goal=   None    Shift=    0.000
 RMSDP=2.12D-03 MaxDP=2.54D-01 DE=-3.01D-02 OVMax= 4.36D-02

 Cycle   6  Pass 1  IDiag  1:
 RMSU=  1.69D-03    CP:  1.07D+00  2.24D-01  7.35D-01  1.18D+00  1.05D+00
 E= -1571.29926512901     Delta-E=       -0.017831709743 Rises=F Damp=F
 DIIS: error= 1.09D-03 at cycle   6 NSaved=   6.
 NSaved= 6 IEnMin= 6 EnMin= -1571.29926512901     IErMin= 6 ErrMin= 1.09D-03
 ErrMax= 1.09D-03  0.00D+00 EMaxC= 1.00D-01 BMatC= 2.09D-03 BMatP= 1.48D-02
 IDIUse=3 WtCom= 9.89D-01 WtEn= 1.09D-02
 Coeff-Com: -0.137D-01 0.195D-01-0.605D-01-0.521D-01 0.326D+00 0.781D+00
 Coeff-En:   0.000D+00 0.000D+00 0.000D+00 0.000D+00 0.000D+00 0.100D+01
 Coeff:     -0.135D-01 0.193D-01-0.599D-01-0.515D-01 0.323D+00 0.783D+00
 Gap=     0.149 Goal=   None    Shift=    0.000
 RMSDP=1.70D-03 MaxDP=1.28D-01 DE=-1.78D-02 OVMax= 1.89D-02

 Cycle   7  Pass 1  IDiag  1:
 RMSU=  1.00D-03    CP:  1.08D+00  2.29D-01  7.47D-01  1.24D+00  1.25D+00
                    CP:  1.09D+00
 E= -1571.30193961221     Delta-E=       -0.002674483203 Rises=F Damp=F
 DIIS: error= 3.87D-04 at cycle   7 NSaved=   7.
 NSaved= 7 IEnMin= 7 EnMin= -1571.30193961221     IErMin= 7 ErrMin= 3.87D-04
 ErrMax= 3.87D-04  0.00D+00 EMaxC= 1.00D-01 BMatC= 3.08D-04 BMatP= 2.09D-03
 IDIUse=3 WtCom= 9.96D-01 WtEn= 3.87D-03
 Coeff-Com: -0.256D-03 0.117D-02-0.260D-01-0.764D-01 0.607D-01 0.400D+00
 Coeff-Com:  0.641D+00
 Coeff-En:   0.000D+00 0.000D+00 0.000D+00 0.000D+00 0.000D+00 0.000D+00
 Coeff-En:   0.100D+01
 Coeff:     -0.255D-03 0.117D-02-0.259D-01-0.761D-01 0.604D-01 0.399D+00
 Coeff:      0.642D+00
 Gap=     0.148 Goal=   None    Shift=    0.000
 RMSDP=4.40D-04 MaxDP=3.54D-02 DE=-2.67D-03 OVMax= 1.06D-02

 Cycle   8  Pass 1  IDiag  1:
 RMSU=  2.90D-04    CP:  1.08D+00  2.28D-01  7.45D-01  1.23D+00  1.30D+00
                    CP:  1.23D+00  1.02D+00
 E= -1571.30235950706     Delta-E=       -0.000419894850 Rises=F Damp=F
 DIIS: error= 2.11D-04 at cycle   8 NSaved=   8.
 NSaved= 8 IEnMin= 8 EnMin= -1571.30235950706     IErMin= 8 ErrMin= 2.11D-04
 ErrMax= 2.11D-04  0.00D+00 EMaxC= 1.00D-01 BMatC= 5.22D-05 BMatP= 3.08D-04
 IDIUse=3 WtCom= 9.98D-01 WtEn= 2.11D-03
 Coeff-Com:  0.170D-02-0.893D-04 0.354D-02-0.173D-01-0.306D-01-0.698D-02
 Coeff-Com:  0.307D+00 0.743D+00
 Coeff-En:   0.000D+00 0.000D+00 0.000D+00 0.000D+00 0.000D+00 0.000D+00
 Coeff-En:   0.000D+00 0.100D+01
 Coeff:      0.170D-02-0.891D-04 0.354D-02-0.172D-01-0.305D-01-0.696D-02
 Coeff:      0.306D+00 0.743D+00
 Gap=     0.150 Goal=   None    Shift=    0.000
 RMSDP=2.98D-04 MaxDP=2.99D-02 DE=-4.20D-04 OVMax= 3.33D-03

 Cycle   9  Pass 1  IDiag  1:
 RMSU=  1.67D-04    CP:  1.08D+00  2.30D-01  7.48D-01  1.23D+00  1.31D+00
                    CP:  1.22D+00  1.11D+00  6.61D-01
 E= -1571.30242479822     Delta-E=       -0.000065291163 Rises=F Damp=F
 DIIS: error= 1.16D-04 at cycle   9 NSaved=   9.
 NSaved= 9 IEnMin= 9 EnMin= -1571.30242479822     IErMin= 9 ErrMin= 1.16D-04
 ErrMax= 1.16D-04  0.00D+00 EMaxC= 1.00D-01 BMatC= 6.82D-06 BMatP= 5.22D-05
 IDIUse=3 WtCom= 9.99D-01 WtEn= 1.16D-03
 Coeff-Com:  0.693D-03-0.524D-03 0.464D-02 0.322D-02-0.145D-01-0.555D-01
 Coeff-Com:  0.446D-01 0.301D+00 0.716D+00
 Coeff-En:   0.000D+00 0.000D+00 0.000D+00 0.000D+00 0.000D+00 0.000D+00
 Coeff-En:   0.000D+00 0.000D+00 0.100D+01
 Coeff:      0.692D-03-0.523D-03 0.464D-02 0.322D-02-0.145D-01-0.554D-01
 Coeff:      0.445D-01 0.301D+00 0.716D+00
 Gap=     0.150 Goal=   None    Shift=    0.000
 RMSDP=6.95D-05 MaxDP=5.75D-03 DE=-6.53D-05 OVMax= 2.59D-03

 Cycle  10  Pass 1  IDiag  1:
 RMSU=  4.61D-05    CP:  1.08D+00  2.30D-01  7.48D-01  1.23D+00  1.31D+00
                    CP:  1.22D+00  1.13D+00  7.57D-01  1.11D+00
 E= -1571.30243531045     Delta-E=       -0.000010512227 Rises=F Damp=F
 DIIS: error= 3.70D-05 at cycle  10 NSaved=  10.
 NSaved=10 IEnMin=10 EnMin= -1571.30243531045     IErMin=10 ErrMin= 3.70D-05
 ErrMax= 3.70D-05  0.00D+00 EMaxC= 1.00D-01 BMatC= 1.96D-06 BMatP= 6.82D-06
 IDIUse=1 WtCom= 1.00D+00 WtEn= 0.00D+00
 Coeff-Com:  0.106D-03-0.340D-03 0.202D-02 0.502D-02 0.323D-03-0.271D-01
 Coeff-Com: -0.390D-01-0.193D-01 0.338D+00 0.740D+00
 Coeff:      0.106D-03-0.340D-03 0.202D-02 0.502D-02 0.323D-03-0.271D-01
 Coeff:     -0.390D-01-0.193D-01 0.338D+00 0.740D+00
 Gap=     0.150 Goal=   None    Shift=    0.000
 RMSDP=4.95D-05 MaxDP=4.64D-03 DE=-1.05D-05 OVMax= 7.41D-04

 Cycle  11  Pass 1  IDiag  1:
 RMSU=  2.64D-05    CP:  1.08D+00  2.30D-01  7.48D-01  1.23D+00  1.31D+00
                    CP:  1.21D+00  1.15D+00  7.72D-01  1.25D+00  1.27D+00
 E= -1571.30243801639     Delta-E=       -0.000002705943 Rises=F Damp=F
 DIIS: error= 3.14D-05 at cycle  11 NSaved=  11.
 NSaved=11 IEnMin=11 EnMin= -1571.30243801639     IErMin=11 ErrMin= 3.14D-05
 ErrMax= 3.14D-05  0.00D+00 EMaxC= 1.00D-01 BMatC= 3.36D-07 BMatP= 1.96D-06
 IDIUse=1 WtCom= 1.00D+00 WtEn= 0.00D+00
 Coeff-Com: -0.256D-04-0.845D-04 0.367D-03 0.182D-02 0.338D-02-0.327D-02
 Coeff-Com: -0.237D-01-0.613D-01 0.615D-01 0.340D+00 0.681D+00
 Coeff:     -0.256D-04-0.845D-04 0.367D-03 0.182D-02 0.338D-02-0.327D-02
 Coeff:     -0.237D-01-0.613D-01 0.615D-01 0.340D+00 0.681D+00
 Gap=     0.150 Goal=   None    Shift=    0.000
 RMSDP=2.14D-05 MaxDP=1.71D-03 DE=-2.71D-06 OVMax= 3.88D-04

 Cycle  12  Pass 1  IDiag  1:
 RMSU=  8.95D-06    CP:  1.08D+00  2.30D-01  7.48D-01  1.23D+00  1.31D+00
                    CP:  1.21D+00  1.15D+00  7.56D-01  1.30D+00  1.35D+00
                    CP:  8.77D-01
 E= -1571.30243847755     Delta-E=       -0.000000461155 Rises=F Damp=F
 DIIS: error= 7.95D-06 at cycle  12 NSaved=  12.
 NSaved=12 IEnMin=12 EnMin= -1571.30243847755     IErMin=12 ErrMin= 7.95D-06
 ErrMax= 7.95D-06  0.00D+00 EMaxC= 1.00D-01 BMatC= 7.13D-08 BMatP= 3.36D-07
 IDIUse=1 WtCom= 1.00D+00 WtEn= 0.00D+00
 Coeff-Com: -0.166D-04-0.241D-04-0.128D-03 0.986D-04 0.186D-02 0.303D-02
 Coeff-Com: -0.626D-02-0.324D-01-0.207D-01 0.370D-01 0.368D+00 0.650D+00
 Coeff:     -0.166D-04-0.241D-04-0.128D-03 0.986D-04 0.186D-02 0.303D-02
 Coeff:     -0.626D-02-0.324D-01-0.207D-01 0.370D-01 0.368D+00 0.650D+00
 Gap=     0.150 Goal=   None    Shift=    0.000
 RMSDP=9.23D-06 MaxDP=7.14D-04 DE=-4.61D-07 OVMax= 1.69D-04

 Cycle  13  Pass 1  IDiag  1:
 RMSU=  5.15D-06    CP:  1.08D+00  2.30D-01  7.48D-01  1.23D+00  1.31D+00
                    CP:  1.21D+00  1.14D+00  7.65D-01  1.32D+00  1.40D+00
                    CP:  9.95D-01  7.70D-01
 E= -1571.30243857406     Delta-E=       -0.000000096514 Rises=F Damp=F
 DIIS: error= 3.06D-06 at cycle  13 NSaved=  13.
 NSaved=13 IEnMin=13 EnMin= -1571.30243857406     IErMin=13 ErrMin= 3.06D-06
 ErrMax= 3.06D-06  0.00D+00 EMaxC= 1.00D-01 BMatC= 8.71D-09 BMatP= 7.13D-08
 IDIUse=1 WtCom= 1.00D+00 WtEn= 0.00D+00
 Coeff-Com: -0.293D-05 0.880D-07-0.114D-03-0.246D-03 0.338D-03 0.208D-02
 Coeff-Com:  0.896D-03-0.635D-02-0.177D-01-0.422D-01 0.633D-01 0.321D+00
 Coeff-Com:  0.679D+00
 Coeff:     -0.293D-05 0.880D-07-0.114D-03-0.246D-03 0.338D-03 0.208D-02
 Coeff:      0.896D-03-0.635D-02-0.177D-01-0.422D-01 0.633D-01 0.321D+00
 Coeff:      0.679D+00
 Gap=     0.150 Goal=   None    Shift=    0.000
 RMSDP=3.07D-06 MaxDP=2.03D-04 DE=-9.65D-08 OVMax= 7.97D-05

 Cycle  14  Pass 1  IDiag  1:
 RMSU=  1.03D-06    CP:  1.08D+00  2.30D-01  7.48D-01  1.23D+00  1.31D+00
                    CP:  1.21D+00  1.14D+00  7.62D-01  1.32D+00  1.42D+00
                    CP:  1.01D+00  9.17D-01  8.69D-01
 E= -1571.30243858845     Delta-E=       -0.000000014392 Rises=F Damp=F
 DIIS: error= 8.36D-07 at cycle  14 NSaved=  14.
 NSaved=14 IEnMin=14 EnMin= -1571.30243858845     IErMin=14 ErrMin= 8.36D-07
 ErrMax= 8.36D-07  0.00D+00 EMaxC= 1.00D-01 BMatC= 8.06D-10 BMatP= 8.71D-09
 IDIUse=1 WtCom= 1.00D+00 WtEn= 0.00D+00
 Coeff-Com: -0.145D-05 0.368D-05-0.316D-04-0.858D-04-0.123D-03 0.359D-03
 Coeff-Com:  0.955D-03 0.136D-02-0.292D-02-0.175D-01-0.273D-01 0.118D-01
 Coeff-Com:  0.221D+00 0.812D+00
 Coeff:     -0.145D-05 0.368D-05-0.316D-04-0.858D-04-0.123D-03 0.359D-03
 Coeff:      0.955D-03 0.136D-02-0.292D-02-0.175D-01-0.273D-01 0.118D-01
 Coeff:      0.221D+00 0.812D+00
 Gap=     0.150 Goal=   None    Shift=    0.000
 RMSDP=9.75D-07 MaxDP=9.23D-05 DE=-1.44D-08 OVMax= 3.87D-05

 Cycle  15  Pass 1  IDiag  1:
 RMSU=  4.24D-07    CP:  1.08D+00  2.30D-01  7.48D-01  1.23D+00  1.31D+00
                    CP:  1.21D+00  1.14D+00  7.63D-01  1.32D+00  1.43D+00
                    CP:  1.02D+00  9.33D-01  9.60D-01  1.09D+00
 E= -1571.30243859037     Delta-E=       -0.000000001915 Rises=F Damp=F
 DIIS: error= 5.57D-07 at cycle  15 NSaved=  15.
 NSaved=15 IEnMin=15 EnMin= -1571.30243859037     IErMin=15 ErrMin= 5.57D-07
 ErrMax= 5.57D-07  0.00D+00 EMaxC= 1.00D-01 BMatC= 2.72D-10 BMatP= 8.06D-10
 IDIUse=1 WtCom= 1.00D+00 WtEn= 0.00D+00
 Coeff-Com: -0.366D-06 0.321D-05 0.688D-05 0.579D-05-0.153D-03-0.244D-03
 Coeff-Com:  0.431D-03 0.222D-02 0.225D-02-0.935D-03-0.271D-01-0.547D-01
 Coeff-Com: -0.151D-02 0.421D+00 0.658D+00
 Coeff:     -0.366D-06 0.321D-05 0.688D-05 0.579D-05-0.153D-03-0.244D-03
 Coeff:      0.431D-03 0.222D-02 0.225D-02-0.935D-03-0.271D-01-0.547D-01
 Coeff:     -0.151D-02 0.421D+00 0.658D+00
 Gap=     0.150 Goal=   None    Shift=    0.000
 RMSDP=2.61D-07 MaxDP=1.89D-05 DE=-1.92D-09 OVMax= 1.80D-05

 Cycle  16  Pass 1  IDiag  1:
 RMSU=  1.83D-07    CP:  1.08D+00  2.30D-01  7.48D-01  1.23D+00  1.31D+00
                    CP:  1.21D+00  1.14D+00  7.63D-01  1.32D+00  1.43D+00
                    CP:  1.02D+00  9.34D-01  9.70D-01  1.20D+00  1.06D+00
 E= -1571.30243859092     Delta-E=       -0.000000000552 Rises=F Damp=F
 DIIS: error= 2.69D-07 at cycle  16 NSaved=  16.
 NSaved=16 IEnMin=16 EnMin= -1571.30243859092     IErMin=16 ErrMin= 2.69D-07
 ErrMax= 2.69D-07  0.00D+00 EMaxC= 1.00D-01 BMatC= 5.43D-11 BMatP= 2.72D-10
 IDIUse=1 WtCom= 1.00D+00 WtEn= 0.00D+00
 Coeff-Com: -0.535D-07 0.509D-07 0.647D-05 0.199D-04-0.350D-04-0.173D-03
 Coeff-Com: -0.564D-04 0.493D-03 0.140D-02 0.444D-02-0.463D-02-0.288D-01
 Coeff-Com: -0.548D-01-0.420D-03 0.328D+00 0.754D+00
 Coeff:     -0.535D-07 0.509D-07 0.647D-05 0.199D-04-0.350D-04-0.173D-03
 Coeff:     -0.564D-04 0.493D-03 0.140D-02 0.444D-02-0.463D-02-0.288D-01
 Coeff:     -0.548D-01-0.420D-03 0.328D+00 0.754D+00
 Gap=     0.150 Goal=   None    Shift=    0.000
 RMSDP=2.05D-07 MaxDP=1.42D-05 DE=-5.52D-10 OVMax= 9.67D-06

 Cycle  17  Pass 1  IDiag  1:
 RMSU=  9.30D-08    CP:  1.08D+00  2.30D-01  7.48D-01  1.23D+00  1.31D+00
                    CP:  1.21D+00  1.14D+00  7.63D-01  1.32D+00  1.43D+00
                    CP:  1.01D+00  9.34D-01  9.86D-01  1.23D+00  1.23D+00
                    CP:  9.63D-01
 E= -1571.30243859102     Delta-E=       -0.000000000100 Rises=F Damp=F
 DIIS: error= 9.02D-08 at cycle  17 NSaved=  17.
 NSaved=17 IEnMin=17 EnMin= -1571.30243859102     IErMin=17 ErrMin= 9.02D-08
 ErrMax= 9.02D-08  0.00D+00 EMaxC= 1.00D-01 BMatC= 7.02D-12 BMatP= 5.43D-11
 IDIUse=1 WtCom= 1.00D+00 WtEn= 0.00D+00
 Coeff-Com:  0.148D-06-0.123D-06 0.277D-05 0.870D-05 0.188D-05-0.542D-04
 Coeff-Com: -0.717D-04-0.461D-04 0.257D-03 0.198D-02 0.115D-02-0.642D-02
 Coeff-Com: -0.242D-01-0.589D-01 0.568D-01 0.338D+00 0.692D+00
 Coeff:      0.148D-06-0.123D-06 0.277D-05 0.870D-05 0.188D-05-0.542D-04
 Coeff:     -0.717D-04-0.461D-04 0.257D-03 0.198D-02 0.115D-02-0.642D-02
 Coeff:     -0.242D-01-0.589D-01 0.568D-01 0.338D+00 0.692D+00
 Gap=     0.150 Goal=   None    Shift=    0.000
 RMSDP=7.32D-08 MaxDP=6.57D-06 DE=-1.00D-10 OVMax= 3.85D-06

 Cycle  18  Pass 1  IDiag  1:
 RMSU=  3.38D-08    CP:  1.08D+00  2.30D-01  7.48D-01  1.23D+00  1.31D+00
                    CP:  1.21D+00  1.14D+00  7.63D-01  1.32D+00  1.43D+00
                    CP:  1.01D+00  9.32D-01  9.85D-01  1.24D+00  1.27D+00
                    CP:  1.09D+00  1.06D+00
 E= -1571.30243859103     Delta-E=       -0.000000000006 Rises=F Damp=F
 DIIS: error= 3.43D-08 at cycle  18 NSaved=  18.
 NSaved=18 IEnMin=18 EnMin= -1571.30243859103     IErMin=18 ErrMin= 3.43D-08
 ErrMax= 3.43D-08  0.00D+00 EMaxC= 1.00D-01 BMatC= 1.10D-12 BMatP= 7.02D-12
 IDIUse=1 WtCom= 1.00D+00 WtEn= 0.00D+00
 Coeff-Com:  0.701D-07-0.155D-06-0.242D-06-0.501D-06 0.892D-05 0.124D-04
 Coeff-Com: -0.137D-04-0.123D-03-0.182D-03-0.667D-04 0.139D-02 0.298D-02
 Coeff-Com:  0.207D-02-0.193D-01-0.410D-01-0.255D-01 0.274D+00 0.805D+00
 Coeff:      0.701D-07-0.155D-06-0.242D-06-0.501D-06 0.892D-05 0.124D-04
 Coeff:     -0.137D-04-0.123D-03-0.182D-03-0.667D-04 0.139D-02 0.298D-02
 Coeff:      0.207D-02-0.193D-01-0.410D-01-0.255D-01 0.274D+00 0.805D+00
 Gap=     0.150 Goal=   None    Shift=    0.000
 RMSDP=3.35D-08 MaxDP=2.60D-06 DE=-5.91D-12 OVMax= 1.45D-06

 Cycle  19  Pass 1  IDiag  1:
 RMSU=  1.37D-08    CP:  1.08D+00  2.30D-01  7.48D-01  1.23D+00  1.31D+00
                    CP:  1.21D+00  1.14D+00  7.63D-01  1.32D+00  1.43D+00
                    CP:  1.01D+00  9.31D-01  9.86D-01  1.24D+00  1.28D+00
                    CP:  1.11D+00  1.19D+00  8.20D-01
 E= -1571.30243859104     Delta-E=       -0.000000000016 Rises=F Damp=F
 DIIS: error= 1.18D-08 at cycle  19 NSaved=  19.
 NSaved=19 IEnMin=19 EnMin= -1571.30243859104     IErMin=19 ErrMin= 1.18D-08
 ErrMax= 1.18D-08  0.00D+00 EMaxC= 1.00D-01 BMatC= 1.58D-13 BMatP= 1.10D-12
 IDIUse=1 WtCom= 1.00D+00 WtEn= 0.00D+00
 Coeff-Com:  0.306D-07-0.495D-07-0.208D-06-0.977D-06 0.306D-05 0.937D-05
 Coeff-Com:  0.622D-05-0.356D-04-0.929D-04-0.261D-03 0.378D-03 0.187D-02
 Coeff-Com:  0.384D-02-0.395D-03-0.247D-01-0.558D-01 0.354D-01 0.338D+00
 Coeff-Com:  0.701D+00
 Coeff:      0.306D-07-0.495D-07-0.208D-06-0.977D-06 0.306D-05 0.937D-05
 Coeff:      0.622D-05-0.356D-04-0.929D-04-0.261D-03 0.378D-03 0.187D-02
 Coeff:      0.384D-02-0.395D-03-0.247D-01-0.558D-01 0.354D-01 0.338D+00
 Coeff:      0.701D+00
 Gap=     0.150 Goal=   None    Shift=    0.000
 RMSDP=1.24D-08 MaxDP=9.16D-07 DE=-1.64D-11 OVMax= 4.21D-07

 Cycle  20  Pass 1  IDiag  1:
 RMSU=  5.17D-09    CP:  1.08D+00  2.30D-01  7.48D-01  1.23D+00  1.31D+00
                    CP:  1.21D+00  1.14D+00  7.63D-01  1.32D+00  1.43D+00
                    CP:  1.01D+00  9.31D-01  9.86D-01  1.24D+00  1.28D+00
                    CP:  1.12D+00  1.22D+00  9.61D-01  8.52D-01
 E= -1571.30243859099     Delta-E=        0.000000000058 Rises=F Damp=F
 DIIS: error= 6.32D-09 at cycle  20 NSaved=  20.
 NSaved=20 IEnMin=19 EnMin= -1571.30243859104     IErMin=20 ErrMin= 6.32D-09
 ErrMax= 6.32D-09  0.00D+00 EMaxC= 1.00D-01 BMatC= 2.03D-14 BMatP= 1.58D-13
 IDIUse=1 WtCom= 1.00D+00 WtEn= 0.00D+00
 Coeff-Com:  0.298D-08-0.111D-07-0.409D-07-0.214D-06-0.332D-06 0.102D-05
 Coeff-Com:  0.487D-05 0.699D-05-0.313D-05-0.749D-04-0.103D-03 0.758D-04
 Coeff-Com:  0.975D-03 0.337D-02-0.130D-02-0.164D-01-0.339D-01-0.183D-01
 Coeff-Com:  0.260D+00 0.806D+00
 Coeff:      0.298D-08-0.111D-07-0.409D-07-0.214D-06-0.332D-06 0.102D-05
 Coeff:      0.487D-05 0.699D-05-0.313D-05-0.749D-04-0.103D-03 0.758D-04
 Coeff:      0.975D-03 0.337D-02-0.130D-02-0.164D-01-0.339D-01-0.183D-01
 Coeff:      0.260D+00 0.806D+00
 Gap=     0.150 Goal=   None    Shift=    0.000
 RMSDP=5.14D-09 MaxDP=5.13D-07 DE= 5.82D-11 OVMax= 2.10D-07

 SCF Done:  E(RM062X) =  -1571.30243859     A.U. after   20 cycles
            NFock= 20  Conv=0.51D-08     -V/T= 2.0030
 KE= 1.566627417429D+03 PE=-8.399135382137D+03 EE= 2.892038059768D+03
 Leave Link  502 at Sun Oct 13 22:06:08 2019, MaxMem= 10737418240 cpu:            5521.0 elap:             230.8
 (Enter /apps/cent7/gaussian/g16-A.03/g16-haswell/g16/l601.exe)
 Copying SCF densities to generalized density rwf, IOpCl= 0 IROHF=0.

 **********************************************************************

            Population analysis using the SCF density.

 **********************************************************************

 Orbital symmetries:
       Occupied  (A) (A) (A) (A) (A) (A) (A) (A) (A) (A) (A) (A)
                 (A) (A) (A) (A) (A) (A) (A) (A) (A) (A) (A) (A)
                 (A) (A) (A) (A) (A) (A) (A) (A) (A) (A) (A) (A)
                 (A) (A) (A) (A) (A) (A) (A) (A) (A) (A) (A) (A)
                 (A) (A) (A) (A) (A) (A) (A) (A) (A) (A) (A) (A)
                 (A) (A) (A) (A) (A) (A) (A) (A) (A) (A) (A) (A)
                 (A) (A) (A) (A) (A) (A) (A) (A) (A) (A) (A) (A)
                 (A) (A) (A) (A) (A) (A) (A) (A) (A) (A) (A) (A)
                 (A)
       Virtual   (A) (A) (A) (A) (A) (A) (A) (A) (A) (A) (A) (A)
                 (A) (A) (A) (A) (A) (A) (A) (A) (A) (A) (A) (A)
                 (A) (A) (A) (A) (A) (A) (A) (A) (A) (A) (A) (A)
                 (A) (A) (A) (A) (A) (A) (A) (A) (A) (A) (A) (A)
                 (A) (A) (A) (A) (A) (A) (A) (A) (A) (A) (A) (A)
                 (A) (A) (A) (A) (A) (A) (A) (A) (A) (A) (A) (A)
                 (A) (A) (A) (A) (A) (A) (A) (A) (A) (A) (A) (A)
                 (A) (A) (A) (A) (A) (A) (A) (A) (A) (A) (A) (A)
                 (A) (A) (A) (A) (A) (A) (A) (A) (A) (A) (A) (A)
                 (A) (A) (A) (A) (A) (A) (A) (A) (A) (A) (A) (A)
                 (A) (A) (A) (A) (A) (A) (A) (A) (A) (A) (A) (A)
                 (A) (A) (A) (A) (A) (A) (A) (A) (A) (A) (A) (A)
                 (A) (A) (A) (A) (A) (A) (A) (A) (A) (A) (A) (A)
                 (A) (A) (A) (A) (A) (A) (A) (A) (A) (A) (A) (A)
                 (A) (A) (A) (A) (A) (A) (A) (A) (A) (A) (A) (A)
                 (A) (A) (A) (A) (A) (A) (A) (A) (A) (A) (A) (A)
                 (A) (A) (A) (A) (A) (A) (A) (A) (A) (A) (A) (A)
                 (A) (A) (A) (A) (A) (A) (A) (A) (A) (A) (A) (A)
                 (A) (A) (A) (A) (A) (A) (A) (A) (A) (A) (A) (A)
                 (A) (A) (A) (A) (A) (A) (A) (A) (A) (A) (A) (A)
                 (A) (A) (A) (A) (A) (A) (A) (A) (A) (A) (A) (A)
                 (A) (A) (A) (A) (A) (A) (A) (A) (A) (A) (A) (A)
                 (A) (A) (A) (A) (A) (A) (A) (A) (A) (A) (A) (A)
                 (A) (A) (A) (A) (A) (A) (A) (A) (A) (A) (A) (A)
                 (A) (A) (A) (A) (A) (A) (A) (A) (A) (A) (A) (A)
                 (A) (A) (A) (A) (A) (A) (A) (A) (A) (A) (A) (A)
                 (A) (A) (A) (A) (A) (A) (A) (A) (A) (A) (A) (A)
                 (A) (A) (A) (A) (A) (A) (A) (A) (A) (A) (A) (A)
                 (A) (A) (A) (A) (A) (A) (A) (A) (A) (A) (A) (A)
                 (A) (A) (A) (A) (A) (A) (A) (A) (A) (A) (A) (A)
                 (A) (A) (A) (A) (A) (A) (A) (A) (A) (A) (A) (A)
                 (A) (A) (A) (A) (A) (A) (A) (A) (A) (A) (A) (A)
                 (A) (A) (A) (A) (A) (A) (A) (A) (A) (A) (A) (A)
                 (A) (A) (A) (A) (A) (A) (A) (A) (A) (A) (A) (A)
                 (A) (A) (A) (A) (A) (A) (A) (A) (A) (A) (A) (A)
                 (A) (A) (A) (A) (A) (A) (A) (A) (A) (A) (A) (A)
                 (A) (A) (A) (A) (A) (A) (A) (A) (A) (A) (A) (A)
                 (A) (A) (A) (A) (A) (A) (A) (A) (A) (A) (A) (A)
                 (A) (A) (A) (A) (A) (A) (A) (A) (A) (A) (A) (A)
                 (A) (A) (A) (A) (A) (A) (A) (A) (A) (A) (A) (A)
                 (A) (A) (A) (A) (A) (A) (A) (A) (A) (A) (A) (A)
[...]
 2441,-0.00000400,-0.00000721,-0.00001791,0.00001236,0.00000906,0.00000
 154,0.00000261,0.00000056,0.00000040,0.00000612,-0.00000033,-0.0000038
 7,-0.00000749,0.00000215,-0.00000797,-0.00000703,-0.00000587,0.0000026
 4,-0.00000231,0.00000226,0.00001234,-0.00001683,0.00000394,-0.00002362
 ,0.00000043,0.00000886,-0.00004880,-0.00002009,0.00012609,-0.00004703,
 -0.00009084,0.00004939,0.00012714,-0.00006992,-0.00006557,-0.00036462,
 0.00017667,0.00099034,-0.00399689,-0.00962849,-0.01089793,-0.00033608,
 0.00168969,-0.00373163,-0.04798082,-0.02104731,-0.02670283,-0.00070373
 ,0.00081587,0.00128202,-0.00000717,0.00003709,-0.00027747,-0.00002704,
 0.00003981,0.00009915,0.00000250,-0.00000720,0.00000431,0.00000075,0.0
 0000083,-0.00000050,-0.00000045,-0.00000103,0.00000066,0.00000080,-0.0
 0000042,0.00000101,-0.00000145,0.00000406,-0.00000233,0.00000537,0.000
 00222,-0.00000277,-0.00000337,0.00000005,0.00000088,-0.00000117,0.0000
 0118,0.00000005,-0.00000091,0.00000147,-0.00000031,-0.00000013,-0.0000
 0701,0.00000486,-0.00002337,-0.00000589,-0.00000939,-0.00004469,0.0000
 0151,0.00000898,-0.00194992,-0.00818735,-0.01489021,0.00702947,0.01441
 775,0.02241439,0.04800741,-0.00000237,0.00001583,0.00000554,0.00000659
 ,-0.00002232,-0.00000331,0.00000086,0.00001355,-0.00000561,-0.00000094
 ,0.00000223,0.00000289,-0.00000528,-0.00000083,0.00000124,0.00000848,-
 0.00000500,-0.00000654,-0.00001056,0.00000244,0.00000459,0.00002087,-0
 .00001650,-0.00001068,-0.00001816,0.00001879,0.00000885,0.00000880,0.0
 0000617,-0.00000618,-0.00000701,0.00000092,-0.00000800,0.00000082,0.00
 000363,-0.00000237,-0.00000713,-0.00000383,0.00000518,0.00000195,0.000
 00238,-0.00000013,-0.00000046,-0.00000676,-0.00000769,-0.00000968,-0.0
 0001472,-0.00002733,0.00001638,0.00000895,0.00004246,0.00010664,-0.000
 08750,-0.00010409,-0.00004652,0.00019605,-0.00010316,0.00013542,-0.000
 22057,-0.00150445,0.00048823,0.01226053,0.01398945,0.00342611,-0.00133
 286,0.00647050,-0.02181181,-0.15128555,-0.13954428,0.00021403,-0.00100
 295,-0.00100643,-0.00066875,-0.00057451,0.00082155,0.00007057,-0.00018
 617,-0.00033386,-0.00000567,-0.00000584,0.00000137,0.00000039,0.000000
 84,0.00000101,0.00000098,-0.00000061,0.00000044,0.00000017,-0.00000095
 ,0.00000086,0.00000233,-0.00000157,0.00000407,0.00001058,0.00000147,0.
 00000957,-0.00000260,-0.00000040,0.00000014,-0.00000022,-0.00000149,0.
 00000044,0.00000081,0.00000206,-0.00000007,0.00000635,0.00000671,0.000
 00271,0.00000622,-0.00000580,0.00000572,0.00010042,0.00006678,-0.00006
 789,-0.00047851,-0.01017417,-0.01903688,-0.00320209,-0.00514754,-0.005
 81338,0.02160598,0.15787396,0.00000345,-0.00003549,-0.00003576,-0.0000
 0112,0.00003211,0.00007222,-0.00001387,-0.00000384,-0.00003011,0.00000
 799,-0.00001691,-0.00001676,0.00002470,0.00000645,-0.00001838,-0.00007
 369,0.00001784,0.00002774,0.00007308,-0.00001447,-0.00002485,-0.000095
 11,0.00002921,0.00003561,0.00006569,-0.00006263,-0.00003593,-0.0000170
 5,-0.00000853,0.00000120,0.00002197,0.00001243,0.00000177,-0.00001677,
 0.00000293,0.00000329,0.00003424,0.00000708,-0.00002137,-0.00000630,-0
 .00001498,0.00000024,-0.00002996,0.00010699,0.00006951,-0.00003914,-0.
 00012938,0.00000799,0.00004171,0.00029339,0.00022371,-0.00028229,-0.00
 033261,0.00002460,0.00046811,-0.00025403,-0.00034741,-0.00027582,0.000
 30302,0.00166814,-0.00236287,-0.01262186,-0.01971340,-0.00214793,0.001
 86872,-0.00349468,-0.02822644,-0.13737469,-0.22333701,0.00160576,-0.00
 003729,0.00198096,0.00010854,0.00015678,-0.00005904,0.00019383,0.00022
 191,0.00015662,0.00001701,0.00000380,0.00001803,-0.00000561,-0.0000051
 4,-0.00000329,-0.00000341,0.00000033,-0.00000033,0.00000147,0.00000114
 ,0.00000149,0.00000177,0.00000162,0.00000343,-0.00001817,0.00000486,-0
 .00000562,0.00000616,0.00000337,0.00000419,0.00000222,0.00000519,-0.00
 000489,-0.00000313,-0.00000608,0.00000105,-0.00001860,-0.00001940,-0.0
 0002547,-0.00004471,-0.00000641,-0.00002432,-0.00007508,-0.00005871,0.
 00003724,0.00136868,0.00485449,0.00915642,-0.00167746,-0.00355209,-0.0
 0518013,0.03144887,0.14600629,0.23845066,-0.00000701,0.00000876,-0.000
 01076,0.00001760,-0.00002819,0.00003691,-0.00001196,0.00002425,-0.0000
 2949,-0.00000275,0.00000270,-0.00001144,-0.00001306,-0.00002816,-0.000
 00367,0.00001063,-0.00009472,-0.00004270,-0.00010933,0.00000537,0.0000
 3880,0.00010525,0.00007576,-0.00001383,-0.00003019,0.00000497,0.000018
 98,0.00001693,-0.00004556,-0.00005361,0.00000656,0.00014160,-0.0000089
 1,-0.00014014,0.00010838,0.00001708,0.00001675,0.00000138,0.00003259,-
 0.00000967,-0.00001184,0.00000269,0.00011828,-0.00023321,-0.00011891,-
 0.00042696,0.00106893,0.00043168,0.00389821,-0.00586291,0.00258262,-0.
 00105910,0.00005067,-0.00063111,0.00396818,-0.00279923,0.00059310,0.00
 293206,0.00114899,-0.00431684,-0.00018098,0.00041099,-0.00134398,-0.00
 011128,0.00000309,0.00010897,0.00012185,0.00004798,0.00018564,-0.00135
 616,0.00022844,0.00055174,-0.10373971,-0.01940822,0.12262537,-0.001356
 64,-0.00050397,0.01498252,0.00000276,-0.00000932,0.00001515,-0.0000000
 8,-0.00000064,-0.00000088,-0.00000063,-0.00000061,0.00000078,-0.000000
 48,-0.00000357,0.00000493,-0.00000706,0.00001828,-0.00000826,0.0000160
 2,-0.00002169,0.00002408,0.00000316,0.00000260,0.00000806,0.00000092,0
 .00000394,-0.00001082,0.00000038,-0.00000531,-0.00000226,-0.00012776,-
 0.00015247,0.00001040,-0.00058327,0.00035556,-0.00025749,0.00083617,-0
 .00033138,0.00003697,-0.00008812,-0.00004364,-0.00029758,0.00004892,0.
 00006231,0.00003030,0.00018557,0.00040015,-0.00018349,0.09992834,0.000
 01163,-0.00001172,-0.00002461,-0.00001062,0.00000311,0.00005751,0.0000
 0240,0.00001274,-0.00003140,0.00002421,-0.00002456,-0.00000857,0.00002
 537,-0.00002486,-0.00001859,-0.00010224,0.00005990,0.00007834,0.000170
 26,-0.00000719,-0.00006937,-0.00013661,-0.00012905,0.00002251,0.000049
 68,-0.00001030,-0.00002272,0.00001648,0.00008405,-0.00003800,0.0000082
 0,-0.00013377,-0.00004268,0.00002208,0.00000944,0.00005424,0.00006317,
 0.00005231,-0.00009520,-0.00000203,-0.00002397,0.00000519,-0.00024327,
 0.00011951,0.00004311,-0.00013046,0.00012633,0.00095232,-0.00539508,-0
 .00215937,-0.00084275,0.00007847,-0.00105575,0.00010522,-0.00301384,-0
 .00252559,-0.00367808,0.01099573,0.00488806,-0.01878992,0.00194719,-0.
 00066810,-0.00216513,-0.00001155,0.00028003,0.00049824,-0.00039809,-0.
 00031346,-0.00007173,-0.00001657,-0.00025692,0.00037168,-0.01875582,-0
 .05572009,0.01748016,-0.01177594,0.00316422,0.02337603,-0.00000196,-0.
 00000477,0.00001713,-0.00000984,-0.00001056,-0.00000163,0.00000106,0.0
 0000234,0.00000031,0.00000351,-0.00000094,-0.00000225,0.00003048,-0.00
 003219,0.00002593,-0.00002450,0.00003524,0.00011217,0.00000937,0.00000
 186,0.00000426,0.00000617,0.00000281,-0.00001248,-0.00000289,-0.000003
 91,-0.00000326,-0.00014509,-0.00024446,0.00009202,0.00034811,-0.000081
 72,0.00020749,0.00027668,0.00057364,-0.00103631,0.00002739,0.00000803,
 0.00025933,0.00003412,0.00012319,-0.00001395,0.00023783,-0.00061153,0.
 00027998,0.02381687,0.05454656,-0.00000428,0.00000750,-0.00000406,0.00
 001155,-0.00001557,0.00001448,-0.00000257,0.00001268,-0.00001330,-0.00
 000937,0.00000585,-0.00000366,-0.00000615,-0.00000540,0.00000151,0.000
 01629,-0.00004743,-0.00003528,-0.00008205,-0.00000168,0.00002883,0.000
 06736,0.00007038,-0.00000405,-0.00001206,-0.00001025,0.00000065,-0.000
 00816,-0.00007179,-0.00003100,0.00003267,0.00017549,0.00001424,-0.0000
 6603,0.00001151,-0.00002587,-0.00001956,-0.00001103,0.00003824,-0.0000
 0304,0.00000401,-0.00000021,0.00013611,-0.00011222,-0.00004802,-0.0000
 7426,0.00023879,-0.00015742,0.00230958,-0.00113660,0.00230996,-0.00054
 124,0.00059987,0.00049069,0.00007057,-0.00447825,0.00040564,0.00756749
 ,0.00325040,-0.01294045,0.00133358,-0.00017389,-0.00281946,-0.00022452
 ,-0.00014949,0.00039373,-0.00016701,-0.00007108,-0.00006138,-0.0001607
 0,0.00148380,0.00103071,0.12232892,0.01831289,-0.27974125,0.00206405,-
 0.00111594,-0.00034275,-0.00000280,-0.00000320,0.00000564,0.00000184,0
 .00000249,0.00000061,-0.00000057,-0.00000107,0.00000045,-0.00000058,-0
 .00000223,0.00000558,-0.00000478,0.00001814,0.00000830,0.00001922,-0.0
 0000467,-0.00005258,-0.00000062,0.00000146,0.00000217,-0.00000109,0.00
 000028,-0.00000097,0.00000124,-0.00000090,0.00000075,-0.00001984,0.000
 06069,-0.00006079,-0.00023408,0.00017956,-0.00017448,0.00074246,0.0001
 5330,-0.00034013,0.00001390,-0.00005248,0.00002454,0.00004667,0.000046
 29,0.00000957,-0.00000254,0.00007773,0.00027210,-0.13311119,-0.0177228
 6,0.29206582,-0.00006689,0.00008676,0.00001562,0.00012695,-0.00015456,
 0.00004569,-0.00005104,0.00010741,-0.00007470,-0.00006329,0.00003938,0
 .00000911,0.00014968,0.00000089,-0.00000411,0.00005595,0.00015457,-0.0
 0001528,0.00000822,-0.00011107,-0.00008476,-0.00006808,0.00003583,0.00
 007586,0.00001506,-0.00006808,-0.00004463,-0.00025901,0.00006851,0.000
 18605,0.00003737,0.00030376,-0.00000963,0.00063169,-0.00048360,-0.0002
 7187,-0.00018671,0.00002888,0.00012933,-0.00000068,0.00001661,0.000036
 07,0.00020880,-0.00019404,-0.00039472,-0.00183161,0.00322393,-0.001003
 53,0.00481734,0.00941539,0.01058480,0.00288468,-0.00259274,0.00479078,
 -0.00116121,0.00016370,0.00007456,0.00357515,-0.00512664,0.00297439,0.
 00116594,-0.00066404,-0.00047566,-0.00053012,-0.00021756,-0.00024450,-
 0.00014612,-0.00001231,0.00011255,-0.00018352,0.00010941,0.00004458,0.
 00182253,-0.01283378,-0.01160672,-0.04999509,-0.02900467,-0.01611309,-
 0.00001051,-0.00006025,0.00002992,0.00002431,0.00002471,-0.00000643,-0
 .00000870,-0.00001002,0.00000113,0.00000780,0.00000921,0.00001363,-0.0
 0003761,0.00003337,-0.00001828,-0.00041545,0.00022324,-0.00075966,-0.0
 0003401,0.00000312,0.00002290,-0.00001476,0.00000537,-0.00000361,0.000
 00105,0.00000067,-0.00000657,-0.00000537,-0.00025217,0.00017280,-0.000
 01526,0.00075181,0.00033358,-0.00049640,0.00029439,-0.00027554,0.00002
 117,-0.00000576,0.00004536,-0.00001841,0.00002483,-0.00000402,0.000025
 86,-0.00006211,0.00001791,-0.00268274,0.00219344,-0.00168556,0.0426607
 4,0.00002891,0.00000054,-0.00000555,-0.00005034,-0.00000648,0.00003558
 ,0.00004866,0.00002367,-0.00002283,0.00006913,-0.00007405,0.00001215,-
 0.00005328,-0.00002038,-0.00002273,-0.00030222,-0.00019123,0.00000724,
 0.00006656,-0.00000669,-0.00001960,0.00004199,-0.00029955,-0.00010274,
 -0.00015222,0.00016822,0.00006421,0.00004365,0.00010455,0.00013424,0.0
 0143493,-0.00095749,0.00059764,-0.00037887,-0.00049285,0.00042830,0.00
 002776,-0.00013632,-0.00028403,0.00001505,0.00000406,-0.00001666,-0.00
 016505,0.00032687,0.00076647,0.00089891,-0.00140775,0.00092328,0.00043
 860,0.00739794,0.00358050,-0.00283971,0.00130551,0.00035541,0.00051698
 ,0.00018596,0.00057763,-0.00479087,-0.00059457,0.00085871,-0.00027743,
 0.00018023,-0.00097234,-0.00006498,-0.00063424,-0.00009609,-0.00004621
 ,-0.00000781,-0.00000295,-0.00015621,0.00003001,0.00027139,-0.00207349
 ,-0.01329949,-0.01662082,-0.02950011,-0.20216982,-0.14748258,-0.000040
 92,-0.00001194,0.00000820,-0.00003293,-0.00002239,0.00000424,0.0000108
 4,0.00000320,0.00000266,-0.00001471,-0.00000045,-0.00000527,-0.0000102
 0,0.00002407,0.00001563,0.00015862,-0.00041401,0.00019482,0.00001606,-
 0.00000234,-0.00000249,0.00002054,0.00000348,-0.00000283,0.00001439,-0
 .00000018,-0.00000493,0.00002989,0.00015114,-0.00015302,0.00012382,0.0
 0026134,0.00036602,0.00027169,-0.00017289,0.00006391,0.00002613,-0.000
 00663,0.00001720,-0.00000950,-0.00000713,0.00000878,-0.00001607,-0.000
 03710,-0.00000612,0.00202993,-0.00030947,0.00083595,0.03459836,0.21115
 607,-0.00002253,-0.00001704,-0.00006825,0.00006106,-0.00003816,0.00017
 301,-0.00004282,0.00005717,-0.00010720,-0.00004043,0.00001284,-0.00003
 627,-0.00006523,-0.00001427,-0.00001273,0.00014941,0.00033256,0.000147
 30,0.00014319,-0.00015067,-0.00010363,-0.00025553,-0.00000328,0.000056
 57,0.00017474,-0.00019574,-0.00011813,-0.00014073,-0.00000637,0.000054
 62,0.00008419,0.00024335,0.00023131,-0.00010052,0.00005005,-0.00002014
 ,-0.00002930,0.00012229,0.00018192,-0.00003376,-0.00004674,-0.00000740
 ,0.00059849,0.00023021,-0.00059514,-0.00165545,0.00035367,0.00023805,-
 0.00352800,-0.02014738,-0.01353662,0.00446258,0.00035557,-0.00278854,0
 .00029654,0.00102861,-0.00065087,0.00293822,0.00071689,0.00184342,0.00
 029490,0.00014086,0.00071115,0.00011767,0.00055850,0.00009860,0.000000
 47,-0.00003293,-0.00001471,0.00007374,-0.00004211,-0.00014856,0.001976
 15,0.00783308,0.00892955,-0.01617783,-0.14663944,-0.19424431,0.0000188
 5,-0.00001234,0.00006102,0.00000743,0.00000327,-0.00001152,-0.00001410
 ,-0.00000538,-0.00000257,0.00001768,0.00000030,-0.00000455,0.00002950,
 -0.00001450,0.00002744,-0.00041835,-0.00011278,-0.00040401,0.00000228,
 0.00000449,0.00000830,-0.00000663,0.00000161,0.00000110,-0.00002227,-0
 .00000444,0.00000902,-0.00001250,-0.00009463,0.00020715,-0.00032775,-0
 .00096694,-0.00065381,-0.00027551,0.00007382,-0.00008377,-0.00000766,-
 0.00000106,0.00000280,0.00000639,-0.00000100,-0.00000421,-0.00000243,0
 .00001494,0.00000941,-0.00162245,0.00068484,-0.00011838,0.01337999,0.1
 5571957,0.20072715,-0.00003215,0.00016091,0.00011742,0.00004881,-0.000
 18133,-0.00020922,0.00002694,0.00006296,0.00005806,-0.00004079,0.00006
 943,0.00006042,-0.00009769,-0.00002954,0.00006890,0.00031475,-0.000092
 93,-0.00012621,-0.00035554,0.00005197,0.00010214,0.00044285,-0.0000859
 6,-0.00013753,-0.00030186,0.00025772,0.00014900,0.00009015,0.00002407,
 -0.00004399,-0.00008198,-0.00001157,-0.00001856,0.00002359,-0.00002804
 ,0.00000575,-0.00014686,-0.00001746,0.00009192,0.00002276,0.00005547,0
 .00000120,0.00018801,-0.00054148,-0.00035902,0.00013025,0.00077916,-0.
 00000564,-0.00053531,-0.00091642,0.00004172,0.00024232,0.00103558,0.00
 006620,-0.00047858,-0.00011884,0.00109863,0.00318618,-0.00017768,-0.00
 030539,-0.03026936,0.01758176,-0.01071049,0.00308071,-0.00215530,-0.00
 104522,-0.00161968,0.00053338,0.00288715,-0.21800007,0.15110247,-0.159
 12868,-0.00015589,-0.00099949,-0.00062943,0.00041832,0.00029095,-0.000
 48341,-0.00005942,-0.00002656,-0.00004300,0.00002416,0.00002182,0.0000
 1085,0.00001091,-0.00000257,0.00000236,-0.00000383,-0.00000763,0.00000
 283,0.00000355,0.00001726,0.00001126,0.00010266,-0.00003189,0.00004166
 ,-0.00002410,-0.00000683,-0.00001110,-0.00001025,-0.00001752,0.0000152
 6,0.00001205,0.00002053,-0.00000079,0.00009235,0.00005042,0.00012038,0
 .00004360,0.00008126,-0.00001643,0.00005581,-0.00008486,0.00012869,0.0
 0012827,0.00035352,-0.00011736,0.00025719,0.00061760,-0.00086473,0.000
 17662,-0.00030031,0.00010487,-0.00018944,-0.00022350,-0.00031884,0.000
 04230,0.00004390,-0.00003169,0.24323770,0.00001913,0.00001437,0.000012
 28,-0.00002697,-0.00000959,-0.00002753,0.00002545,0.00000271,0.0000125
 8,0.00001348,-0.00000810,-0.00000068,0.00000087,-0.00001642,-0.0000111
 8,-0.00003919,0.00001965,0.00004327,0.00009893,0.00002679,-0.00003739,
 -0.00004587,-0.00014162,-0.00001212,0.00001246,0.00004243,0.00000518,-
 0.00000482,0.00007057,0.00001012,-0.00000048,-0.00014129,-0.00003320,0
 .00001585,0.00010274,0.00000290,0.00004526,0.00001192,-0.00000864,0.00
 000184,-0.00000573,-0.00000923,-0.00009739,0.00012743,0.00007551,-0.00
 002756,-0.00018103,-0.00002779,0.00000351,0.00011811,-0.00004744,0.000
 00083,-0.00021646,0.00009750,-0.00007509,-0.00042569,-0.00030095,-0.00
 094598,0.00035620,0.00034308,0.01303134,-0.00379840,0.00421527,-0.0033
 0933,-0.00046390,-0.00043732,0.00081203,0.00052347,-0.00146884,0.15793
 661,-0.12163598,0.13085841,-0.00001029,-0.00044972,0.00053679,-0.00004
 963,-0.00042888,0.00001205,-0.00002172,-0.00000341,-0.00000669,-0.0000
 0635,-0.00000603,0.00000431,0.00000680,0.00000247,0.00000219,0.0000027
 4,-0.00000258,-0.00000328,0.00001683,-0.00006933,-0.00000861,-0.000100
 78,0.00000600,0.00003806,0.00000568,-0.00000356,0.00000166,0.00000371,
 0.00000095,-0.00000477,0.00000331,0.00000352,0.,-0.00001289,-0.0000045
 0,-0.00002371,-0.00003598,-0.00005506,0.00000801,0.00007901,0.00017504
 ,-0.00014323,-0.00011590,0.00030172,-0.00009754,0.00038313,0.00042155,
 0.00043371,0.00006324,0.00026377,0.00034071,-0.00043723,0.00027088,-0.
 00036103,-0.00006412,-0.00004362,0.00000870,-0.16715445,0.12524861,-0.
 00000171,0.00000452,-0.00001052,0.00000867,-0.00001291,0.00002832,-0.0
 0000519,0.00001437,-0.00002019,-0.00000024,-0.00000299,-0.00000140,-0.
 00000234,0.00000380,-0.00001446,-0.00000533,0.00000179,0.00000968,0.00
 000473,-0.00000047,-0.00001356,-0.00000945,0.00000114,0.00001738,0.000
 00881,-0.00000693,-0.00001176,-0.00001197,0.00000076,-0.00003150,-0.00
 000774,0.00003195,-0.00001729,0.00000707,-0.00000729,-0.00001315,-0.00
 000257,-0.00000435,-0.00000239,0.00000068,-0.00000257,0.00000107,0.000
 00871,0.00001864,0.00003206,-0.00002537,-0.00005314,-0.00002949,0.0000
 2835,0.00005965,0.00010859,-0.00003538,-0.00015513,-0.00031824,0.00048
 757,0.00058815,-0.00013463,-0.00086712,-0.00082928,-0.00120952,0.02094
 611,-0.01093183,0.01569133,-0.00282314,-0.00016151,-0.00376371,0.00373
 881,-0.00073835,-0.00213544,-0.19139044,0.14682530,-0.19267773,0.00007
 741,-0.00009345,0.00040213,-0.00002218,-0.00001132,-0.00009537,0.00000
 029,-0.00000468,0.00000852,-0.00000073,0.00000016,0.00000094,0.0000001
 6,-0.00000047,0.00000090,0.00000173,-0.00000093,0.00000483,0.00000679,
 -0.00000785,0.00003158,0.00001593,-0.00000369,0.00005051,-0.00000085,0
 .00000055,0.00000006,0.00000148,-0.00000054,-0.00000066,0.00000012,0.0
 0000029,0.00000131,0.00000590,-0.00000145,-0.00000414,0.00004307,0.000
 03425,0.00000932,0.00010525,-0.00004960,0.00001270,0.00003568,0.000028
 44,-0.00017066,0.00036215,-0.00059399,0.00147048,0.00014966,0.00011478
 ,0.00015114,-0.00025968,-0.00003652,-0.00014871,0.00000625,-0.00002619
 ,0.00001641,0.16942004,-0.13399114,0.18277526\\-0.00000046,-0.00000393
 ,0.00000114,-0.00000122,0.00000314,-0.00000133,-0.00000077,-0.00000152
 ,0.00000345,0.00000609,0.00000505,-0.00000588,-0.00000612,-0.00000694,
 0.00000162,0.00000344,0.00000162,0.00000028,-0.00000122,0.00000061,0.0
 0000028,-0.00000067,0.00000361,0.00000308,0.00000130,-0.00000205,-0.00
 000171,0.00000155,-0.00000151,-0.00000146,-0.00000290,0.00000217,-0.00
 000109,0.00000457,-0.00000446,0.00000093,0.00000629,0.00000217,0.00000
 203,-0.00000156,0.00000050,-0.00000314,-0.00001048,0.00000119,-0.00000
 663,0.00000209,0.00000036,0.00000663,-0.00000103,-0.00000074,0.0000004
 5,-0.00000001,0.00000100,0.00000007,-0.00000066,0.00000085,0.00000080,
 0.00000199,-0.00000271,-0.00000018,-0.00000243,-0.00000325,0.00000095,
 -0.00000044,0.00000350,-0.00000084,-0.00000260,-0.00000305,-0.00000264
 ,0.00000956,0.00001538,0.00000260,0.00000091,-0.00000088,0.00000025,-0
 .00000011,-0.00000094,0.00000013,-0.00000039,0.00000075,-0.00000044,-0
 .00000182,-0.00000146,-0.00000067,-0.00000043,0.00000002,0.00000108,0.
 00000135,0.00000054,0.00000034,-0.00000010,-0.00000002,-0.00000011,0.0
 0000010,-0.00000019,-0.00000033,0.00000055,0.00000048,-0.00000083,-0.0
 0000006,0.00000111,0.00000033,0.00000077,0.00000124,0.00000175,0.00000
 010,-0.00000064,0.00000025,0.00000010,-0.00000021,0.00000004,0.0000002
 7,0.,0.,-0.00000004,0.00000055,0.00000049,0.00000064,0.00000093,0.0000
 0072,0.00000110,0.00000033,0.00000048,-0.00000102,0.00000009,0.0000000
 5,0.00000015,-0.00000070,0.00000010,-0.00000637,-0.00001197,-0.0000030
 4\\\@


 HAPPINESS IS NOT HAVING WHAT YOU WANT --
 HAPPINESS IS WANTING WHAT YOU HAVE!

              -- FROM MRS. SEVERN'S DESK
 Job cpu time:       0 days 16 hours 15 minutes 40.6 seconds.
 Elapsed time:       0 days  0 hours 40 minutes 46.8 seconds.
 File lengths (MBytes):  RWF=   1964 Int=      0 D2E=      0 Chk=     41 Scr=      1
 Normal termination of Gaussian 16 at Mon Oct 14 00:11:56 2019.
real 7782.34
user 185435.10
sys 134.13
Machine:
brown-a419
brown-a419
brown-a419
brown-a419
brown-a419
brown-a419
brown-a419
brown-a419
brown-a419
brown-a419
brown-a419
brown-a419
brown-a419
brown-a419
brown-a419
brown-a419
brown-a419
brown-a419
brown-a419
brown-a419
brown-a419
brown-a419
brown-a419
brown-a419
