Title Card Required                                                     
Freq      RM062X                                                      6-311++G(d,p)       
Number of atoms                            I               18
Info1-9                                    I   N=           9
          46          46        1002           0           0         100
           6          18        -502
Full Title                                 C   N=           2
Title Card Required     
Route                                      C   N=           6
#P opt freq m062x/6-311++g(d,p) geom=connectivity temperatur
e=0.001     
Charge                                     I                0
Multiplicity                               I                1
Number of electrons                        I               82
Number of alpha electrons                  I               41
Number of beta electrons                   I               41
Number of basis functions                  I              284
Number of independent functions            I              283
Number of point charges in /Mol/           I                0
Number of translation vectors              I                0
Atomic numbers                             I   N=          18
           8          16           6           6           6           6
           6           6           6           8           1           1
           1           1           1           1           1           1
Nuclear charges                            R   N=          18
  8.00000000E+00  1.60000000E+01  6.00000000E+00  6.00000000E+00  6.00000000E+00
  6.00000000E+00  6.00000000E+00  6.00000000E+00  6.00000000E+00  8.00000000E+00
  1.00000000E+00  1.00000000E+00  1.00000000E+00  1.00000000E+00  1.00000000E+00
  1.00000000E+00  1.00000000E+00  1.00000000E+00
Current cartesian coordinates              R   N=          54
 -3.57446436E+00 -2.39785238E+00 -1.40460286E+00 -2.77021421E+00 -2.49584776E-04
 -3.21635757E-01  6.03134550E-01 -1.25790805E-04 -1.84236676E-01  1.87107393E+00
  2.29804604E+00 -1.09286251E-01  4.49239408E+00  2.28475127E+00  6.88717899E-02
  5.79365804E+00  1.49015151E-04  1.64099817E-01  4.49258767E+00 -2.28459970E+00
  6.92115191E-02  1.87127899E+00 -2.29818565E+00 -1.08838566E-01 -3.68260032E+00
  2.32550078E-03  2.93468955E+00 -3.57438930E+00  2.39555403E+00 -1.40857557E+00
  8.11301405E-01  4.04641577E+00 -2.34272027E-01  5.51868652E+00  4.05494188E+00
  1.15667025E-01  7.83688048E+00  2.22584248E-04  2.97052389E-01  5.51909442E+00
 -4.05466009E+00  1.16262241E-01  8.11519996E-01 -4.04659291E+00 -2.33316563E-01
 -2.94534550E+00 -1.70079242E+00  3.82189614E+00 -2.94489839E+00  1.70626867E+00
  3.81989203E+00 -5.74214390E+00  2.41252817E-03  2.94135122E+00
Number of symbols in /Mol/                 I                0
Force Field                                I                0
Atom Types                                 C   N=          18
                                                            
                                                            
                                                            
                                    
Int Atom Types                             I   N=          18
           0           0           0           0           0           0
           0           0           0           0           0           0
           0           0           0           0           0           0
MM charges                                 R   N=          18
  0.00000000E+00  0.00000000E+00  0.00000000E+00  0.00000000E+00  0.00000000E+00
  0.00000000E+00  0.00000000E+00  0.00000000E+00  0.00000000E+00  0.00000000E+00
  0.00000000E+00  0.00000000E+00  0.00000000E+00  0.00000000E+00  0.00000000E+00
  0.00000000E+00  0.00000000E+00  0.00000000E+00
Integer atomic weights                     I   N=          18
          16          32          12          12          12          12
          12          12          12          16           1           1
           1           1           1           1           1           1
Real atomic weights                        R   N=          18
  1.59949146E+01  3.19720718E+01  1.20000000E+01  1.20000000E+01  1.20000000E+01
  1.20000000E+01  1.20000000E+01  1.20000000E+01  1.20000000E+01  1.59949146E+01
  1.00782504E+00  1.00782504E+00  1.00782504E+00  1.00782504E+00  1.00782504E+00
  1.00782504E+00  1.00782504E+00  1.00782504E+00
Atom fragment info                         I   N=          18
           0           0           0           0           0           0
           0           0           0           0           0           0
           0           0           0           0           0           0
Atom residue num                           I   N=          18
           0           0           0           0           0           0
           0           0           0           0           0           0
           0           0           0           0           0           0
Nuclear spins                              I   N=          18
           0           0           0           0           0           0
           0           0           0           0           1           1
           1           1           1           1           1           1
Nuclear ZEff                               R   N=          18
 -5.60000000E+00 -1.36000000E+01 -3.60000000E+00 -3.60000000E+00 -3.60000000E+00
 -3.60000000E+00 -3.60000000E+00 -3.60000000E+00 -3.60000000E+00 -5.60000000E+00
 -1.00000000E+00 -1.00000000E+00 -1.00000000E+00 -1.00000000E+00 -1.00000000E+00
 -1.00000000E+00 -1.00000000E+00 -1.00000000E+00
Nuclear ZNuc                               R   N=          18
  8.00000000E+00  1.60000000E+01  6.00000000E+00  6.00000000E+00  6.00000000E+00
  6.00000000E+00  6.00000000E+00  6.00000000E+00  6.00000000E+00  8.00000000E+00
  1.00000000E+00  1.00000000E+00  1.00000000E+00  1.00000000E+00  1.00000000E+00
  1.00000000E+00  1.00000000E+00  1.00000000E+00
Nuclear QMom                               R   N=          18
  0.00000000E+00  0.00000000E+00  0.00000000E+00  0.00000000E+00  0.00000000E+00
  0.00000000E+00  0.00000000E+00  0.00000000E+00  0.00000000E+00  0.00000000E+00
  0.00000000E+00  0.00000000E+00  0.00000000E+00  0.00000000E+00  0.00000000E+00
  0.00000000E+00  0.00000000E+00  0.00000000E+00
Nuclear GFac                               R   N=          18
  0.00000000E+00  0.00000000E+00  0.00000000E+00  0.00000000E+00  0.00000000E+00
  0.00000000E+00  0.00000000E+00  0.00000000E+00  0.00000000E+00  0.00000000E+00
  2.79284600E+00  2.79284600E+00  2.79284600E+00  2.79284600E+00  2.79284600E+00
  2.79284600E+00  2.79284600E+00  2.79284600E+00
MicOpt                                     I   N=          18
          -1          -1          -1          -1          -1          -1
          -1          -1          -1          -1          -1          -1
          -1          -1          -1          -1          -1          -1
Number of residues                         I                0
Number of secondary structures             I                0
Redundant internal dimensions              I   N=           4
          87          18          30          39
Redundant internal coordinate indices      I   N=         348
           1           2           0           0           2           3
           0           0           2           9           0           0
           2          10           0           0           3           4
           0           0           3           8           0           0
           4           5           0           0           4          11
           0           0           5           6           0           0
           5          12           0           0           6           7
           0           0           6          13           0           0
           7           8           0           0           7          14
           0           0           8          15           0           0
           9          16           0           0           9          17
           0           0           9          18           0           0
           1           2           3           0           1           2
           9           0           1           2          10           0
           3           2           9           0           3           2
          10           0           9           2          10           0
           2           3           4           0           2           3
           8           0           4           3           8           0
           3           4           5           0           3           4
          11           0           5           4          11           0
           4           5           6           0           4           5
          12           0           6           5          12           0
           5           6           7           0           5           6
          13           0           7           6          13           0
           6           7           8           0           6           7
          14           0           8           7          14           0
           3           8           7           0           3           8
          15           0           7           8          15           0
           2           9          16           0           2           9
          17           0           2           9          18           0
          16           9          17           0          16           9
          18           0          17           9          18           0
           1           2           3           4           1           2
           3           8           9           2           3           4
           9           2           3           8          10           2
           3           4          10           2           3           8
           1           2           9          16           1           2
           9          17           1           2           9          18
           3           2           9          16           3           2
           9          17           3           2           9          18
          10           2           9          16          10           2
           9          17          10           2           9          18
           2           3           4           5           2           3
           4          11           8           3           4           5
           8           3           4          11           2           3
           8           7           2           3           8          15
           4           3           8           7           4           3
           8          15           3           4           5           6
           3           4           5          12          11           4
           5           6          11           4           5          12
           4           5           6           7           4           5
           6          13          12           5           6           7
          12           5           6          13           5           6
           7           8           5           6           7          14
          13           6           7           8          13           6
           7          14           6           7           8           3
           6           7           8          15          14           7
           8           3          14           7           8          15
Redundant internal coordinates             R   N=          87
  2.75102439E+00  3.37614579E+00  3.38173174E+00  2.75100177E+00  2.62581066E+00
  2.62582450E+00  2.62740107E+00  2.04830074E+00  2.63092451E+00  2.04671462E+00
  2.63094367E+00  2.04754348E+00  2.62738380E+00  2.04671533E+00  2.04829486E+00
  2.05701017E+00  2.05699049E+00  2.05955436E+00  1.88405066E+00  1.87638069E+00
  2.11531453E+00  1.80327180E+00  1.88401929E+00  1.87645785E+00  2.07563825E+00
  2.07565909E+00  2.13169868E+00  2.07061299E+00  2.08919323E+00  2.12310061E+00
  2.09474951E+00  2.09145019E+00  2.09694281E+00  2.10389050E+00  2.08964262E+00
  2.08961611E+00  2.09476148E+00  2.09691116E+00  2.09147021E+00  2.07060163E+00
  2.08912179E+00  2.12318459E+00  1.89439994E+00  1.89468208E+00  1.84721464E+00
  1.95164316E+00  1.93590297E+00  1.93606777E+00  2.73917428E+00 -4.22874816E-01
 -1.55987244E+00  1.56126377E+00  4.24340367E-01 -2.73770873E+00  9.27039097E-01
  3.05190570E+00 -1.15195146E+00 -1.06264797E+00  1.06221863E+00  3.14154678E+00
 -3.05233066E+00 -9.27464060E-01  1.15186409E+00  3.11059776E+00 -5.59335642E-02
 -9.85067888E-03  3.10680330E+00 -3.11064285E+00  5.58338922E-02  9.80534421E-03
 -3.10690322E+00  1.88673657E-03  3.13355196E+00 -3.11426044E+00  1.74047837E-02
  5.85111259E-03  3.13829109E+00 -3.12578260E+00  6.65738531E-03 -5.89731414E-03
  3.12577589E+00 -3.13833743E+00 -6.66423153E-03 -1.79619572E-03  3.11440432E+00
 -3.13350050E+00 -1.72999753E-02
ZRed-IntVec                                I   N=          87
           0           0           0           0           0           0
           0           0           0           0           0           0
           0           0           0           0           0           0
           0           0           0           0           0           0
           0           0           0           0           0           0
           0           0           0           0           0           0
           0           0           0           0           0           0
           0           0           0           0           0           0
           0           0           0           0           0           0
           0           0           0           0           0           0
           0           0           0           0           0           0
           0           0           0           0           0           0
           0           0           0           0           0           0
           0           0           0           0           0           0
           0           0           0
ZRed-FPVec                                 R   N=          87
  0.00000000E+00  0.00000000E+00  0.00000000E+00  0.00000000E+00  0.00000000E+00
  0.00000000E+00  0.00000000E+00  0.00000000E+00  0.00000000E+00  0.00000000E+00
  0.00000000E+00  0.00000000E+00  0.00000000E+00  0.00000000E+00  0.00000000E+00
  0.00000000E+00  0.00000000E+00  0.00000000E+00  0.00000000E+00  0.00000000E+00
  0.00000000E+00  0.00000000E+00  0.00000000E+00  0.00000000E+00  0.00000000E+00
  0.00000000E+00  0.00000000E+00  0.00000000E+00  0.00000000E+00  0.00000000E+00
  0.00000000E+00  0.00000000E+00  0.00000000E+00  0.00000000E+00  0.00000000E+00
  0.00000000E+00  0.00000000E+00  0.00000000E+00  0.00000000E+00  0.00000000E+00
  0.00000000E+00  0.00000000E+00  0.00000000E+00  0.00000000E+00  0.00000000E+00
  0.00000000E+00  0.00000000E+00  0.00000000E+00  0.00000000E+00  0.00000000E+00
  0.00000000E+00  0.00000000E+00  0.00000000E+00  0.00000000E+00  0.00000000E+00
  0.00000000E+00  0.00000000E+00  0.00000000E+00  0.00000000E+00  0.00000000E+00
  0.00000000E+00  0.00000000E+00  0.00000000E+00  0.00000000E+00  0.00000000E+00
  0.00000000E+00  0.00000000E+00  0.00000000E+00  0.00000000E+00  0.00000000E+00
  0.00000000E+00  0.00000000E+00  0.00000000E+00  0.00000000E+00  0.00000000E+00
  0.00000000E+00  0.00000000E+00  0.00000000E+00  0.00000000E+00  0.00000000E+00
  0.00000000E+00  0.00000000E+00  0.00000000E+00  0.00000000E+00  0.00000000E+00
  0.00000000E+00  0.00000000E+00
ZRed-Constraint1                           R   N=          87
  2.75102439E+00  3.37614579E+00  3.38173174E+00  2.75100177E+00  2.62581066E+00
  2.62582450E+00  2.62740107E+00  2.04830074E+00  2.63092451E+00  2.04671462E+00
  2.63094367E+00  2.04754348E+00  2.62738380E+00  2.04671533E+00  2.04829486E+00
  2.05701017E+00  2.05699049E+00  2.05955436E+00  1.88405066E+00  1.87638069E+00
  2.11531453E+00  1.80327180E+00  1.88401929E+00  1.87645785E+00  2.07563825E+00
  2.07565909E+00  2.13169868E+00  2.07061299E+00  2.08919323E+00  2.12310061E+00
  2.09474951E+00  2.09145019E+00  2.09694281E+00  2.10389050E+00  2.08964262E+00
  2.08961611E+00  2.09476148E+00  2.09691116E+00  2.09147021E+00  2.07060163E+00
  2.08912179E+00  2.12318459E+00  1.89439994E+00  1.89468208E+00  1.84721464E+00
  1.95164316E+00  1.93590297E+00  1.93606777E+00  2.73917428E+00 -4.22874816E-01
 -1.55987244E+00  1.56126377E+00  4.24340367E-01 -2.73770873E+00  9.27039097E-01
  3.05190570E+00 -1.15195146E+00 -1.06264797E+00  1.06221863E+00  3.14154678E+00
 -3.05233066E+00 -9.27464060E-01  1.15186409E+00  3.11059776E+00 -5.59335642E-02
 -9.85067888E-03  3.10680330E+00 -3.11064285E+00  5.58338922E-02  9.80534421E-03
 -3.10690322E+00  1.88673657E-03  3.13355196E+00 -3.11426044E+00  1.74047837E-02
  5.85111259E-03  3.13829109E+00 -3.12578260E+00  6.65738531E-03 -5.89731414E-03
  3.12577589E+00 -3.13833743E+00 -6.66423153E-03 -1.79619572E-03  3.11440432E+00
 -3.13350050E+00 -1.72999753E-02
ZRed-Constraint2                           R   N=          87
  3.03252282E+00  3.34811374E+00  3.46119407E+00  3.03271713E+00  2.66635868E+00
  2.66631485E+00  2.65750009E+00  2.05976349E+00  2.65827458E+00  2.05970753E+00
  2.65808386E+00  2.05987630E+00  2.65751373E+00  2.05982423E+00  2.05971358E+00
  2.05976262E+00  2.05980151E+00  2.05991408E+00  1.93202313E+00  1.90497530E+00
  1.89249441E+00  1.89709213E+00  1.93201224E+00  1.90494201E+00  2.09801804E+00
  2.09799406E+00  2.08695834E+00  2.09749710E+00  2.09567109E+00  2.09001710E+00
  2.09443954E+00  2.09415554E+00  2.09459022E+00  2.09533121E+00  2.09387569E+00
  2.09397840E+00  2.09451241E+00  2.09453652E+00  2.09413637E+00  2.09746915E+00
  2.09567800E+00  2.09003815E+00  1.91062383E+00  1.91062131E+00  1.91062726E+00
  1.91061848E+00  1.91069324E+00  1.91061528E+00  2.63148977E+00 -5.32472640E-01
 -1.55961100E+00  1.55961190E+00  5.32426010E-01 -2.63153640E+00  1.19737689E+00
 -2.99144445E+00 -8.97082294E-01 -9.11452138E-01  1.18291183E+00 -3.00591132E+00
 -3.02024790E+00 -9.25883931E-01  1.16847823E+00  3.13821140E+00 -3.48254993E-03
  1.88470315E-02 -3.12284692E+00 -3.13823338E+00  3.53882355E-03 -1.88686992E-02
  3.12290350E+00 -7.29711807E-03  3.13432259E+00  3.13439650E+00 -7.16909398E-03
 -4.35482969E-03  3.13732945E+00  3.13721076E+00 -4.29026523E-03  4.33306294E-03
 -3.13719694E+00 -3.13735122E+00  4.30407786E-03  7.34081795E-03 -3.13443080E+00
 -3.13431447E+00  7.09921782E-03
SymInf integers                            I   N=          26
           1           1           1           1           1           0
           0           0           0           0           0           0
           0           0           0           0           0           0
           0           0           0           0           0           0
           0           0
RotTr to input orientation                 R   N=          12
 -5.41913237E-01  5.57378906E-01  6.29014148E-01 -4.53998255E-01  4.35696369E-01
 -7.77209276E-01 -7.07259236E-01 -7.06751320E-01  1.69394209E-02 -5.24093616E-01
 -6.67428639E-01  8.31727576E-02
Number of contracted shells                I              107
Number of primitive shells                 I              197
Pure/Cartesian d shells                    I                0
Pure/Cartesian f shells                    I                0
Highest angular momentum                   I                2
Largest degree of contraction              I                6
Shell types                                I   N=         107
           0          -1          -1          -1          -1          -2
           0           0           0           0           0           0
          -1           1           1           1           1           1
          -2           0          -1          -1          -1          -1
          -2           0          -1          -1          -1          -1
          -2           0          -1          -1          -1          -1
          -2           0          -1          -1          -1          -1
          -2           0          -1          -1          -1          -1
          -2           0          -1          -1          -1          -1
          -2           0          -1          -1          -1          -1
          -2           0          -1          -1          -1          -1
          -2           0           0           0           0           1
           0           0           0           0           1           0
           0           0           0           1           0           0
           0           0           1           0           0           0
           0           1           0           0           0           0
           1           0           0           0           0           1
           0           0           0           0           1
Number of primitives per shell             I   N=         107
           6           3           1           1           1           1
           6           3           1           1           1           1
           1           4           2           1           1           1
           1           6           3           1           1           1
           1           6           3           1           1           1
           1           6           3           1           1           1
           1           6           3           1           1           1
           1           6           3           1           1           1
           1           6           3           1           1           1
           1           6           3           1           1           1
           1           6           3           1           1           1
           1           3           1           1           1           1
           3           1           1           1           1           3
           1           1           1           1           3           1
           1           1           1           3           1           1
           1           1           3           1           1           1
           1           3           1           1           1           1
           3           1           1           1           1
Shell to atom map                          I   N=         107
           1           1           1           1           1           1
           2           2           2           2           2           2
           2           2           2           2           2           2
           2           3           3           3           3           3
           3           4           4           4           4           4
           4           5           5           5           5           5
           5           6           6           6           6           6
           6           7           7           7           7           7
           7           8           8           8           8           8
           8           9           9           9           9           9
           9          10          10          10          10          10
          10          11          11          11          11          11
          12          12          12          12          12          13
          13          13          13          13          14          14
          14          14          14          15          15          15
          15          15          16          16          16          16
          16          17          17          17          17          17
          18          18          18          18          18
Primitive exponents                        R   N=         197
  8.58850000E+03  1.29723000E+03  2.99296000E+02  8.73771000E+01  2.56789000E+01
  3.74004000E+00  4.21175000E+01  9.62837000E+00  2.85332000E+00  9.05661000E-01
  2.55611000E-01  8.45000000E-02  1.29200000E+00  9.34134000E+04  1.39617000E+04
  3.16991000E+03  9.02456000E+02  2.97158000E+02  1.08702000E+02  1.08702000E+02
  4.31553000E+01  1.81079000E+01  5.56009000E+00  2.13183000E+00  4.20403000E-01
  1.36045000E-01  4.05000000E-02  4.95040000E+02  1.17221000E+02  3.77749000E+01
  1.40584000E+01  5.56574000E+00  2.26297000E+00  8.07994000E-01  2.77460000E-01
  7.71410000E-02  6.50000000E-01  4.56324000E+03  6.82024000E+02  1.54973000E+02
  4.44553000E+01  1.30290000E+01  1.82773000E+00  2.09642000E+01  4.80331000E+00
  1.45933000E+00  4.83456000E-01  1.45585000E-01  4.38000000E-02  6.26000000E-01
  4.56324000E+03  6.82024000E+02  1.54973000E+02  4.44553000E+01  1.30290000E+01
  1.82773000E+00  2.09642000E+01  4.80331000E+00  1.45933000E+00  4.83456000E-01
  1.45585000E-01  4.38000000E-02  6.26000000E-01  4.56324000E+03  6.82024000E+02
  1.54973000E+02  4.44553000E+01  1.30290000E+01  1.82773000E+00  2.09642000E+01
  4.80331000E+00  1.45933000E+00  4.83456000E-01  1.45585000E-01  4.38000000E-02
  6.26000000E-01  4.56324000E+03  6.82024000E+02  1.54973000E+02  4.44553000E+01
  1.30290000E+01  1.82773000E+00  2.09642000E+01  4.80331000E+00  1.45933000E+00
  4.83456000E-01  1.45585000E-01  4.38000000E-02  6.26000000E-01  4.56324000E+03
  6.82024000E+02  1.54973000E+02  4.44553000E+01  1.30290000E+01  1.82773000E+00
  2.09642000E+01  4.80331000E+00  1.45933000E+00  4.83456000E-01  1.45585000E-01
  4.38000000E-02  6.26000000E-01  4.56324000E+03  6.82024000E+02  1.54973000E+02
  4.44553000E+01  1.30290000E+01  1.82773000E+00  2.09642000E+01  4.80331000E+00
  1.45933000E+00  4.83456000E-01  1.45585000E-01  4.38000000E-02  6.26000000E-01
  4.56324000E+03  6.82024000E+02  1.54973000E+02  4.44553000E+01  1.30290000E+01
  1.82773000E+00  2.09642000E+01  4.80331000E+00  1.45933000E+00  4.83456000E-01
  1.45585000E-01  4.38000000E-02  6.26000000E-01  8.58850000E+03  1.29723000E+03
  2.99296000E+02  8.73771000E+01  2.56789000E+01  3.74004000E+00  4.21175000E+01
  9.62837000E+00  2.85332000E+00  9.05661000E-01  2.55611000E-01  8.45000000E-02
  1.29200000E+00  3.38650000E+01  5.09479000E+00  1.15879000E+00  3.25840000E-01
  1.02741000E-01  3.60000000E-02  7.50000000E-01  3.38650000E+01  5.09479000E+00
  1.15879000E+00  3.25840000E-01  1.02741000E-01  3.60000000E-02  7.50000000E-01
  3.38650000E+01  5.09479000E+00  1.15879000E+00  3.25840000E-01  1.02741000E-01
  3.60000000E-02  7.50000000E-01  3.38650000E+01  5.09479000E+00  1.15879000E+00
  3.25840000E-01  1.02741000E-01  3.60000000E-02  7.50000000E-01  3.38650000E+01
  5.09479000E+00  1.15879000E+00  3.25840000E-01  1.02741000E-01  3.60000000E-02
  7.50000000E-01  3.38650000E+01  5.09479000E+00  1.15879000E+00  3.25840000E-01
  1.02741000E-01  3.60000000E-02  7.50000000E-01  3.38650000E+01  5.09479000E+00
  1.15879000E+00  3.25840000E-01  1.02741000E-01  3.60000000E-02  7.50000000E-01
  3.38650000E+01  5.09479000E+00  1.15879000E+00  3.25840000E-01  1.02741000E-01
  3.60000000E-02  7.50000000E-01
Contraction coefficients                   R   N=         197
  1.89515008E-03  1.43859006E-02  7.07320031E-02  2.40001011E-01  5.94797026E-01
  2.80802012E-01  1.13889012E-01  9.20811101E-01 -3.27447036E-03  1.00000000E+00
  1.00000000E+00  1.00000000E+00  1.00000000E+00  7.42999957E-04  5.79299966E-03
  2.99539983E-02  1.19027993E-01  3.68431979E-01  5.77298966E-01  1.43186060E-01
  6.24465262E-01  2.83366119E-01  1.00000000E+00  1.00000000E+00  1.00000000E+00
  1.00000000E+00  1.00000000E+00  8.30900251E-03  6.40240194E-02  2.77614084E-01
  7.45076225E-01  6.13711672E-01  4.43817763E-01  1.00000000E+00  1.00000000E+00
  1.00000000E+00  1.00000000E+00  1.96665025E-03  1.52306019E-02  7.61269097E-02
  2.60801033E-01  6.16462078E-01  2.21006028E-01  1.14660081E-01  9.19999648E-01
 -3.03068213E-03  1.00000000E+00  1.00000000E+00  1.00000000E+00  1.00000000E+00
  1.96665025E-03  1.52306019E-02  7.61269097E-02  2.60801033E-01  6.16462078E-01
  2.21006028E-01  1.14660081E-01  9.19999648E-01 -3.03068213E-03  1.00000000E+00
  1.00000000E+00  1.00000000E+00  1.00000000E+00  1.96665025E-03  1.52306019E-02
  7.61269097E-02  2.60801033E-01  6.16462078E-01  2.21006028E-01  1.14660081E-01
  9.19999648E-01 -3.03068213E-03  1.00000000E+00  1.00000000E+00  1.00000000E+00
  1.00000000E+00  1.96665025E-03  1.52306019E-02  7.61269097E-02  2.60801033E-01
  6.16462078E-01  2.21006028E-01  1.14660081E-01  9.19999648E-01 -3.03068213E-03
  1.00000000E+00  1.00000000E+00  1.00000000E+00  1.00000000E+00  1.96665025E-03
  1.52306019E-02  7.61269097E-02  2.60801033E-01  6.16462078E-01  2.21006028E-01
  1.14660081E-01  9.19999648E-01 -3.03068213E-03  1.00000000E+00  1.00000000E+00
  1.00000000E+00  1.00000000E+00  1.96665025E-03  1.52306019E-02  7.61269097E-02
  2.60801033E-01  6.16462078E-01  2.21006028E-01  1.14660081E-01  9.19999648E-01
 -3.03068213E-03  1.00000000E+00  1.00000000E+00  1.00000000E+00  1.00000000E+00
  1.96665025E-03  1.52306019E-02  7.61269097E-02  2.60801033E-01  6.16462078E-01
  2.21006028E-01  1.14660081E-01  9.19999648E-01 -3.03068213E-03  1.00000000E+00
  1.00000000E+00  1.00000000E+00  1.00000000E+00  1.89515008E-03  1.43859006E-02
  7.07320031E-02  2.40001011E-01  5.94797026E-01  2.80802012E-01  1.13889012E-01
  9.20811101E-01 -3.27447036E-03  1.00000000E+00  1.00000000E+00  1.00000000E+00
  1.00000000E+00  2.54938145E-02  1.90373109E-01  8.52161486E-01  1.00000000E+00
  1.00000000E+00  1.00000000E+00  1.00000000E+00  2.54938145E-02  1.90373109E-01
  8.52161486E-01  1.00000000E+00  1.00000000E+00  1.00000000E+00  1.00000000E+00
  2.54938145E-02  1.90373109E-01  8.52161486E-01  1.00000000E+00  1.00000000E+00
  1.00000000E+00  1.00000000E+00  2.54938145E-02  1.90373109E-01  8.52161486E-01
  1.00000000E+00  1.00000000E+00  1.00000000E+00  1.00000000E+00  2.54938145E-02
  1.90373109E-01  8.52161486E-01  1.00000000E+00  1.00000000E+00  1.00000000E+00
  1.00000000E+00  2.54938145E-02  1.90373109E-01  8.52161486E-01  1.00000000E+00
  1.00000000E+00  1.00000000E+00  1.00000000E+00  2.54938145E-02  1.90373109E-01