 Entering Gaussian System, Link 0=/apps/cent7/gaussian/g16-A.03/g16-haswell/g16/g16
 Initial command:
 /apps/cent7/gaussian/g16-A.03/g16-haswell/g16/l1.exe "/scratch/brown/finej/gaussian/Gau-112882.inp" -scrdir="/scratch/brown/finej/gaussian/"
 Entering Link 1 = /apps/cent7/gaussian/g16-A.03/g16-haswell/g16/l1.exe PID=    112885.
  
 Copyright (c) 1988,1990,1992,1993,1995,1998,2003,2009,2016,
            Gaussian, Inc.  All Rights Reserved.
  
 This is part of the Gaussian(R) 16 program.  It is based on
 the Gaussian(R) 09 system (copyright 2009, Gaussian, Inc.),
 the Gaussian(R) 03 system (copyright 2003, Gaussian, Inc.),
 the Gaussian(R) 98 system (copyright 1998, Gaussian, Inc.),
 the Gaussian(R) 94 system (copyright 1995, Gaussian, Inc.),
 the Gaussian 92(TM) system (copyright 1992, Gaussian, Inc.),
 the Gaussian 90(TM) system (copyright 1990, Gaussian, Inc.),
 the Gaussian 88(TM) system (copyright 1988, Gaussian, Inc.),
 the Gaussian 86(TM) system (copyright 1986, Carnegie Mellon
 University), and the Gaussian 82(TM) system (copyright 1983,
 Carnegie Mellon University). Gaussian is a federally registered
 trademark of Gaussian, Inc.
  
 This software contains proprietary and confidential information,
 including trade secrets, belonging to Gaussian, Inc.
  
 This software is provided under written license and may be
 used, copied, transmitted, or stored only in accord with that
 written license.
  
 The following legend is applicable only to US Government
 contracts under FAR:
  
                    RESTRICTED RIGHTS LEGEND
  
 Use, reproduction and disclosure by the US Government is
 subject to restrictions as set forth in subparagraphs (a)
 and (c) of the Commercial Computer Software - Restricted
 Rights clause in FAR 52.227-19.
  
 Gaussian, Inc.
 340 Quinnipiac St., Bldg. 40, Wallingford CT 06492
  
  
 ---------------------------------------------------------------
 Warning -- This program may not be used in any manner that
 competes with the business of Gaussian, Inc. or will provide
 assistance to any competitor of Gaussian, Inc.  The licensee
 of this program is prohibited from giving any competitor of
 Gaussian, Inc. access to this program.  By using this program,
 the user acknowledges that Gaussian, Inc. is engaged in the
 business of creating and licensing software in the field of
 computational chemistry and represents and warrants to the
 licensee that it is not a competitor of Gaussian, Inc. and that
 it will not use this program in any manner prohibited above.
 ---------------------------------------------------------------
  

 Cite this work as:
 Gaussian 16, Revision A.03,
 M. J. Frisch, G. W. Trucks, H. B. Schlegel, G. E. Scuseria, 
 M. A. Robb, J. R. Cheeseman, G. Scalmani, V. Barone, 
 G. A. Petersson, H. Nakatsuji, X. Li, M. Caricato, A. V. Marenich, 
 J. Bloino, B. G. Janesko, R. Gomperts, B. Mennucci, H. P. Hratchian, 
 J. V. Ortiz, A. F. Izmaylov, J. L. Sonnenberg, D. Williams-Young, 
 F. Ding, F. Lipparini, F. Egidi, J. Goings, B. Peng, A. Petrone, 
 T. Henderson, D. Ranasinghe, V. G. Zakrzewski, J. Gao, N. Rega, 
 G. Zheng, W. Liang, M. Hada, M. Ehara, K. Toyota, R. Fukuda, 
 J. Hasegawa, M. Ishida, T. Nakajima, Y. Honda, O. Kitao, H. Nakai, 
 T. Vreven, K. Throssell, J. A. Montgomery, Jr., J. E. Peralta, 
 F. Ogliaro, M. J. Bearpark, J. J. Heyd, E. N. Brothers, K. N. Kudin, 
 V. N. Staroverov, T. A. Keith, R. Kobayashi, J. Normand, 
 K. Raghavachari, A. P. Rendell, J. C. Burant, S. S. Iyengar, 
 J. Tomasi, M. Cossi, J. M. Millam, M. Klene, C. Adamo, R. Cammi, 
 J. W. Ochterski, R. L. Martin, K. Morokuma, O. Farkas, 
 J. B. Foresman, and D. J. Fox, Gaussian, Inc., Wallingford CT, 2016.
 
 ******************************************
 Gaussian 16:  ES64L-G16RevA.03 25-Dec-2016
                13-Oct-2019 
 ******************************************
 %chk=27.chk
 %nprocshared=24
 Will use up to   24 processors via shared memory.
 %mem=80GB
 -------------------------------------------------------------------
 #P opt freq m062x/6-311++g(d,p) geom=connectivity temperature=0.001
 -------------------------------------------------------------------
 1/18=20,19=15,26=3,38=1,57=2,112=-1000/1,3;
 2/9=110,12=2,17=6,18=5,40=1/2;
 3/5=4,6=6,7=1111,11=2,25=1,30=1,71=1,74=-55/1,2,3;
 4//1;
 5/5=2,38=5/2;
 6/7=2,8=2,9=2,10=2,28=1/1;
 7//1,2,3,16;
 1/18=20,19=15,26=3/3(2);
 2/9=110/2;
 99//99;
 2/9=110/2;
 3/5=4,6=6,7=1111,11=2,25=1,30=1,71=1,74=-55/1,2,3;
 4/5=5,16=3,69=1/1;
 5/5=2,38=5/2;
 7//1,2,3,16;
 1/18=20,19=15,26=3/3(-5);
 2/9=110/2;
 6/7=2,8=2,9=2,10=2,19=2,28=1/1;
 99/9=1/99;
 Leave Link    1 at Sun Oct 13 22:03:17 2019, MaxMem= 10737418240 cpu:               0.9 elap:               0.0
 (Enter /apps/cent7/gaussian/g16-A.03/g16-haswell/g16/l101.exe)
 -------------------
 Title Card Required
 -------------------
 Symbolic Z-matrix:
 Charge =  0 Multiplicity = 1
 O                     2.0115   -1.3969   -0.2231 
 S                     0.5805   -1.0676   -0.8704 
 C                    -0.4103   -0.1184    0.2505 
 C                    -1.3767    0.7826   -0.2446 
 C                    -2.1656    1.5327    0.6457 
 C                    -1.9985    1.3794    2.034 
 C                    -1.0463    0.4723    2.533 
 C                    -0.2567   -0.2785    1.6439 
 C                    -0.2886   -2.6376   -1.2371 
 O                     0.8157   -0.264    -2.2395 
 H                    -1.5143    0.8997   -1.3195 
 H                    -2.9065    2.2328    0.2598 
 H                    -2.6075    1.964     2.7236 
 H                    -0.9203    0.3511    3.6089 
 H                     0.4752   -0.9851    2.0351 
 H                    -0.5607   -3.129    -0.303 
 H                    -1.1898   -2.428    -1.8133 
 H                     0.3675   -3.2901   -1.8133 
 
 ITRead=  0  0  0  0  0  0  0  0  0  0  0  0  0  0  0  0  0  0
 MicOpt= -1 -1 -1 -1 -1 -1 -1 -1 -1 -1 -1 -1 -1 -1 -1 -1 -1 -1
 NAtoms=     18 NQM=       18 NQMF=       0 NMMI=      0 NMMIF=      0
                NMic=       0 NMicF=      0.
                    Isotopes and Nuclear Properties:
 (Nuclear quadrupole moments (NQMom) in fm**2, nuclear magnetic moments (NMagM)
  in nuclear magnetons)

  Atom         1           2           3           4           5           6           7           8           9          10
 IAtWgt=          16          32          12          12          12          12          12          12          12          16
 AtmWgt=  15.9949146  31.9720718  12.0000000  12.0000000  12.0000000  12.0000000  12.0000000  12.0000000  12.0000000  15.9949146
 NucSpn=           0           0           0           0           0           0           0           0           0           0
 AtZEff=  -0.0000000  -0.0000000  -0.0000000  -0.0000000  -0.0000000  -0.0000000  -0.0000000  -0.0000000  -0.0000000  -0.0000000
 NQMom=    0.0000000   0.0000000   0.0000000   0.0000000   0.0000000   0.0000000   0.0000000   0.0000000   0.0000000   0.0000000
 NMagM=    0.0000000   0.0000000   0.0000000   0.0000000   0.0000000   0.0000000   0.0000000   0.0000000   0.0000000   0.0000000
 AtZNuc=   8.0000000  16.0000000   6.0000000   6.0000000   6.0000000   6.0000000   6.0000000   6.0000000   6.0000000   8.0000000

  Atom        11          12          13          14          15          16          17          18
 IAtWgt=           1           1           1           1           1           1           1           1
 AtmWgt=   1.0078250   1.0078250   1.0078250   1.0078250   1.0078250   1.0078250   1.0078250   1.0078250
 NucSpn=           1           1           1           1           1           1           1           1
 AtZEff=  -0.0000000  -0.0000000  -0.0000000  -0.0000000  -0.0000000  -0.0000000  -0.0000000  -0.0000000
 NQMom=    0.0000000   0.0000000   0.0000000   0.0000000   0.0000000   0.0000000   0.0000000   0.0000000
 NMagM=    2.7928460   2.7928460   2.7928460   2.7928460   2.7928460   2.7928460   2.7928460   2.7928460
 AtZNuc=   1.0000000   1.0000000   1.0000000   1.0000000   1.0000000   1.0000000   1.0000000   1.0000000
 Leave Link  101 at Sun Oct 13 22:03:17 2019, MaxMem= 10737418240 cpu:               8.3 elap:               0.4
 (Enter /apps/cent7/gaussian/g16-A.03/g16-haswell/g16/l103.exe)

 GradGradGradGradGradGradGradGradGradGradGradGradGradGradGradGradGradGrad
 Berny optimization.
 Initialization pass.
                           ----------------------------
                           !    Initial Parameters    !
                           ! (Angstroms and Degrees)  !
 --------------------------                            --------------------------
 ! Name  Definition              Value          Derivative Info.                !
 --------------------------------------------------------------------------------
 ! R1    R(1,2)                  1.6047         estimate D2E/DX2                !
 ! R2    R(2,3)                  1.7717         estimate D2E/DX2                !
 ! R3    R(2,9)                  1.8316         estimate D2E/DX2                !
 ! R4    R(2,10)                 1.6048         estimate D2E/DX2                !
 ! R5    R(3,4)                  1.411          estimate D2E/DX2                !
 ! R6    R(3,8)                  1.411          estimate D2E/DX2                !
 ! R7    R(4,5)                  1.4063         estimate D2E/DX2                !
 ! R8    R(4,11)                 1.09           estimate D2E/DX2                !
 ! R9    R(5,6)                  1.4067         estimate D2E/DX2                !
 ! R10   R(5,12)                 1.09           estimate D2E/DX2                !
 ! R11   R(6,7)                  1.4066         estimate D2E/DX2                !
 ! R12   R(6,13)                 1.09           estimate D2E/DX2                !
 ! R13   R(7,8)                  1.4063         estimate D2E/DX2                !
 ! R14   R(7,14)                 1.09           estimate D2E/DX2                !
 ! R15   R(8,15)                 1.09           estimate D2E/DX2                !
 ! R16   R(9,16)                 1.09           estimate D2E/DX2                !
 ! R17   R(9,17)                 1.09           estimate D2E/DX2                !
 ! R18   R(9,18)                 1.0901         estimate D2E/DX2                !
 ! A1    A(1,2,3)              110.6968         estimate D2E/DX2                !
 ! A2    A(1,2,9)              109.147          estimate D2E/DX2                !
 ! A3    A(1,2,10)             108.4319         estimate D2E/DX2                !
 ! A4    A(3,2,9)              108.6954         estimate D2E/DX2                !
 ! A5    A(3,2,10)             110.6961         estimate D2E/DX2                !
 ! A6    A(9,2,10)             109.1451         estimate D2E/DX2                !
 ! A7    A(2,3,4)              120.2076         estimate D2E/DX2                !
 ! A8    A(2,3,8)              120.2062         estimate D2E/DX2                !
 ! A9    A(4,3,8)              119.5739         estimate D2E/DX2                !
 ! A10   A(3,4,5)              120.1777         estimate D2E/DX2                !
 ! A11   A(3,4,11)             120.0731         estimate D2E/DX2                !
 ! A12   A(5,4,11)             119.7492         estimate D2E/DX2                !
 ! A13   A(4,5,6)              120.0025         estimate D2E/DX2                !
 ! A14   A(4,5,12)             119.9863         estimate D2E/DX2                !
 ! A15   A(6,5,12)             120.0112         estimate D2E/DX2                !
 ! A16   A(5,6,7)              120.0536         estimate D2E/DX2                !
 ! A17   A(5,6,13)             119.9702         estimate D2E/DX2                !
 ! A18   A(7,6,13)             119.9761         estimate D2E/DX2                !
 ! A19   A(6,7,8)              120.0067         estimate D2E/DX2                !
 ! A20   A(6,7,14)             120.0081         estimate D2E/DX2                !
 ! A21   A(8,7,14)             119.9852         estimate D2E/DX2                !
 ! A22   A(3,8,7)              120.1761         estimate D2E/DX2                !
 ! A23   A(3,8,15)             120.0735         estimate D2E/DX2                !
 ! A24   A(7,8,15)             119.7504         estimate D2E/DX2                !
 ! A25   A(2,9,16)             109.4707         estimate D2E/DX2                !
 ! A26   A(2,9,17)             109.4705         estimate D2E/DX2                !
 ! A27   A(2,9,18)             109.4709         estimate D2E/DX2                !
 ! A28   A(16,9,17)            109.4704         estimate D2E/DX2                !
 ! A29   A(16,9,18)            109.4747         estimate D2E/DX2                !
 ! A30   A(17,9,18)            109.4702         estimate D2E/DX2                !
 ! D1    D(1,2,3,4)            150.7733         estimate D2E/DX2                !
 ! D2    D(1,2,3,8)            -30.5084         estimate D2E/DX2                !
 ! D3    D(9,2,3,4)            -89.3591         estimate D2E/DX2                !
 ! D4    D(9,2,3,8)             89.3592         estimate D2E/DX2                !
 ! D5    D(10,2,3,4)            30.5058         estimate D2E/DX2                !
 ! D6    D(10,2,3,8)          -150.7759         estimate D2E/DX2                !
 ! D7    D(1,2,9,16)            68.6046         estimate D2E/DX2                !
 ! D8    D(1,2,9,17)          -171.3971         estimate D2E/DX2                !
 ! D9    D(1,2,9,18)           -51.399          estimate D2E/DX2                !
 ! D10   D(3,2,9,16)           -52.2224         estimate D2E/DX2                !
 ! D11   D(3,2,9,17)            67.7759         estimate D2E/DX2                !
 ! D12   D(3,2,9,18)          -172.226          estimate D2E/DX2                !
 ! D13   D(10,2,9,16)         -173.0475         estimate D2E/DX2                !
 ! D14   D(10,2,9,17)          -53.0492         estimate D2E/DX2                !
 ! D15   D(10,2,9,18)           66.9489         estimate D2E/DX2                !
 ! D16   D(2,3,4,5)            179.8063         estimate D2E/DX2                !
 ! D17   D(2,3,4,11)            -0.1995         estimate D2E/DX2                !
 ! D18   D(8,3,4,5)              1.0799         estimate D2E/DX2                !
 ! D19   D(8,3,4,11)          -178.9259         estimate D2E/DX2                !
 ! D20   D(2,3,8,7)           -179.8075         estimate D2E/DX2                !
 ! D21   D(2,3,8,15)             0.2028         estimate D2E/DX2                !
 ! D22   D(4,3,8,7)             -1.0811         estimate D2E/DX2                !
 ! D23   D(4,3,8,15)           178.9292         estimate D2E/DX2                !
 ! D24   D(3,4,5,6)             -0.4181         estimate D2E/DX2                !
 ! D25   D(3,4,5,12)           179.5835         estimate D2E/DX2                !
 ! D26   D(11,4,5,6)           179.5877         estimate D2E/DX2                !
 ! D27   D(11,4,5,12)           -0.4108         estimate D2E/DX2                !
 ! D28   D(4,5,6,7)             -0.2495         estimate D2E/DX2                !
 ! D29   D(4,5,6,13)           179.7557         estimate D2E/DX2                !
 ! D30   D(12,5,6,7)           179.7489         estimate D2E/DX2                !
 ! D31   D(12,5,6,13)           -0.2458         estimate D2E/DX2                !
 ! D32   D(5,6,7,8)              0.2483         estimate D2E/DX2                !
 ! D33   D(5,6,7,14)          -179.7481         estimate D2E/DX2                !
 ! D34   D(13,6,7,8)          -179.757          estimate D2E/DX2                !
 ! D35   D(13,6,7,14)            0.2466         estimate D2E/DX2                !
 ! D36   D(6,7,8,3)              0.4206         estimate D2E/DX2                !
 ! D37   D(6,7,8,15)          -179.5897         estimate D2E/DX2                !
 ! D38   D(14,7,8,3)          -179.583          estimate D2E/DX2                !
 ! D39   D(14,7,8,15)            0.4068         estimate D2E/DX2                !
 --------------------------------------------------------------------------------
 Trust Radius=3.00D-01 FncErr=1.00D-07 GrdErr=1.00D-06 EigMax=2.50D+02 EigMin=1.00D-04
 Number of steps in this run=     97 maximum allowed number of steps=    108.
 GradGradGradGradGradGradGradGradGradGradGradGradGradGradGradGradGradGrad

 Leave Link  103 at Sun Oct 13 22:03:17 2019, MaxMem= 10737418240 cpu:               0.2 elap:               0.0
 (Enter /apps/cent7/gaussian/g16-A.03/g16-haswell/g16/l202.exe)
                          Input orientation:                          
 ---------------------------------------------------------------------
 Center     Atomic      Atomic             Coordinates (Angstroms)
 Number     Number       Type             X           Y           Z
 ---------------------------------------------------------------------
      1          8           0        2.011500   -1.396900   -0.223100
      2         16           0        0.580500   -1.067600   -0.870400
      3          6           0       -0.410300   -0.118400    0.250500
      4          6           0       -1.376700    0.782600   -0.244600
      5          6           0       -2.165600    1.532700    0.645700
      6          6           0       -1.998500    1.379400    2.034000
      7          6           0       -1.046300    0.472300    2.533000
      8          6           0       -0.256700   -0.278500    1.643900
      9          6           0       -0.288600   -2.637600   -1.237100
     10          8           0        0.815700   -0.264000   -2.239500
     11          1           0       -1.514300    0.899700   -1.319500
     12          1           0       -2.906500    2.232800    0.259800
     13          1           0       -2.607500    1.964000    2.723600
     14          1           0       -0.920300    0.351100    3.608900
     15          1           0        0.475200   -0.985100    2.035100
     16          1           0       -0.560700   -3.129000   -0.303000
     17          1           0       -1.189800   -2.428000   -1.813300
     18          1           0        0.367500   -3.290100   -1.813300
 ---------------------------------------------------------------------
                    Distance matrix (angstroms):
                    1          2          3          4          5
     1  O    0.000000
     2  S    1.604742   0.000000
     3  C    2.779204   1.771745   0.000000
     4  C    4.028720   2.765049   1.410976   0.000000
     5  C    5.175474   4.074455   2.442006   1.406288   0.000000
     6  C    5.374239   4.590707   2.818981   2.436149   1.406698
     7  C    4.521077   4.074420   2.441972   2.814340   2.437044
     8  C    3.143444   2.765011   1.410953   2.438599   2.814382
     9  C    2.803211   1.831585   2.928162   3.723813   4.945651
    10  O    2.603703   1.604845   2.779276   3.143504   4.521135
    11  H    4.348302   2.908633   2.172612   1.089980   2.164923
    12  H    6.131447   4.932460   3.429175   2.167438   1.089950
    13  H    6.427585   5.680738   3.909003   3.423563   2.167709
    14  H    5.131781   4.932468   3.429195   3.904351   3.424544
    15  H    2.762112   2.908578   2.172574   3.428021   3.904302
    16  H    3.102059   2.423561   3.064750   3.996233   5.020676
    17  H    3.720245   2.423574   3.193923   3.578226   4.762983
    18  H    2.969121   2.423620   3.863150   4.699993   5.976845
                    6          7          8          9         10
     6  C    0.000000
     7  C    1.406597   0.000000
     8  C    2.436119   1.406296   0.000000
     9  C    5.455286   4.945629   3.723779   0.000000
    10  O    5.374317   5.175513   4.028777   2.803259   0.000000
    11  H    3.422064   3.904286   3.428039   3.744546   2.762155
    12  H    2.168073   3.424492   3.904331   5.728430   5.131791
    13  H    1.090040   2.167681   3.423568   6.499166   6.427647
    14  H    2.168000   1.090012   2.167484   5.728446   6.131544
    15  H    3.421995   2.164921   1.089953   3.744521   4.348348
    16  H    5.277737   4.609562   3.465283   1.089979   3.721926
    17  H    5.472843   5.227108   4.176513   1.090000   2.981036
    18  H    6.496453   5.919866   4.627266   1.090060   3.088658
                   11         12         13         14         15
    11  H    0.000000
    12  H    2.491900   0.000000
    13  H    4.321398   2.496390   0.000000
    14  H    4.994289   4.324611   2.496367   0.000000
    15  H    4.331734   4.994243   4.321373   2.491926   0.000000
    16  H    4.262986   5.879492   6.268042   5.248178   3.337081
    17  H    3.379752   5.382180   6.471708   6.098875   4.434452
    18  H    4.619462   6.746795   7.552460   6.657103   4.487183
                   16         17         18
    16  H    0.000000
    17  H    1.779936   0.000000
    18  H    1.780032   1.780000   0.000000
 Stoichiometry    C7H8O2S
 Framework group  C1[X(C7H8O2S)]
 Deg. of freedom    48
 Full point group                 C1      NOp   1
 Largest Abelian subgroup         C1      NOp   1
 Largest concise Abelian subgroup C1      NOp   1
                         Standard orientation:                         
 ---------------------------------------------------------------------
 Center     Atomic      Atomic             Coordinates (Angstroms)
 Number     Number       Type             X           Y           Z
 ---------------------------------------------------------------------
      1          8           0       -1.983764   -1.301818   -0.874414
      2         16           0       -1.440340   -0.000026   -0.109414
      3          6           0        0.330535   -0.000004   -0.053883
      4          6           0        1.039654    1.219306   -0.017994
      5          6           0        2.445116    1.218549    0.030183
      6          6           0        3.147543   -0.000032    0.051588
      7          6           0        2.445115   -1.218494    0.030140
      8          6           0        1.039644   -1.219293   -0.018010
      9          6           0       -2.081519   -0.000044    1.606276
     10          8           0       -1.983819    1.301884   -0.874389
     11          1           0        0.499324    2.165883   -0.027625
     12          1           0        2.989982    2.162309    0.050957
     13          1           0        4.237073    0.000001    0.084908
     14          1           0        2.990022   -2.162302    0.050896
     15          1           0        0.499338   -2.165851   -0.027706
     16          1           0       -1.618994   -0.812286    2.166979
     17          1           0       -1.844618    0.951279    2.082682
     18          1           0       -3.162556   -0.139073    1.590166
 ---------------------------------------------------------------------
 Rotational constants (GHZ):           2.3715833           0.7729675           0.6897146
 Leave Link  202 at Sun Oct 13 22:03:17 2019, MaxMem= 10737418240 cpu:               0.4 elap:               0.0
 (Enter /apps/cent7/gaussian/g16-A.03/g16-haswell/g16/l301.exe)
 Standard basis: 6-311++G(d,p) (5D, 7F)
 Ernie: Thresh=  0.10000D-02 Tol=  0.10000D-05 Strict=F.
 There are   294 symmetry adapted cartesian basis functions of A   symmetry.
 There are   284 symmetry adapted basis functions of A   symmetry.
   284 basis functions,   446 primitive gaussians,   294 cartesian basis functions
    41 alpha electrons       41 beta electrons
       nuclear repulsion energy       608.4651520005 Hartrees.
 IExCor= 4336 DFT=T Ex+Corr=M062X ExCW=0 ScaHFX=  0.540000
 ScaDFX=  1.000000  1.000000  1.000000  1.000000 ScalE2=  1.000000  1.000000
 IRadAn=      5 IRanWt=     -1 IRanGd=            0 ICorTp=0 IEmpDi=  4
 NAtoms=   18 NActive=   18 NUniq=   18 SFac= 1.00D+00 NAtFMM=   60 NAOKFM=F Big=F
 Integral buffers will be    131072 words long.
 Raffenetti 2 integral format.
 Two-electron integral symmetry is turned on.
 Leave Link  301 at Sun Oct 13 22:03:17 2019, MaxMem= 10737418240 cpu:               1.3 elap:               0.1
 (Enter /apps/cent7/gaussian/g16-A.03/g16-haswell/g16/l302.exe)
 NPDir=0 NMtPBC=     1 NCelOv=     1 NCel=       1 NClECP=     1 NCelD=      1
         NCelK=      1 NCelE2=     1 NClLst=     1 CellRange=     0.0.
 One-electron integrals computed using PRISM.
 One-electron integral symmetry used in STVInt
 NBasis=   284 RedAO= T EigKep=  2.69D-06  NBF=   284
 NBsUse=   283 1.00D-06 EigRej=  8.67D-07 NBFU=   283
 Precomputing XC quadrature grid using
 IXCGrd= 4 IRadAn=           5 IRanWt=          -1 IRanGd=           0 AccXCQ= 0.00D+00.
 Generated NRdTot=       0 NPtTot=           0 NUsed=           0 NTot=          32
 NSgBfM=   294   294   294   294   294 MxSgAt=    18 MxSgA2=    18.
 Leave Link  302 at Sun Oct 13 22:03:18 2019, MaxMem= 10737418240 cpu:               5.2 elap:               0.2
 (Enter /apps/cent7/gaussian/g16-A.03/g16-haswell/g16/l303.exe)
 DipDrv:  MaxL=1.
 Leave Link  303 at Sun Oct 13 22:03:18 2019, MaxMem= 10737418240 cpu:               0.8 elap:               0.1
 (Enter /apps/cent7/gaussian/g16-A.03/g16-haswell/g16/l401.exe)
 ExpMin= 3.60D-02 ExpMax= 9.34D+04 ExpMxC= 3.17D+03 IAcc=3 IRadAn=         5 AccDes= 0.00D+00
 Harris functional with IExCor= 1009 and IRadAn=       5 diagonalized for initial guess.
 HarFok:  IExCor= 1009 AccDes= 0.00D+00 IRadAn=         5 IDoV= 1 UseB2=F ITyADJ=14
 ICtDFT=  3500011 ScaDFX=  1.000000  1.000000  1.000000  1.000000
 FoFCou: FMM=F IPFlag=           0 FMFlag=      100000 FMFlg1=           0
         NFxFlg=           0 DoJE=T BraDBF=F KetDBF=T FulRan=T
         wScrn=  0.000000 ICntrl=       500 IOpCl=  0 I1Cent=   200000004 NGrid=           0
         NMat0=    1 NMatS0=      1 NMatT0=    0 NMatD0=    1 NMtDS0=    0 NMtDT0=    0
 Petite list used in FoFCou.
 Harris En= -819.767119406592    
 JPrj=0 DoOrth=F DoCkMO=F.
 Leave Link  401 at Sun Oct 13 22:03:18 2019, MaxMem= 10737418240 cpu:              10.5 elap:               0.5
 (Enter /apps/cent7/gaussian/g16-A.03/g16-haswell/g16/l502.exe)
 Integral symmetry usage will be decided dynamically.
 Closed shell SCF:
 Using DIIS extrapolation, IDIIS=  1040.
 NGot= 10737418240 LenX= 10737235427 LenY= 10737148550
 Requested convergence on RMS density matrix=1.00D-08 within 128 cycles.
 Requested convergence on MAX density matrix=1.00D-06.
 Requested convergence on             energy=1.00D-06.
 No special actions if energy rises.
 Fock matrices will be formed incrementally for  20 cycles.

 Cycle   1  Pass 1  IDiag  1:
 FoFJK:  IHMeth= 1 ICntrl=       0 DoSepK=F KAlg= 0 I1Cent=           0 FoldK=F
 IRaf= 940000000 NMat=       1 IRICut=       1 DoRegI=T DoRafI=F ISym2E= 0 IDoP0=0 IntGTp=1.
 FoFCou: FMM=F IPFlag=           0 FMFlag=      100000 FMFlg1=           0
         NFxFlg=           0 DoJE=F BraDBF=F KetDBF=F FulRan=T
         wScrn=  0.000000 ICntrl=         0 IOpCl=  0 I1Cent=           0 NGrid=           0
         NMat0=    1 NMatS0=      1 NMatT0=    0 NMatD0=    1 NMtDS0=    0 NMtDT0=    0
 Symmetry not used in FoFCou.
 E= -819.544605221730    
 DIIS: error= 5.14D-02 at cycle   1 NSaved=   1.
 NSaved= 1 IEnMin= 1 EnMin= -819.544605221730     IErMin= 1 ErrMin= 5.14D-02
 ErrMax= 5.14D-02  0.00D+00 EMaxC= 1.00D-01 BMatC= 6.64D-01 BMatP= 6.64D-01
 IDIUse=3 WtCom= 4.86D-01 WtEn= 5.14D-01
 Coeff-Com:  0.100D+01
 Coeff-En:   0.100D+01
 Coeff:      0.100D+01
 Gap=     0.209 Goal=   None    Shift=    0.000
 GapD=    0.209 DampG=1.000 DampE=0.500 DampFc=0.5000 IDamp=-1.
 Damping current iteration by 5.00D-01
 RMSDP=5.35D-01 MaxDP=4.41D+01              OVMax= 2.72D-01

 Cycle   2  Pass 1  IDiag  1:
 RMSU=  7.14D-02    CP:  3.00D+00
 E= -819.667186225780     Delta-E=       -0.122581004051 Rises=F Damp=T
 DIIS: error= 2.36D-02 at cycle   2 NSaved=   2.
 NSaved= 2 IEnMin= 2 EnMin= -819.667186225780     IErMin= 2 ErrMin= 2.36D-02
 ErrMax= 2.36D-02  0.00D+00 EMaxC= 1.00D-01 BMatC= 8.95D-02 BMatP= 6.64D-01
 IDIUse=3 WtCom= 7.64D-01 WtEn= 2.36D-01
 Coeff-Com:  0.179D+00 0.821D+00
 Coeff-En:   0.352D+00 0.648D+00
 Coeff:      0.220D+00 0.780D+00
 Gap=     0.361 Goal=   None    Shift=    0.000
 RMSDP=1.62D-01 MaxDP=1.35D+01 DE=-1.23D-01 OVMax= 1.99D-01

 Cycle   3  Pass 1  IDiag  1:
 RMSU=  8.96D-03    CP:  1.83D+00  3.89D-01
 E= -819.980848285858     Delta-E=       -0.313662060078 Rises=F Damp=F
 DIIS: error= 1.61D-02 at cycle   3 NSaved=   3.
 NSaved= 3 IEnMin= 3 EnMin= -819.980848285858     IErMin= 3 ErrMin= 1.61D-02
 ErrMax= 1.61D-02  0.00D+00 EMaxC= 1.00D-01 BMatC= 3.79D-02 BMatP= 8.95D-02
 IDIUse=3 WtCom= 8.39D-01 WtEn= 1.61D-01
 Coeff-Com:  0.188D-01 0.381D+00 0.600D+00
 Coeff-En:   0.000D+00 0.000D+00 0.100D+01
 Coeff:      0.158D-01 0.320D+00 0.665D+00
 Gap=     0.324 Goal=   None    Shift=    0.000
 RMSDP=4.20D-02 MaxDP=3.35D+00 DE=-3.14D-01 OVMax= 5.11D-02

 Cycle   4  Pass 1  IDiag  1:
 RMSU=  4.37D-03    CP:  2.16D+00  5.46D-01  1.06D+00
 E= -820.009547160700     Delta-E=       -0.028698874842 Rises=F Damp=F
 DIIS: error= 4.87D-03 at cycle   4 NSaved=   4.
 NSaved= 4 IEnMin= 4 EnMin= -820.009547160700     IErMin= 4 ErrMin= 4.87D-03
 ErrMax= 4.87D-03  0.00D+00 EMaxC= 1.00D-01 BMatC= 7.32D-03 BMatP= 3.79D-02
 IDIUse=3 WtCom= 9.51D-01 WtEn= 4.87D-02
 Coeff-Com: -0.376D-02 0.406D-01 0.322D+00 0.642D+00
 Coeff-En:   0.000D+00 0.000D+00 0.152D+00 0.848D+00
 Coeff:     -0.357D-02 0.386D-01 0.313D+00 0.652D+00
 Gap=     0.299 Goal=   None    Shift=    0.000
 RMSDP=1.15D-02 MaxDP=9.21D-01 DE=-2.87D-02 OVMax= 1.94D-02

 Cycle   5  Pass 1  IDiag  1:
 RMSU=  5.72D-04    CP:  2.07D+00  5.06D-01  1.10D+00  6.64D-01
 E= -820.016168803108     Delta-E=       -0.006621642408 Rises=F Damp=F
 DIIS: error= 1.19D-03 at cycle   5 NSaved=   5.
 NSaved= 5 IEnMin= 5 EnMin= -820.016168803108     IErMin= 5 ErrMin= 1.19D-03
 ErrMax= 1.19D-03  0.00D+00 EMaxC= 1.00D-01 BMatC= 1.59D-04 BMatP= 7.32D-03
 IDIUse=3 WtCom= 9.88D-01 WtEn= 1.19D-02
 Coeff-Com: -0.147D-02-0.118D-02 0.816D-01 0.232D+00 0.689D+00
 Coeff-En:   0.000D+00 0.000D+00 0.000D+00 0.000D+00 0.100D+01
 Coeff:     -0.145D-02-0.116D-02 0.807D-01 0.229D+00 0.693D+00
 Gap=     0.298 Goal=   None    Shift=    0.000
 RMSDP=1.96D-03 MaxDP=1.77D-01 DE=-6.62D-03 OVMax= 4.96D-03

 Cycle   6  Pass 1  IDiag  1:
 RMSU=  2.71D-04    CP:  2.05D+00  4.99D-01  1.09D+00  7.09D-01  1.10D+00
 E= -820.016309941930     Delta-E=       -0.000141138822 Rises=F Damp=F
 DIIS: error= 6.78D-04 at cycle   6 NSaved=   6.
 NSaved= 6 IEnMin= 6 EnMin= -820.016309941930     IErMin= 6 ErrMin= 6.78D-04
 ErrMax= 6.78D-04  0.00D+00 EMaxC= 1.00D-01 BMatC= 2.89D-05 BMatP= 1.59D-04
 IDIUse=3 WtCom= 9.93D-01 WtEn= 6.78D-03
 Coeff-Com:  0.802D-05-0.495D-02 0.811D-02 0.479D-01 0.328D+00 0.621D+00
 Coeff-En:   0.000D+00 0.000D+00 0.000D+00 0.000D+00 0.217D-01 0.978D+00
 Coeff:      0.797D-05-0.492D-02 0.806D-02 0.476D-01 0.326D+00 0.623D+00
 Gap=     0.298 Goal=   None    Shift=    0.000
 RMSDP=5.01D-04 MaxDP=3.76D-02 DE=-1.41D-04 OVMax= 2.43D-03

 Cycle   7  Pass 1  IDiag  1:
 RMSU=  9.39D-05    CP:  2.05D+00  4.97D-01  1.09D+00  7.02D-01  1.15D+00
                    CP:  8.55D-01
 E= -820.016341771308     Delta-E=       -0.000031829378 Rises=F Damp=F
 DIIS: error= 1.54D-04 at cycle   7 NSaved=   7.
 NSaved= 7 IEnMin= 7 EnMin= -820.016341771308     IErMin= 7 ErrMin= 1.54D-04
 ErrMax= 1.54D-04  0.00D+00 EMaxC= 1.00D-01 BMatC= 2.66D-06 BMatP= 2.89D-05
 IDIUse=3 WtCom= 9.98D-01 WtEn= 1.54D-03
 Coeff-Com:  0.267D-03-0.180D-02-0.103D-01-0.181D-01 0.157D-01 0.232D+00
 Coeff-Com:  0.782D+00
 Coeff-En:   0.000D+00 0.000D+00 0.000D+00 0.000D+00 0.000D+00 0.000D+00
 Coeff-En:   0.100D+01
 Coeff:      0.267D-03-0.180D-02-0.103D-01-0.181D-01 0.156D-01 0.232D+00
 Coeff:      0.783D+00
 Gap=     0.299 Goal=   None    Shift=    0.000
 RMSDP=4.38D-04 MaxDP=3.51D-02 DE=-3.18D-05 OVMax= 7.84D-04

 Cycle   8  Pass 1  IDiag  1:
 RMSU=  3.90D-05    CP:  2.05D+00  4.96D-01  1.09D+00  6.96D-01  1.21D+00
                    CP:  8.66D-01  1.05D+00
 E= -820.016345765416     Delta-E=       -0.000003994108 Rises=F Damp=F
 DIIS: error= 3.61D-05 at cycle   8 NSaved=   8.
 NSaved= 8 IEnMin= 8 EnMin= -820.016345765416     IErMin= 8 ErrMin= 3.61D-05
 ErrMax= 3.61D-05  0.00D+00 EMaxC= 1.00D-01 BMatC= 3.34D-07 BMatP= 2.66D-06
 IDIUse=1 WtCom= 1.00D+00 WtEn= 0.00D+00
 Coeff-Com:  0.587D-04 0.125D-03-0.507D-02-0.136D-01-0.410D-01-0.728D-02
 Coeff-Com:  0.286D+00 0.780D+00
 Coeff:      0.587D-04 0.125D-03-0.507D-02-0.136D-01-0.410D-01-0.728D-02
 Coeff:      0.286D+00 0.780D+00
 Gap=     0.298 Goal=   None    Shift=    0.000
 RMSDP=2.08D-04 MaxDP=1.66D-02 DE=-3.99D-06 OVMax= 3.18D-04

 Cycle   9  Pass 1  IDiag  1:
 RMSU=  1.31D-05    CP:  2.05D+00  4.95D-01  1.09D+00  6.95D-01  1.23D+00
                    CP:  8.63D-01  1.23D+00  1.07D+00
 E= -820.016346271317     Delta-E=       -0.000000505901 Rises=F Damp=F
 DIIS: error= 1.12D-05 at cycle   9 NSaved=   9.
 NSaved= 9 IEnMin= 9 EnMin= -820.016346271317     IErMin= 9 ErrMin= 1.12D-05
 ErrMax= 1.12D-05  0.00D+00 EMaxC= 1.00D-01 BMatC= 2.47D-08 BMatP= 3.34D-07
 IDIUse=1 WtCom= 1.00D+00 WtEn= 0.00D+00
 Coeff-Com: -0.234D-04 0.212D-03-0.725D-03-0.238D-02-0.135D-01-0.213D-01
 Coeff-Com:  0.201D-01 0.183D+00 0.834D+00
 Coeff:     -0.234D-04 0.212D-03-0.725D-03-0.238D-02-0.135D-01-0.213D-01
 Coeff:      0.201D-01 0.183D+00 0.834D+00
 Gap=     0.298 Goal=   None    Shift=    0.000
 RMSDP=7.22D-05 MaxDP=5.49D-03 DE=-5.06D-07 OVMax= 1.21D-04

 Cycle  10  Pass 1  IDiag  1:
 RMSU=  9.17D-06    CP:  2.04D+00  4.95D-01  1.09D+00  6.93D-01  1.24D+00
                    CP:  8.36D-01  1.29D+00  1.21D+00  9.44D-01
 E= -820.016346309017     Delta-E=       -0.000000037700 Rises=F Damp=F
 DIIS: error= 7.14D-06 at cycle  10 NSaved=  10.
 NSaved=10 IEnMin=10 EnMin= -820.016346309017     IErMin=10 ErrMin= 7.14D-06
 ErrMax= 7.14D-06  0.00D+00 EMaxC= 1.00D-01 BMatC= 1.28D-08 BMatP= 2.47D-08
 IDIUse=1 WtCom= 1.00D+00 WtEn= 0.00D+00
 Coeff-Com: -0.212D-04 0.951D-04 0.350D-03 0.731D-03-0.169D-02-0.107D-01
 Coeff-Com: -0.319D-01-0.265D-01 0.471D+00 0.598D+00
 Coeff:     -0.212D-04 0.951D-04 0.350D-03 0.731D-03-0.169D-02-0.107D-01
 Coeff:     -0.319D-01-0.265D-01 0.471D+00 0.598D+00
 Gap=     0.298 Goal=   None    Shift=    0.000
 RMSDP=2.00D-05 MaxDP=1.48D-03 DE=-3.77D-08 OVMax= 5.17D-05

 Cycle  11  Pass 1  IDiag  1:
 RMSU=  2.70D-06    CP:  2.04D+00  4.95D-01  1.09D+00  6.93D-01  1.24D+00
                    CP:  8.25D-01  1.33D+00  1.23D+00  1.31D+00  6.52D-01
 E= -820.016346320678     Delta-E=       -0.000000011661 Rises=F Damp=F
 DIIS: error= 3.00D-06 at cycle  11 NSaved=  11.
 NSaved=11 IEnMin=11 EnMin= -820.016346320678     IErMin=11 ErrMin= 3.00D-06
 ErrMax= 3.00D-06  0.00D+00 EMaxC= 1.00D-01 BMatC= 1.93D-09 BMatP= 1.28D-08
 IDIUse=1 WtCom= 1.00D+00 WtEn= 0.00D+00
 Coeff-Com: -0.434D-05 0.154D-04 0.283D-03 0.693D-03 0.892D-03-0.231D-02
 Coeff-Com: -0.193D-01-0.416D-01 0.123D+00 0.328D+00 0.610D+00
 Coeff:     -0.434D-05 0.154D-04 0.283D-03 0.693D-03 0.892D-03-0.231D-02
 Coeff:     -0.193D-01-0.416D-01 0.123D+00 0.328D+00 0.610D+00
 Gap=     0.298 Goal=   None    Shift=    0.000
 RMSDP=7.96D-06 MaxDP=5.87D-04 DE=-1.17D-08 OVMax= 1.93D-05

 Cycle  12  Pass 1  IDiag  1:
 RMSU=  6.02D-07    CP:  2.04D+00  4.95D-01  1.09D+00  6.93D-01  1.24D+00
                    CP:  8.23D-01  1.34D+00  1.25D+00  1.26D+00  8.59D-01
                    CP:  8.20D-01
 E= -820.016346322413     Delta-E=       -0.000000001735 Rises=F Damp=F
 DIIS: error= 8.39D-07 at cycle  12 NSaved=  12.
 NSaved=12 IEnMin=12 EnMin= -820.016346322413     IErMin=12 ErrMin= 8.39D-07
 ErrMax= 8.39D-07  0.00D+00 EMaxC= 1.00D-01 BMatC= 2.09D-10 BMatP= 1.93D-09
 IDIUse=1 WtCom= 1.00D+00 WtEn= 0.00D+00
 Coeff-Com:  0.364D-05-0.106D-04 0.593D-04 0.147D-03 0.648D-03 0.102D-02
 Coeff-Com: -0.260D-02-0.127D-01-0.293D-01 0.453D-01 0.284D+00 0.714D+00
 Coeff:      0.364D-05-0.106D-04 0.593D-04 0.147D-03 0.648D-03 0.102D-02
 Coeff:     -0.260D-02-0.127D-01-0.293D-01 0.453D-01 0.284D+00 0.714D+00
 Gap=     0.298 Goal=   None    Shift=    0.000
 RMSDP=4.02D-06 MaxDP=3.03D-04 DE=-1.73D-09 OVMax= 7.51D-06

 Cycle  13  Pass 1  IDiag  1:
 RMSU=  1.52D-07    CP:  2.04D+00  4.95D-01  1.09D+00  6.93D-01  1.24D+00
                    CP:  8.21D-01  1.34D+00  1.26D+00  1.30D+00  8.57D-01
                    CP:  9.14D-01  1.17D+00
 E= -820.016346322630     Delta-E=       -0.000000000217 Rises=F Damp=F
 DIIS: error= 1.47D-07 at cycle  13 NSaved=  13.
 NSaved=13 IEnMin=13 EnMin= -820.016346322630     IErMin=13 ErrMin= 1.47D-07
 ErrMax= 1.47D-07  0.00D+00 EMaxC= 1.00D-01 BMatC= 7.28D-12 BMatP= 2.09D-10
 IDIUse=1 WtCom= 1.00D+00 WtEn= 0.00D+00
 Coeff-Com:  0.403D-06-0.217D-05-0.863D-05-0.270D-04 0.516D-04 0.287D-03
 Coeff-Com:  0.849D-03 0.208D-02-0.144D-01-0.206D-01-0.829D-02 0.102D+00
 Coeff-Com:  0.939D+00
 Coeff:      0.403D-06-0.217D-05-0.863D-05-0.270D-04 0.516D-04 0.287D-03
 Coeff:      0.849D-03 0.208D-02-0.144D-01-0.206D-01-0.829D-02 0.102D+00
 Coeff:      0.939D+00
 Gap=     0.298 Goal=   None    Shift=    0.000
 RMSDP=1.07D-06 MaxDP=8.25D-05 DE=-2.17D-10 OVMax= 2.71D-06

 Cycle  14  Pass 1  IDiag  1:
 RMSU=  7.52D-08    CP:  2.04D+00  4.95D-01  1.09D+00  6.93D-01  1.24D+00
                    CP:  8.20D-01  1.35D+00  1.26D+00  1.30D+00  8.74D-01
                    CP:  9.51D-01  1.27D+00  1.15D+00
 E= -820.016346322670     Delta-E=       -0.000000000040 Rises=F Damp=F
 DIIS: error= 8.61D-08 at cycle  14 NSaved=  14.
 NSaved=14 IEnMin=14 EnMin= -820.016346322670     IErMin=14 ErrMin= 8.61D-08
 ErrMax= 8.61D-08  0.00D+00 EMaxC= 1.00D-01 BMatC= 1.89D-12 BMatP= 7.28D-12
 IDIUse=1 WtCom= 1.00D+00 WtEn= 0.00D+00
 Coeff-Com: -0.555D-06 0.988D-06-0.116D-04-0.303D-04-0.644D-04-0.263D-04
 Coeff-Com:  0.713D-03 0.262D-02-0.219D-02-0.146D-01-0.413D-01-0.563D-01
 Coeff-Com:  0.359D+00 0.752D+00
 Coeff:     -0.555D-06 0.988D-06-0.116D-04-0.303D-04-0.644D-04-0.263D-04
 Coeff:      0.713D-03 0.262D-02-0.219D-02-0.146D-01-0.413D-01-0.563D-01
 Coeff:      0.359D+00 0.752D+00
 Gap=     0.298 Goal=   None    Shift=    0.000
 RMSDP=2.09D-07 MaxDP=1.46D-05 DE=-4.05D-11 OVMax= 8.80D-07

 Cycle  15  Pass 1  IDiag  1:
 RMSU=  1.42D-08    CP:  2.04D+00  4.95D-01  1.09D+00  6.93D-01  1.24D+00
                    CP:  8.20D-01  1.35D+00  1.26D+00  1.30D+00  8.76D-01
                    CP:  9.57D-01  1.33D+00  1.31D+00  1.09D+00
 E= -820.016346322664     Delta-E=        0.000000000007 Rises=F Damp=F
 DIIS: error= 2.04D-08 at cycle  15 NSaved=  15.
 NSaved=15 IEnMin=14 EnMin= -820.016346322670     IErMin=15 ErrMin= 2.04D-08
 ErrMax= 2.04D-08  0.00D+00 EMaxC= 1.00D-01 BMatC= 1.92D-13 BMatP= 1.89D-12
 IDIUse=1 WtCom= 1.00D+00 WtEn= 0.00D+00
 Coeff-Com: -0.300D-06 0.641D-06-0.254D-05-0.424D-05-0.187D-04-0.365D-04
 Coeff-Com:  0.843D-04 0.350D-03 0.108D-02-0.115D-02-0.936D-02-0.270D-01
 Coeff-Com: -0.172D-01 0.212D+00 0.841D+00
 Coeff:     -0.300D-06 0.641D-06-0.254D-05-0.424D-05-0.187D-04-0.365D-04
 Coeff:      0.843D-04 0.350D-03 0.108D-02-0.115D-02-0.936D-02-0.270D-01
 Coeff:     -0.172D-01 0.212D+00 0.841D+00
 Gap=     0.298 Goal=   None    Shift=    0.000
 RMSDP=3.53D-08 MaxDP=1.80D-06 DE= 6.59D-12 OVMax= 2.48D-07

 Cycle  16  Pass 1  IDiag  1:
 RMSU=  6.28D-09    CP:  2.04D+00  4.95D-01  1.09D+00  6.93D-01  1.24D+00
                    CP:  8.20D-01  1.35D+00  1.26D+00  1.30D+00  8.77D-01
                    CP:  9.58D-01  1.35D+00  1.36D+00  1.14D+00  1.37D+00
 E= -820.016346322656     Delta-E=        0.000000000008 Rises=F Damp=F
 DIIS: error= 5.83D-09 at cycle  16 NSaved=  16.
 NSaved=16 IEnMin=14 EnMin= -820.016346322670     IErMin=16 ErrMin= 5.83D-09
 ErrMax= 5.83D-09  0.00D+00 EMaxC= 1.00D-01 BMatC= 7.40D-15 BMatP= 1.92D-13
 IDIUse=1 WtCom= 1.00D+00 WtEn= 0.00D+00
 Coeff-Com: -0.302D-07 0.920D-07 0.421D-07 0.765D-06 0.117D-07-0.627D-05
 Coeff-Com: -0.311D-04-0.935D-04 0.304D-03 0.768D-03 0.117D-02-0.105D-02
 Coeff-Com: -0.269D-01-0.168D-01 0.131D+00 0.912D+00
 Coeff:     -0.302D-07 0.920D-07 0.421D-07 0.765D-06 0.117D-07-0.627D-05
 Coeff:     -0.311D-04-0.935D-04 0.304D-03 0.768D-03 0.117D-02-0.105D-02
 Coeff:     -0.269D-01-0.168D-01 0.131D+00 0.912D+00
 Gap=     0.298 Goal=   None    Shift=    0.000
 RMSDP=9.09D-09 MaxDP=4.35D-07 DE= 7.96D-12 OVMax= 5.89D-08

 SCF Done:  E(RM062X) =  -820.016346323     A.U. after   16 cycles
            NFock= 16  Conv=0.91D-08     -V/T= 2.0036
 KE= 8.170686802041D+02 PE=-3.146024557852D+03 EE= 9.004743793248D+02
 Leave Link  502 at Sun Oct 13 22:03:35 2019, MaxMem= 10737418240 cpu:             403.3 elap:              16.9
 (Enter /apps/cent7/gaussian/g16-A.03/g16-haswell/g16/l601.exe)
 Copying SCF densities to generalized density rwf, IOpCl= 0 IROHF=0.

 **********************************************************************

            Population analysis using the SCF density.

 **********************************************************************

 Orbital symmetries:
       Occupied  (A) (A) (A) (A) (A) (A) (A) (A) (A) (A) (A) (A)
                 (A) (A) (A) (A) (A) (A) (A) (A) (A) (A) (A) (A)
                 (A) (A) (A) (A) (A) (A) (A) (A) (A) (A) (A) (A)
                 (A) (A) (A) (A) (A)
       Virtual   (A) (A) (A) (A) (A) (A) (A) (A) (A) (A) (A) (A)
                 (A) (A) (A) (A) (A) (A) (A) (A) (A) (A) (A) (A)
                 (A) (A) (A) (A) (A) (A) (A) (A) (A) (A) (A) (A)
                 (A) (A) (A) (A) (A) (A) (A) (A) (A) (A) (A) (A)
                 (A) (A) (A) (A) (A) (A) (A) (A) (A) (A) (A) (A)
                 (A) (A) (A) (A) (A) (A) (A) (A) (A) (A) (A) (A)
                 (A) (A) (A) (A) (A) (A) (A) (A) (A) (A) (A) (A)
                 (A) (A) (A) (A) (A) (A) (A) (A) (A) (A) (A) (A)
                 (A) (A) (A) (A) (A) (A) (A) (A) (A) (A) (A) (A)
                 (A) (A) (A) (A) (A) (A) (A) (A) (A) (A) (A) (A)
                 (A) (A) (A) (A) (A) (A) (A) (A) (A) (A) (A) (A)
                 (A) (A) (A) (A) (A) (A) (A) (A) (A) (A) (A) (A)
                 (A) (A) (A) (A) (A) (A) (A) (A) (A) (A) (A) (A)
                 (A) (A) (A) (A) (A) (A) (A) (A) (A) (A) (A) (A)
                 (A) (A) (A) (A) (A) (A) (A) (A) (A) (A) (A) (A)
                 (A) (A) (A) (A) (A) (A) (A) (A) (A) (A) (A) (A)
                 (A) (A) (A) (A) (A) (A) (A) (A) (A) (A) (A) (A)
                 (A) (A) (A) (A) (A) (A) (A) (A) (A) (A) (A) (A)
                 (A) (A) (A) (A) (A) (A) (A) (A) (A) (A) (A) (A)
                 (A) (A) (A) (A) (A) (A) (A) (A) (A) (A) (A) (A)
                 (A) (A)
 The electronic state is 1-A.
 Alpha  occ. eigenvalues --  -90.11069 -19.61195 -19.61170 -10.61687 -10.60522
 Alpha  occ. eigenvalues --  -10.59432 -10.59429 -10.58797 -10.58500 -10.58490
 Alpha  occ. eigenvalues --   -8.45304  -6.37425  -6.37397  -6.37394  -1.15640
 Alpha  occ. eigenvalues --   -1.05220  -0.99836  -0.91255  -0.87909  -0.87232
 Alpha  occ. eigenvalues --   -0.77484  -0.72653  -0.69295  -0.62857  -0.58044
 Alpha  occ. eigenvalues --   -0.56542  -0.55076  -0.54540  -0.54044  -0.52304
 Alpha  occ. eigenvalues --   -0.51179  -0.48172  -0.47255  -0.45505  -0.44073
 Alpha  occ. eigenvalues --   -0.37932  -0.36278  -0.36049  -0.34653  -0.34228
 Alpha  occ. eigenvalues --   -0.34060
 Alpha virt. eigenvalues --   -0.04220  -0.01922  -0.01607  -0.00375   0.00273
 Alpha virt. eigenvalues --    0.01798   0.02407   0.02845   0.03638   0.04217
 Alpha virt. eigenvalues --    0.04845   0.05390   0.05550   0.06755   0.07672
 Alpha virt. eigenvalues --    0.08061   0.08512   0.09894   0.09939   0.10456
 Alpha virt. eigenvalues --    0.11008   0.11214   0.11366   0.11929   0.12224
 Alpha virt. eigenvalues --    0.12696   0.13593   0.13737   0.13974   0.14182
 Alpha virt. eigenvalues --    0.14897   0.15052   0.15417   0.16138   0.16364
 Alpha virt. eigenvalues --    0.17294   0.17334   0.18047   0.18891   0.19163
 Alpha virt. eigenvalues --    0.20521   0.21228   0.22748   0.22837   0.23550
 Alpha virt. eigenvalues --    0.23822   0.24480   0.25748   0.26749   0.28375
 Alpha virt. eigenvalues --    0.28691   0.29182   0.29973   0.30476   0.30902
 Alpha virt. eigenvalues --    0.32064   0.33254   0.34002   0.34772   0.35721
 Alpha virt. eigenvalues --    0.36047   0.36612   0.37237   0.38956   0.39609
 Alpha virt. eigenvalues --    0.39803   0.40759   0.42447   0.43777   0.47974
 Alpha virt. eigenvalues --    0.48879   0.50791   0.53629   0.53999   0.55723
 Alpha virt. eigenvalues --    0.56558   0.56842   0.57099   0.57498   0.58520
 Alpha virt. eigenvalues --    0.59353   0.62372   0.63826   0.65256   0.66132
 Alpha virt. eigenvalues --    0.68474   0.69704   0.70099   0.71246   0.72670
 Alpha virt. eigenvalues --    0.73564   0.74274   0.74530   0.76730   0.77540
 Alpha virt. eigenvalues --    0.81637   0.84090   0.84428   0.85993   0.87876
 Alpha virt. eigenvalues --    0.88549   0.89957   0.90243   0.91478   0.92220
 Alpha virt. eigenvalues --    0.93814   0.94377   1.00070   1.00971   1.01752
 Alpha virt. eigenvalues --    1.03133   1.04432   1.06550   1.09985   1.11198
 Alpha virt. eigenvalues --    1.12337   1.14833   1.16818   1.18639   1.23926
 Alpha virt. eigenvalues --    1.25082   1.26976   1.27252   1.29645   1.30009
 Alpha virt. eigenvalues --    1.30874   1.32319   1.38406   1.46646   1.49906
 Alpha virt. eigenvalues --    1.51845   1.52052   1.55163   1.57310   1.57669
 Alpha virt. eigenvalues --    1.58718   1.59759   1.62905   1.64728   1.64948
 Alpha virt. eigenvalues --    1.68241   1.68783   1.69985   1.73552   1.73878
 Alpha virt. eigenvalues --    1.74495   1.76419   1.78765   1.79230   1.84347
 Alpha virt. eigenvalues --    1.86824   1.90309   1.90582   1.91742   1.93356
 Alpha virt. eigenvalues --    1.95187   1.96404   1.98377   1.99505   2.00896
 Alpha virt. eigenvalues --    2.02032   2.02915   2.05190   2.06713   2.11536
 Alpha virt. eigenvalues --    2.20789   2.21595   2.27593   2.30394   2.31609
 Alpha virt. eigenvalues --    2.39801   2.45558   2.46046   2.47320   2.49080
 Alpha virt. eigenvalues --    2.53498   2.54272   2.56082   2.58185   2.60202
 Alpha virt. eigenvalues --    2.63608   2.69112   2.70028   2.71056   2.71821
 Alpha virt. eigenvalues --    2.73814   2.74762   2.80394   2.80424   2.82215
 Alpha virt. eigenvalues --    2.84142   2.89039   2.91984   2.92495   2.93097
 Alpha virt. eigenvalues --    2.94838   2.95132   2.95406   2.97040   2.98060
 Alpha virt. eigenvalues --    3.00898   3.07936   3.09269   3.10702   3.15636
 Alpha virt. eigenvalues --    3.16277   3.31966   3.33723   3.37591   3.44359
 Alpha virt. eigenvalues --    3.48489   3.52086   3.52627   3.58031   3.74779
 Alpha virt. eigenvalues --    3.75246   3.80239   3.99726   4.04697   4.13987
 Alpha virt. eigenvalues --    4.14920   4.79662   5.15982   5.17434   5.22463
 Alpha virt. eigenvalues --    5.22698   5.24342   5.30278   8.17224  17.49996
 Alpha virt. eigenvalues --   17.59498  17.61446  23.61029  23.94961  23.96756
 Alpha virt. eigenvalues --   23.98042  24.06294  24.08907  24.17628  50.00505
 Alpha virt. eigenvalues --   50.03433 189.42964
          Condensed to atoms (all electrons):
               1          2          3          4          5          6
     1  O    8.525069   0.198073   0.427563   1.394715   0.073832  -0.025614
     2  S    0.198073  18.251716  -4.121676   1.632298   0.066579   0.188774
     3  C    0.427563  -4.121676  46.782561 -11.369236  -6.005402  -3.436535
     4  C    1.394715   1.632298 -11.369236  58.692481   4.513825  -0.751049
     5  C    0.073832   0.066579  -6.005402   4.513825   9.192231   1.216723
     6  C   -0.025614   0.188774  -3.436535  -0.751049   1.216723   7.826246
     7  C   -0.125357   0.012716  -6.017277  -1.960507  -0.654751   1.178291
     8  C   -1.874379   0.816572 -10.450192 -44.498524  -2.355408  -0.300442
     9  C   -0.078710  -1.250430  -0.924012   0.413159   0.158906   0.003569
    10  O   -0.254515   0.153569   0.463915  -1.878505  -0.128275  -0.018396
    11  H    0.003378   0.008461   0.066558   0.243736  -0.038427  -0.019808
    12  H    0.000105   0.002746   0.016245  -0.082312   0.409964  -0.047059
    13  H    0.000031  -0.001810   0.021085  -0.031725  -0.051738   0.455210
    14  H    0.001155   0.002673   0.033582   0.050528  -0.000540  -0.056295
    15  H    0.014942   0.008011   0.029651   0.008648  -0.023546  -0.022277
    16  H   -0.016155   0.009475  -0.008056  -0.109437  -0.007462   0.003727
    17  H    0.007141  -0.001400   0.044157  -0.030409   0.000976   0.001705
    18  H    0.003243  -0.078983   0.039223   0.050136   0.002216  -0.000765
               7          8          9         10         11         12
     1  O   -0.125357  -1.874379  -0.078710  -0.254515   0.003378   0.000105
     2  S    0.012716   0.816572  -1.250430   0.153569   0.008461   0.002746
     3  C   -6.017277 -10.450192  -0.924012   0.463915   0.066558   0.016245
     4  C   -1.960507 -44.498524   0.413159  -1.878505   0.243736  -0.082312
     5  C   -0.654751  -2.355408   0.158906  -0.128275  -0.038427   0.409964
     6  C    1.178291  -0.300442   0.003569  -0.018396  -0.019808  -0.047059
     7  C    9.328734   4.068574   0.186106   0.070029  -0.029757   0.004953
     8  C    4.068574  58.810769   0.139227   1.396575   0.056132   0.020652
     9  C    0.186106   0.139227   6.905923  -0.069918  -0.020488   0.002523
    10  O    0.070029   1.396575  -0.069918   8.524427   0.021341   0.000142
    11  H   -0.029757   0.056132  -0.020488   0.021341   0.462709  -0.011246
    12  H    0.004953   0.020652   0.002523   0.000142  -0.011246   0.464992
    13  H   -0.057254  -0.004463   0.000986   0.000144   0.000571  -0.009276
    14  H    0.417833  -0.125477   0.002792   0.000001   0.000286   0.000583
    15  H   -0.033889   0.320870  -0.013085   0.002302  -0.002613   0.000478
    16  H    0.004079   0.104952   0.343082   0.015057   0.002844  -0.000041
    17  H   -0.008886  -0.006588   0.344961  -0.015127  -0.004523  -0.000354
    18  H   -0.007209  -0.048154   0.401169  -0.010543   0.001834  -0.000066
              13         14         15         16         17         18
     1  O    0.000031   0.001155   0.014942  -0.016155   0.007141   0.003243
     2  S   -0.001810   0.002673   0.008011   0.009475  -0.001400  -0.078983
     3  C    0.021085   0.033582   0.029651  -0.008056   0.044157   0.039223
     4  C   -0.031725   0.050528   0.008648  -0.109437  -0.030409   0.050136
     5  C   -0.051738  -0.000540  -0.023546  -0.007462   0.000976   0.002216
     6  C    0.455210  -0.056295  -0.022277   0.003727   0.001705  -0.000765
     7  C   -0.057254   0.417833  -0.033889   0.004079  -0.008886  -0.007209
     8  C   -0.004463  -0.125477   0.320870   0.104952  -0.006588  -0.048154
     9  C    0.000986   0.002792  -0.013085   0.343082   0.344961   0.401169
    10  O    0.000144   0.000001   0.002302   0.015057  -0.015127  -0.010543
    11  H    0.000571   0.000286  -0.002613   0.002844  -0.004523   0.001834
    12  H   -0.009276   0.000583   0.000478  -0.000041  -0.000354  -0.000066
    13  H    0.478604  -0.009040  -0.000123   0.000162  -0.000019   0.000021
    14  H   -0.009040   0.467977  -0.010992  -0.000447   0.000090  -0.000099
    15  H   -0.000123  -0.010992   0.459718  -0.006557  -0.000456   0.002360
    16  H    0.000162  -0.000447  -0.006557   0.511395  -0.041580  -0.025128
    17  H   -0.000019   0.000090  -0.000456  -0.041580   0.505135  -0.026532
    18  H    0.000021  -0.000099   0.002360  -0.025128  -0.026532   0.452984
 Mulliken charges:
               1
     1  O   -0.274517
     2  S    0.102638
     3  C    0.407844
     4  C   -0.287822
     5  C   -0.369702
     6  C   -0.196004
     7  C   -0.376426
     8  C   -0.070694
     9  C   -0.545758
    10  O   -0.272221
    11  H    0.259013
    12  H    0.226973
    13  H    0.208632
    14  H    0.225391
    15  H    0.266558
    16  H    0.220091
    17  H    0.231709
    18  H    0.244294
 Sum of Mulliken charges =  -0.00000
 Mulliken charges with hydrogens summed into heavy atoms:
               1
     1  O   -0.274517
     2  S    0.102638
     3  C    0.407844
     4  C   -0.028809
     5  C   -0.142729
     6  C    0.012628
     7  C   -0.151035
     8  C    0.195865
     9  C    0.150335
    10  O   -0.272221
 Electronic spatial extent (au):  <R**2>=           1726.1585
 Charge=             -0.0000 electrons
 Dipole moment (field-independent basis, Debye):
    X=              5.1039    Y=             -0.0030    Z=              5.4372  Tot=              7.4574
 Quadrupole moment (field-independent basis, Debye-Ang):
   XX=            -63.1434   YY=            -66.6521   ZZ=            -69.1871
   XY=              0.0285   XZ=            -12.1695   YZ=              0.0072
 Traceless Quadrupole moment (field-independent basis, Debye-Ang):
   XX=              3.1842   YY=             -0.3246   ZZ=             -2.8596
   XY=              0.0285   XZ=            -12.1695   YZ=              0.0072
 Octapole moment (field-independent basis, Debye-Ang**2):
  XXX=             29.7605  YYY=              0.3727  ZZZ=              7.4595  XYY=             22.0448
  XXY=             -0.4232  XXZ=             26.2338  XZZ=            -15.2981  YZZ=             -0.0352
  YYZ=              7.3535  XYZ=             -0.1008
 Hexadecapole moment (field-independent basis, Debye-Ang**3):
 XXXX=          -1440.1090 YYYY=           -431.4896 ZZZZ=           -253.1329 XXXY=              2.5842
 XXXZ=            -55.0655 YYYX=             -0.8221 YYYZ=              0.8248 ZZZX=            -17.4112
 ZZZY=             -0.2419 XXYY=           -344.7070 XXZZ=           -324.6606 YYZZ=           -127.2832
 XXYZ=             -0.2233 YYXZ=            -12.8535 ZZXY=             -0.3519
 N-N= 6.084651520005D+02 E-N=-3.146024558298D+03  KE= 8.170686802041D+02
 No NMR shielding tensors so no spin-rotation constants.
 Leave Link  601 at Sun Oct 13 22:03:35 2019, MaxMem= 10737418240 cpu:               3.5 elap:               0.2
 (Enter /apps/cent7/gaussian/g16-A.03/g16-haswell/g16/l701.exe)
 ... and contract with generalized density number  0.
 Compute integral first derivatives.
 Leave Link  701 at Sun Oct 13 22:03:36 2019, MaxMem= 10737418240 cpu:               3.1 elap:               0.2
 (Enter /apps/cent7/gaussian/g16-A.03/g16-haswell/g16/l702.exe)
 L702 exits ... SP integral derivatives will be done elsewhere.
 Leave Link  702 at Sun Oct 13 22:03:36 2019, MaxMem= 10737418240 cpu:               0.7 elap:               0.0
 (Enter /apps/cent7/gaussian/g16-A.03/g16-haswell/g16/l703.exe)
 Integral derivatives from FoFJK, PRISM(SPDF).
 Compute integral first derivatives, UseDBF=F ICtDFT=           0.
 Calling FoFJK, ICntrl=      2127 FMM=F ISym2X=0 I1Cent= 0 IOpClX= 0 NMat=1 NMatS=1 NMatT=0.
 FoFJK:  IHMeth= 1 ICntrl=    2127 DoSepK=F KAlg= 0 I1Cent=           0 FoldK=F
 IRaf=         0 NMat=       1 IRICut=       1 DoRegI=T DoRafI=F ISym2E= 0 IDoP0=0 IntGTp=1.
 FoFCou: FMM=F IPFlag=           0 FMFlag=      100000 FMFlg1=         800
         NFxFlg=           0 DoJE=F BraDBF=F KetDBF=F FulRan=T
         wScrn=  0.000000 ICntrl=      2127 IOpCl=  0 I1Cent=           0 NGrid=           0
         NMat0=    1 NMatS0=      1 NMatT0=    0 NMatD0=    1 NMtDS0=    0 NMtDT0=    0
 Symmetry not used in FoFCou.
 Leave Link  703 at Sun Oct 13 22:03:38 2019, MaxMem= 10737418240 cpu:              59.4 elap:               2.5
 (Enter /apps/cent7/gaussian/g16-A.03/g16-haswell/g16/l716.exe)
 Dipole        = 2.00802913D+00-1.17530941D-03 2.13917152D+00
 ***** Axes restored to original set *****
 -------------------------------------------------------------------
 Center     Atomic                   Forces (Hartrees/Bohr)
 Number     Number              X              Y              Z
 -------------------------------------------------------------------
      1        8          -0.100480266    0.011184371   -0.022447893
      2       16           0.132595392    0.022334446   -0.066408673
      3        6          -0.021699170    0.012076054    0.019457517
      4        6           0.001157249   -0.002005267    0.001519853
      5        6           0.008351762   -0.008628665    0.005154449
      6        6           0.006345753   -0.005322003   -0.006922654
      7        6          -0.002190000    0.001280977   -0.012740015
      8        6          -0.001255889    0.000289164   -0.002424108
      9        6          -0.004991607    0.004838966    0.005380794
     10        8          -0.037286331   -0.048581556    0.083587168
     11        1           0.003527999   -0.000414463    0.003395667
     12        1           0.003988240   -0.003582977    0.000721664
     13        1           0.002618464   -0.002530294   -0.002969738
     14        1           0.000377225   -0.000126178   -0.005431896
     15        1          -0.000517072    0.003409708   -0.003444696
     16        1           0.002461500    0.003127584    0.002507495
     17        1           0.001261653    0.005163153    0.000190940
     18        1           0.005735100    0.007486982    0.000874126
 -------------------------------------------------------------------
 Cartesian Forces:  Max     0.132595392 RMS     0.029112126
 Leave Link  716 at Sun Oct 13 22:03:38 2019, MaxMem= 10737418240 cpu:               1.3 elap:               0.1
 (Enter /apps/cent7/gaussian/g16-A.03/g16-haswell/g16/l103.exe)

 GradGradGradGradGradGradGradGradGradGradGradGradGradGradGradGradGradGrad
 Berny optimization.
 FormGI is forming the generalized inverse of G from B-inverse, IUseBI=4.
 Internal  Forces:  Max     0.101099612 RMS     0.016918951
 Search for a local minimum.
 Step number   1 out of a maximum of   97
 All quantities printed in internal units (Hartrees-Bohrs-Radians)
 RMS Force = .16919D-01 SwitMx=.10000D-02 MixMth= 1
 Mixed Optimization -- RFO/linear search
 Second derivative matrix not updated -- first step.
 ITU=  0
     Eigenvalues ---    0.00230   0.00744   0.01465   0.01951   0.01971
     Eigenvalues ---    0.01977   0.01992   0.02001   0.02002   0.02003
     Eigenvalues ---    0.02004   0.05715   0.05715   0.06907   0.08009
     Eigenvalues ---    0.13367   0.16000   0.16000   0.16000   0.16000
     Eigenvalues ---    0.16000   0.16000   0.16000   0.16000   0.19274
     Eigenvalues ---    0.21999   0.22000   0.23477   0.23779   0.24994
     Eigenvalues ---    0.25000   0.28475   0.34806   0.34808   0.34811
     Eigenvalues ---    0.34813   0.34815   0.34815   0.34818   0.34818
     Eigenvalues ---    0.40486   0.40506   0.43991   0.44219   0.44548
     Eigenvalues ---    0.44593   0.50292   0.50311
 RFO step:  Lambda=-5.54064245D-02 EMin= 2.30000000D-03
 Linear search not attempted -- first point.
 Maximum step size (   0.300) exceeded in Quadratic search.
    -- Step size scaled by   0.885
 Iteration  1 RMS(Cart)=  0.06374211 RMS(Int)=  0.00158347
 Iteration  2 RMS(Cart)=  0.00199845 RMS(Int)=  0.00041583
 Iteration  3 RMS(Cart)=  0.00000448 RMS(Int)=  0.00041582
 Iteration  4 RMS(Cart)=  0.00000001 RMS(Int)=  0.00041582
 ITry= 1 IFail=0 DXMaxC= 2.02D-01 DCOld= 1.00D+10 DXMaxT= 3.00D-01 DXLimC= 3.00D+00 Rises=F
 Variable       Old X    -DE/DX   Delta X   Delta X   Delta X     New X
                                 (Linear)    (Quad)   (Total)
    R1        3.03252  -0.10095   0.00000  -0.15990  -0.15990   2.87262
    R2        3.34811  -0.00570   0.00000  -0.01482  -0.01482   3.33329
    R3        3.46119  -0.02159   0.00000  -0.06513  -0.06513   3.39606
    R4        3.03272  -0.10110   0.00000  -0.16019  -0.16019   2.87252
    R5        2.66636  -0.01960   0.00000  -0.03527  -0.03521   2.63114
    R6        2.66631  -0.01957   0.00000  -0.03521  -0.03515   2.63116
    R7        2.65750  -0.01750   0.00000  -0.03087  -0.03087   2.62663
    R8        2.05976  -0.00384   0.00000  -0.00842  -0.00842   2.05135
    R9        2.65827  -0.01301   0.00000  -0.02283  -0.02288   2.63539
   R10        2.05971  -0.00527   0.00000  -0.01155  -0.01155   2.04816
   R11        2.65808  -0.01287   0.00000  -0.02257  -0.02262   2.63546
   R12        2.05988  -0.00470   0.00000  -0.01030  -0.01030   2.04957
   R13        2.65751  -0.01757   0.00000  -0.03100  -0.03100   2.62652
   R14        2.05982  -0.00530   0.00000  -0.01163  -0.01163   2.04820
   R15        2.05971  -0.00379   0.00000  -0.00832  -0.00832   2.05140
   R16        2.05976   0.00012   0.00000   0.00027   0.00027   2.06003
   R17        2.05980  -0.00015   0.00000  -0.00033  -0.00033   2.05947
   R18        2.05991  -0.00149   0.00000  -0.00327  -0.00327   2.05664
    A1        1.93202  -0.00401   0.00000  -0.02355  -0.02486   1.90716
    A2        1.90498  -0.00414   0.00000  -0.01648  -0.01792   1.88705
    A3        1.89249   0.02007   0.00000   0.12347   0.12396   2.01646
    A4        1.89709  -0.00399   0.00000  -0.04445  -0.04634   1.85075
    A5        1.93201  -0.00395   0.00000  -0.02312  -0.02440   1.90762
    A6        1.90494  -0.00407   0.00000  -0.01601  -0.01742   1.88753
    A7        2.09802  -0.00612   0.00000  -0.01771  -0.01777   2.08024
    A8        2.09799  -0.00616   0.00000  -0.01784  -0.01790   2.08010
    A9        2.08696   0.01228   0.00000   0.03567   0.03578   2.12274
   A10        2.09750  -0.00670   0.00000  -0.02115  -0.02111   2.07639
   A11        2.09567   0.00103   0.00000   0.00105   0.00101   2.09668
   A12        2.09002   0.00567   0.00000   0.02010   0.02006   2.11008
   A13        2.09444  -0.00021   0.00000   0.00026   0.00020   2.09464
   A14        2.09416  -0.00115   0.00000  -0.00530  -0.00528   2.08888
   A15        2.09459   0.00137   0.00000   0.00504   0.00506   2.09965
   A16        2.09533   0.00156   0.00000   0.00626   0.00615   2.10148
   A17        2.09388  -0.00078   0.00000  -0.00311  -0.00306   2.09081
   A18        2.09398  -0.00078   0.00000  -0.00314  -0.00309   2.09089
   A19        2.09451  -0.00021   0.00000   0.00027   0.00021   2.09472
   A20        2.09454   0.00137   0.00000   0.00506   0.00508   2.09962
   A21        2.09414  -0.00116   0.00000  -0.00532  -0.00530   2.08884
   A22        2.09747  -0.00670   0.00000  -0.02118  -0.02113   2.07634
   A23        2.09568   0.00104   0.00000   0.00109   0.00105   2.09673
   A24        2.09004   0.00567   0.00000   0.02009   0.02005   2.11009
   A25        1.91062  -0.00341   0.00000  -0.01294  -0.01323   1.89740
   A26        1.91062  -0.00456   0.00000  -0.01787  -0.01822   1.89240
   A27        1.91063  -0.01194   0.00000  -0.05095  -0.05155   1.85908
   A28        1.91062   0.00526   0.00000   0.02541   0.02534   1.93596
   A29        1.91069   0.00711   0.00000   0.02753   0.02696   1.93766
   A30        1.91062   0.00754   0.00000   0.02882   0.02810   1.93871
    D1        2.63149   0.00967   0.00000   0.05866   0.05811   2.68960
    D2       -0.53247   0.01032   0.00000   0.06569   0.06504  -0.46743
    D3       -1.55961  -0.00037   0.00000  -0.00391  -0.00385  -1.56346
    D4        1.55961   0.00027   0.00000   0.00313   0.00309   1.56270
    D5        0.53243  -0.01029   0.00000  -0.06562  -0.06498   0.46744
    D6       -2.63154  -0.00964   0.00000  -0.05858  -0.05805  -2.68958
    D7        1.19738  -0.01067   0.00000  -0.07375  -0.07327   1.12411
    D8       -2.99144  -0.00911   0.00000  -0.06150  -0.06134  -3.05279
    D9       -0.89708  -0.00998   0.00000  -0.06835  -0.06796  -0.96504
   D10       -0.91145  -0.00088   0.00000  -0.00823  -0.00809  -0.91954
   D11        1.18291   0.00068   0.00000   0.00403   0.00383   1.18674
   D12       -3.00591  -0.00019   0.00000  -0.00282  -0.00279  -3.00870
   D13       -3.02025   0.00880   0.00000   0.05648   0.05629  -2.96396
   D14       -0.92588   0.01036   0.00000   0.06873   0.06822  -0.85767
   D15        1.16848   0.00948   0.00000   0.06189   0.06160   1.23007
   D16        3.13821  -0.00014   0.00000  -0.00094  -0.00092   3.13729
   D17       -0.00348  -0.00085   0.00000  -0.00947  -0.00941  -0.01289
   D18        0.01885  -0.00054   0.00000  -0.00725  -0.00732   0.01153
   D19       -3.12285  -0.00126   0.00000  -0.01577  -0.01581  -3.13866
   D20       -3.13823   0.00014   0.00000   0.00098   0.00097  -3.13727
   D21        0.00354   0.00085   0.00000   0.00945   0.00940   0.01294
   D22       -0.01887   0.00055   0.00000   0.00730   0.00737  -0.01150
   D23        3.12290   0.00126   0.00000   0.01576   0.01580   3.13870
   D24       -0.00730   0.00029   0.00000   0.00304   0.00298  -0.00432
   D25        3.13432  -0.00010   0.00000  -0.00145  -0.00149   3.13284
   D26        3.13440   0.00100   0.00000   0.01154   0.01154  -3.13725
   D27       -0.00717   0.00061   0.00000   0.00705   0.00707  -0.00010
   D28       -0.00435   0.00016   0.00000   0.00173   0.00171  -0.00264
   D29        3.13733  -0.00019   0.00000  -0.00220  -0.00220   3.13513
   D30        3.13721   0.00055   0.00000   0.00622   0.00620  -3.13977
   D31       -0.00429   0.00020   0.00000   0.00229   0.00229  -0.00200
   D32        0.00433  -0.00016   0.00000  -0.00168  -0.00166   0.00267
   D33       -3.13720  -0.00057   0.00000  -0.00636  -0.00634   3.13965
   D34       -3.13735   0.00020   0.00000   0.00225   0.00225  -3.13510
   D35        0.00430  -0.00021   0.00000  -0.00242  -0.00243   0.00188
   D36        0.00734  -0.00030   0.00000  -0.00313  -0.00307   0.00427
   D37       -3.13443  -0.00100   0.00000  -0.01157  -0.01157   3.13718
   D38       -3.13431   0.00011   0.00000   0.00154   0.00157  -3.13274
   D39        0.00710  -0.00060   0.00000  -0.00690  -0.00692   0.00018
         Item               Value     Threshold  Converged?
 Maximum Force            0.101100     0.000450     NO 
 RMS     Force            0.016919     0.000300     NO 
 Maximum Displacement     0.202481     0.001800     NO 
 RMS     Displacement     0.064429     0.001200     NO 
 Predicted change in Energy=-3.092607D-02
 Lowest energy point so far.  Saving SCF results.
 GradGradGradGradGradGradGradGradGradGradGradGradGradGradGradGradGradGrad

 Leave Link  103 at Sun Oct 13 22:03:38 2019, MaxMem= 10737418240 cpu:               1.2 elap:               0.1
 (Enter /apps/cent7/gaussian/g16-A.03/g16-haswell/g16/l202.exe)
                          Input orientation:                          
 ---------------------------------------------------------------------
 Center     Atomic      Atomic             Coordinates (Angstroms)
 Number     Number       Type             X           Y           Z
 ---------------------------------------------------------------------
      1          8           0        1.904352   -1.407683   -0.186060
      2         16           0        0.594053   -1.047699   -0.867463
      3          6           0       -0.405993   -0.117075    0.248420
      4          6           0       -1.355433    0.763398   -0.263386
      5          6           0       -2.144529    1.490585    0.620068
      6          6           0       -1.982425    1.328629    1.995703
      7          6           0       -1.033174    0.436903    2.494435
      8          6           0       -0.239200   -0.294864    1.619264
      9          6           0       -0.305405   -2.569952   -1.188953
     10          8           0        0.723973   -0.288741   -2.178084
     11          1           0       -1.466728    0.881154   -1.336753
     12          1           0       -2.881600    2.185309    0.234332
     13          1           0       -2.595917    1.902307    2.681889
     14          1           0       -0.907401    0.313719    3.563901
     15          1           0        0.506835   -0.989859    1.991875
     16          1           0       -0.562513   -3.032230   -0.235767
     17          1           0       -1.202459   -2.326430   -1.757907
     18          1           0        0.362165   -3.208071   -1.764813
 ---------------------------------------------------------------------
                    Distance matrix (angstroms):
                    1          2          3          4          5
     1  O    0.000000
     2  S    1.520125   0.000000
     3  C    2.681816   1.763901   0.000000
     4  C    3.917367   2.728640   1.392342   0.000000
     5  C    5.044128   4.019385   2.396914   1.389951   0.000000
     6  C    5.230155   4.525803   2.761918   2.411657   1.394589
     7  C    4.383676   4.019237   2.396837   2.795716   2.420456
     8  C    3.015357   2.728531   1.392351   2.431104   2.795800
     9  C    2.690667   1.797119   2.844779   3.615309   4.810706
    10  O    2.571669   1.520074   2.682204   3.016122   4.384513
    11  H    4.234034   2.861385   2.152764   1.085527   2.158696
    12  H    5.999304   4.873033   3.380799   2.144467   1.083840
    13  H    6.279617   5.610378   3.846484   3.392722   2.150436
    14  H    4.993134   4.872864   3.380740   3.879571   3.403182
    15  H    2.621265   2.861252   2.152821   3.410008   3.881260
    16  H    2.954157   2.382236   2.959233   3.877664   4.867348
    17  H    3.600982   2.378130   3.088844   3.435700   4.594765
    18  H    2.848192   2.350791   3.767948   4.580065   5.835112
                    6          7          8          9         10
     6  C    0.000000
     7  C    1.394627   0.000000
     8  C    2.411694   1.389893   0.000000
     9  C    5.305975   4.810216   3.614761   0.000000
    10  O    5.230772   5.044458   3.917601   2.691082   0.000000
    11  H    3.401682   3.881150   3.409968   3.644262   2.622149
    12  H    2.155190   3.403185   3.879636   5.592408   4.994080
    13  H    1.084588   2.150515   3.392764   6.342789   6.280263
    14  H    2.155217   1.083859   2.144406   5.591742   5.999561
    15  H    3.401737   2.158667   1.085553   3.643363   4.234061
    16  H    5.100265   4.439641   3.322476   1.090123   3.599218
    17  H    5.296923   5.074159   4.057144   1.089825   2.835466
    18  H    6.341942   5.777024   4.505596   1.088329   2.970553
                   11         12         13         14         15
    11  H    0.000000
    12  H    2.484148   0.000000
    13  H    4.297361   2.480372   0.000000
    14  H    4.965001   4.299574   2.480452   0.000000
    15  H    4.298302   4.965092   4.297419   2.484078   0.000000
    16  H    4.164654   5.729037   6.082524   5.074623   3.205803
    17  H    3.245890   5.210021   6.287745   5.948032   4.332317
    18  H    4.499982   6.603570   7.391845   6.512295   4.365100
                   16         17         18
    16  H    0.000000
    17  H    1.795716   0.000000
    18  H    1.795531   1.795936   0.000000
 Stoichiometry    C7H8O2S
 Framework group  C1[X(C7H8O2S)]
 Deg. of freedom    48
 Full point group                 C1      NOp   1
 RotChk:  IX=0 Diff= 5.69D-04
 Largest Abelian subgroup         C1      NOp   1
 Largest concise Abelian subgroup C1      NOp   1
                         Standard orientation:                         
 ---------------------------------------------------------------------
 Center     Atomic      Atomic             Coordinates (Angstroms)
 Number     Number       Type             X           Y           Z
 ---------------------------------------------------------------------
      1          8           0       -1.913077   -1.285598   -0.801337
      2         16           0       -1.438855    0.000229   -0.143658
      3          6           0        0.323448    0.000160   -0.068591
      4          6           0        1.001510    1.215629   -0.030098
      5          6           0        2.389961    1.210180    0.034236
      6          6           0        3.082157   -0.000120    0.064518
      7          6           0        2.389650   -1.210276    0.033815
      8          6           0        1.001258   -1.215475   -0.030551
      9          6           0       -2.008472   -0.000722    1.560799
     10          8           0       -1.913634    1.286071   -0.800788
     11          1           0        0.448441    2.149268   -0.058389
     12          1           0        2.929932    2.149672    0.056472
     13          1           0        4.165847   -0.000219    0.108646
     14          1           0        2.929444   -2.149902    0.055610
     15          1           0        0.448021   -2.149034   -0.059230
     16          1           0       -1.525727   -0.822199    2.090422
     17          1           0       -1.750220    0.957651    2.010848
     18          1           0       -3.087439   -0.138943    1.526378
 ---------------------------------------------------------------------
 Rotational constants (GHZ):           2.4681598           0.8158781           0.7197289
 Leave Link  202 at Sun Oct 13 22:03:39 2019, MaxMem= 10737418240 cpu:               0.2 elap:               0.0
 (Enter /apps/cent7/gaussian/g16-A.03/g16-haswell/g16/l301.exe)
 Standard basis: 6-311++G(d,p) (5D, 7F)
 Ernie: Thresh=  0.10000D-02 Tol=  0.10000D-05 Strict=F.
 There are   294 symmetry adapted cartesian basis functions of A   symmetry.
 There are   284 symmetry adapted basis functions of A   symmetry.
   284 basis functions,   446 primitive gaussians,   294 cartesian basis functions
    41 alpha electrons       41 beta electrons
       nuclear repulsion energy       622.6891939463 Hartrees.
 IExCor= 4336 DFT=T Ex+Corr=M062X ExCW=0 ScaHFX=  0.540000
 ScaDFX=  1.000000  1.000000  1.000000  1.000000 ScalE2=  1.000000  1.000000
 IRadAn=      5 IRanWt=     -1 IRanGd=            0 ICorTp=0 IEmpDi=  4
 NAtoms=   18 NActive=   18 NUniq=   18 SFac= 1.00D+00 NAtFMM=   60 NAOKFM=F Big=F
 Integral buffers will be    131072 words long.
 Raffenetti 2 integral format.
 Two-electron integral symmetry is turned on.
 Leave Link  301 at Sun Oct 13 22:03:39 2019, MaxMem= 10737418240 cpu:               1.2 elap:               0.1
 (Enter /apps/cent7/gaussian/g16-A.03/g16-haswell/g16/l302.exe)
 NPDir=0 NMtPBC=     1 NCelOv=     1 NCel=       1 NClECP=     1 NCelD=      1
         NCelK=      1 NCelE2=     1 NClLst=     1 CellRange=     0.0.
 One-electron integrals computed using PRISM.
 One-electron integral symmetry used in STVInt
 NBasis=   284 RedAO= T EigKep=  2.35D-06  NBF=   284
 NBsUse=   283 1.00D-06 EigRej=  8.00D-07 NBFU=   283
 Precomputing XC quadrature grid using
 IXCGrd= 4 IRadAn=           5 IRanWt=          -1 IRanGd=           0 AccXCQ= 0.00D+00.
 Generated NRdTot=       0 NPtTot=           0 NUsed=           0 NTot=          32
 NSgBfM=   294   294   294   294   294 MxSgAt=    18 MxSgA2=    18.
 Leave Link  302 at Sun Oct 13 22:03:39 2019, MaxMem= 10737418240 cpu:               4.1 elap:               0.2
 (Enter /apps/cent7/gaussian/g16-A.03/g16-haswell/g16/l303.exe)
 DipDrv:  MaxL=1.
 Leave Link  303 at Sun Oct 13 22:03:39 2019, MaxMem= 10737418240 cpu:               0.7 elap:               0.1
 (Enter /apps/cent7/gaussian/g16-A.03/g16-haswell/g16/l401.exe)
 Initial guess from the checkpoint file:  "27.chk"
 B after Tr=     0.000000   -0.000000    0.000000
         Rot=    1.000000   -0.000148   -0.000620    0.000011 Ang=  -0.07 deg.
 Guess basis will be translated and rotated to current coordinates.
 JPrj=2 DoOrth=T DoCkMO=T.
 Generating alternative initial guess.
 ExpMin= 3.60D-02 ExpMax= 9.34D+04 ExpMxC= 3.17D+03 IAcc=3 IRadAn=         5 AccDes= 0.00D+00
 Harris functional with IExCor= 1009 and IRadAn=       5 diagonalized for initial guess.
 HarFok:  IExCor= 1009 AccDes= 0.00D+00 IRadAn=         5 IDoV= 1 UseB2=F ITyADJ=14
 ICtDFT=  3500011 ScaDFX=  1.000000  1.000000  1.000000  1.000000
 FoFCou: FMM=F IPFlag=           0 FMFlag=      100000 FMFlg1=           0
         NFxFlg=           0 DoJE=T BraDBF=F KetDBF=T FulRan=T
         wScrn=  0.000000 ICntrl=       500 IOpCl=  0 I1Cent=   200000004 NGrid=           0
         NMat0=    1 NMatS0=      1 NMatT0=    0 NMatD0=    1 NMtDS0=    0 NMtDT0=    0
 Petite list used in FoFCou.
 Harris En= -819.792579714856    
 Leave Link  401 at Sun Oct 13 22:03:39 2019, MaxMem= 10737418240 cpu:              12.7 elap:               0.6
 (Enter /apps/cent7/gaussian/g16-A.03/g16-haswell/g16/l502.exe)
 Integral symmetry usage will be decided dynamically.
 Closed shell SCF:
 Using DIIS extrapolation, IDIIS=  1040.
 NGot= 10737418240 LenX= 10737235427 LenY= 10737148550
 Requested convergence on RMS density matrix=1.00D-08 within 128 cycles.
 Requested convergence on MAX density matrix=1.00D-06.
 Requested convergence on             energy=1.00D-06.
 No special actions if energy rises.
 Fock matrices will be formed incrementally for  20 cycles.

 Cycle   1  Pass 1  IDiag  1:
 FoFJK:  IHMeth= 1 ICntrl=       0 DoSepK=F KAlg= 0 I1Cent=           0 FoldK=F
 IRaf= 940000000 NMat=       1 IRICut=       1 DoRegI=T DoRafI=F ISym2E= 0 IDoP0=0 IntGTp=1.
 FoFCou: FMM=F IPFlag=           0 FMFlag=      100000 FMFlg1=           0
         NFxFlg=           0 DoJE=F BraDBF=F KetDBF=F FulRan=T
         wScrn=  0.000000 ICntrl=         0 IOpCl=  0 I1Cent=           0 NGrid=           0
         NMat0=    1 NMatS0=      1 NMatT0=    0 NMatD0=    1 NMtDS0=    0 NMtDT0=    0
 Symmetry not used in FoFCou.
 E= -820.033430678455    
 DIIS: error= 6.36D-03 at cycle   1 NSaved=   1.
 NSaved= 1 IEnMin= 1 EnMin= -820.033430678455     IErMin= 1 ErrMin= 6.36D-03
 ErrMax= 6.36D-03  0.00D+00 EMaxC= 1.00D-01 BMatC= 1.35D-02 BMatP= 1.35D-02
 IDIUse=3 WtCom= 9.36D-01 WtEn= 6.36D-02
 Coeff-Com:  0.100D+01
 Coeff-En:   0.100D+01
 Coeff:      0.100D+01
 Gap=     0.510 Goal=   None    Shift=    0.000
 GapD=    0.510 DampG=2.000 DampE=1.000 DampFc=2.0000 IDamp=-1.
 RMSDP=1.10D-02 MaxDP=6.64D-01              OVMax= 5.31D-02

 Cycle   2  Pass 1  IDiag  1:
 RMSU=  1.05D-02    CP:  9.87D-01
 E= -820.051269099678     Delta-E=       -0.017838421222 Rises=F Damp=F
 DIIS: error= 4.22D-03 at cycle   2 NSaved=   2.
 NSaved= 2 IEnMin= 2 EnMin= -820.051269099678     IErMin= 2 ErrMin= 4.22D-03
 ErrMax= 4.22D-03  0.00D+00 EMaxC= 1.00D-01 BMatC= 3.33D-03 BMatP= 1.35D-02
 IDIUse=3 WtCom= 9.58D-01 WtEn= 4.22D-02
 Coeff-Com:  0.222D+00 0.778D+00
 Coeff-En:   0.000D+00 0.100D+01
 Coeff:      0.212D+00 0.788D+00
 Gap=     0.309 Goal=   None    Shift=    0.000
 RMSDP=2.15D-02 MaxDP=1.60D+00 DE=-1.78D-02 OVMax= 2.00D-02

 Cycle   3  Pass 1  IDiag  1:
 RMSU=  3.17D-03    CP:  1.07D+00  1.30D+00
 E= -820.052483574588     Delta-E=       -0.001214474910 Rises=F Damp=F
 DIIS: error= 3.50D-03 at cycle   3 NSaved=   3.
 NSaved= 3 IEnMin= 3 EnMin= -820.052483574588     IErMin= 3 ErrMin= 3.50D-03
 ErrMax= 3.50D-03  0.00D+00 EMaxC= 1.00D-01 BMatC= 2.31D-03 BMatP= 3.33D-03
 IDIUse=3 WtCom= 9.65D-01 WtEn= 3.50D-02
 Coeff-Com: -0.480D-01 0.459D+00 0.589D+00
 Coeff-En:   0.000D+00 0.343D+00 0.657D+00
 Coeff:     -0.463D-01 0.455D+00 0.591D+00
 Gap=     0.310 Goal=   None    Shift=    0.000
 RMSDP=1.11D-02 MaxDP=8.99D-01 DE=-1.21D-03 OVMax= 1.12D-02

 Cycle   4  Pass 1  IDiag  1:
 RMSU=  5.77D-04    CP:  1.03D+00  1.26D+00  5.59D-01
 E= -820.054140125187     Delta-E=       -0.001656550599 Rises=F Damp=F
 DIIS: error= 8.49D-04 at cycle   4 NSaved=   4.
 NSaved= 4 IEnMin= 4 EnMin= -820.054140125187     IErMin= 4 ErrMin= 8.49D-04
 ErrMax= 8.49D-04  0.00D+00 EMaxC= 1.00D-01 BMatC= 1.30D-04 BMatP= 2.31D-03
 IDIUse=3 WtCom= 9.92D-01 WtEn= 8.49D-03
 Coeff-Com: -0.403D-01 0.118D+00 0.260D+00 0.663D+00
 Coeff-En:   0.000D+00 0.000D+00 0.000D+00 0.100D+01
 Coeff:     -0.400D-01 0.117D+00 0.257D+00 0.666D+00
 Gap=     0.309 Goal=   None    Shift=    0.000
 RMSDP=4.12D-03 MaxDP=3.30D-01 DE=-1.66D-03 OVMax= 3.49D-03

 Cycle   5  Pass 1  IDiag  1:
 RMSU=  2.67D-04    CP:  1.04D+00  1.29D+00  6.99D-01  9.03D-01
 E= -820.054261018555     Delta-E=       -0.000120893368 Rises=F Damp=F
 DIIS: error= 2.96D-04 at cycle   5 NSaved=   5.
 NSaved= 5 IEnMin= 5 EnMin= -820.054261018555     IErMin= 5 ErrMin= 2.96D-04
 ErrMax= 2.96D-04  0.00D+00 EMaxC= 1.00D-01 BMatC= 1.05D-05 BMatP= 1.30D-04
 IDIUse=3 WtCom= 9.97D-01 WtEn= 2.96D-03
 Coeff-Com: -0.431D-02-0.258D-01-0.683D-02 0.221D+00 0.816D+00
 Coeff-En:   0.000D+00 0.000D+00 0.000D+00 0.000D+00 0.100D+01
 Coeff:     -0.430D-02-0.257D-01-0.681D-02 0.220D+00 0.817D+00
 Gap=     0.310 Goal=   None    Shift=    0.000
 RMSDP=2.03D-04 MaxDP=1.55D-02 DE=-1.21D-04 OVMax= 1.77D-03

 Cycle   6  Pass 1  IDiag  1:
 RMSU=  6.75D-05    CP:  1.04D+00  1.30D+00  7.09D-01  9.88D-01  9.56D-01
 E= -820.054273396601     Delta-E=       -0.000012378046 Rises=F Damp=F
 DIIS: error= 1.72D-04 at cycle   6 NSaved=   6.
 NSaved= 6 IEnMin= 6 EnMin= -820.054273396601     IErMin= 6 ErrMin= 1.72D-04
[...]
 0.1215703,0.0046503,-0.0154933,0.0110315,0.0455717,0.040307,0.0951374,
 -0.0151069,0.0924669,0.0536365,0.0220608,-0.0212186,0.0210543,0.049628
 1,0.0587418,0.0697482,0.0518173,0.0704051,0.0740779,-0.0447352,0.05219
 15,-0.044349,0.0251767,0.0937014,0.0445793,-0.0035675,0.0391755,0.1041
 247,0.0074925,-0.0019928,0.003787,-0.0542555,0.0900907,0.0396144,-0.02
 42777,0.0364248,0.0926733,0.019728,-0.0092073,0.0151152,0.1035632,0.06
 91326,-0.0337163,-0.0000727,-0.0443023,0.0627339,0.0317782,-0.0001197,
 0.0266324,0.0025817,0.0006817,0.007915,-0.0279913,0.0020599,0.0414376,
 0.0251816,-0.0371458,0.0207415,0.0923586,0.0744326,-0.0183994,0.011197
 4,0.0275788,0.0248726,-0.0646366,0.036998,-0.037801,0.0685137\Polar=94
 .9018671,-23.0837108,96.2128327,-7.4417168,8.9385398,113.6801805\Quadr
 upole=-5.227303,4.576606,0.6506971,-1.5818341,2.0849374,3.575338\PG=C0
 1 [X(C7H8O2S1)]\NImag=0\\0.45557150,-0.12010601,0.09334663,0.22252610,
 -0.06874921,0.18812202,-0.42613252,0.10210637,-0.19191177,0.70847322,0
 .10628286,-0.11809099,0.05812117,-0.08353338,0.58311467,-0.20416099,0.
 06005817,-0.19889560,0.14908653,-0.21018790,0.83943777,-0.01377332,0.0
 1766847,0.01082690,-0.09362123,0.02629807,0.02711824,0.39076790,0.0075
 4395,0.00442657,-0.00338667,0.03089219,-0.09789797,-0.03233397,-0.2287
 1791,0.36498951,-0.01902226,0.01070212,0.00744656,0.02969430,-0.029657
 37,-0.10639467,0.05757038,-0.05925157,0.64207420,-0.00266756,0.0016637
 8,-0.00039118,-0.01318791,0.01049523,0.00576800,-0.18921844,0.11451965
 ,-0.03526827,0.42752536,0.00173244,0.00124249,0.00135864,0.01216762,-0
 .01116549,-0.00571861,0.11817258,-0.17426190,0.03702519,-0.26121097,0.
 38238293,0.00802381,-0.00426349,-0.00131963,0.00934433,-0.01045070,0.0
 1469159,-0.08355745,0.07799585,-0.15754730,-0.01068422,-0.02110999,0.7
 5749353,-0.00096981,0.00000416,0.00036979,0.00128488,0.00564256,-0.004
 56332,-0.02765081,0.03549476,-0.00789883,-0.17553925,0.09473803,0.1090
 6167,0.47037645,0.00163994,-0.00193172,-0.00135077,0.00442371,0.002610
 62,0.00606509,0.03392973,-0.02062029,0.00549783,0.09684657,-0.15038290
 ,-0.09382103,-0.30354366,0.41562897,-0.00143760,-0.00016930,0.00015470
 ,-0.00201246,0.00297473,0.00173002,0.03768785,-0.03505338,0.06703194,0
 .05155694,-0.04140647,-0.21711507,0.00912705,-0.03093469,0.68048841,-0
 .00022242,0.00060403,0.00056933,-0.00050548,-0.00045422,-0.00262406,-0
 .02216382,0.01186357,-0.02797061,0.03480914,-0.02397411,0.01334263,-0.
 10497446,0.03639444,0.00849864,0.46329036,0.00000267,-0.00025600,-0.00
 029165,0.00013037,-0.00093588,0.00195581,0.01241510,-0.02164334,0.0262
 7580,-0.02599040,0.03196490,-0.01038502,0.03797872,-0.09999017,0.00183
 209,-0.28889527,0.40158671,0.00009010,0.00038518,0.00022051,-0.0022926
 0,0.00229663,-0.00193623,-0.02766296,0.02660231,-0.05037780,0.05643442
 ,-0.04838684,-0.04124251,-0.04806779,0.05432010,-0.33601141,-0.0390084
 4,0.01611305,0.70565487,0.00064254,-0.00100297,0.00049456,0.00425812,0
 .00193164,-0.00092709,0.03262756,-0.02212556,0.05648388,-0.04871124,0.
 03552862,0.00783318,0.01768416,-0.00680596,-0.06960558,-0.20118198,0.1
 2341162,-0.02286879,0.43492488,0.00034779,-0.00022164,-0.00088610,0.00
 123033,0.00650139,0.00198831,-0.02018625,0.03109636,-0.04988620,0.0364
 6151,-0.03989496,-0.00720789,-0.00808697,0.01343272,0.06368065,0.12436
 228,-0.17780042,0.02263565,-0.26569914,0.37565497,0.00090941,-0.000252
 43,0.00236693,-0.00455982,0.00395460,-0.00513978,0.01110903,-0.0091213
 7,-0.04495724,0.01027452,-0.00939493,-0.00257033,-0.02748241,0.0254347
 7,-0.00495993,-0.07979150,0.07475370,-0.16197810,0.00079188,-0.0163857
 6,0.75592215,-0.00120823,0.00170547,-0.00036606,0.00452389,-0.00435885
 ,0.01482961,-0.09979871,0.03384622,-0.05632272,0.01865160,-0.00525332,
 -0.02627775,-0.01049668,0.00150932,0.02060466,-0.02765988,0.03275086,-
 0.00691101,-0.17663636,0.09624791,0.10899545,0.48387806,0.00135997,-0.
 00061746,0.00167081,-0.00493370,0.00319623,-0.01458934,0.03080853,-0.0
 9535840,0.05462172,-0.00308935,0.01221331,0.02366070,0.00120446,-0.008
 61040,-0.01526901,0.03079675,-0.01943233,0.00351828,0.09777943,-0.1517
 3003,-0.09316243,-0.30261343,0.40995976,-0.00172554,0.00031145,-0.0030
 0511,0.01187212,-0.00922289,-0.01738040,-0.00769090,0.01400904,-0.3258
 4231,-0.06983014,0.06175983,-0.00762439,0.02235430,-0.01817567,-0.0720
 7079,0.03621498,-0.03444658,0.07262680,0.05116806,-0.04108744,-0.21470
 361,0.01306217,-0.02212288,0.67357969,-0.01696885,-0.02150668,-0.01099
 528,-0.09254040,-0.03615970,-0.00364118,0.01048428,0.01189248,0.004924
 70,0.00060651,-0.00067803,0.00043625,-0.00071455,-0.00094277,0.0004450
 6,-0.00021237,0.00033701,0.00029998,-0.00080332,-0.00064121,0.00005201
 ,-0.00088599,0.00123760,-0.00054225,0.53891610,0.01193178,0.01072443,0
 .00741565,-0.04454512,-0.13383566,-0.01322003,-0.00643815,-0.00640175,
 -0.00403843,-0.00078116,-0.00006889,-0.00097737,0.00050892,0.00046781,
 -0.00018943,0.00011374,-0.00014423,-0.00013502,0.00032605,0.00043539,-
 0.00027087,0.00084071,-0.00209095,0.00029441,-0.08844436,0.44026026,-0
 .01354010,-0.00760785,0.00370698,-0.00833999,-0.01810722,-0.06927318,-
 0.00536925,-0.01473063,0.00233857,-0.00043136,-0.00067162,-0.00241594,
 0.00076833,0.00044105,0.00009406,0.00017364,-0.00026405,-0.00027482,0.
 00108595,0.00051207,0.00021146,0.00004488,-0.00030936,0.00109542,-0.01
 252196,-0.03938232,0.58759599,0.01053903,0.01795396,-0.03052232,-0.085
 06187,-0.01566106,0.02690644,0.00685566,-0.00643025,0.01453023,-0.0009
 7908,0.00053263,-0.00083579,0.00094583,-0.00052209,0.00101863,-0.00016
 578,-0.00001563,0.00026789,0.00069063,-0.00030531,0.00158004,-0.002957
 53,0.00277596,-0.00000221,0.00565215,-0.00972967,0.01450583,0.06368182
 ,-0.00375572,0.01207807,0.01131779,-0.00958444,-0.20903173,0.20878825,
 0.00598961,0.01001667,-0.00758753,0.00248472,-0.00077626,0.00116574,-0
 .00153201,0.00083862,-0.00075833,-0.00004432,0.00033288,-0.00080355,-0
 .00025401,-0.00134626,-0.00077893,0.00102208,0.00111799,0.00189218,-0.
 00437019,-0.00584211,0.03206109,0.01484536,0.19641703,0.00836705,0.011
 10967,-0.00251978,0.01571995,0.21183856,-0.44903189,-0.00266548,0.0196
 5016,-0.01877175,-0.00090548,0.00114253,-0.00307046,0.00010959,-0.0015
 0530,0.00100064,0.00011152,0.00020897,-0.00042542,-0.00111871,-0.00053
 077,-0.00208910,0.00738975,-0.00478708,-0.00090376,-0.00380452,0.00065
 629,-0.00232990,-0.02908684,-0.24163825,0.47693102,-0.00000967,-0.0000
 0521,0.00080779,-0.00150394,0.00060557,-0.00446469,0.00222221,0.001703
 34,-0.02031547,-0.05023822,0.01164475,-0.01826403,0.00626426,-0.002643
 86,0.01800841,0.00142633,0.00559794,0.00228576,-0.00097696,-0.00005965
 ,0.00028885,-0.00028778,0.00628916,-0.00074919,0.00013778,-0.00020668,
 0.00014928,0.00030375,-0.00145139,0.00198331,0.04439406,-0.00052657,0.
 00056283,-0.00049973,-0.00048626,-0.00291632,0.00303307,0.00027093,0.0
 0144586,0.01875669,0.01255438,-0.05334709,0.03780791,-0.00178104,0.006
 76836,-0.01607592,0.00564005,0.00262751,-0.00215633,0.00013834,-0.0013
 1688,-0.00034570,0.00616615,0.00119303,0.00116883,0.00066738,-0.000263
 20,-0.00042640,-0.00094806,0.00025022,-0.00073633,-0.01817736,0.047416
 06,0.00000252,0.00026497,0.00021228,0.00015672,-0.00051115,-0.00090125
 ,-0.00095549,0.00164228,-0.00714425,-0.02022117,0.03742631,-0.33936489
 ,-0.00316712,0.00386397,-0.01125946,0.00259537,-0.00157760,-0.00027251
 ,0.00029842,-0.00044818,0.00055728,-0.00076084,0.00128776,0.00142626,0
 .00002273,0.00006528,-0.00011626,0.00125649,-0.00115045,-0.00076300,0.
 02117485,-0.04088051,0.35769165,-0.00048695,0.00013230,0.00004261,0.00
 043579,0.00018186,-0.00119779,0.00205943,0.00501182,0.00290013,-0.0076
 6738,0.01068798,-0.00780057,-0.18285104,0.13555567,-0.06917928,0.00202
 654,0.00130151,0.00080653,0.00445340,0.00289501,-0.00010545,-0.0003363
 7,-0.00074153,0.00057089,-0.00006231,0.00005974,0.00019863,-0.00004410
 ,-0.00011124,0.00037376,-0.00148416,-0.00249088,-0.00020094,0.18598206
 ,0.00042699,-0.00042400,-0.00008696,0.00006867,0.00038331,0.00078476,0
 .00443535,0.00335077,-0.00240023,0.00998853,-0.00589759,0.00701757,0.1
 3577766,-0.16565668,0.06664345,0.00206657,0.00156250,-0.00075415,0.002
 93685,0.00484805,0.00058146,-0.00082723,-0.00030297,-0.00035232,0.0000
 7579,-0.00006034,-0.00005397,-0.00003999,0.00007359,-0.00027249,-0.002
 46748,-0.00194803,-0.00029294,-0.14976751,0.16676171,0.00060547,-0.000
 33854,-0.00007159,0.00022670,-0.00034057,0.00096257,0.00284489,-0.0023
 0674,-0.00173305,0.01460107,-0.01384134,0.01091433,-0.06934436,0.06643
 654,-0.09558265,-0.02187836,0.02039993,-0.00542003,0.00017905,0.000399
 27,-0.00569910,0.00052644,-0.00047600,-0.00123994,0.00002039,-0.000031
 88,-0.00012376,-0.00007386,0.00017176,-0.00026880,-0.00053984,0.000291
 09,0.00067946,0.07380048,-0.07086144,0.09702581,-0.00008957,0.00009049
 ,0.00017392,-0.00050876,-0.00053438,-0.00027921,-0.00029116,-0.0002611
 7,-0.00095723,0.00421953,0.00308746,-0.00105335,0.00599311,-0.00159138
 ,-0.00363123,-0.14928768,0.09540694,0.10569309,-0.00737537,0.00991433,
 0.01491183,0.00095190,0.00599650,-0.00219530,0.00011270,-0.00006442,-0
 .00010388,-0.00002697,-0.00002313,0.00023977,0.00007314,-0.00018069,-0
 .00022516,-0.00155740,-0.00227258,0.00020394,0.14959127,-0.00009845,0.
 00008445,-0.00013031,-0.00035780,-0.00068357,0.00009086,-0.00030504,-0
 .00040954,0.00088927,0.00316619,0.00460382,0.00148295,-0.00233627,0.00
 608370,0.00406351,0.09546887,-0.12341561,-0.09136724,0.01048394,-0.004
 94821,-0.01375863,0.00598973,0.00211236,0.00204293,0.00009742,-0.00009
 553,-0.00010867,-0.00004052,0.00008011,0.00000910,-0.00021054,0.000071
 38,0.00021751,-0.00228907,-0.00195211,-0.00038876,-0.10740031,0.120779
 87,0.00014496,-0.00007192,0.00013756,-0.00017970,0.00019443,-0.0002591
 0,-0.00098135,0.00086419,-0.00062112,-0.00105949,0.00145597,-0.0054979
 0,0.01918227,-0.01680958,-0.01324005,0.10572851,-0.09133095,-0.1728484
 3,-0.00800086,0.00701140,0.01115981,-0.00214905,0.00211176,0.00026092,
 -0.00001319,-0.00001406,-0.00000358,0.00015241,-0.00017034,0.00007917,
 0.00087915,-0.00084309,-0.00057638,-0.00032323,0.00009289,0.00086972,-
 0.11330289,0.09753730,0.17953804,-0.00026876,0.00011097,-0.00017689,0.
 00102672,-0.00036857,0.00047422,0.00150150,0.00537820,0.00290806,-0.00
 136968,0.00023405,0.00026085,0.00051224,0.00635365,-0.00118880,0.00228
 710,0.00154109,-0.02195665,-0.05328902,0.01377263,-0.02978381,0.005753
 40,-0.00222865,0.01893371,-0.00012821,0.00013677,-0.00000003,-0.000290
 28,-0.00009549,0.00047600,-0.00043263,-0.00055611,-0.00004129,-0.00001
 061,0.00009463,-0.00109263,-0.00133961,-0.00243785,0.00029272,0.047351
 32,0.00013563,-0.00010103,0.00018742,-0.00022161,0.00064499,-0.0003451
 7,0.00528689,0.00269539,-0.00186842,0.00009943,-0.00117747,-0.00016642
 ,0.00642612,0.00181056,0.00111979,0.00126090,0.00186683,0.02014538,0.0
 1356238,-0.05082650,0.03251257,-0.00191957,0.00556790,-0.01697693,0.00
 003466,-0.00003387,-0.00004142,0.00017084,-0.00013951,-0.00062047,-0.0
 0058682,-0.00052053,-0.00005024,0.00002419,-0.00007587,0.00094919,-0.0
 0241716,-0.00187137,-0.00038779,-0.01943324,0.04428369,0.00032458,-0.0
 0020090,0.00013074,-0.00093120,0.00080013,0.00010960,0.00258850,-0.002
 35180,-0.00051986,0.00018125,-0.00017197,0.00066758,-0.00140977,0.0013
 6813,0.00127964,0.00100116,-0.00072481,-0.00598571,-0.02961387,0.03272
 640,-0.33997477,-0.00368612,0.00365385,-0.01396998,0.00012995,-0.00011
 366,-0.00008470,0.00022795,-0.00004158,-0.00055197,-0.00002074,-0.0000
 0429,-0.00006950,0.00011442,-0.00008883,-0.00037832,-0.00021343,0.0001
 1540,0.00057119,0.03135462,-0.03480664,0.35813398,-0.00161174,0.000565
 35,0.00051006,-0.00031430,-0.00127774,0.00070652,0.00102784,0.00143574
 ,-0.00130259,0.00363414,0.00246660,0.00043367,-0.00027010,-0.00068172,
 0.00042711,0.00240077,0.00432926,0.00267070,-0.00615544,0.00931132,-0.
 00729586,-0.19406171,0.13576219,-0.07099450,0.00008500,-0.00003749,-0.
 00041682,-0.00020421,0.00002193,0.00014897,0.00023573,0.00011144,0.000
 09703,-0.00049045,-0.00047202,-0.00004228,-0.00043796,0.00029660,-0.00
 038335,-0.00132545,-0.00239062,-0.00001164,0.19762690,-0.00011264,-0.0
 0072230,-0.00104179,-0.00087724,-0.00183603,-0.00063894,0.00217473,0.0
 0098213,0.00179711,0.00251574,0.00475086,0.00023133,-0.00070610,-0.000
 56111,-0.00076372,0.00495545,0.00360516,-0.00209713,0.00921471,-0.0038
 1826,0.00663224,0.13436096,-0.15688780,0.06055242,0.00040648,-0.000125
 90,-0.00041891,-0.00009264,0.00030026,0.00055812,0.00015967,0.00026800
 ,-0.00003990,-0.00051174,-0.00061962,-0.00000307,0.00030325,-0.0004089
 5,0.00035735,-0.00257736,-0.00208572,-0.00010225,-0.14901701,0.1574104
 9,0.00113615,-0.00073264,0.00212420,-0.00430299,0.00250918,-0.00317289
 ,-0.02104847,0.01850384,-0.00548579,0.00040435,0.00007176,-0.00605549,
 0.00051537,-0.00055948,-0.00090594,0.00273687,-0.00228635,-0.00222344,
 0.01430618,-0.01285810,0.01175321,-0.06931091,0.06064118,-0.09201339,0
 .00044892,-0.00014084,-0.00020050,0.00059630,-0.00058009,0.00066902,-0
 .00113357,0.00105848,-0.00019381,-0.00002693,0.00003747,0.00008755,0.0
 0074133,-0.00068180,0.00041544,-0.00046916,0.00035870,0.00065796,0.075
 51084,-0.06517146,0.09447540,-0.00006295,0.00131897,-0.00186248,-0.002
 43272,-0.00476264,0.01541578,-0.00003524,0.00083876,-0.00077038,0.0000
 3244,0.00000442,-0.00000827,-0.00011349,0.00008349,0.00010545,-0.00010
 858,0.00004972,-0.00008906,-0.00001797,-0.00007886,-0.00008746,0.00022
 364,-0.00014442,0.00011898,-0.05056175,-0.01544126,0.02994499,-0.00082
 492,-0.00485773,0.00083049,-0.00003823,-0.00002885,0.00001392,-0.00001
 580,-0.00001184,0.00000256,0.00000414,0.00001613,-0.00000254,0.0000303
 6,0.00000497,-0.00000168,-0.00002159,-0.00009271,-0.00011627,0.0492364
 6,0.00135189,0.00171996,-0.00245949,-0.00080632,-0.01074182,0.02394906
 ,-0.00001629,0.00125641,-0.00127747,0.00035014,-0.00010652,0.00018957,
 -0.00024525,0.00000566,0.00019693,-0.00013438,0.00013609,-0.00017679,0
 .00015525,-0.00010999,-0.00035796,0.00036841,-0.00015811,-0.00016337,-
 0.01587509,-0.10557981,0.11735304,-0.00398060,-0.00672204,0.00141182,-
 0.00010777,0.00012652,0.00004120,-0.00001821,-0.00000348,0.00000651,-0
 .00001345,0.00001260,-0.00001203,0.00003239,-0.00001369,-0.00001289,-0
 .00021455,-0.00009104,-0.00016470,0.01860079,0.11223024,0.00018922,-0.
 00057846,0.00019917,-0.00105085,-0.00223743,0.00360619,0.00020095,0.00
 027207,-0.00004306,-0.00022653,0.00019832,-0.00002995,-0.00000537,-0.0
 0007859,-0.00016867,0.00008617,-0.00007034,0.00012393,-0.00016210,0.00
 010577,-0.00003501,0.00028173,-0.00038433,0.00000330,0.03084231,0.1175
 8338,-0.26753180,-0.00123713,-0.00265921,0.00240797,-0.00001595,0.0000
 1354,0.00000993,0.00000630,0.00000246,-0.00000827,0.00000167,0.0000081
 0,0.00000029,0.00001856,-0.00000576,-0.00001490,-0.00012656,0.00004399
 ,-0.00002139,-0.03269050,-0.12581355,0.28337340,-0.00168143,-0.0031658
 4,-0.00149807,-0.01403565,0.00706327,-0.00632377,0.00087098,-0.0002010
 8,0.00085376,0.00009252,0.00011068,0.00002793,0.00015138,-0.00015068,-
 0.00019316,0.00009603,-0.00013029,0.00025926,-0.00023440,0.00017852,0.
 00013149,0.00005106,0.00007600,-0.00036497,-0.26513902,0.06558964,-0.1
 0250133,0.00250732,-0.00020088,0.00146674,0.00003082,-0.00015968,-0.00
 005169,0.00000786,0.00001095,-0.00001226,0.00000560,-0.00000061,0.0000
 1018,-0.00002331,-0.00000784,0.00000587,-0.00003489,0.00000506,0.00005
 050,0.00695368,-0.00128240,0.00323018,0.28151894,-0.00725736,-0.004397
 04,-0.00338250,-0.02173417,0.00876665,-0.01014282,0.00136965,0.0000836
 8,0.00103384,0.00017085,-0.00009323,-0.00063039,0.00017486,-0.00021516
 ,0.00005453,0.00002528,-0.00003301,0.00009859,-0.00015913,-0.00005628,
 0.00011999,0.00000674,0.00013784,-0.00002572,0.06626461,-0.06410529,0.
 03198702,0.00252605,-0.00032990,0.00059048,-0.00004416,-0.00023970,0.0
 0015131,0.00003543,-0.00000146,-0.00003469,0.00001034,0.00000437,0.000
 01903,-0.00000948,-0.00000888,0.00000596,-0.00005128,0.00003608,0.0001
 0928,0.01355998,-0.00315809,0.00366052,-0.06951938,0.06692513,-0.00123
 512,-0.00118364,0.00094471,-0.00380518,0.00153984,-0.00428636,0.000285
 50,-0.00009757,0.00022372,0.00018673,-0.00007255,0.00006749,0.00019606
 ,-0.00008308,-0.00009909,0.00006797,-0.00002460,0.00008908,-0.00013238
 ,0.00000637,0.00001445,0.00000890,0.00012615,-0.00029278,-0.10325397,0
 .03190048,-0.09445670,0.00096074,0.00031594,-0.00032489,-0.00004550,-0
 .00006208,0.00007509,-0.00000338,-0.00001154,-0.00000460,-0.00000455,-
 0.00001207,0.00000704,-0.00000233,0.00000533,0.00000458,0.00000432,0.0
 0005799,0.00009664,-0.02336092,0.00380330,-0.00822019,0.11170242,-0.03
 298561,0.09640470,-0.00059930,0.00186238,0.00140299,0.00984215,-0.0113
 9052,-0.01212324,-0.00186463,-0.00268472,-0.00003708,0.00000753,0.0000
 0857,-0.00028290,0.00036788,0.00014560,-0.00023169,0.00014617,-0.00022
 123,0.00004956,0.00010076,0.00033578,0.00006178,0.00029568,-0.00033546
 ,-0.00020021,-0.12797774,0.08618097,0.09635320,-0.00062143,0.00191686,
 0.00036413,-0.00011648,-0.00021316,0.00000566,0.00004148,-0.00002335,-
 0.00002741,-0.00003691,-0.00004242,0.00000543,0.00001494,-0.00002914,-
 0.00003984,-0.00008255,-0.00010861,-0.00003852,-0.00224747,0.00183543,
 0.00065790,-0.01113748,0.01463119,0.01843069,0.13386741,-0.00089916,0.
 00257674,0.00219371,0.01606078,-0.01808239,-0.01953662,-0.00315599,-0.
 00375016,-0.00063236,-0.00024485,0.00001399,-0.00053933,0.00028107,0.0
 0032141,0.00005459,-0.00004962,-0.00003160,-0.00023810,0.00057795,0.00
 010054,-0.00016032,0.00015782,-0.00030995,0.00054272,0.08760462,-0.133
 24035,-0.10023186,-0.00103898,0.00268238,0.00291498,-0.00003950,-0.000
 17803,-0.00000961,0.00004467,-0.00003780,-0.00003126,-0.00005063,-0.00
 004778,-0.00000454,0.00005237,-0.00001492,-0.00005023,-0.00015801,-0.0
 0019625,-0.00011442,-0.00905888,0.01119710,0.00993952,0.00178453,-0.00
 331571,-0.00322267,-0.09186818,0.14231280,-0.00119776,0.00131681,0.000
 04536,0.00328589,-0.00351404,-0.00386640,-0.00030090,-0.00090603,0.000
 32320,-0.00038942,0.00033579,0.00001934,0.00025452,-0.00010929,-0.0003
 6635,0.00014619,-0.00013740,0.00028121,-0.00021180,0.00022453,0.000121
 69,0.00004085,-0.00019181,0.00005407,0.09715003,-0.09940156,-0.1582313
 4,-0.00024479,0.00045552,-0.00003709,-0.00002843,-0.00009922,0.0000093
 3,0.00002380,0.00001482,-0.00000931,0.00000071,-0.00000945,0.00000737,
 -0.00000718,-0.00000911,-0.00000557,0.00006439,0.00004662,-0.00000677,
 0.01255739,-0.01651316,-0.01365094,-0.00679306,0.00937117,0.00975708,-
 0.10435045,0.10912580,0.16555510\\-0.00000283,-0.00000367,-0.00000024,
 0.00000267,-0.00000097,-0.00000215,-0.00000061,-0.00000215,-0.00001131
 ,0.00000772,-0.00000013,-0.00000013,-0.00000675,-0.00000238,0.00000931
 ,-0.00000340,0.00000444,-0.00000566,-0.00000019,-0.00000615,-0.0000034
 2,0.00000374,0.00000996,0.00001225,-0.00001943,0.00001246,-0.00001195,
 -0.00000254,-0.00000518,0.00001287,-0.00000091,0.00000111,-0.00000050,
 0.00000089,-0.00000040,-0.00000224,0.00000233,0.00000075,0.00000060,0.
 00000082,0.00000065,0.00000002,-0.00000021,-0.00000174,-0.00000351,0.0
 0001052,0.00000053,0.00000059,0.00000097,-0.00000572,0.00000144,0.0000
 0722,-0.00000141,0.00000404\\\@


 CLIMB THE MOUNTAINS AND GET THEIR GOOD TIDINGS.
 NATURE'S PEACE WILL FLOW INTO YOU AS SUNSHINE FLOWS INTO TREES.
 THE WINDS WILL BLOW THEIR OWN FRESHNESS INTO YOU, 
 AND CARES WILL DROP OFF LIKE AUTUMN LEAVES.

                                         -- JOHN MUIR
 Job cpu time:       0 days  0 hours 47 minutes 23.6 seconds.
 Elapsed time:       0 days  0 hours  2 minutes  0.7 seconds.
 File lengths (MBytes):  RWF=    147 Int=      0 D2E=      0 Chk=      8 Scr=      1
 Normal termination of Gaussian 16 at Sun Oct 13 22:07:42 2019.
real 265.07
user 6180.91
sys 23.61
Machine:
brown-a120
brown-a120
brown-a120
brown-a120
brown-a120
brown-a120
brown-a120
brown-a120
brown-a120
brown-a120
brown-a120
brown-a120
brown-a120
brown-a120
brown-a120
brown-a120
brown-a120
brown-a120
brown-a120
brown-a120
brown-a120
brown-a120
brown-a120
brown-a120
