Title Card Required                                                     
Freq      RM062X                                                      6-311++G(d,p)       
Number of atoms                            I               19
Info1-9                                    I   N=           9
          48          48        1002           0           0         100
           6          18        -502
Full Title                                 C   N=           2
Title Card Required     
Route                                      C   N=           6
#P opt freq m062x/6-311++g(d,p) geom=connectivity temperatur
e=0.001     
Charge                                     I                1
Multiplicity                               I                1
Number of electrons                        I               82
Number of alpha electrons                  I               41
Number of beta electrons                   I               41
Number of basis functions                  I              291
Number of independent functions            I              290
Number of point charges in /Mol/           I                0
Number of translation vectors              I                0
Atomic numbers                             I   N=          19
           8          16           6           6           6           6
           6           6           6           8           1           1
           1           1           1           1           1           1
           1
Nuclear charges                            R   N=          19
  8.00000000E+00  1.60000000E+01  6.00000000E+00  6.00000000E+00  6.00000000E+00
  6.00000000E+00  6.00000000E+00  6.00000000E+00  6.00000000E+00  8.00000000E+00
  1.00000000E+00  1.00000000E+00  1.00000000E+00  1.00000000E+00  1.00000000E+00
  1.00000000E+00  1.00000000E+00  1.00000000E+00  1.00000000E+00
Current cartesian coordinates              R   N=          57
  3.56252037E+00  1.84757344E+00 -1.99203348E+00  2.62378514E+00 -2.91517815E-01
 -1.07637090E-01 -6.82023994E-01 -7.93040806E-02 -8.34069745E-02 -2.01594107E+00
 -2.34518182E+00  4.55982090E-02 -4.63603446E+00 -2.20747061E+00  1.42148095E-01
 -5.83652377E+00  1.32567009E-01  1.19965978E-01 -4.45158255E+00  2.37300090E+00
 -7.38745162E-03 -1.83563961E+00  2.29385480E+00 -1.09868549E-01  3.90243731E+00
  9.80726660E-01  2.70813708E+00  3.50258643E+00 -2.79817395E+00 -6.65770307E-01
 -1.03549283E+00 -4.14310954E+00  4.34804656E-02 -5.73394983E+00 -3.93118024E+00
  2.29029535E-01 -7.88044933E+00  2.17961657E-01  1.96316365E-01 -5.41161681E+00
  4.17901511E+00 -3.89142217E-02 -7.35834219E-01  4.01794815E+00 -2.40692792E-01
  3.17354690E+00  2.88982482E+00  2.95808091E+00  3.29681233E+00 -2.74390971E-01
  4.22598923E+00  5.95073617E+00  9.61422675E-01  2.47692693E+00  3.20667989E+00
  1.46244029E+00 -3.75671101E+00
Number of symbols in /Mol/                 I                0
Force Field                                I                0
Atom Types                                 C   N=          19
                                                            
                                                            
                                                            
                                                
Int Atom Types                             I   N=          19
           0           0           0           0           0           0
           0           0           0           0           0           0
           0           0           0           0           0           0
           0
MM charges                                 R   N=          19
  0.00000000E+00  0.00000000E+00  0.00000000E+00  0.00000000E+00  0.00000000E+00
  0.00000000E+00  0.00000000E+00  0.00000000E+00  0.00000000E+00  0.00000000E+00
  0.00000000E+00  0.00000000E+00  0.00000000E+00  0.00000000E+00  0.00000000E+00
  0.00000000E+00  0.00000000E+00  0.00000000E+00  0.00000000E+00
Integer atomic weights                     I   N=          19
          16          32          12          12          12          12
          12          12          12          16           1           1
           1           1           1           1           1           1
           1
Real atomic weights                        R   N=          19
  1.59949146E+01  3.19720718E+01  1.20000000E+01  1.20000000E+01  1.20000000E+01
  1.20000000E+01  1.20000000E+01  1.20000000E+01  1.20000000E+01  1.59949146E+01
  1.00782504E+00  1.00782504E+00  1.00782504E+00  1.00782504E+00  1.00782504E+00
  1.00782504E+00  1.00782504E+00  1.00782504E+00  1.00782504E+00
Atom fragment info                         I   N=          19
           0           0           0           0           0           0
           0           0           0           0           0           0
           0           0           0           0           0           0
           0
Atom residue num                           I   N=          19
           0           0           0           0           0           0
           0           0           0           0           0           0
           0           0           0           0           0           0
           0
Nuclear spins                              I   N=          19
           0           0           0           0           0           0
           0           0           0           0           1           1
           1           1           1           1           1           1
           1
Nuclear ZEff                               R   N=          19
 -5.60000000E+00 -1.36000000E+01 -3.60000000E+00 -3.60000000E+00 -3.60000000E+00
 -3.60000000E+00 -3.60000000E+00 -3.60000000E+00 -3.60000000E+00 -5.60000000E+00
 -1.00000000E+00 -1.00000000E+00 -1.00000000E+00 -1.00000000E+00 -1.00000000E+00
 -1.00000000E+00 -1.00000000E+00 -1.00000000E+00 -1.00000000E+00
Nuclear ZNuc                               R   N=          19
  8.00000000E+00  1.60000000E+01  6.00000000E+00  6.00000000E+00  6.00000000E+00
  6.00000000E+00  6.00000000E+00  6.00000000E+00  6.00000000E+00  8.00000000E+00
  1.00000000E+00  1.00000000E+00  1.00000000E+00  1.00000000E+00  1.00000000E+00
  1.00000000E+00  1.00000000E+00  1.00000000E+00  1.00000000E+00
Nuclear QMom                               R   N=          19
  0.00000000E+00  0.00000000E+00  0.00000000E+00  0.00000000E+00  0.00000000E+00
  0.00000000E+00  0.00000000E+00  0.00000000E+00  0.00000000E+00  0.00000000E+00
  0.00000000E+00  0.00000000E+00  0.00000000E+00  0.00000000E+00  0.00000000E+00
  0.00000000E+00  0.00000000E+00  0.00000000E+00  0.00000000E+00
Nuclear GFac                               R   N=          19
  0.00000000E+00  0.00000000E+00  0.00000000E+00  0.00000000E+00  0.00000000E+00
  0.00000000E+00  0.00000000E+00  0.00000000E+00  0.00000000E+00  0.00000000E+00
  2.79284600E+00  2.79284600E+00  2.79284600E+00  2.79284600E+00  2.79284600E+00
  2.79284600E+00  2.79284600E+00  2.79284600E+00  2.79284600E+00
MicOpt                                     I   N=          19
          -1          -1          -1          -1          -1          -1
          -1          -1          -1          -1          -1          -1
          -1          -1          -1          -1          -1          -1
          -1
Number of residues                         I                0
Number of secondary structures             I                0
Redundant internal dimensions              I   N=           4
          92          19          31          42
Redundant internal coordinate indices      I   N=         368
           1           2           0           0           1          19
           0           0           2           3           0           0
           2           9           0           0           2          10
           0           0           3           4           0           0
           3           8           0           0           4           5
           0           0           4          11           0           0
           5           6           0           0           5          12
           0           0           6           7           0           0
           6          13           0           0           7           8
           0           0           7          14           0           0
           8          15           0           0           9          16
           0           0           9          17           0           0
           9          18           0           0           2           1
          19           0           1           2           3           0
           1           2           9           0           1           2
          10           0           3           2           9           0
           3           2          10           0           9           2
          10           0           2           3           4           0
           2           3           8           0           4           3
           8           0           3           4           5           0
           3           4          11           0           5           4
          11           0           4           5           6           0
           4           5          12           0           6           5
          12           0           5           6           7           0
           5           6          13           0           7           6
          13           0           6           7           8           0
           6           7          14           0           8           7
          14           0           3           8           7           0
           3           8          15           0           7           8
          15           0           2           9          16           0
           2           9          17           0           2           9
          18           0          16           9          17           0
          16           9          18           0          17           9
          18           0          19           1           2           3
          19           1           2           9          19           1
           2          10           1           2           3           4
           1           2           3           8           9           2
           3           4           9           2           3           8
          10           2           3           4          10           2
           3           8           1           2           9          16
           1           2           9          17           1           2
           9          18           3           2           9          16
           3           2           9          17           3           2
           9          18          10           2           9          16
          10           2           9          17          10           2
           9          18           2           3           4           5
           2           3           4          11           8           3
           4           5           8           3           4          11
           2           3           8           7           2           3
           8          15           4           3           8           7
           4           3           8          15           3           4
           5           6           3           4           5          12
          11           4           5           6          11           4
           5          12           4           5           6           7
           4           5           6          13          12           5
           6           7          12           5           6          13
           5           6           7           8           5           6
           7          14          13           6           7           8
          13           6           7          14           6           7
           8           3           6           7           8          15
          14           7           8           3          14           7
           8          15
Redundant internal coordinates             R   N=          92
  3.00131388E+00  1.84093366E+00  3.31270219E+00  3.34397093E+00  2.71424564E+00
  2.63252332E+00  2.63882782E+00  2.62548579E+00  2.04788362E+00  2.63010317E+00
  2.04551740E+00  2.63701064E+00  2.04713294E+00  2.61914565E+00  2.04556766E+00
  2.04919124E+00  2.05873965E+00  2.06057687E+00  2.06139734E+00  1.97391391E+00
  1.84528949E+00  1.70916385E+00  2.01289064E+00  1.92948677E+00  1.96466657E+00
  1.98308650E+00  2.03853856E+00  2.08724822E+00  2.15680998E+00  2.05140790E+00
  2.10950255E+00  2.12217971E+00  2.09654565E+00  2.08633301E+00  2.10030243E+00
  2.11366843E+00  2.08578610E+00  2.08372494E+00  2.09528132E+00  2.09945177E+00
  2.08843168E+00  2.05264572E+00  2.12076266E+00  2.10961177E+00  1.89616258E+00
  1.85056946E+00  1.85660932E+00  1.95125712E+00  1.95422053E+00  1.94868502E+00
 -1.25044864E+00  3.04229551E+00  9.32210287E-01  2.48493039E+00 -6.92206442E-01
 -1.96588091E+00  1.14016756E+00  2.72683964E-01 -2.90445287E+00  9.86035107E-01
  3.08585465E+00 -1.12069149E+00 -9.36451109E-01  1.16336844E+00 -3.04317771E+00
  3.11823332E+00 -1.06513244E+00  1.01150672E+00  3.10907101E+00 -4.71144424E-02
  4.57720326E-03  3.13157706E+00 -3.10627756E+00  5.46873467E-02 -2.76597561E-03
 -3.12498638E+00 -5.00997321E-03  3.13347242E+00 -3.13189722E+00  6.58517700E-03
  3.91075832E-03 -3.14137432E+00 -3.13454651E+00  3.35371193E-03 -2.02681244E-03
  3.13265384E+00 -3.13993133E+00 -5.25068476E-03  1.38093509E-03  3.12373169E+00
 -3.13334351E+00 -1.09927474E-02
ZRed-IntVec                                I   N=          92
           0           0           0           0           0           0
           0           0           0           0           0           0
           0           0           0           0           0           0
           0           0           0           0           0           0
           0           0           0           0           0           0
           0           0           0           0           0           0
           0           0           0           0           0           0
           0           0           0           0           0           0
           0           0           0           0           0           0
           0           0           0           0           0           0
           0           0           0           0           0           0
           0           0           0           0           0           0
           0           0           0           0           0           0
           0           0           0           0           0           0
           0           0           0           0           0           0
           0           0
ZRed-FPVec                                 R   N=          92
  0.00000000E+00  0.00000000E+00  0.00000000E+00  0.00000000E+00  0.00000000E+00
  0.00000000E+00  0.00000000E+00  0.00000000E+00  0.00000000E+00  0.00000000E+00
  0.00000000E+00  0.00000000E+00  0.00000000E+00  0.00000000E+00  0.00000000E+00
  0.00000000E+00  0.00000000E+00  0.00000000E+00  0.00000000E+00  0.00000000E+00
  0.00000000E+00  0.00000000E+00  0.00000000E+00  0.00000000E+00  0.00000000E+00
  0.00000000E+00  0.00000000E+00  0.00000000E+00  0.00000000E+00  0.00000000E+00
  0.00000000E+00  0.00000000E+00  0.00000000E+00  0.00000000E+00  0.00000000E+00
  0.00000000E+00  0.00000000E+00  0.00000000E+00  0.00000000E+00  0.00000000E+00
  0.00000000E+00  0.00000000E+00  0.00000000E+00  0.00000000E+00  0.00000000E+00
  0.00000000E+00  0.00000000E+00  0.00000000E+00  0.00000000E+00  0.00000000E+00
  0.00000000E+00  0.00000000E+00  0.00000000E+00  0.00000000E+00  0.00000000E+00
  0.00000000E+00  0.00000000E+00  0.00000000E+00  0.00000000E+00  0.00000000E+00
  0.00000000E+00  0.00000000E+00  0.00000000E+00  0.00000000E+00  0.00000000E+00
  0.00000000E+00  0.00000000E+00  0.00000000E+00  0.00000000E+00  0.00000000E+00
  0.00000000E+00  0.00000000E+00  0.00000000E+00  0.00000000E+00  0.00000000E+00
  0.00000000E+00  0.00000000E+00  0.00000000E+00  0.00000000E+00  0.00000000E+00
  0.00000000E+00  0.00000000E+00  0.00000000E+00  0.00000000E+00  0.00000000E+00
  0.00000000E+00  0.00000000E+00  0.00000000E+00  0.00000000E+00  0.00000000E+00
  0.00000000E+00  0.00000000E+00
ZRed-Constraint1                           R   N=          92
  3.00131388E+00  1.84093366E+00  3.31270219E+00  3.34397093E+00  2.71424564E+00
  2.63252332E+00  2.63882782E+00  2.62548579E+00  2.04788362E+00  2.63010317E+00
  2.04551740E+00  2.63701064E+00  2.04713294E+00  2.61914565E+00  2.04556766E+00
  2.04919124E+00  2.05873965E+00  2.06057687E+00  2.06139734E+00  1.97391391E+00
  1.84528949E+00  1.70916385E+00  2.01289064E+00  1.92948677E+00  1.96466657E+00
  1.98308650E+00  2.03853856E+00  2.08724822E+00  2.15680998E+00  2.05140790E+00
  2.10950255E+00  2.12217971E+00  2.09654565E+00  2.08633301E+00  2.10030243E+00
  2.11366843E+00  2.08578610E+00  2.08372494E+00  2.09528132E+00  2.09945177E+00
  2.08843168E+00  2.05264572E+00  2.12076266E+00  2.10961177E+00  1.89616258E+00
  1.85056946E+00  1.85660932E+00  1.95125712E+00  1.95422053E+00  1.94868502E+00
 -1.25044864E+00  3.04229551E+00  9.32210287E-01  2.48493039E+00 -6.92206442E-01
 -1.96588091E+00  1.14016756E+00  2.72683964E-01 -2.90445287E+00  9.86035107E-01
  3.08585465E+00 -1.12069149E+00 -9.36451109E-01  1.16336844E+00 -3.04317771E+00
  3.11823332E+00 -1.06513244E+00  1.01150672E+00  3.10907101E+00 -4.71144424E-02
  4.57720326E-03  3.13157706E+00 -3.10627756E+00  5.46873467E-02 -2.76597561E-03
 -3.12498638E+00 -5.00997321E-03  3.13347242E+00 -3.13189722E+00  6.58517700E-03
  3.91075832E-03 -3.14137432E+00 -3.13454651E+00  3.35371193E-03 -2.02681244E-03
  3.13265384E+00 -3.13993133E+00 -5.25068476E-03  1.38093509E-03  3.12373169E+00
 -3.13334351E+00 -1.09927474E-02
ZRed-Constraint2                           R   N=          92
  3.03252282E+00  1.81413708E+00  3.34811374E+00  3.46119407E+00  3.03271713E+00
  2.66635868E+00  2.66631485E+00  2.65750009E+00  2.05976349E+00  2.65827458E+00
  2.05970753E+00  2.65808386E+00  2.05987630E+00  2.65751373E+00  2.05982423E+00
  2.05971358E+00  2.05976262E+00  2.05980151E+00  2.05991408E+00  2.09439510E+00
  1.93202313E+00  1.90497530E+00  1.89249441E+00  1.89709213E+00  1.93201224E+00
  1.90494201E+00  2.09801804E+00  2.09799406E+00  2.08695834E+00  2.09749710E+00
  2.09567109E+00  2.09001710E+00  2.09443954E+00  2.09415554E+00  2.09459022E+00
  2.09533121E+00  2.09387569E+00  2.09397840E+00  2.09451241E+00  2.09453652E+00
  2.09413637E+00  2.09746915E+00  2.09567800E+00  2.09003815E+00  1.91062383E+00
  1.91062131E+00  1.91062726E+00  1.91061848E+00  1.91069324E+00  1.91061528E+00
 -2.18523335E+00  2.01059887E+00 -6.27382198E-02  2.63148977E+00 -5.32472640E-01
 -1.55961100E+00  1.55961190E+00  5.32426010E-01 -2.63153640E+00  1.19737689E+00
 -2.99144445E+00 -8.97082294E-01 -9.11452138E-01  1.18291183E+00 -3.00591132E+00
 -3.02024790E+00 -9.25883931E-01  1.16847823E+00  3.13821140E+00 -3.48254993E-03
  1.88470315E-02 -3.12284692E+00 -3.13823338E+00  3.53882355E-03 -1.88686992E-02
  3.12290350E+00 -7.29711807E-03  3.13432259E+00  3.13439650E+00 -7.16909398E-03
 -4.35482969E-03  3.13732945E+00  3.13721076E+00 -4.29026523E-03  4.33306294E-03
 -3.13719694E+00 -3.13735122E+00  4.30407786E-03  7.34081795E-03 -3.13443080E+00
 -3.13431447E+00  7.09921782E-03
SymInf integers                            I   N=          26
           1           1           1           1           1           0
           0           0           0           0           0           0
           0           0           0           0           0           0
           0           0           0           0           0           0
           0           0
RotTr to input orientation                 R   N=          12
  5.13168915E-01 -5.80201824E-01 -6.32474116E-01  3.30326122E-01 -5.46629497E-01
  7.69467898E-01 -7.92175686E-01 -6.03789728E-01 -8.88574473E-02 -5.49756435E-01
 -6.99827462E-01 -5.73606922E-02
Number of contracted shells                I              112
Number of primitive shells                 I              204
Pure/Cartesian d shells                    I                0
Pure/Cartesian f shells                    I                0
Highest angular momentum                   I                2
Largest degree of contraction              I                6
Shell types                                I   N=         112
           0          -1          -1          -1          -1          -2
           0           0           0           0           0           0
          -1           1           1           1           1           1
          -2           0          -1          -1          -1          -1
          -2           0          -1          -1          -1          -1
          -2           0          -1          -1          -1          -1
          -2           0          -1          -1          -1          -1
          -2           0          -1          -1          -1          -1
          -2           0          -1          -1          -1          -1
          -2           0          -1          -1          -1          -1
          -2           0          -1          -1          -1          -1
          -2           0           0           0           0           1
           0           0           0           0           1           0
           0           0           0           1           0           0
           0           0           1           0           0           0
           0           1           0           0           0           0
           1           0           0           0           0           1
           0           0           0           0           1           0
           0           0           0           1
Number of primitives per shell             I   N=         112
           6           3           1           1           1           1
           6           3           1           1           1           1
           1           4           2           1           1           1
           1           6           3           1           1           1
           1           6           3           1           1           1
           1           6           3           1           1           1
           1           6           3           1           1           1
           1           6           3           1           1           1
           1           6           3           1           1           1
           1           6           3           1           1           1
           1           6           3           1           1           1
           1           3           1           1           1           1
           3           1           1           1           1           3
           1           1           1           1           3           1
           1           1           1           3           1           1
           1           1           3           1           1           1
           1           3           1           1           1           1
           3           1           1           1           1           3
           1           1           1           1
Shell to atom map                          I   N=         112
           1           1           1           1           1           1
           2           2           2           2           2           2
           2           2           2           2           2           2
           2           3           3           3           3           3
           3           4           4           4           4           4
           4           5           5           5           5           5
           5           6           6           6           6           6
           6           7           7           7           7           7
           7           8           8           8           8           8
           8           9           9           9           9           9
           9          10          10          10          10          10
          10          11          11          11          11          11
          12          12          12          12          12          13
          13          13          13          13          14          14
          14          14          14          15          15          15
          15          15          16          16          16          16
          16          17          17          17          17          17
          18          18          18          18          18          19
          19          19          19          19
Primitive exponents                        R   N=         204
  8.58850000E+03  1.29723000E+03  2.99296000E+02  8.73771000E+01  2.56789000E+01
  3.74004000E+00  4.21175000E+01  9.62837000E+00  2.85332000E+00  9.05661000E-01
  2.55611000E-01  8.45000000E-02  1.29200000E+00  9.34134000E+04  1.39617000E+04
  3.16991000E+03  9.02456000E+02  2.97158000E+02  1.08702000E+02  1.08702000E+02
  4.31553000E+01  1.81079000E+01  5.56009000E+00  2.13183000E+00  4.20403000E-01
  1.36045000E-01  4.05000000E-02  4.95040000E+02  1.17221000E+02  3.77749000E+01
  1.40584000E+01  5.56574000E+00  2.26297000E+00  8.07994000E-01  2.77460000E-01
  7.71410000E-02  6.50000000E-01  4.56324000E+03  6.82024000E+02  1.54973000E+02
  4.44553000E+01  1.30290000E+01  1.82773000E+00  2.09642000E+01  4.80331000E+00
  1.45933000E+00  4.83456000E-01  1.45585000E-01  4.38000000E-02  6.26000000E-01
  4.56324000E+03  6.82024000E+02  1.54973000E+02  4.44553000E+01  1.30290000E+01
  1.82773000E+00  2.09642000E+01  4.80331000E+00  1.45933000E+00  4.83456000E-01
  1.45585000E-01  4.38000000E-02  6.26000000E-01  4.56324000E+03  6.82024000E+02
  1.54973000E+02  4.44553000E+01  1.30290000E+01  1.82773000E+00  2.09642000E+01
  4.80331000E+00  1.45933000E+00  4.83456000E-01  1.45585000E-01  4.38000000E-02
  6.26000000E-01  4.56324000E+03  6.82024000E+02  1.54973000E+02  4.44553000E+01
  1.30290000E+01  1.82773000E+00  2.09642000E+01  4.80331000E+00  1.45933000E+00
  4.83456000E-01  1.45585000E-01  4.38000000E-02  6.26000000E-01  4.56324000E+03
  6.82024000E+02  1.54973000E+02  4.44553000E+01  1.30290000E+01  1.82773000E+00
  2.09642000E+01  4.80331000E+00  1.45933000E+00  4.83456000E-01  1.45585000E-01
  4.38000000E-02  6.26000000E-01  4.56324000E+03  6.82024000E+02  1.54973000E+02
  4.44553000E+01  1.30290000E+01  1.82773000E+00  2.09642000E+01  4.80331000E+00
  1.45933000E+00  4.83456000E-01  1.45585000E-01  4.38000000E-02  6.26000000E-01
  4.56324000E+03  6.82024000E+02  1.54973000E+02  4.44553000E+01  1.30290000E+01
  1.82773000E+00  2.09642000E+01  4.80331000E+00  1.45933000E+00  4.83456000E-01
  1.45585000E-01  4.38000000E-02  6.26000000E-01  8.58850000E+03  1.29723000E+03
  2.99296000E+02  8.73771000E+01  2.56789000E+01  3.74004000E+00  4.21175000E+01
  9.62837000E+00  2.85332000E+00  9.05661000E-01  2.55611000E-01  8.45000000E-02
  1.29200000E+00  3.38650000E+01  5.09479000E+00  1.15879000E+00  3.25840000E-01
  1.02741000E-01  3.60000000E-02  7.50000000E-01  3.38650000E+01  5.09479000E+00
  1.15879000E+00  3.25840000E-01  1.02741000E-01  3.60000000E-02  7.50000000E-01
  3.38650000E+01  5.09479000E+00  1.15879000E+00  3.25840000E-01  1.02741000E-01
  3.60000000E-02  7.50000000E-01  3.38650000E+01  5.09479000E+00  1.15879000E+00
  3.25840000E-01  1.02741000E-01  3.60000000E-02  7.50000000E-01  3.38650000E+01
  5.09479000E+00  1.15879000E+00  3.25840000E-01  1.02741000E-01  3.60000000E-02
  7.50000000E-01  3.38650000E+01  5.09479000E+00  1.15879000E+00  3.25840000E-01
  1.02741000E-01  3.60000000E-02  7.50000000E-01  3.38650000E+01  5.09479000E+00
  1.15879000E+00  3.25840000E-01  1.02741000E-01  3.60000000E-02  7.50000000E-01
  3.38650000E+01  5.09479000E+00  1.15879000E+00  3.25840000E-01  1.02741000E-01
  3.60000000E-02  7.50000000E-01  3.38650000E+01  5.09479000E+00  1.15879000E+00
  3.25840000E-01  1.02741000E-01  3.60000000E-02  7.50000000E-01
Contraction coefficients                   R   N=         204
  1.89515008E-03  1.43859006E-02  7.07320031E-02  2.40001011E-01  5.94797026E-01
  2.80802012E-01  1.13889012E-01  9.20811101E-01 -3.27447036E-03  1.00000000E+00
  1.00000000E+00  1.00000000E+00  1.00000000E+00  7.42999957E-04  5.79299966E-03
  2.99539983E-02  1.19027993E-01  3.68431979E-01  5.77298966E-01  1.43186060E-01
  6.24465262E-01  2.83366119E-01  1.00000000E+00  1.00000000E+00  1.00000000E+00
  1.00000000E+00  1.00000000E+00  8.30900251E-03  6.40240194E-02  2.77614084E-01
  7.45076225E-01  6.13711672E-01  4.43817763E-01  1.00000000E+00  1.00000000E+00
  1.00000000E+00  1.00000000E+00  1.96665025E-03  1.52306019E-02  7.61269097E-02
  2.60801033E-01  6.16462078E-01  2.21006028E-01  1.14660081E-01  9.19999648E-01
 -3.03068213E-03  1.00000000E+00  1.00000000E+00  1.00000000E+00  1.00000000E+00
  1.96665025E-03  1.52306019E-02  7.61269097E-02  2.60801033E-01  6.16462078E-01
  2.21006028E-01  1.14660081E-01  9.19999648E-01 -3.03068213E-03  1.00000000E+00
  1.00000000E+00  1.00000000E+00  1.00000000E+00  1.96665025E-03  1.52306019E-02
  7.61269097E-02  2.60801033E-01  6.16462078E-01  2.21006028E-01  1.14660081E-01
  9.19999648E-01 -3.03068213E-03  1.00000000E+00  1.00000000E+00  1.00000000E+00
  1.00000000E+00  1.96665025E-03  1.52306019E-02  7.61269097E-02  2.60801033E-01
  6.16462078E-01  2.21006028E-01  1.14660081E-01  9.19999648E-01 -3.03068213E-03
  1.00000000E+00  1.00000000E+00  1.00000000E+00  1.00000000E+00  1.96665025E-03
  1.52306019E-02  7.61269097E-02  2.60801033E-01  6.16462078E-01  2.21006028E-01
  1.14660081E-01  9.19999648E-01 -3.03068213E-03  1.00000000E+00  1.00000000E+00
  1.00000000E+00  1.00000000E+00  1.96665025E-03  1.52306019E-02  7.61269097E-02
  2.60801033E-01  6.16462078E-01  2.21006028E-01  1.14660081E-01  9.19999648E-01
 -3.03068213E-03  1.00000000E+00  1.00000000E+00  1.00000000E+00  1.00000000E+00