 Entering Gaussian System, Link 0=/apps/cent7/gaussian/g16-A.03/g16-haswell/g16/g16
 Initial command:
 /apps/cent7/gaussian/g16-A.03/g16-haswell/g16/l1.exe "/scratch/brown/finej/gaussian/Gau-280942.inp" -scrdir="/scratch/brown/finej/gaussian/"
 Entering Link 1 = /apps/cent7/gaussian/g16-A.03/g16-haswell/g16/l1.exe PID=    280943.
  
 Copyright (c) 1988,1990,1992,1993,1995,1998,2003,2009,2016,
            Gaussian, Inc.  All Rights Reserved.
  
 This is part of the Gaussian(R) 16 program.  It is based on
 the Gaussian(R) 09 system (copyright 2009, Gaussian, Inc.),
 the Gaussian(R) 03 system (copyright 2003, Gaussian, Inc.),
 the Gaussian(R) 98 system (copyright 1998, Gaussian, Inc.),
 the Gaussian(R) 94 system (copyright 1995, Gaussian, Inc.),
 the Gaussian 92(TM) system (copyright 1992, Gaussian, Inc.),
 the Gaussian 90(TM) system (copyright 1990, Gaussian, Inc.),
 the Gaussian 88(TM) system (copyright 1988, Gaussian, Inc.),
 the Gaussian 86(TM) system (copyright 1986, Carnegie Mellon
 University), and the Gaussian 82(TM) system (copyright 1983,
 Carnegie Mellon University). Gaussian is a federally registered
 trademark of Gaussian, Inc.
  
 This software contains proprietary and confidential information,
 including trade secrets, belonging to Gaussian, Inc.
  
 This software is provided under written license and may be
 used, copied, transmitted, or stored only in accord with that
 written license.
  
 The following legend is applicable only to US Government
 contracts under FAR:
  
                    RESTRICTED RIGHTS LEGEND
  
 Use, reproduction and disclosure by the US Government is
 subject to restrictions as set forth in subparagraphs (a)
 and (c) of the Commercial Computer Software - Restricted
 Rights clause in FAR 52.227-19.
  
 Gaussian, Inc.
 340 Quinnipiac St., Bldg. 40, Wallingford CT 06492
  
  
 ---------------------------------------------------------------
 Warning -- This program may not be used in any manner that
 competes with the business of Gaussian, Inc. or will provide
 assistance to any competitor of Gaussian, Inc.  The licensee
 of this program is prohibited from giving any competitor of
 Gaussian, Inc. access to this program.  By using this program,
 the user acknowledges that Gaussian, Inc. is engaged in the
 business of creating and licensing software in the field of
 computational chemistry and represents and warrants to the
 licensee that it is not a competitor of Gaussian, Inc. and that
 it will not use this program in any manner prohibited above.
 ---------------------------------------------------------------
  

 Cite this work as:
 Gaussian 16, Revision A.03,
 M. J. Frisch, G. W. Trucks, H. B. Schlegel, G. E. Scuseria, 
 M. A. Robb, J. R. Cheeseman, G. Scalmani, V. Barone, 
 G. A. Petersson, H. Nakatsuji, X. Li, M. Caricato, A. V. Marenich, 
 J. Bloino, B. G. Janesko, R. Gomperts, B. Mennucci, H. P. Hratchian, 
 J. V. Ortiz, A. F. Izmaylov, J. L. Sonnenberg, D. Williams-Young, 
 F. Ding, F. Lipparini, F. Egidi, J. Goings, B. Peng, A. Petrone, 
 T. Henderson, D. Ranasinghe, V. G. Zakrzewski, J. Gao, N. Rega, 
 G. Zheng, W. Liang, M. Hada, M. Ehara, K. Toyota, R. Fukuda, 
 J. Hasegawa, M. Ishida, T. Nakajima, Y. Honda, O. Kitao, H. Nakai, 
 T. Vreven, K. Throssell, J. A. Montgomery, Jr., J. E. Peralta, 
 F. Ogliaro, M. J. Bearpark, J. J. Heyd, E. N. Brothers, K. N. Kudin, 
 V. N. Staroverov, T. A. Keith, R. Kobayashi, J. Normand, 
 K. Raghavachari, A. P. Rendell, J. C. Burant, S. S. Iyengar, 
 J. Tomasi, M. Cossi, J. M. Millam, M. Klene, C. Adamo, R. Cammi, 
 J. W. Ochterski, R. L. Martin, K. Morokuma, O. Farkas, 
 J. B. Foresman, and D. J. Fox, Gaussian, Inc., Wallingford CT, 2016.
 
 ******************************************
 Gaussian 16:  ES64L-G16RevA.03 25-Dec-2016
                13-Oct-2019 
 ******************************************
 %chk=27_p.chk
 %nprocshared=24
 Will use up to   24 processors via shared memory.
 %mem=80GB
 -------------------------------------------------------------------
 #P opt freq m062x/6-311++g(d,p) geom=connectivity temperature=0.001
 -------------------------------------------------------------------
 1/18=20,19=15,26=3,38=1,57=2,112=-1000/1,3;
 2/9=110,12=2,17=6,18=5,40=1/2;
 3/5=4,6=6,7=1111,11=2,25=1,30=1,71=1,74=-55/1,2,3;
 4//1;
 5/5=2,38=5/2;
 6/7=2,8=2,9=2,10=2,28=1/1;
 7//1,2,3,16;
 1/18=20,19=15,26=3/3(2);
 2/9=110/2;
 99//99;
 2/9=110/2;
 3/5=4,6=6,7=1111,11=2,25=1,30=1,71=1,74=-55/1,2,3;
 4/5=5,16=3,69=1/1;
 5/5=2,38=5/2;
 7//1,2,3,16;
 1/18=20,19=15,26=3/3(-5);
 2/9=110/2;
 6/7=2,8=2,9=2,10=2,19=2,28=1/1;
 99/9=1/99;
 Leave Link    1 at Sun Oct 13 22:03:24 2019, MaxMem= 10737418240 cpu:               1.0 elap:               0.0
 (Enter /apps/cent7/gaussian/g16-A.03/g16-haswell/g16/l101.exe)
 -------------------
 Title Card Required
 -------------------
 Symbolic Z-matrix:
 Charge =  1 Multiplicity = 1
 O                     2.0115   -1.3969   -0.2231 
 S                     0.5805   -1.0676   -0.8704 
 C                    -0.4103   -0.1184    0.2505 
 C                    -1.3767    0.7826   -0.2446 
 C                    -2.1656    1.5327    0.6457 
 C                    -1.9985    1.3794    2.034 
 C                    -1.0463    0.4723    2.533 
 C                    -0.2567   -0.2785    1.6439 
 C                    -0.2886   -2.6376   -1.2371 
 O                     0.8157   -0.264    -2.2395 
 H                    -1.5143    0.8997   -1.3195 
 H                    -2.9065    2.2328    0.2598 
 H                    -2.6075    1.964     2.7236 
 H                    -0.9203    0.3511    3.6089 
 H                     0.4752   -0.9851    2.0351 
 H                    -0.5607   -3.129    -0.303 
 H                    -1.1898   -2.428    -1.8133 
 H                     0.3675   -3.2901   -1.8133 
 H                     2.81579  -1.15924  -0.69026 
 
 ITRead=  0  0  0  0  0  0  0  0  0  0  0  0  0  0  0  0  0  0  0
 MicOpt= -1 -1 -1 -1 -1 -1 -1 -1 -1 -1 -1 -1 -1 -1 -1 -1 -1 -1 -1
 NAtoms=     19 NQM=       19 NQMF=       0 NMMI=      0 NMMIF=      0
                NMic=       0 NMicF=      0.
                    Isotopes and Nuclear Properties:
 (Nuclear quadrupole moments (NQMom) in fm**2, nuclear magnetic moments (NMagM)
  in nuclear magnetons)

  Atom         1           2           3           4           5           6           7           8           9          10
 IAtWgt=          16          32          12          12          12          12          12          12          12          16
 AtmWgt=  15.9949146  31.9720718  12.0000000  12.0000000  12.0000000  12.0000000  12.0000000  12.0000000  12.0000000  15.9949146
 NucSpn=           0           0           0           0           0           0           0           0           0           0
 AtZEff=  -0.0000000  -0.0000000  -0.0000000  -0.0000000  -0.0000000  -0.0000000  -0.0000000  -0.0000000  -0.0000000  -0.0000000
 NQMom=    0.0000000   0.0000000   0.0000000   0.0000000   0.0000000   0.0000000   0.0000000   0.0000000   0.0000000   0.0000000
 NMagM=    0.0000000   0.0000000   0.0000000   0.0000000   0.0000000   0.0000000   0.0000000   0.0000000   0.0000000   0.0000000
 AtZNuc=   8.0000000  16.0000000   6.0000000   6.0000000   6.0000000   6.0000000   6.0000000   6.0000000   6.0000000   8.0000000

  Atom        11          12          13          14          15          16          17          18          19
 IAtWgt=           1           1           1           1           1           1           1           1           1
 AtmWgt=   1.0078250   1.0078250   1.0078250   1.0078250   1.0078250   1.0078250   1.0078250   1.0078250   1.0078250
 NucSpn=           1           1           1           1           1           1           1           1           1
 AtZEff=  -0.0000000  -0.0000000  -0.0000000  -0.0000000  -0.0000000  -0.0000000  -0.0000000  -0.0000000  -0.0000000
 NQMom=    0.0000000   0.0000000   0.0000000   0.0000000   0.0000000   0.0000000   0.0000000   0.0000000   0.0000000
 NMagM=    2.7928460   2.7928460   2.7928460   2.7928460   2.7928460   2.7928460   2.7928460   2.7928460   2.7928460
 AtZNuc=   1.0000000   1.0000000   1.0000000   1.0000000   1.0000000   1.0000000   1.0000000   1.0000000   1.0000000
 Leave Link  101 at Sun Oct 13 22:03:24 2019, MaxMem= 10737418240 cpu:               8.4 elap:               0.4
 (Enter /apps/cent7/gaussian/g16-A.03/g16-haswell/g16/l103.exe)

 GradGradGradGradGradGradGradGradGradGradGradGradGradGradGradGradGradGrad
 Berny optimization.
 Initialization pass.
                           ----------------------------
                           !    Initial Parameters    !
                           ! (Angstroms and Degrees)  !
 --------------------------                            --------------------------
 ! Name  Definition              Value          Derivative Info.                !
 --------------------------------------------------------------------------------
 ! R1    R(1,2)                  1.6047         estimate D2E/DX2                !
 ! R2    R(1,19)                 0.96           estimate D2E/DX2                !
 ! R3    R(2,3)                  1.7717         estimate D2E/DX2                !
 ! R4    R(2,9)                  1.8316         estimate D2E/DX2                !
 ! R5    R(2,10)                 1.6048         estimate D2E/DX2                !
 ! R6    R(3,4)                  1.411          estimate D2E/DX2                !
 ! R7    R(3,8)                  1.411          estimate D2E/DX2                !
 ! R8    R(4,5)                  1.4063         estimate D2E/DX2                !
 ! R9    R(4,11)                 1.09           estimate D2E/DX2                !
 ! R10   R(5,6)                  1.4067         estimate D2E/DX2                !
 ! R11   R(5,12)                 1.09           estimate D2E/DX2                !
 ! R12   R(6,7)                  1.4066         estimate D2E/DX2                !
 ! R13   R(6,13)                 1.09           estimate D2E/DX2                !
 ! R14   R(7,8)                  1.4063         estimate D2E/DX2                !
 ! R15   R(7,14)                 1.09           estimate D2E/DX2                !
 ! R16   R(8,15)                 1.09           estimate D2E/DX2                !
 ! R17   R(9,16)                 1.09           estimate D2E/DX2                !
 ! R18   R(9,17)                 1.09           estimate D2E/DX2                !
 ! R19   R(9,18)                 1.0901         estimate D2E/DX2                !
 ! A1    A(2,1,19)             120.0            estimate D2E/DX2                !
 ! A2    A(1,2,3)              110.6968         estimate D2E/DX2                !
 ! A3    A(1,2,9)              109.147          estimate D2E/DX2                !
 ! A4    A(1,2,10)             108.4319         estimate D2E/DX2                !
 ! A5    A(3,2,9)              108.6954         estimate D2E/DX2                !
 ! A6    A(3,2,10)             110.6961         estimate D2E/DX2                !
 ! A7    A(9,2,10)             109.1451         estimate D2E/DX2                !
 ! A8    A(2,3,4)              120.2076         estimate D2E/DX2                !
 ! A9    A(2,3,8)              120.2062         estimate D2E/DX2                !
 ! A10   A(4,3,8)              119.5739         estimate D2E/DX2                !
 ! A11   A(3,4,5)              120.1777         estimate D2E/DX2                !
 ! A12   A(3,4,11)             120.0731         estimate D2E/DX2                !
 ! A13   A(5,4,11)             119.7492         estimate D2E/DX2                !
 ! A14   A(4,5,6)              120.0025         estimate D2E/DX2                !
 ! A15   A(4,5,12)             119.9863         estimate D2E/DX2                !
 ! A16   A(6,5,12)             120.0112         estimate D2E/DX2                !
 ! A17   A(5,6,7)              120.0536         estimate D2E/DX2                !
 ! A18   A(5,6,13)             119.9702         estimate D2E/DX2                !
 ! A19   A(7,6,13)             119.9761         estimate D2E/DX2                !
 ! A20   A(6,7,8)              120.0067         estimate D2E/DX2                !
 ! A21   A(6,7,14)             120.0081         estimate D2E/DX2                !
 ! A22   A(8,7,14)             119.9852         estimate D2E/DX2                !
 ! A23   A(3,8,7)              120.1761         estimate D2E/DX2                !
 ! A24   A(3,8,15)             120.0735         estimate D2E/DX2                !
 ! A25   A(7,8,15)             119.7504         estimate D2E/DX2                !
 ! A26   A(2,9,16)             109.4707         estimate D2E/DX2                !
 ! A27   A(2,9,17)             109.4705         estimate D2E/DX2                !
 ! A28   A(2,9,18)             109.4709         estimate D2E/DX2                !
 ! A29   A(16,9,17)            109.4704         estimate D2E/DX2                !
 ! A30   A(16,9,18)            109.4747         estimate D2E/DX2                !
 ! A31   A(17,9,18)            109.4702         estimate D2E/DX2                !
 ! D1    D(19,1,2,3)          -125.2046         estimate D2E/DX2                !
 ! D2    D(19,1,2,9)           115.1988         estimate D2E/DX2                !
 ! D3    D(19,1,2,10)           -3.5946         estimate D2E/DX2                !
 ! D4    D(1,2,3,4)            150.7733         estimate D2E/DX2                !
 ! D5    D(1,2,3,8)            -30.5084         estimate D2E/DX2                !
 ! D6    D(9,2,3,4)            -89.3591         estimate D2E/DX2                !
 ! D7    D(9,2,3,8)             89.3592         estimate D2E/DX2                !
 ! D8    D(10,2,3,4)            30.5058         estimate D2E/DX2                !
 ! D9    D(10,2,3,8)          -150.7759         estimate D2E/DX2                !
 ! D10   D(1,2,9,16)            68.6046         estimate D2E/DX2                !
 ! D11   D(1,2,9,17)          -171.3971         estimate D2E/DX2                !
 ! D12   D(1,2,9,18)           -51.399          estimate D2E/DX2                !
 ! D13   D(3,2,9,16)           -52.2224         estimate D2E/DX2                !
 ! D14   D(3,2,9,17)            67.7759         estimate D2E/DX2                !
 ! D15   D(3,2,9,18)          -172.226          estimate D2E/DX2                !
 ! D16   D(10,2,9,16)         -173.0475         estimate D2E/DX2                !
 ! D17   D(10,2,9,17)          -53.0492         estimate D2E/DX2                !
 ! D18   D(10,2,9,18)           66.9489         estimate D2E/DX2                !
 ! D19   D(2,3,4,5)            179.8063         estimate D2E/DX2                !
 ! D20   D(2,3,4,11)            -0.1995         estimate D2E/DX2                !
 ! D21   D(8,3,4,5)              1.0799         estimate D2E/DX2                !
 ! D22   D(8,3,4,11)          -178.9259         estimate D2E/DX2                !
 ! D23   D(2,3,8,7)           -179.8075         estimate D2E/DX2                !
 ! D24   D(2,3,8,15)             0.2028         estimate D2E/DX2                !
 ! D25   D(4,3,8,7)             -1.0811         estimate D2E/DX2                !
 ! D26   D(4,3,8,15)           178.9292         estimate D2E/DX2                !
 ! D27   D(3,4,5,6)             -0.4181         estimate D2E/DX2                !
 ! D28   D(3,4,5,12)           179.5835         estimate D2E/DX2                !
 ! D29   D(11,4,5,6)           179.5877         estimate D2E/DX2                !
 ! D30   D(11,4,5,12)           -0.4108         estimate D2E/DX2                !
 ! D31   D(4,5,6,7)             -0.2495         estimate D2E/DX2                !
 ! D32   D(4,5,6,13)           179.7557         estimate D2E/DX2                !
 ! D33   D(12,5,6,7)           179.7489         estimate D2E/DX2                !
 ! D34   D(12,5,6,13)           -0.2458         estimate D2E/DX2                !
 ! D35   D(5,6,7,8)              0.2483         estimate D2E/DX2                !
 ! D36   D(5,6,7,14)          -179.7481         estimate D2E/DX2                !
 ! D37   D(13,6,7,8)          -179.757          estimate D2E/DX2                !
 ! D38   D(13,6,7,14)            0.2466         estimate D2E/DX2                !
 ! D39   D(6,7,8,3)              0.4206         estimate D2E/DX2                !
 ! D40   D(6,7,8,15)          -179.5897         estimate D2E/DX2                !
 ! D41   D(14,7,8,3)          -179.583          estimate D2E/DX2                !
 ! D42   D(14,7,8,15)            0.4068         estimate D2E/DX2                !
 --------------------------------------------------------------------------------
 Trust Radius=3.00D-01 FncErr=1.00D-07 GrdErr=1.00D-06 EigMax=2.50D+02 EigMin=1.00D-04
 Number of steps in this run=    102 maximum allowed number of steps=    114.
 GradGradGradGradGradGradGradGradGradGradGradGradGradGradGradGradGradGrad

 Leave Link  103 at Sun Oct 13 22:03:24 2019, MaxMem= 10737418240 cpu:               0.3 elap:               0.0
 (Enter /apps/cent7/gaussian/g16-A.03/g16-haswell/g16/l202.exe)
                          Input orientation:                          
 ---------------------------------------------------------------------
 Center     Atomic      Atomic             Coordinates (Angstroms)
 Number     Number       Type             X           Y           Z
 ---------------------------------------------------------------------
      1          8           0        2.011500   -1.396900   -0.223100
      2         16           0        0.580500   -1.067600   -0.870400
      3          6           0       -0.410300   -0.118400    0.250500
      4          6           0       -1.376700    0.782600   -0.244600
      5          6           0       -2.165600    1.532700    0.645700
      6          6           0       -1.998500    1.379400    2.034000
      7          6           0       -1.046300    0.472300    2.533000
      8          6           0       -0.256700   -0.278500    1.643900
      9          6           0       -0.288600   -2.637600   -1.237100
     10          8           0        0.815700   -0.264000   -2.239500
     11          1           0       -1.514300    0.899700   -1.319500
     12          1           0       -2.906500    2.232800    0.259800
     13          1           0       -2.607500    1.964000    2.723600
     14          1           0       -0.920300    0.351100    3.608900
     15          1           0        0.475200   -0.985100    2.035100
     16          1           0       -0.560700   -3.129000   -0.303000
     17          1           0       -1.189800   -2.428000   -1.813300
     18          1           0        0.367500   -3.290100   -1.813300
     19          1           0        2.815786   -1.159240   -0.690264
 ---------------------------------------------------------------------
                    Distance matrix (angstroms):
                    1          2          3          4          5
     1  O    0.000000
     2  S    1.604742   0.000000
     3  C    2.779204   1.771745   0.000000
     4  C    4.028720   2.765049   1.410976   0.000000
     5  C    5.175474   4.074455   2.442006   1.406288   0.000000
     6  C    5.374239   4.590707   2.818981   2.436149   1.406698
     7  C    4.521077   4.074420   2.441972   2.814340   2.437044
     8  C    3.143444   2.765011   1.410953   2.438599   2.814382
     9  C    2.803211   1.831585   2.928162   3.723813   4.945651
    10  O    2.603703   1.604845   2.779276   3.143504   4.521135
    11  H    4.348302   2.908633   2.172612   1.089980   2.164923
    12  H    6.131447   4.932460   3.429175   2.167438   1.089950
    13  H    6.427585   5.680738   3.909003   3.423563   2.167709
    14  H    5.131781   4.932468   3.429195   3.904351   3.424544
    15  H    2.762112   2.908578   2.172574   3.428021   3.904302
    16  H    3.102059   2.423561   3.064750   3.996233   5.020676
    17  H    3.720245   2.423574   3.193923   3.578226   4.762983
    18  H    2.969121   2.423620   3.863150   4.699993   5.976845
    19  H    0.960000   2.244404   3.517956   4.641799   5.817693
                    6          7          8          9         10
     6  C    0.000000
     7  C    1.406597   0.000000
     8  C    2.436119   1.406296   0.000000
     9  C    5.455286   4.945629   3.723779   0.000000
    10  O    5.374317   5.175513   4.028777   2.803259   0.000000
    11  H    3.422064   3.904286   3.428039   3.744546   2.762155
    12  H    2.168073   3.424492   3.904331   5.728430   5.131791
    13  H    1.090040   2.167681   3.423568   6.499166   6.427647
    14  H    2.168000   1.090012   2.167484   5.728446   6.131544
    15  H    3.421995   2.164921   1.089953   3.744521   4.348348
    16  H    5.277737   4.609562   3.465283   1.089979   3.721926
    17  H    5.472843   5.227108   4.176513   1.090000   2.981036
    18  H    6.496453   5.919866   4.627266   1.090060   3.088658
    19  H    6.086350   5.288389   3.957802   3.481636   2.683641
                   11         12         13         14         15
    11  H    0.000000
    12  H    2.491900   0.000000
    13  H    4.321398   2.496390   0.000000
    14  H    4.994289   4.324611   2.496367   0.000000
    15  H    4.331734   4.994243   4.321373   2.491926   0.000000
    16  H    4.262986   5.879492   6.268042   5.248178   3.337081
    17  H    3.379752   5.382180   6.471708   6.098875   4.434452
    18  H    4.619462   6.746795   7.552460   6.657103   4.487183
    19  H    4.835785   6.719607   7.128894   5.892561   3.596703
                   16         17         18         19
    16  H    0.000000
    17  H    1.779936   0.000000
    18  H    1.780032   1.780000   0.000000
    19  H    3.928178   4.349216   3.434512   0.000000
 Stoichiometry    C7H9O2S(1+)
 Framework group  C1[X(C7H9O2S)]
 Deg. of freedom    51
 Full point group                 C1      NOp   1
 Largest Abelian subgroup         C1      NOp   1
 Largest concise Abelian subgroup C1      NOp   1
                         Standard orientation:                         
 ---------------------------------------------------------------------
 Center     Atomic      Atomic             Coordinates (Angstroms)
 Number     Number       Type             X           Y           Z
 ---------------------------------------------------------------------
      1          8           0        1.981368    1.297360   -0.769404
      2         16           0        1.410134   -0.029508   -0.070611
      3          6           0       -0.361218   -0.008122   -0.040034
      4          6           0       -1.086382   -1.218162   -0.068233
      5          6           0       -2.492274   -1.200596   -0.039831
      6          6           0       -3.179236    0.025204    0.025726
      7          6           0       -2.460984    1.233850    0.068220
      8          6           0       -1.055064    1.217837    0.039913
      9          6           0        2.026075   -0.113903    1.652235
     10          8           0        1.947994   -1.303568   -0.884863
     11          1           0       -0.558166   -2.170584   -0.112243
     12          1           0       -3.049457   -2.136925   -0.068598
     13          1           0       -4.269047    0.038381    0.043694
     14          1           0       -2.993973    2.183076    0.123155
     15          1           0       -0.502565    2.156534    0.079806
     16          1           0        1.565858    0.678942    2.241855
     17          1           0        1.770031   -1.082059    2.082600
     18          1           0        3.108928    0.011123    1.657504
     19          1           0        2.585839    1.226646   -1.511842
 ---------------------------------------------------------------------
 Rotational constants (GHZ):           2.3306755           0.7624694           0.6820672
 Leave Link  202 at Sun Oct 13 22:03:24 2019, MaxMem= 10737418240 cpu:               1.5 elap:               0.1
 (Enter /apps/cent7/gaussian/g16-A.03/g16-haswell/g16/l301.exe)
 Standard basis: 6-311++G(d,p) (5D, 7F)
 Ernie: Thresh=  0.10000D-02 Tol=  0.10000D-05 Strict=F.
 There are   301 symmetry adapted cartesian basis functions of A   symmetry.
 There are   291 symmetry adapted basis functions of A   symmetry.
   291 basis functions,   455 primitive gaussians,   301 cartesian basis functions
    41 alpha electrons       41 beta electrons
       nuclear repulsion energy       624.1032118614 Hartrees.
 IExCor= 4336 DFT=T Ex+Corr=M062X ExCW=0 ScaHFX=  0.540000
 ScaDFX=  1.000000  1.000000  1.000000  1.000000 ScalE2=  1.000000  1.000000
 IRadAn=      5 IRanWt=     -1 IRanGd=            0 ICorTp=0 IEmpDi=  4
 NAtoms=   19 NActive=   19 NUniq=   19 SFac= 1.00D+00 NAtFMM=   60 NAOKFM=F Big=F
 Integral buffers will be    131072 words long.
 Raffenetti 2 integral format.
 Two-electron integral symmetry is turned on.
 Leave Link  301 at Sun Oct 13 22:03:24 2019, MaxMem= 10737418240 cpu:               1.6 elap:               0.1
 (Enter /apps/cent7/gaussian/g16-A.03/g16-haswell/g16/l302.exe)
 NPDir=0 NMtPBC=     1 NCelOv=     1 NCel=       1 NClECP=     1 NCelD=      1
         NCelK=      1 NCelE2=     1 NClLst=     1 CellRange=     0.0.
 One-electron integrals computed using PRISM.
 One-electron integral symmetry used in STVInt
 NBasis=   291 RedAO= T EigKep=  2.60D-06  NBF=   291
 NBsUse=   290 1.00D-06 EigRej=  8.56D-07 NBFU=   290
 Precomputing XC quadrature grid using
 IXCGrd= 4 IRadAn=           5 IRanWt=          -1 IRanGd=           0 AccXCQ= 0.00D+00.
 Generated NRdTot=       0 NPtTot=           0 NUsed=           0 NTot=          32
 NSgBfM=   301   301   301   301   301 MxSgAt=    19 MxSgA2=    19.
 Leave Link  302 at Sun Oct 13 22:03:25 2019, MaxMem= 10737418240 cpu:               4.9 elap:               0.2
 (Enter /apps/cent7/gaussian/g16-A.03/g16-haswell/g16/l303.exe)
 DipDrv:  MaxL=1.
 Leave Link  303 at Sun Oct 13 22:03:25 2019, MaxMem= 10737418240 cpu:               1.0 elap:               0.1
 (Enter /apps/cent7/gaussian/g16-A.03/g16-haswell/g16/l401.exe)
 ExpMin= 3.60D-02 ExpMax= 9.34D+04 ExpMxC= 3.17D+03 IAcc=3 IRadAn=         5 AccDes= 0.00D+00
 Harris functional with IExCor= 1009 and IRadAn=       5 diagonalized for initial guess.
 HarFok:  IExCor= 1009 AccDes= 0.00D+00 IRadAn=         5 IDoV= 1 UseB2=F ITyADJ=14
 ICtDFT=  3500011 ScaDFX=  1.000000  1.000000  1.000000  1.000000
 FoFCou: FMM=F IPFlag=           0 FMFlag=      100000 FMFlg1=           0
         NFxFlg=           0 DoJE=T BraDBF=F KetDBF=T FulRan=T
         wScrn=  0.000000 ICntrl=       500 IOpCl=  0 I1Cent=   200000004 NGrid=           0
         NMat0=    1 NMatS0=      1 NMatT0=    0 NMatD0=    1 NMtDS0=    0 NMtDT0=    0
 Petite list used in FoFCou.
 Harris En= -820.143234419168    
 JPrj=0 DoOrth=F DoCkMO=F.
 Leave Link  401 at Sun Oct 13 22:03:25 2019, MaxMem= 10737418240 cpu:              11.5 elap:               0.5
 (Enter /apps/cent7/gaussian/g16-A.03/g16-haswell/g16/l502.exe)
 Integral symmetry usage will be decided dynamically.
 Closed shell SCF:
 Using DIIS extrapolation, IDIIS=  1040.
 NGot= 10737418240 LenX= 10737226844 LenY= 10737135802
 Requested convergence on RMS density matrix=1.00D-08 within 128 cycles.
 Requested convergence on MAX density matrix=1.00D-06.
 Requested convergence on             energy=1.00D-06.
 No special actions if energy rises.
 Fock matrices will be formed incrementally for  20 cycles.

 Cycle   1  Pass 1  IDiag  1:
 FoFJK:  IHMeth= 1 ICntrl=       0 DoSepK=F KAlg= 0 I1Cent=           0 FoldK=F
 IRaf= 940000000 NMat=       1 IRICut=       1 DoRegI=T DoRafI=F ISym2E= 0 IDoP0=0 IntGTp=1.
 FoFCou: FMM=F IPFlag=           0 FMFlag=      100000 FMFlg1=           0
         NFxFlg=           0 DoJE=F BraDBF=F KetDBF=F FulRan=T
         wScrn=  0.000000 ICntrl=         0 IOpCl=  0 I1Cent=           0 NGrid=           0
         NMat0=    1 NMatS0=      1 NMatT0=    0 NMatD0=    1 NMtDS0=    0 NMtDT0=    0
 Symmetry not used in FoFCou.
 E= -819.875441479496    
 DIIS: error= 2.76D-02 at cycle   1 NSaved=   1.
 NSaved= 1 IEnMin= 1 EnMin= -819.875441479496     IErMin= 1 ErrMin= 2.76D-02
 ErrMax= 2.76D-02  0.00D+00 EMaxC= 1.00D-01 BMatC= 6.40D-01 BMatP= 6.40D-01
 IDIUse=3 WtCom= 7.24D-01 WtEn= 2.76D-01
 Coeff-Com:  0.100D+01
 Coeff-En:   0.100D+01
 Coeff:      0.100D+01
 Gap=     0.295 Goal=   None    Shift=    0.000
 GapD=    0.295 DampG=1.000 DampE=0.500 DampFc=0.5000 IDamp=-1.
 Damping current iteration by 5.00D-01
 RMSDP=3.28D-01 MaxDP=2.82D+01              OVMax= 3.29D-01

 Cycle   2  Pass 1  IDiag  1:
 RMSU=  5.68D-02    CP:  2.44D+00
 E= -819.978460680627     Delta-E=       -0.103019201131 Rises=F Damp=T
 DIIS: error= 1.27D-02 at cycle   2 NSaved=   2.
 NSaved= 2 IEnMin= 2 EnMin= -819.978460680627     IErMin= 2 ErrMin= 1.27D-02
 ErrMax= 1.27D-02  0.00D+00 EMaxC= 1.00D-01 BMatC= 9.98D-02 BMatP= 6.40D-01
 IDIUse=3 WtCom= 8.73D-01 WtEn= 1.27D-01
 Coeff-Com:  0.189D+00 0.811D+00
 Coeff-En:   0.382D+00 0.618D+00
 Coeff:      0.213D+00 0.787D+00
 Gap=     0.253 Goal=   None    Shift=    0.000
 RMSDP=9.79D-02 MaxDP=8.70D+00 DE=-1.03D-01 OVMax= 2.61D-01

 Cycle   3  Pass 1  IDiag  1:
 RMSU=  1.15D-02    CP:  1.60D+00  3.48D-01
 E= -820.287139666382     Delta-E=       -0.308678985756 Rises=F Damp=F
 DIIS: error= 1.37D-02 at cycle   3 NSaved=   3.
 NSaved= 3 IEnMin= 3 EnMin= -820.287139666382     IErMin= 2 ErrMin= 1.27D-02
 ErrMax= 1.37D-02  0.00D+00 EMaxC= 1.00D-01 BMatC= 7.90D-02 BMatP= 9.98D-02
 IDIUse=3 WtCom= 8.63D-01 WtEn= 1.37D-01
 Coeff-Com:  0.215D-01 0.464D+00 0.514D+00
 Coeff-En:   0.000D+00 0.000D+00 0.100D+01
 Coeff:      0.186D-01 0.401D+00 0.581D+00
 Gap=     0.287 Goal=   None    Shift=    0.000
 RMSDP=3.40D-02 MaxDP=2.78D+00 DE=-3.09D-01 OVMax= 9.25D-02

 Cycle   4  Pass 1  IDiag  1:
 RMSU=  6.55D-03    CP:  1.86D+00  6.51D-01  3.58D-01
 E= -820.342665339082     Delta-E=       -0.055525672699 Rises=F Damp=F
 DIIS: error= 5.57D-03 at cycle   4 NSaved=   4.
 NSaved= 4 IEnMin= 4 EnMin= -820.342665339082     IErMin= 4 ErrMin= 5.57D-03
 ErrMax= 5.57D-03  0.00D+00 EMaxC= 1.00D-01 BMatC= 1.24D-02 BMatP= 7.90D-02
 IDIUse=3 WtCom= 9.44D-01 WtEn= 5.57D-02
 Coeff-Com: -0.184D-01 0.775D-01 0.308D+00 0.633D+00
 Coeff-En:   0.000D+00 0.000D+00 0.121D+00 0.879D+00
 Coeff:     -0.173D-01 0.731D-01 0.297D+00 0.647D+00
 Gap=     0.277 Goal=   None    Shift=    0.000
 RMSDP=8.03D-03 MaxDP=5.57D-01 DE=-5.55D-02 OVMax= 3.27D-02

 Cycle   5  Pass 1  IDiag  1:
 RMSU=  1.36D-03    CP:  1.81D+00  5.70D-01  6.36D-01  7.07D-01
 E= -820.351830191139     Delta-E=       -0.009164852057 Rises=F Damp=F
 DIIS: error= 9.19D-04 at cycle   5 NSaved=   5.
 NSaved= 5 IEnMin= 5 EnMin= -820.351830191139     IErMin= 5 ErrMin= 9.19D-04
 ErrMax= 9.19D-04  0.00D+00 EMaxC= 1.00D-01 BMatC= 4.82D-04 BMatP= 1.24D-02
 IDIUse=3 WtCom= 9.91D-01 WtEn= 9.19D-03
 Coeff-Com: -0.822D-02 0.636D-02 0.836D-01 0.270D+00 0.649D+00
 Coeff-En:   0.000D+00 0.000D+00 0.000D+00 0.000D+00 0.100D+01
 Coeff:     -0.814D-02 0.630D-02 0.829D-01 0.267D+00 0.652D+00
 Gap=     0.278 Goal=   None    Shift=    0.000
 RMSDP=1.38D-03 MaxDP=1.02D-01 DE=-9.16D-03 OVMax= 5.20D-03

 Cycle   6  Pass 1  IDiag  1:
 RMSU=  4.03D-04    CP:  1.80D+00  5.79D-01  5.77D-01  7.96D-01  7.44D-01
 E= -820.352195557448     Delta-E=       -0.000365366309 Rises=F Damp=F
 DIIS: error= 4.92D-04 at cycle   6 NSaved=   6.
 NSaved= 6 IEnMin= 6 EnMin= -820.352195557448     IErMin= 6 ErrMin= 4.92D-04
 ErrMax= 4.92D-04  0.00D+00 EMaxC= 1.00D-01 BMatC= 6.20D-05 BMatP= 4.82D-04
 IDIUse=3 WtCom= 9.95D-01 WtEn= 4.92D-03
 EnCoef did     1 forward-backward iterations
 Coeff-Com: -0.144D-02-0.472D-02 0.127D-02 0.442D-01 0.310D+00 0.651D+00
 Coeff-En:   0.000D+00 0.000D+00 0.000D+00 0.000D+00 0.313D-03 0.100D+01
 Coeff:     -0.143D-02-0.470D-02 0.126D-02 0.440D-01 0.308D+00 0.653D+00
 Gap=     0.279 Goal=   None    Shift=    0.000
 RMSDP=6.72D-04 MaxDP=5.18D-02 DE=-3.65D-04 OVMax= 2.97D-03

 Cycle   7  Pass 1  IDiag  1:
 RMSU=  1.56D-04    CP:  1.80D+00  5.73D-01  5.88D-01  7.95D-01  8.26D-01
                    CP:  8.04D-01
 E= -820.352257805070     Delta-E=       -0.000062247622 Rises=F Damp=F
 DIIS: error= 2.06D-04 at cycle   7 NSaved=   7.
 NSaved= 7 IEnMin= 7 EnMin= -820.352257805070     IErMin= 7 ErrMin= 2.06D-04
 ErrMax= 2.06D-04  0.00D+00 EMaxC= 1.00D-01 BMatC= 4.79D-06 BMatP= 6.20D-05
 IDIUse=3 WtCom= 9.98D-01 WtEn= 2.06D-03
 Coeff-Com:  0.598D-03-0.296D-02-0.102D-01-0.166D-01 0.378D-01 0.241D+00
 Coeff-Com:  0.751D+00
 Coeff-En:   0.000D+00 0.000D+00 0.000D+00 0.000D+00 0.000D+00 0.000D+00
 Coeff-En:   0.100D+01
 Coeff:      0.596D-03-0.295D-02-0.102D-01-0.165D-01 0.377D-01 0.240D+00
 Coeff:      0.751D+00
 Gap=     0.278 Goal=   None    Shift=    0.000
 RMSDP=2.38D-04 MaxDP=1.75D-02 DE=-6.22D-05 OVMax= 9.40D-04

 Cycle   8  Pass 1  IDiag  1:
 RMSU=  3.46D-05    CP:  1.79D+00  5.71D-01  5.89D-01  7.96D-01  8.44D-01
                    CP:  8.91D-01  1.05D+00
 E= -820.352263844221     Delta-E=       -0.000006039151 Rises=F Damp=F
 DIIS: error= 6.84D-05 at cycle   8 NSaved=   8.
 NSaved= 8 IEnMin= 8 EnMin= -820.352263844221     IErMin= 8 ErrMin= 6.84D-05
 ErrMax= 6.84D-05  0.00D+00 EMaxC= 1.00D-01 BMatC= 7.34D-07 BMatP= 4.79D-06
 IDIUse=1 WtCom= 1.00D+00 WtEn= 0.00D+00
 Coeff-Com:  0.456D-03-0.629D-03-0.475D-02-0.133D-01-0.274D-01 0.176D-01
 Coeff-Com:  0.310D+00 0.718D+00
 Coeff:      0.456D-03-0.629D-03-0.475D-02-0.133D-01-0.274D-01 0.176D-01
 Coeff:      0.310D+00 0.718D+00
 Gap=     0.278 Goal=   None    Shift=    0.000
 RMSDP=1.91D-04 MaxDP=1.62D-02 DE=-6.04D-06 OVMax= 3.82D-04

 Cycle   9  Pass 1  IDiag  1:
 RMSU=  1.67D-05    CP:  1.79D+00  5.70D-01  5.89D-01  7.95D-01  8.50D-01
                    CP:  9.13D-01  1.07D+00  1.08D+00
 E= -820.352264865220     Delta-E=       -0.000001020999 Rises=F Damp=F
 DIIS: error= 3.21D-05 at cycle   9 NSaved=   9.
 NSaved= 9 IEnMin= 9 EnMin= -820.352264865220     IErMin= 9 ErrMin= 3.21D-05
 ErrMax= 3.21D-05  0.00D+00 EMaxC= 1.00D-01 BMatC= 1.02D-07 BMatP= 7.34D-07
 IDIUse=1 WtCom= 1.00D+00 WtEn= 0.00D+00
 Coeff-Com:  0.108D-03 0.563D-04-0.860D-03-0.333D-02-0.171D-01-0.196D-01
 Coeff-Com:  0.341D-01 0.283D+00 0.724D+00
 Coeff:      0.108D-03 0.563D-04-0.860D-03-0.333D-02-0.171D-01-0.196D-01
 Coeff:      0.341D-01 0.283D+00 0.724D+00
 Gap=     0.278 Goal=   None    Shift=    0.000
 RMSDP=6.10D-05 MaxDP=4.67D-03 DE=-1.02D-06 OVMax= 1.44D-04

 Cycle  10  Pass 1  IDiag  1:
 RMSU=  6.32D-06    CP:  1.79D+00  5.70D-01  5.89D-01  7.96D-01  8.50D-01
                    CP:  9.30D-01  1.10D+00  1.27D+00  8.64D-01
 E= -820.352265003688     Delta-E=       -0.000000138468 Rises=F Damp=F
 DIIS: error= 5.82D-06 at cycle  10 NSaved=  10.
 NSaved=10 IEnMin=10 EnMin= -820.352265003688     IErMin=10 ErrMin= 5.82D-06
 ErrMax= 5.82D-06  0.00D+00 EMaxC= 1.00D-01 BMatC= 1.19D-08 BMatP= 1.02D-07
 IDIUse=1 WtCom= 1.00D+00 WtEn= 0.00D+00
 Coeff-Com: -0.195D-04 0.998D-04 0.365D-03 0.973D-03-0.208D-02-0.953D-02
 Coeff-Com: -0.353D-01-0.251D-01 0.236D+00 0.834D+00
 Coeff:     -0.195D-04 0.998D-04 0.365D-03 0.973D-03-0.208D-02-0.953D-02
 Coeff:     -0.353D-01-0.251D-01 0.236D+00 0.834D+00
 Gap=     0.278 Goal=   None    Shift=    0.000
 RMSDP=3.30D-05 MaxDP=2.52D-03 DE=-1.38D-07 OVMax= 6.92D-05

 Cycle  11  Pass 1  IDiag  1:
 RMSU=  2.74D-06    CP:  1.79D+00  5.70D-01  5.88D-01  7.96D-01  8.50D-01
                    CP:  9.40D-01  1.10D+00  1.36D+00  8.99D-01  1.44D+00
 E= -820.352265021023     Delta-E=       -0.000000017335 Rises=F Damp=F
 DIIS: error= 1.70D-06 at cycle  11 NSaved=  11.
 NSaved=11 IEnMin=11 EnMin= -820.352265021023     IErMin=11 ErrMin= 1.70D-06
 ErrMax= 1.70D-06  0.00D+00 EMaxC= 1.00D-01 BMatC= 1.01D-09 BMatP= 1.19D-08
 IDIUse=1 WtCom= 1.00D+00 WtEn= 0.00D+00
 Coeff-Com: -0.848D-05 0.187D-04 0.176D-03 0.531D-03 0.539D-03-0.149D-02
 Coeff-Com: -0.113D-01-0.311D-01 0.731D-02 0.256D+00 0.780D+00
 Coeff:     -0.848D-05 0.187D-04 0.176D-03 0.531D-03 0.539D-03-0.149D-02
 Coeff:     -0.113D-01-0.311D-01 0.731D-02 0.256D+00 0.780D+00
 Gap=     0.278 Goal=   None    Shift=    0.000
 RMSDP=6.32D-06 MaxDP=5.11D-04 DE=-1.73D-08 OVMax= 1.71D-05

 Cycle  12  Pass 1  IDiag  1:
 RMSU=  6.94D-07    CP:  1.79D+00  5.70D-01  5.88D-01  7.96D-01  8.50D-01
                    CP:  9.41D-01  1.10D+00  1.38D+00  9.16D-01  1.56D+00
                    CP:  1.16D+00
 E= -820.352265022360     Delta-E=       -0.000000001337 Rises=F Damp=F
 DIIS: error= 7.37D-07 at cycle  12 NSaved=  12.
 NSaved=12 IEnMin=12 EnMin= -820.352265022360     IErMin=12 ErrMin= 7.37D-07
 ErrMax= 7.37D-07  0.00D+00 EMaxC= 1.00D-01 BMatC= 1.50D-10 BMatP= 1.01D-09
 IDIUse=1 WtCom= 1.00D+00 WtEn= 0.00D+00
 Coeff-Com:  0.701D-06-0.572D-05 0.203D-04 0.630D-04 0.457D-03 0.679D-03
 Coeff-Com:  0.629D-03-0.817D-02-0.241D-01-0.716D-02 0.291D+00 0.747D+00
 Coeff:      0.701D-06-0.572D-05 0.203D-04 0.630D-04 0.457D-03 0.679D-03
 Coeff:      0.629D-03-0.817D-02-0.241D-01-0.716D-02 0.291D+00 0.747D+00
 Gap=     0.278 Goal=   None    Shift=    0.000
 RMSDP=3.02D-06 MaxDP=2.31D-04 DE=-1.34D-09 OVMax= 6.45D-06

 Cycle  13  Pass 1  IDiag  1:
 RMSU=  2.24D-07    CP:  1.79D+00  5.70D-01  5.88D-01  7.96D-01  8.50D-01
                    CP:  9.42D-01  1.10D+00  1.39D+00  9.18D-01  1.64D+00
                    CP:  1.25D+00  1.14D+00
 E= -820.352265022531     Delta-E=       -0.000000000171 Rises=F Damp=F
 DIIS: error= 2.22D-07 at cycle  13 NSaved=  13.
 NSaved=13 IEnMin=13 EnMin= -820.352265022531     IErMin=13 ErrMin= 2.22D-07
 ErrMax= 2.22D-07  0.00D+00 EMaxC= 1.00D-01 BMatC= 1.10D-11 BMatP= 1.50D-10
 IDIUse=1 WtCom= 1.00D+00 WtEn= 0.00D+00
 Coeff-Com:  0.201D-06-0.225D-05-0.369D-05-0.157D-04 0.955D-04 0.278D-03
 Coeff-Com:  0.814D-03-0.914D-04-0.620D-02-0.216D-01 0.253D-01 0.218D+00
 Coeff-Com:  0.783D+00
 Coeff:      0.201D-06-0.225D-05-0.369D-05-0.157D-04 0.955D-04 0.278D-03
 Coeff:      0.814D-03-0.914D-04-0.620D-02-0.216D-01 0.253D-01 0.218D+00
 Coeff:      0.783D+00
 Gap=     0.278 Goal=   None    Shift=    0.000
 RMSDP=4.40D-07 MaxDP=2.89D-05 DE=-1.71D-10 OVMax= 2.10D-06

 Cycle  14  Pass 1  IDiag  1:
 RMSU=  6.64D-08    CP:  1.79D+00  5.70D-01  5.88D-01  7.96D-01  8.50D-01
                    CP:  9.43D-01  1.10D+00  1.39D+00  9.15D-01  1.67D+00
                    CP:  1.29D+00  1.24D+00  1.20D+00
 E= -820.352265022554     Delta-E=       -0.000000000023 Rises=F Damp=F
 DIIS: error= 1.44D-07 at cycle  14 NSaved=  14.
 NSaved=14 IEnMin=14 EnMin= -820.352265022554     IErMin=14 ErrMin= 1.44D-07
 ErrMax= 1.44D-07  0.00D+00 EMaxC= 1.00D-01 BMatC= 3.85D-12 BMatP= 1.10D-11
 IDIUse=1 WtCom= 1.00D+00 WtEn= 0.00D+00
 Coeff-Com: -0.199D-06 0.444D-06-0.625D-05-0.212D-04-0.432D-04 0.186D-04
 Coeff-Com:  0.329D-03 0.165D-02 0.147D-02-0.109D-01-0.422D-01-0.291D-01
 Coeff-Com:  0.388D+00 0.691D+00
 Coeff:     -0.199D-06 0.444D-06-0.625D-05-0.212D-04-0.432D-04 0.186D-04
 Coeff:      0.329D-03 0.165D-02 0.147D-02-0.109D-01-0.422D-01-0.291D-01
 Coeff:      0.388D+00 0.691D+00
 Gap=     0.278 Goal=   None    Shift=    0.000
 RMSDP=2.21D-07 MaxDP=1.38D-05 DE=-2.30D-11 OVMax= 1.05D-06

 Cycle  15  Pass 1  IDiag  1:
 RMSU=  2.06D-08    CP:  1.79D+00  5.70D-01  5.88D-01  7.96D-01  8.50D-01
                    CP:  9.43D-01  1.10D+00  1.39D+00  9.15D-01  1.68D+00
                    CP:  1.31D+00  1.32D+00  1.34D+00  1.09D+00
 E= -820.352265022561     Delta-E=       -0.000000000007 Rises=F Damp=F
 DIIS: error= 3.06D-08 at cycle  15 NSaved=  15.
 NSaved=15 IEnMin=15 EnMin= -820.352265022561     IErMin=15 ErrMin= 3.06D-08
 ErrMax= 3.06D-08  0.00D+00 EMaxC= 1.00D-01 BMatC= 3.34D-13 BMatP= 3.85D-12
 IDIUse=1 WtCom= 1.00D+00 WtEn= 0.00D+00
 Coeff-Com: -0.174D-06 0.508D-06-0.200D-05-0.396D-05-0.216D-04-0.176D-04
 Coeff-Com: -0.783D-06 0.436D-03 0.943D-03-0.713D-03-0.142D-01-0.342D-01
 Coeff-Com:  0.439D-02 0.206D+00 0.837D+00
 Coeff:     -0.174D-06 0.508D-06-0.200D-05-0.396D-05-0.216D-04-0.176D-04
 Coeff:     -0.783D-06 0.436D-03 0.943D-03-0.713D-03-0.142D-01-0.342D-01
 Coeff:      0.439D-02 0.206D+00 0.837D+00
 Gap=     0.278 Goal=   None    Shift=    0.000
 RMSDP=8.09D-08 MaxDP=5.05D-06 DE=-6.82D-12 OVMax= 3.95D-07

 Cycle  16  Pass 1  IDiag  1:
 RMSU=  9.31D-09    CP:  1.79D+00  5.70D-01  5.88D-01  7.96D-01  8.50D-01
                    CP:  9.43D-01  1.10D+00  1.39D+00  9.16D-01  1.69D+00
                    CP:  1.31D+00  1.34D+00  1.40D+00  1.19D+00  1.12D+00
 E= -820.352265022556     Delta-E=        0.000000000005 Rises=F Damp=F
 DIIS: error= 1.26D-08 at cycle  16 NSaved=  16.
 NSaved=16 IEnMin=15 EnMin= -820.352265022561     IErMin=16 ErrMin= 1.26D-08
 ErrMax= 1.26D-08  0.00D+00 EMaxC= 1.00D-01 BMatC= 4.21D-14 BMatP= 3.34D-13
 IDIUse=1 WtCom= 1.00D+00 WtEn= 0.00D+00
 Coeff-Com: -0.707D-07 0.194D-06-0.305D-06 0.462D-06-0.443D-05-0.872D-05
 Coeff-Com: -0.393D-04-0.236D-05 0.203D-03 0.871D-03-0.101D-02-0.986D-02
 Coeff-Com: -0.397D-01 0.884D-02 0.323D+00 0.718D+00
 Coeff:     -0.707D-07 0.194D-06-0.305D-06 0.462D-06-0.443D-05-0.872D-05
 Coeff:     -0.393D-04-0.236D-05 0.203D-03 0.871D-03-0.101D-02-0.986D-02
 Coeff:     -0.397D-01 0.884D-02 0.323D+00 0.718D+00
 Gap=     0.278 Goal=   None    Shift=    0.000
 RMSDP=1.64D-08 MaxDP=1.04D-06 DE= 4.55D-12 OVMax= 1.09D-07

 Cycle  17  Pass 1  IDiag  1:
 RMSU=  2.14D-09    CP:  1.79D+00  5.70D-01  5.88D-01  7.96D-01  8.50D-01
                    CP:  9.43D-01  1.10D+00  1.39D+00  9.15D-01  1.69D+00
                    CP:  1.32D+00  1.35D+00  1.41D+00  1.24D+00  1.21D+00
                    CP:  1.16D+00
 E= -820.352265022553     Delta-E=        0.000000000003 Rises=F Damp=F
 DIIS: error= 3.14D-09 at cycle  17 NSaved=  17.
 NSaved=17 IEnMin=15 EnMin= -820.352265022561     IErMin=17 ErrMin= 3.14D-09
 ErrMax= 3.14D-09  0.00D+00 EMaxC= 1.00D-01 BMatC= 4.26D-15 BMatP= 4.21D-14
 IDIUse=1 WtCom= 1.00D+00 WtEn= 0.00D+00
 Coeff-Com: -0.344D-08 0.184D-07 0.112D-06 0.431D-06 0.976D-06-0.756D-06
 Coeff-Com: -0.121D-04-0.442D-04-0.448D-04 0.344D-03 0.144D-02 0.141D-02
 Coeff-Com: -0.139D-01-0.267D-01-0.147D-01 0.248D+00 0.804D+00
 Coeff:     -0.344D-08 0.184D-07 0.112D-06 0.431D-06 0.976D-06-0.756D-06
 Coeff:     -0.121D-04-0.442D-04-0.448D-04 0.344D-03 0.144D-02 0.141D-02
 Coeff:     -0.139D-01-0.267D-01-0.147D-01 0.248D+00 0.804D+00
 Gap=     0.278 Goal=   None    Shift=    0.000
 RMSDP=5.50D-09 MaxDP=3.16D-07 DE= 3.41D-12 OVMax= 4.58D-08

 SCF Done:  E(RM062X) =  -820.352265023     A.U. after   17 cycles
            NFock= 17  Conv=0.55D-08     -V/T= 2.0034
 KE= 8.175838132775D+02 PE=-3.163390167754D+03 EE= 9.013508775930D+02
 Leave Link  502 at Sun Oct 13 22:03:45 2019, MaxMem= 10737418240 cpu:             462.8 elap:              19.4
 (Enter /apps/cent7/gaussian/g16-A.03/g16-haswell/g16/l601.exe)
 Copying SCF densities to generalized density rwf, IOpCl= 0 IROHF=0.

 **********************************************************************

            Population analysis using the SCF density.

 **********************************************************************

 Orbital symmetries:
       Occupied  (A) (A) (A) (A) (A) (A) (A) (A) (A) (A) (A) (A)
                 (A) (A) (A) (A) (A) (A) (A) (A) (A) (A) (A) (A)
                 (A) (A) (A) (A) (A) (A) (A) (A) (A) (A) (A) (A)
                 (A) (A) (A) (A) (A)
       Virtual   (A) (A) (A) (A) (A) (A) (A) (A) (A) (A) (A) (A)
                 (A) (A) (A) (A) (A) (A) (A) (A) (A) (A) (A) (A)
                 (A) (A) (A) (A) (A) (A) (A) (A) (A) (A) (A) (A)
                 (A) (A) (A) (A) (A) (A) (A) (A) (A) (A) (A) (A)
                 (A) (A) (A) (A) (A) (A) (A) (A) (A) (A) (A) (A)
                 (A) (A) (A) (A) (A) (A) (A) (A) (A) (A) (A) (A)
                 (A) (A) (A) (A) (A) (A) (A) (A) (A) (A) (A) (A)
                 (A) (A) (A) (A) (A) (A) (A) (A) (A) (A) (A) (A)
                 (A) (A) (A) (A) (A) (A) (A) (A) (A) (A) (A) (A)
                 (A) (A) (A) (A) (A) (A) (A) (A) (A) (A) (A) (A)
                 (A) (A) (A) (A) (A) (A) (A) (A) (A) (A) (A) (A)
                 (A) (A) (A) (A) (A) (A) (A) (A) (A) (A) (A) (A)
                 (A) (A) (A) (A) (A) (A) (A) (A) (A) (A) (A) (A)
                 (A) (A) (A) (A) (A) (A) (A) (A) (A) (A) (A) (A)
                 (A) (A) (A) (A) (A) (A) (A) (A) (A) (A) (A) (A)
                 (A) (A) (A) (A) (A) (A) (A) (A) (A) (A) (A) (A)
                 (A) (A) (A) (A) (A) (A) (A) (A) (A) (A) (A) (A)
                 (A) (A) (A) (A) (A) (A) (A) (A) (A) (A) (A) (A)
                 (A) (A) (A) (A) (A) (A) (A) (A) (A) (A) (A) (A)
                 (A) (A) (A) (A) (A) (A) (A) (A) (A) (A) (A) (A)
                 (A) (A) (A) (A) (A) (A) (A) (A) (A)
 The electronic state is 1-A.
 Alpha  occ. eigenvalues --  -90.32657 -19.89155 -19.81494 -10.78027 -10.77691
 Alpha  occ. eigenvalues --  -10.73863 -10.73813 -10.71824 -10.71629 -10.71605
 Alpha  occ. eigenvalues --   -8.67023  -6.59301  -6.59014  -6.58950  -1.43663
 Alpha  occ. eigenvalues --   -1.29667  -1.15060  -1.10009  -1.02928  -1.01611
 Alpha  occ. eigenvalues --   -0.97083  -0.88449  -0.86333  -0.81973  -0.78919
 Alpha  occ. eigenvalues --   -0.76200  -0.73507  -0.70874  -0.69530  -0.69255
 Alpha  occ. eigenvalues --   -0.68091  -0.65834  -0.65354  -0.64042  -0.61277
 Alpha  occ. eigenvalues --   -0.58940  -0.57578  -0.55905  -0.54802  -0.49111
 Alpha  occ. eigenvalues --   -0.47697
 Alpha virt. eigenvalues --   -0.19862  -0.19004  -0.15067  -0.13623  -0.12006
 Alpha virt. eigenvalues --   -0.11108  -0.10311  -0.09969  -0.09643  -0.08162
 Alpha virt. eigenvalues --   -0.07684  -0.07214  -0.06565  -0.06049  -0.05449
 Alpha virt. eigenvalues --   -0.05058  -0.04289  -0.03985  -0.02592  -0.01888
 Alpha virt. eigenvalues --   -0.01124  -0.00694  -0.00511   0.00110   0.00825
 Alpha virt. eigenvalues --    0.01570   0.01881   0.01973   0.02569   0.02678
 Alpha virt. eigenvalues --    0.03145   0.03316   0.03903   0.04027   0.04402
 Alpha virt. eigenvalues --    0.04602   0.05607   0.05887   0.06709   0.06974
 Alpha virt. eigenvalues --    0.07782   0.08403   0.08943   0.09748   0.10236
 Alpha virt. eigenvalues --    0.10468   0.10894   0.12000   0.13123   0.13221
 Alpha virt. eigenvalues --    0.14304   0.14946   0.15600   0.15805   0.16543
 Alpha virt. eigenvalues --    0.16856   0.17456   0.18713   0.19458   0.19724
 Alpha virt. eigenvalues --    0.20973   0.21322   0.21622   0.22988   0.23906
 Alpha virt. eigenvalues --    0.24400   0.25304   0.25716   0.26264   0.28014
 Alpha virt. eigenvalues --    0.29474   0.33215   0.33474   0.36741   0.39626
 Alpha virt. eigenvalues --    0.40673   0.41901   0.42854   0.43185   0.43876
 Alpha virt. eigenvalues --    0.44245   0.44616   0.45387   0.47187   0.49305
 Alpha virt. eigenvalues --    0.49988   0.51879   0.52924   0.53789   0.54966
 Alpha virt. eigenvalues --    0.56403   0.56559   0.57977   0.58411   0.60026
 Alpha virt. eigenvalues --    0.62451   0.62517   0.64022   0.68287   0.69519
 Alpha virt. eigenvalues --    0.70775   0.71844   0.72786   0.73693   0.74704
 Alpha virt. eigenvalues --    0.76239   0.76583   0.78501   0.78752   0.78903
 Alpha virt. eigenvalues --    0.83658   0.84420   0.85704   0.88788   0.90358
 Alpha virt. eigenvalues --    0.91393   0.93064   0.95267   0.96241   0.97774
 Alpha virt. eigenvalues --    0.99503   1.01679   1.03290   1.05728   1.06761
 Alpha virt. eigenvalues --    1.09055   1.11933   1.12723   1.15049   1.18099
 Alpha virt. eigenvalues --    1.22425   1.26741   1.31263   1.36337   1.37291
 Alpha virt. eigenvalues --    1.38381   1.38792   1.40903   1.43067   1.43963
 Alpha virt. eigenvalues --    1.44294   1.45764   1.48122   1.50786   1.52604
 Alpha virt. eigenvalues --    1.53325   1.54430   1.55662   1.57797   1.58576
 Alpha virt. eigenvalues --    1.60113   1.62010   1.62847   1.65325   1.71390
 Alpha virt. eigenvalues --    1.72347   1.74170   1.76627   1.78046   1.79500
 Alpha virt. eigenvalues --    1.79964   1.82663   1.83810   1.84653   1.85682
 Alpha virt. eigenvalues --    1.88236   1.88585   1.91215   1.91890   1.93480
 Alpha virt. eigenvalues --    1.95868   2.04650   2.06108   2.14278   2.16611
 Alpha virt. eigenvalues --    2.17534   2.26342   2.30142   2.32702   2.34939
 Alpha virt. eigenvalues --    2.35493   2.36923   2.37191   2.38545   2.41207
 Alpha virt. eigenvalues --    2.44427   2.47003   2.49848   2.56668   2.57342
 Alpha virt. eigenvalues --    2.58486   2.59329   2.61828   2.62210   2.66276
 Alpha virt. eigenvalues --    2.67597   2.68871   2.70140   2.70749   2.73766
 Alpha virt. eigenvalues --    2.76462   2.77253   2.78245   2.79729   2.79858
 Alpha virt. eigenvalues --    2.80680   2.87604   2.91900   2.92993   2.96679
 Alpha virt. eigenvalues --    2.98335   3.02178   3.14793   3.19555   3.20617
 Alpha virt. eigenvalues --    3.24313   3.30963   3.35096   3.39340   3.44093
 Alpha virt. eigenvalues --    3.58274   3.58589   3.64793   3.66755   3.86493
 Alpha virt. eigenvalues --    3.92260   4.00694   4.01323   4.65871   4.91641
 Alpha virt. eigenvalues --    4.92414   5.01976   5.03775   5.07918   5.38829
 Alpha virt. eigenvalues --    7.97199  17.30232  17.39226  17.40663  23.46818
 Alpha virt. eigenvalues --   23.79421  23.80505  23.84195  23.92243  23.95274
 Alpha virt. eigenvalues --   24.04137  49.77581  49.82341 189.23536
          Condensed to atoms (all electrons):
               1          2          3          4          5          6
     1  O    8.187862  -0.060616   0.796270   1.049249   0.059466  -0.038560
     2  S   -0.060616  18.364330  -4.949891  -1.249737  -0.070491   0.223508
     3  C    0.796270  -4.949891  39.835696  -4.088927  -3.845956  -2.581336
     4  C    1.049249  -1.249737  -4.088927  46.611009   2.382098  -1.868059
     5  C    0.059466  -0.070491  -3.845956   2.382098   8.014817   0.816344
     6  C   -0.038560   0.223508  -2.581336  -1.868059   0.816344   7.654280
     7  C   -0.227854   0.573674  -5.886312  -2.712242  -0.595505   1.051443
     8  C   -1.644771   3.066488 -12.750493 -33.688202  -0.863722   0.635350
     9  C   -0.080425  -0.380657  -0.966468  -0.121505   0.197226  -0.008077
    10  O   -0.132722   0.609704  -0.224470  -1.162751  -0.033240   0.002401
    11  H    0.003887  -0.047254  -0.093674   0.595724  -0.026200  -0.016903
    12  H    0.000265   0.006771  -0.008416  -0.044960   0.411775  -0.033416
    13  H    0.000058  -0.004786   0.033984  -0.005581  -0.058841   0.437988
    14  H    0.001577   0.007592   0.051273   0.056175  -0.007501  -0.076697
    15  H    0.014478  -0.112214   0.268829   0.186018  -0.001904  -0.044045
    16  H   -0.016786   0.045769  -0.096680  -0.120996  -0.005713   0.007463
    17  H    0.014023  -0.038120   0.038257   0.102704   0.003581   0.004053
    18  H   -0.006123  -0.040899  -0.002342  -0.009391   0.001829  -0.000849
    19  H    0.247725  -0.089283   0.221139   0.137208  -0.000227   0.001548
               7          8          9         10         11         12
     1  O   -0.227854  -1.644771  -0.080425  -0.132722   0.003887   0.000265
     2  S    0.573674   3.066488  -0.380657   0.609704  -0.047254   0.006771
     3  C   -5.886312 -12.750493  -0.966468  -0.224470  -0.093674  -0.008416
     4  C   -2.712242 -33.688202  -0.121505  -1.162751   0.595724  -0.044960
     5  C   -0.595505  -0.863722   0.197226  -0.033240  -0.026200   0.411775
     6  C    1.051443   0.635350  -0.008077   0.002401  -0.016903  -0.033416
     7  C    8.664023   5.169395   0.036409   0.064911  -0.007451   0.003673
     8  C    5.169395  45.025908   0.456049   0.947462  -0.111103  -0.004536
     9  C    0.036409   0.456049   6.512446  -0.078464  -0.016252   0.001624
    10  O    0.064911   0.947462  -0.078464   8.279854   0.002465  -0.000293
    11  H   -0.007451  -0.111103  -0.016252   0.002465   0.444308  -0.009858
    12  H    0.003673  -0.004536   0.001624  -0.000293  -0.009858   0.415465
    13  H   -0.058582  -0.010005   0.000001  -0.000104   0.001111  -0.007745
    14  H    0.377506  -0.082199   0.001597  -0.000104   0.000636   0.000478
    15  H   -0.161847   0.164329  -0.031498  -0.011180   0.001383   0.000446
    16  H    0.018109   0.141960   0.350500   0.021446   0.002252  -0.000243
    17  H   -0.012138  -0.091032   0.339235  -0.029505  -0.005774  -0.000347
    18  H   -0.001652   0.015384   0.382462  -0.006400   0.001016   0.000041
    19  H   -0.016980  -0.233526  -0.027020  -0.031792  -0.000909  -0.000072
              13         14         15         16         17         18
     1  O    0.000058   0.001577   0.014478  -0.016786   0.014023  -0.006123
     2  S   -0.004786   0.007592  -0.112214   0.045769  -0.038120  -0.040899
     3  C    0.033984   0.051273   0.268829  -0.096680   0.038257  -0.002342
     4  C   -0.005581   0.056175   0.186018  -0.120996   0.102704  -0.009391
     5  C   -0.058841  -0.007501  -0.001904  -0.005713   0.003581   0.001829
     6  C    0.437988  -0.076697  -0.044045   0.007463   0.004053  -0.000849
     7  C   -0.058582   0.377506  -0.161847   0.018109  -0.012138  -0.001652
     8  C   -0.010005  -0.082199   0.164329   0.141960  -0.091032   0.015384
     9  C    0.000001   0.001597  -0.031498   0.350500   0.339235   0.382462
    10  O   -0.000104  -0.000104  -0.011180   0.021446  -0.029505  -0.006400
    11  H    0.001111   0.000636   0.001383   0.002252  -0.005774   0.001016
    12  H   -0.007745   0.000478   0.000446  -0.000243  -0.000347   0.000041
    13  H    0.427470  -0.007223   0.000813   0.000041   0.000067   0.000016
    14  H   -0.007223   0.424443  -0.010474  -0.000513  -0.000029   0.000036
    15  H    0.000813  -0.010474   0.469429  -0.009079   0.002503   0.000192
    16  H    0.000041  -0.000513  -0.009079   0.468869  -0.036465  -0.026879
    17  H    0.000067  -0.000029   0.002503  -0.036465   0.444908  -0.026052
    18  H    0.000016   0.000036   0.000192  -0.026879  -0.026052   0.435583
    19  H    0.000021  -0.000435   0.003651  -0.002834   0.002656   0.000754
              19
     1  O    0.247725
     2  S   -0.089283
     3  C    0.221139
     4  C    0.137208
     5  C   -0.000227
     6  C    0.001548
     7  C   -0.016980
     8  C   -0.233526
     9  C   -0.027020
    10  O   -0.031792
    11  H   -0.000909
    12  H   -0.000072
    13  H    0.000021
    14  H   -0.000435
    15  H    0.003651
    16  H   -0.002834
    17  H    0.002656
    18  H    0.000754
    19  H    0.386972
 Mulliken charges:
               1
     1  O   -0.167004
     2  S    0.146115
     3  C    0.249515
     4  C   -0.047833
     5  C   -0.377839
     6  C   -0.166436
     7  C   -0.278581
     8  C   -0.142736
     9  C   -0.567183
    10  O   -0.217218
    11  H    0.282595
    12  H    0.269346
    13  H    0.251297
    14  H    0.263861
    15  H    0.270172
    16  H    0.259778
    17  H    0.287474
    18  H    0.283275
    19  H    0.401402
 Sum of Mulliken charges =   1.00000
 Mulliken charges with hydrogens summed into heavy atoms:
               1
     1  O    0.234398
     2  S    0.146115
     3  C    0.249515
     4  C    0.234761
     5  C   -0.108492
     6  C    0.084861
     7  C   -0.014719
     8  C    0.127435
     9  C    0.263344
    10  O   -0.217218
 Electronic spatial extent (au):  <R**2>=           1724.3865
 Charge=              1.0000 electrons
 Dipole moment (field-independent basis, Debye):
    X=              1.0687    Y=              2.1365    Z=              2.6666  Tot=              3.5802
 Quadrupole moment (field-independent basis, Debye-Ang):
   XX=            -31.0306   YY=            -56.8718   ZZ=            -57.7604
   XY=              6.4486   XZ=              3.8358   YZ=             -4.4347
 Traceless Quadrupole moment (field-independent basis, Debye-Ang):
   XX=             17.5236   YY=             -8.3175   ZZ=             -9.2061
   XY=              6.4486   XZ=              3.8358   YZ=             -4.4347
 Octapole moment (field-independent basis, Debye-Ang**2):
  XXX=             -2.5303  YYY=              3.0158  ZZZ=              4.0038  XYY=            -12.4680
  XXY=             17.2924  XXZ=              3.0032  XZZ=             39.1866  YZZ=              6.3067
  YYZ=              1.0358  XYZ=            -14.1288
 Hexadecapole moment (field-independent basis, Debye-Ang**3):
 XXXX=          -1147.6299 YYYY=           -392.0518 ZZZZ=           -209.7149 XXXY=             53.1287
 XXXZ=             -8.5414 YYYX=             12.2086 YYYZ=             -6.7841 ZZZX=              1.3601
 ZZZY=            -17.0852 XXYY=           -285.5511 XXZZ=           -257.4832 YYZZ=           -109.7336
 XXYZ=            -30.9768 YYXZ=             -4.3094 ZZXY=             17.2362
 N-N= 6.241032118614D+02 E-N=-3.163390168349D+03  KE= 8.175838132775D+02
 No NMR shielding tensors so no spin-rotation constants.
 Leave Link  601 at Sun Oct 13 22:03:45 2019, MaxMem= 10737418240 cpu:               3.0 elap:               0.2
 (Enter /apps/cent7/gaussian/g16-A.03/g16-haswell/g16/l701.exe)
 ... and contract with generalized density number  0.
 Compute integral first derivatives.
 Leave Link  701 at Sun Oct 13 22:03:45 2019, MaxMem= 10737418240 cpu:               3.7 elap:               0.2
 (Enter /apps/cent7/gaussian/g16-A.03/g16-haswell/g16/l702.exe)
 L702 exits ... SP integral derivatives will be done elsewhere.
 Leave Link  702 at Sun Oct 13 22:03:45 2019, MaxMem= 10737418240 cpu:               0.4 elap:               0.0
 (Enter /apps/cent7/gaussian/g16-A.03/g16-haswell/g16/l703.exe)
 Integral derivatives from FoFJK, PRISM(SPDF).
 Compute integral first derivatives, UseDBF=F ICtDFT=           0.
 Calling FoFJK, ICntrl=      2127 FMM=F ISym2X=0 I1Cent= 0 IOpClX= 0 NMat=1 NMatS=1 NMatT=0.
 FoFJK:  IHMeth= 1 ICntrl=    2127 DoSepK=F KAlg= 0 I1Cent=           0 FoldK=F
 IRaf=         0 NMat=       1 IRICut=       1 DoRegI=T DoRafI=F ISym2E= 0 IDoP0=0 IntGTp=1.
 FoFCou: FMM=F IPFlag=           0 FMFlag=      100000 FMFlg1=         800
         NFxFlg=           0 DoJE=F BraDBF=F KetDBF=F FulRan=T
         wScrn=  0.000000 ICntrl=      2127 IOpCl=  0 I1Cent=           0 NGrid=           0
         NMat0=    1 NMatS0=      1 NMatT0=    0 NMatD0=    1 NMtDS0=    0 NMtDT0=    0
 Symmetry not used in FoFCou.
 Leave Link  703 at Sun Oct 13 22:03:48 2019, MaxMem= 10737418240 cpu:              64.8 elap:               2.7
 (Enter /apps/cent7/gaussian/g16-A.03/g16-haswell/g16/l716.exe)
 Dipole        = 4.20448628D-01 8.40571835D-01 1.04913041D+00
 ***** Axes restored to original set *****
 -------------------------------------------------------------------
 Center     Atomic                   Forces (Hartrees/Bohr)
 Number     Number              X              Y              Z
 -------------------------------------------------------------------
      1        8          -0.043440201   -0.015622257    0.027250449
      2       16           0.021216021    0.062088420   -0.123207880
      3        6          -0.006174839    0.010295040    0.030536205
      4        6           0.000721772   -0.000400596   -0.008984971
      5        6           0.009498437   -0.010746980    0.004973948
      6        6           0.006660420   -0.005640877   -0.007394366
      7        6          -0.000507604   -0.000507991   -0.012568365
      8        6           0.000430568   -0.001957113    0.001863852
      9        6           0.011492107   -0.006980815    0.011027813
     10        8          -0.021642217   -0.057832128    0.096765251
     11        1           0.002294348    0.000895369    0.003329712
     12        1           0.004444318   -0.004085878   -0.000236472
     13        1           0.002774978   -0.002590641   -0.003042634
     14        1           0.000732348   -0.000515175   -0.005745866
     15        1          -0.001353631    0.003517944   -0.000280997
     16        1           0.001837287    0.002983802    0.003569757
     17        1           0.002002639    0.011948283    0.000339445
     18        1           0.005087133    0.005067914   -0.000742377
     19        1           0.003926115    0.010083680   -0.017452503
 -------------------------------------------------------------------
 Cartesian Forces:  Max     0.123207880 RMS     0.025919661
 Leave Link  716 at Sun Oct 13 22:03:48 2019, MaxMem= 10737418240 cpu:               0.6 elap:               0.1
 (Enter /apps/cent7/gaussian/g16-A.03/g16-haswell/g16/l103.exe)

 GradGradGradGradGradGradGradGradGradGradGradGradGradGradGradGradGradGrad
 Berny optimization.
 FormGI is forming the generalized inverse of G from B-inverse, IUseBI=4.
 Internal  Forces:  Max     0.114678618 RMS     0.014780836
 Search for a local minimum.
 Step number   1 out of a maximum of  102
 All quantities printed in internal units (Hartrees-Bohrs-Radians)
 RMS Force = .14781D-01 SwitMx=.10000D-02 MixMth= 1
 Mixed Optimization -- RFO/linear search
 Second derivative matrix not updated -- first step.
 ITU=  0
     Eigenvalues ---    0.00230   0.00744   0.01465   0.01951   0.01971
     Eigenvalues ---    0.01977   0.01992   0.02001   0.02002   0.02003
     Eigenvalues ---    0.02004   0.02556   0.05715   0.05715   0.06632
     Eigenvalues ---    0.07705   0.10872   0.16000   0.16000   0.16000
     Eigenvalues ---    0.16000   0.16000   0.16000   0.16000   0.16000
     Eigenvalues ---    0.16000   0.18778   0.21630   0.21999   0.22000
     Eigenvalues ---    0.23477   0.23779   0.24994   0.28475   0.34806
     Eigenvalues ---    0.34808   0.34811   0.34813   0.34815   0.34815
     Eigenvalues ---    0.34818   0.34818   0.40486   0.40506   0.43991
     Eigenvalues ---    0.44219   0.44548   0.44593   0.50292   0.50311
     Eigenvalues ---    0.55473
 RFO step:  Lambda=-4.87326970D-02 EMin= 2.30000000D-03
 Linear search not attempted -- first point.
 Maximum step size (   0.300) exceeded in Quadratic search.
    -- Step size scaled by   0.861
 Iteration  1 RMS(Cart)=  0.05972848 RMS(Int)=  0.00108151
 Iteration  2 RMS(Cart)=  0.00192185 RMS(Int)=  0.00050622
 Iteration  3 RMS(Cart)=  0.00000136 RMS(Int)=  0.00050622
 Iteration  4 RMS(Cart)=  0.00000000 RMS(Int)=  0.00050622
 ITry= 1 IFail=0 DXMaxC= 2.64D-01 DCOld= 1.00D+10 DXMaxT= 3.00D-01 DXLimC= 3.00D+00 Rises=F
 Variable       Old X    -DE/DX   Delta X   Delta X   Delta X     New X
                                 (Linear)    (Quad)   (Total)
    R1        3.03252  -0.03016   0.00000  -0.04704  -0.04704   2.98548
    R2        1.81414   0.01428   0.00000   0.02037   0.02037   1.83451
    R3        3.34811  -0.01565   0.00000  -0.04041  -0.04041   3.30771
    R4        3.46119  -0.02369   0.00000  -0.07118  -0.07118   3.39002
    R5        3.03272  -0.11468   0.00000  -0.17895  -0.17895   2.85377
    R6        2.66636  -0.01722   0.00000  -0.03029  -0.03021   2.63615
    R7        2.66631  -0.01406   0.00000  -0.02465  -0.02457   2.64174
    R8        2.65750  -0.02039   0.00000  -0.03553  -0.03553   2.62197
    R9        2.05976  -0.00348   0.00000  -0.00754  -0.00754   2.05222
   R10        2.65827  -0.01093   0.00000  -0.01922  -0.01930   2.63898
   R11        2.05971  -0.00556   0.00000  -0.01206  -0.01206   2.04764
   R12        2.65808  -0.01128   0.00000  -0.01978  -0.01986   2.63823
   R13        2.05988  -0.00486   0.00000  -0.01055  -0.01055   2.04932
   R14        2.65751  -0.02089   0.00000  -0.03631  -0.03631   2.62120
   R15        2.05982  -0.00553   0.00000  -0.01199  -0.01199   2.04783
   R16        2.05971  -0.00329   0.00000  -0.00713  -0.00713   2.05258
   R17        2.05976   0.00126   0.00000   0.00272   0.00272   2.06249
   R18        2.05980   0.00046   0.00000   0.00100   0.00100   2.06080
   R19        2.05991   0.00042   0.00000   0.00091   0.00091   2.06083
    A1        2.09440  -0.02672   0.00000  -0.11019  -0.11019   1.98421
    A2        1.93202  -0.01144   0.00000  -0.06435  -0.06494   1.86709
    A3        1.90498  -0.01197   0.00000  -0.05927  -0.05995   1.84503
    A4        1.89249   0.01235   0.00000   0.06133   0.06234   1.95484
    A5        1.89709   0.01138   0.00000   0.02298   0.02038   1.91748
    A6        1.93201  -0.00010   0.00000   0.02047   0.02045   1.95246
    A7        1.90494  -0.00042   0.00000   0.01826   0.01823   1.92318
    A8        2.09802  -0.01663   0.00000  -0.04864  -0.04872   2.04930
    A9        2.09799  -0.00126   0.00000  -0.00436  -0.00443   2.09356
   A10        2.08696   0.01789   0.00000   0.05299   0.05314   2.14010
   A11        2.09750  -0.01177   0.00000  -0.03654  -0.03647   2.06102
   A12        2.09567   0.00538   0.00000   0.01620   0.01615   2.11182
   A13        2.09002   0.00639   0.00000   0.02035   0.02031   2.11032
   A14        2.09444   0.00105   0.00000   0.00395   0.00386   2.09830
   A15        2.09416  -0.00295   0.00000  -0.01197  -0.01193   2.08222
   A16        2.09459   0.00190   0.00000   0.00802   0.00806   2.10265
   A17        2.09533   0.00397   0.00000   0.01314   0.01297   2.10830
   A18        2.09388  -0.00193   0.00000  -0.00635  -0.00627   2.08760
   A19        2.09398  -0.00204   0.00000  -0.00678  -0.00670   2.08728
   A20        2.09451  -0.00090   0.00000  -0.00203  -0.00212   2.09240
   A21        2.09454   0.00230   0.00000   0.00866   0.00870   2.10324
   A22        2.09414  -0.00141   0.00000  -0.00663  -0.00659   2.08755
   A23        2.09747  -0.01023   0.00000  -0.03135  -0.03127   2.06620
   A24        2.09568   0.00609   0.00000   0.01971   0.01967   2.11535
   A25        2.09004   0.00414   0.00000   0.01164   0.01159   2.10163
   A26        1.91062  -0.00249   0.00000  -0.00814  -0.00846   1.90216
   A27        1.91062  -0.01566   0.00000  -0.06727  -0.06825   1.84238
   A28        1.91063  -0.00669   0.00000  -0.02698  -0.02765   1.88298
   A29        1.91062   0.00870   0.00000   0.03470   0.03404   1.94466
   A30        1.91069   0.00627   0.00000   0.03127   0.03121   1.94190
   A31        1.91062   0.00985   0.00000   0.03642   0.03493   1.94555
    D1       -2.18523   0.00013   0.00000  -0.01800  -0.01582  -2.20105
    D2        2.01060   0.00069   0.00000   0.03061   0.02845   2.03905
    D3       -0.06274   0.00087   0.00000   0.00697   0.00695  -0.05579
    D4        2.63149   0.00672   0.00000   0.03808   0.03787   2.66936
    D5       -0.53247   0.00686   0.00000   0.03827   0.03813  -0.49434
    D6       -1.55961  -0.00778   0.00000  -0.05938  -0.05949  -1.61910
    D7        1.55961  -0.00764   0.00000  -0.05919  -0.05923   1.50038
    D8        0.53243  -0.00118   0.00000  -0.01003  -0.00981   0.52262
    D9       -2.63154  -0.00104   0.00000  -0.00984  -0.00955  -2.64109
   D10        1.19738  -0.00676   0.00000  -0.04808  -0.04814   1.14923
   D11       -2.99144  -0.00721   0.00000  -0.05176  -0.05189  -3.04333
   D12       -0.89708  -0.00882   0.00000  -0.06487  -0.06435  -0.96144
   D13       -0.91145   0.00747   0.00000   0.05197   0.05189  -0.85956
   D14        1.18291   0.00702   0.00000   0.04829   0.04815   1.23106
   D15       -3.00591   0.00541   0.00000   0.03518   0.03568  -2.97023
   D16       -3.02025   0.00095   0.00000   0.00214   0.00177  -3.01848
   D17       -0.92588   0.00049   0.00000  -0.00154  -0.00197  -0.92786
   D18        1.16848  -0.00112   0.00000  -0.01465  -0.01444   1.15404
   D19        3.13821  -0.00079   0.00000  -0.01002  -0.01002   3.12819
   D20       -0.00348  -0.00125   0.00000  -0.01589  -0.01593  -0.01941
   D21        0.01885  -0.00069   0.00000  -0.00948  -0.00950   0.00935
   D22       -3.12285  -0.00115   0.00000  -0.01535  -0.01541  -3.13826
   D23       -3.13823   0.00082   0.00000   0.00882   0.00883  -3.12941
   D24        0.00354   0.00114   0.00000   0.01319   0.01324   0.01678
   D25       -0.01887   0.00052   0.00000   0.00770   0.00775  -0.01112
   D26        3.12290   0.00084   0.00000   0.01208   0.01217   3.13507
   D27       -0.00730   0.00054   0.00000   0.00602   0.00587  -0.00142
   D28        3.13432   0.00005   0.00000   0.00025   0.00016   3.13449
   D29        3.13440   0.00100   0.00000   0.01186   0.01178  -3.13701
   D30       -0.00717   0.00051   0.00000   0.00609   0.00607  -0.00110
   D31       -0.00435   0.00002   0.00000   0.00002  -0.00008  -0.00443
   D32        3.13733  -0.00028   0.00000  -0.00337  -0.00339   3.13394
   D33        3.13721   0.00051   0.00000   0.00579   0.00570  -3.14028
   D34       -0.00429   0.00020   0.00000   0.00240   0.00239  -0.00190
   D35        0.00433  -0.00017   0.00000  -0.00175  -0.00170   0.00263
   D36       -3.13720  -0.00042   0.00000  -0.00483  -0.00474   3.14125
   D37       -3.13735   0.00013   0.00000   0.00164   0.00160  -3.13575
   D38        0.00430  -0.00012   0.00000  -0.00144  -0.00144   0.00287
   D39        0.00734  -0.00025   0.00000  -0.00256  -0.00243   0.00491
   D40       -3.13443  -0.00056   0.00000  -0.00692  -0.00681  -3.14124
   D41       -3.13431   0.00000   0.00000   0.00052   0.00058  -3.13373
   D42        0.00710  -0.00031   0.00000  -0.00384  -0.00380   0.00330
         Item               Value     Threshold  Converged?
 Maximum Force            0.114679     0.000450     NO 
 RMS     Force            0.014781     0.000300     NO 
 Maximum Displacement     0.263896     0.001800     NO 
 RMS     Displacement     0.060417     0.001200     NO 
 Predicted change in Energy=-2.675012D-02
 Lowest energy point so far.  Saving SCF results.
 GradGradGradGradGradGradGradGradGradGradGradGradGradGradGradGradGradGrad

 Leave Link  103 at Sun Oct 13 22:03:48 2019, MaxMem= 10737418240 cpu:               1.8 elap:               0.1
 (Enter /apps/cent7/gaussian/g16-A.03/g16-haswell/g16/l202.exe)
                          Input orientation:                          
 ---------------------------------------------------------------------
 Center     Atomic      Atomic             Coordinates (Angstroms)
 Number     Number       Type             X           Y           Z
 ---------------------------------------------------------------------
      1          8           0        1.891899   -1.390072   -0.172283
      2         16           0        0.526553   -1.040282   -0.886009
      3          6           0       -0.423245   -0.112381    0.254454
      4          6           0       -1.359580    0.780951   -0.266343
      5          6           0       -2.131476    1.511840    0.625337
      6          6           0       -1.963948    1.344235    2.001570
      7          6           0       -1.025947    0.439659    2.502534
      8          6           0       -0.245737   -0.302291    1.628022
      9          6           0       -0.271876   -2.614625   -1.205542
     10          8           0        0.740106   -0.292012   -2.180241
     11          1           0       -1.477580    0.905491   -1.338693
     12          1           0       -2.860233    2.216303    0.242243
     13          1           0       -2.567600    1.925835    2.689603
     14          1           0       -0.899623    0.313581    3.571402
     15          1           0        0.486418   -1.008724    2.008396
     16          1           0       -0.530085   -3.081522   -0.253420
     17          1           0       -1.163118   -2.377821   -1.787665
     18          1           0        0.423319   -3.233515   -1.773839
     19          1           0        2.676138   -1.124490   -0.679088
 ---------------------------------------------------------------------
                    Distance matrix (angstroms):
                    1          2          3          4          5
     1  O    0.000000
     2  S    1.579850   0.000000
     3  C    2.678524   1.750364   0.000000
     4  C    3.910793   2.694137   1.394989   0.000000
     5  C    5.024425   3.982790   2.386148   1.387486   0.000000
     6  C    5.202848   4.497402   2.747345   2.413706   1.396486
     7  C    4.360779   4.010325   2.392041   2.809710   2.428093
     8  C    2.998976   2.731559   1.397949   2.450036   2.802225
     9  C    2.692411   1.793920   2.900987   3.687158   4.882412
    10  O    2.562081   1.510149   2.704329   3.036929   4.401266
    11  H    4.240697   2.829754   2.164672   1.085988   2.157001
    12  H    5.980011   4.832041   3.370731   2.137956   1.083566
    13  H    6.250821   5.581812   3.831778   3.392298   2.150067
    14  H    4.970936   4.871902   3.377946   3.893364   3.410658
    15  H    2.622244   2.894855   2.169615   3.432941   3.888376
    16  H    2.955265   2.383971   3.014159   3.950561   4.943243
    17  H    3.594195   2.336019   3.138452   3.511533   4.678650
    18  H    2.849559   2.368369   3.817345   4.644051   5.899273
    19  H    0.970781   2.161162   3.391466   4.481973   5.636037
                    6          7          8          9         10
     6  C    0.000000
     7  C    1.396090   0.000000
     8  C    2.408907   1.387079   0.000000
     9  C    5.368542   4.862828   3.657411   0.000000
    10  O    5.241827   5.057931   3.933810   2.714531   0.000000
    11  H    3.403881   3.895638   3.431847   3.723261   2.657132
    12  H    2.158486   3.410276   3.885780   5.668645   5.012237
    13  H    1.084455   2.149513   3.388590   6.407673   6.290878
    14  H    2.158567   1.083666   2.140932   5.638053   6.011394
    15  H    3.397169   2.151566   1.086178   3.671964   4.257078
    16  H    5.169939   4.498876   3.368205   1.091421   3.620414
    17  H    5.371530   5.134474   4.100772   1.090530   2.850786
    18  H    6.395979   5.820648   4.540084   1.090543   2.986295
    19  H    5.900078   5.125887   3.812627   3.344913   2.587412
                   11         12         13         14         15
    11  H    0.000000
    12  H    2.475746   0.000000
    13  H    4.296093   2.481849   0.000000
    14  H    4.979300   4.306698   2.481749   0.000000
    15  H    4.327183   4.971938   4.289837   2.472365   0.000000
    16  H    4.239321   5.808806   6.155199   5.127626   3.231963
    17  H    3.328754   5.301576   6.367099   6.002722   4.359527
    18  H    4.575384   6.674340   7.448946   6.550089   4.388505
    19  H    4.670040   6.531550   6.938973   5.737663   3.468551
                   16         17         18         19
    16  H    0.000000
    17  H    1.802729   0.000000
    18  H    1.801043   1.802550   0.000000
    19  H    3.780349   4.188039   3.274394   0.000000
 Stoichiometry    C7H9O2S(1+)
 Framework group  C1[X(C7H9O2S)]
 Deg. of freedom    51
 Full point group                 C1      NOp   1
 RotChk:  IX=0 Diff= 3.97D-02
 Largest Abelian subgroup         C1      NOp   1
 Largest concise Abelian subgroup C1      NOp   1
                         Standard orientation:                         
 ---------------------------------------------------------------------
 Center     Atomic      Atomic             Coordinates (Angstroms)
 Number     Number       Type             X           Y           Z
 ---------------------------------------------------------------------
      1          8           0        1.874361    1.276560   -0.758201
      2         16           0        1.384635   -0.065069   -0.082829
      3          6           0       -0.364455   -0.009660   -0.045575
      4          6           0       -1.045936   -1.226845   -0.051711
      5          6           0       -2.432401   -1.199508   -0.006049
      6          6           0       -3.110108    0.020401    0.046012
      7          6           0       -2.409009    1.227618    0.058341
      8          6           0       -1.022604    1.222160    0.015420
      9          6           0        2.031321   -0.031028    1.590129
     10          8           0        1.893317   -1.284853   -0.813527
     11          1           0       -0.507679   -2.168985   -0.096671
     12          1           0       -2.981873   -2.133362   -0.016611
     13          1           0       -4.194151    0.030363    0.074215
     14          1           0       -2.939704    2.171591    0.098480
     15          1           0       -0.468481    2.156312    0.024929
     16          1           0        1.555480    0.784050    2.138235
     17          1           0        1.779745   -1.000816    2.020800
     18          1           0        3.110892    0.110699    1.529100
     19          1           0        2.469345    1.138761   -1.512801
 ---------------------------------------------------------------------
 Rotational constants (GHZ):           2.4144413           0.8028666           0.7102989
 Leave Link  202 at Sun Oct 13 22:03:48 2019, MaxMem= 10737418240 cpu:               0.2 elap:               0.0
 (Enter /apps/cent7/gaussian/g16-A.03/g16-haswell/g16/l301.exe)
 Standard basis: 6-311++G(d,p) (5D, 7F)
 Ernie: Thresh=  0.10000D-02 Tol=  0.10000D-05 Strict=F.
 There are   301 symmetry adapted cartesian basis functions of A   symmetry.
 There are   291 symmetry adapted basis functions of A   symmetry.
   291 basis functions,   455 primitive gaussians,   301 cartesian basis functions
    41 alpha electrons       41 beta electrons
       nuclear repulsion energy       637.0823692824 Hartrees.
 IExCor= 4336 DFT=T Ex+Corr=M062X ExCW=0 ScaHFX=  0.540000
 ScaDFX=  1.000000  1.000000  1.000000  1.000000 ScalE2=  1.000000  1.000000
 IRadAn=      5 IRanWt=     -1 IRanGd=            0 ICorTp=0 IEmpDi=  4
 NAtoms=   19 NActive=   19 NUniq=   19 SFac= 1.00D+00 NAtFMM=   60 NAOKFM=F Big=F
 Integral buffers will be    131072 words long.
 Raffenetti 2 integral format.
 Two-electron integral symmetry is turned on.
 Leave Link  301 at Sun Oct 13 22:03:48 2019, MaxMem= 10737418240 cpu:               1.2 elap:               0.1
 (Enter /apps/cent7/gaussian/g16-A.03/g16-haswell/g16/l302.exe)
 NPDir=0 NMtPBC=     1 NCelOv=     1 NCel=       1 NClECP=     1 NCelD=      1
         NCelK=      1 NCelE2=     1 NClLst=     1 CellRange=     0.0.
 One-electron integrals computed using PRISM.
 One-electron integral symmetry used in STVInt
 NBasis=   291 RedAO= T EigKep=  2.29D-06  NBF=   291
 NBsUse=   290 1.00D-06 EigRej=  8.08D-07 NBFU=   290
 Precomputing XC quadrature grid using
 IXCGrd= 4 IRadAn=           5 IRanWt=          -1 IRanGd=           0 AccXCQ= 0.00D+00.
 Generated NRdTot=       0 NPtTot=           0 NUsed=           0 NTot=          32
 NSgBfM=   301   301   301   301   301 MxSgAt=    19 MxSgA2=    19.
 Leave Link  302 at Sun Oct 13 22:03:48 2019, MaxMem= 10737418240 cpu:               4.3 elap:               0.2
 (Enter /apps/cent7/gaussian/g16-A.03/g16-haswell/g16/l303.exe)
 DipDrv:  MaxL=1.
 Leave Link  303 at Sun Oct 13 22:03:49 2019, MaxMem= 10737418240 cpu:               0.7 elap:               0.1
 (Enter /apps/cent7/gaussian/g16-A.03/g16-haswell/g16/l401.exe)
 Initial guess from the checkpoint file:  "27_p.chk"
 B after Tr=    -0.000000   -0.000000   -0.000000
         Rot=    0.999915    0.012370   -0.003642   -0.002063 Ang=   1.50 deg.
 Guess basis will be translated and rotated to current coordinates.
 JPrj=2 DoOrth=T DoCkMO=T.
 Generating alternative initial guess.
 ExpMin= 3.60D-02 ExpMax= 9.34D+04 ExpMxC= 3.17D+03 IAcc=3 IRadAn=         5 AccDes= 0.00D+00
 Harris functional with IExCor= 1009 and IRadAn=       5 diagonalized for initial guess.
 HarFok:  IExCor= 1009 AccDes= 0.00D+00 IRadAn=         5 IDoV= 1 UseB2=F ITyADJ=14
 ICtDFT=  3500011 ScaDFX=  1.000000  1.000000  1.000000  1.000000
 FoFCou: FMM=F IPFlag=           0 FMFlag=      100000 FMFlg1=           0
         NFxFlg=           0 DoJE=T BraDBF=F KetDBF=T FulRan=T
         wScrn=  0.000000 ICntrl=       500 IOpCl=  0 I1Cent=   200000004 NGrid=           0
         NMat0=    1 NMatS0=      1 NMatT0=    0 NMatD0=    1 NMtDS0=    0 NMtDT0=    0
 Petite list used in FoFCou.
 Harris En= -820.162223974147    
 Leave Link  401 at Sun Oct 13 22:03:49 2019, MaxMem= 10737418240 cpu:              14.0 elap:               0.6
 (Enter /apps/cent7/gaussian/g16-A.03/g16-haswell/g16/l502.exe)
 Integral symmetry usage will be decided dynamically.
 Closed shell SCF:
 Using DIIS extrapolation, IDIIS=  1040.
 NGot= 10737418240 LenX= 10737226844 LenY= 10737135802
 Requested convergence on RMS density matrix=1.00D-08 within 128 cycles.
 Requested convergence on MAX density matrix=1.00D-06.
 Requested convergence on             energy=1.00D-06.
 No special actions if energy rises.
 Fock matrices will be formed incrementally for  20 cycles.

 Cycle   1  Pass 1  IDiag  1:
[...]
 95438,0.03469810,-0.00451322,-0.15222482,0.08917868,0.10419037,0.39429
 159,0.00251869,-0.00183302,-0.00098079,0.00534093,0.00044546,0.0056533
 8,0.02917770,-0.02841273,-0.00129680,0.09589555,-0.16425528,-0.1022320
 7,-0.30230232,0.50465287,-0.00015946,-0.00145000,0.00049358,-0.0037542
 6,0.00609970,0.00519742,0.03445182,-0.04556094,0.05468839,0.05411158,-
 0.04333494,-0.22426885,-0.02080446,-0.05215015,0.67393216,-0.00023771,
 0.00052030,0.00016120,-0.00177182,0.00058854,-0.00095274,-0.01479962,0
 .01227444,-0.02114328,0.02470740,-0.02472150,0.01231675,-0.09539261,0.
 03571054,0.01484722,0.38984701,-0.00007011,-0.00030050,-0.00018452,0.0
 0135380,-0.00243656,0.00123530,0.01282353,-0.02569421,0.03024550,-0.03
 008125,0.04085775,-0.00793363,0.04221093,-0.11712518,0.02037322,-0.280
 30675,0.47730592,-0.00017555,0.00065417,-0.00002825,-0.00278036,0.0030
 9739,-0.00102410,-0.01926523,0.02812031,-0.04423250,0.04594150,-0.0467
 8642,-0.04369819,-0.03311546,0.07820564,-0.33390193,-0.06647433,-0.000
 69632,0.71014597,0.00020201,-0.00076709,0.00066447,0.00807188,-0.00071
 239,-0.00508339,0.01790558,-0.02071224,0.05106462,-0.03438794,0.032556
 12,0.00578979,0.01635345,-0.00539868,-0.05604786,-0.16280309,0.1191211
 5,-0.00989813,0.36147306,0.00099899,-0.00062505,-0.00041615,-0.0024676
 9,0.00897114,0.00739188,-0.01492481,0.03232223,-0.05303182,0.03271971,
 -0.04203115,-0.00734777,-0.00951218,0.00757010,0.06706671,0.12531888,-
 0.21544654,0.02437853,-0.26113693,0.44823312,0.00072017,-0.00016059,0.
 00171234,-0.00365885,0.00544596,-0.00538049,0.01054420,-0.00615962,-0.
 04885170,0.01207618,-0.01414556,-0.00281756,-0.02588506,0.03126617,0.0
 0280127,-0.05845206,0.08208931,-0.15747950,-0.03510144,-0.04268306,0.7
 5971588,-0.00020407,0.00151059,-0.00031136,-0.00374708,-0.00537787,0.0
 1839593,-0.07747546,0.03706829,-0.04463314,0.01363725,-0.00377042,-0.0
 2089649,-0.00824805,0.00168854,0.01583283,-0.02147978,0.03143616,-0.00
 516542,-0.15274999,0.09333968,0.10829728,0.39462126,0.00206655,-0.0005
 3377,0.00197077,-0.00599822,0.00258333,-0.01872478,0.03194062,-0.10308
 284,0.08412203,0.00136317,0.00193012,0.02625528,0.00038648,-0.00438852
 ,-0.00906949,0.02618093,-0.02561273,-0.00399073,0.10028374,-0.16591365
 ,-0.10455315,-0.30680303,0.49441351,-0.00195816,0.00133981,-0.00112476
 ,0.01692604,-0.01480006,-0.02934595,-0.01022952,0.04654982,-0.29752810
 ,-0.05418160,0.06428343,-0.00497554,0.02104898,-0.01663377,-0.06682012
 ,0.02959952,-0.04329069,0.06811928,0.05809424,-0.04571052,-0.22637461,
 -0.02112943,-0.04478722,0.65455158,-0.02394768,-0.03335289,-0.00574219
 ,-0.06966541,-0.01690310,0.00355604,0.00762290,0.01346618,0.00254238,0
 .00187491,-0.00034520,0.00175524,-0.00156580,-0.00060834,0.00105197,-0
 .00005122,0.00035064,-0.00008010,-0.00104319,-0.00012572,0.00009884,-0
 .00027975,0.00158914,-0.00172974,0.56947897,0.00616486,0.00563155,0.00
 249814,-0.03571341,-0.15095746,0.00208289,-0.00140087,-0.00235556,-0.0
 0007630,-0.00210141,-0.00014406,-0.00081050,0.00081476,0.00016356,-0.0
 0068210,0.00005613,-0.00019983,0.00031042,0.00021678,0.00020029,0.0000
 6228,0.00018190,-0.00161335,0.00024708,-0.07449152,0.39442801,-0.00869
 748,-0.01230792,0.00464244,-0.00142642,-0.00458215,-0.07229311,-0.0018
 4540,-0.01543499,0.00535304,-0.00217017,0.00012007,-0.00326980,0.00160
 889,-0.00000796,-0.00073374,0.00017742,-0.00053725,0.00037397,0.000874
 43,0.00002674,0.00052458,-0.00029039,0.00031332,0.00235571,-0.00149272
 ,-0.01733578,0.59814009,0.00539145,0.01606541,-0.02903307,-0.07705445,
 -0.01119897,0.02100728,0.00893936,-0.00487725,0.01193354,-0.00080412,0
 .00045453,-0.00015079,0.00073419,-0.00069415,0.00047936,0.00009381,-0.
 00021069,0.00044716,0.00018239,-0.00058007,0.00147343,-0.00141893,0.00
 390830,-0.00030574,0.00749708,-0.00364008,0.00894745,0.05268407,0.0021
 5342,0.01094489,0.00796385,-0.01022394,-0.19639342,0.22385962,0.004912
 37,0.01044442,-0.01093828,0.00149343,-0.00093695,0.00107575,-0.0013131
 0,0.00100419,-0.00123253,0.00003602,0.00016009,-0.00053769,-0.00047637
 ,-0.00075001,-0.00115714,0.00271665,-0.00003073,0.00117450,-0.00052582
 ,0.00036270,0.03261936,0.00286445,0.18073559,-0.00004548,0.00609917,-0
 .00383525,0.01794503,0.22936055,-0.53622205,-0.00554166,0.01948880,-0.
 01750029,-0.00111222,0.00248762,-0.00184741,-0.00022961,-0.00099655,0.
 00064623,-0.00057156,0.00081623,-0.00074520,-0.00004731,-0.00042406,-0
 .00263248,0.00642171,-0.00601527,0.00152672,-0.00387792,-0.00521354,-0
 .00165341,-0.01852687,-0.25053583,0.56499752,-0.00004613,0.00017769,0.
 00064740,-0.00199718,0.00009956,-0.00387392,0.00190760,0.00297568,-0.0
 1724506,-0.04723118,0.01199458,-0.01136759,0.00654776,-0.00338181,0.01
 621187,0.00269752,0.00564725,0.00255705,-0.00108585,-0.00041571,0.0001
 5065,0.00096252,0.00571868,0.00020999,0.00041401,-0.00022199,0.0000175
 8,-0.00036588,-0.00071780,0.00157367,0.04043577,-0.00085894,0.00055975
 ,-0.00062537,-0.00020681,-0.00343768,0.00400308,0.00004494,-0.00157292
 ,0.02066633,0.01268433,-0.06267343,0.05946921,-0.00099716,0.00908222,-
 0.01669916,0.00564777,0.00141042,-0.00221104,-0.00025757,-0.00120914,-
 0.00053974,0.00576646,-0.00082089,0.00078992,0.00048282,-0.00010908,-0
 .00047678,-0.00070333,0.00047954,-0.00110266,-0.01877345,0.05944975,-0
 .00010830,0.00025367,-0.00015570,-0.00000069,-0.00051334,-0.00004055,-
 0.00069136,0.00170774,-0.00421739,-0.01241373,0.05971521,-0.33658582,-
 0.00237537,0.00544606,-0.01129480,0.00245136,-0.00134578,-0.00096870,0
 .00056404,-0.00108058,0.00020475,-0.00007633,0.00090571,0.00208051,0.0
 0014150,-0.00003140,-0.00025736,0.00121427,-0.00142894,-0.00105006,0.0
 1204452,-0.06371011,0.35200367,-0.00003414,-0.00015238,-0.00006496,0.0
 0035943,0.00078976,-0.00056139,0.00342970,0.00428891,0.00262091,-0.004
 94710,0.01122256,-0.00534154,-0.14949611,0.13744669,-0.05242228,0.0039
 6130,0.00035558,0.00099194,0.00510466,0.00311454,0.00076450,-0.0006176
 7,-0.00091771,0.00016912,-0.00016080,0.00011461,0.00028367,-0.00001964
 ,-0.00010734,0.00013098,-0.00216639,-0.00245139,-0.00050255,0.14733674
 ,0.00042512,-0.00030160,-0.00012014,0.00042645,0.00021873,0.00038091,0
 .00391121,0.00260289,-0.00182466,0.00859180,-0.00718276,0.00584558,0.1
 3755993,-0.21482842,0.06967226,0.00307679,0.00071361,-0.00017326,0.003
 12880,0.00388323,0.00098297,-0.00097638,-0.00008841,-0.00021660,0.0000
 1704,0.00008735,0.00005348,-0.00006591,0.00003791,-0.00013019,-0.00242
 744,-0.00134668,-0.00026542,-0.15092865,0.21826449,0.00072929,-0.00028
 353,-0.00014024,0.00037962,-0.00075095,0.00086976,0.00269837,-0.002082
 59,-0.00180324,0.01394730,-0.01749089,0.00957313,-0.05268594,0.0699407
 3,-0.08727524,-0.01838340,0.02316195,-0.00422796,0.00054776,0.00125257
 ,-0.00548742,0.00036970,-0.00042177,-0.00124784,0.00011962,-0.00003816
 ,-0.00023683,-0.00006288,0.00016737,-0.00024330,-0.00062932,0.00002377
 ,0.00071930,0.05427923,-0.07386269,0.08881731,-0.00016052,0.00012830,0
 .00001469,-0.00083792,-0.00063578,-0.00004646,-0.00009991,-0.00022042,
 -0.00095758,0.00517617,0.00350326,-0.00063657,0.00657190,-0.00073437,-
 0.00308224,-0.13188261,0.08979248,0.10244689,-0.00384472,0.00908992,0.
 01247218,0.00272110,0.00590723,-0.00091471,0.00018227,-0.00010246,-0.0
 0015383,0.00001498,0.00005641,0.00014409,-0.00018562,-0.00037748,-0.00
 026887,-0.00213365,-0.00220986,-0.00018296,0.12689434,-0.00024062,0.00
 018043,-0.00012492,-0.00028837,-0.00091375,-0.00012202,-0.00029960,-0.
 00020340,0.00113026,0.00346347,0.00350564,0.00268834,-0.00341577,0.008
 79869,0.00647365,0.08974737,-0.13619681,-0.10140046,0.01172499,-0.0063
 5870,-0.01576154,0.00602372,0.00022433,0.00194685,0.00007532,-0.000073
 40,-0.00005790,-0.00003546,0.00015270,0.00005970,-0.00050772,0.0000564
 1,0.00028079,-0.00220868,-0.00134469,-0.00047788,-0.10197683,0.1338736
 8,0.00000392,0.00003987,0.00009205,-0.00004143,-0.00008488,-0.00048598
 ,-0.00096132,0.00108797,-0.00034611,0.00005941,0.00183290,-0.00518051,
 0.01629822,-0.01665130,-0.01365408,0.10244223,-0.10142624,-0.18659450,
 -0.00698200,0.00740538,0.01141209,-0.00151647,0.00280419,0.00031187,-0
 .00001302,0.00000865,0.00002881,0.00007544,-0.00011568,0.00015299,0.00
 069683,-0.00086749,-0.00055692,-0.00039114,-0.00021771,0.00081629,-0.1
 0917363,0.10629338,0.19306639,-0.00021598,-0.00002337,-0.00012784,0.00
 123816,0.00004936,0.00076972,0.00296636,0.00516475,0.00260315,-0.00131
 359,0.00006213,0.00014448,0.00214436,0.00629269,-0.00055249,0.00346255
 ,0.00328960,-0.01863793,-0.04944346,0.01302704,-0.01717617,0.00423175,
 -0.00296856,0.01734811,-0.00015407,0.00007885,-0.00004123,-0.00047984,
 -0.00013025,0.00042682,-0.00046983,-0.00044805,-0.00006615,-0.00011450
 ,-0.00005363,-0.00090903,-0.00185235,-0.00229534,-0.00009876,0.0420459
 9,0.00016124,-0.00016486,0.00014592,0.00028533,0.00090517,-0.00060417,
 0.00501471,0.00178228,-0.00180139,0.00006049,-0.00128471,-0.00032045,0
 .00632096,-0.00018920,0.00138986,0.00088659,0.00004231,0.02313796,0.01
 294502,-0.06258745,0.05902011,-0.00070236,0.00664659,-0.01839577,0.000
 02906,-0.00000148,0.00001516,0.00006268,-0.00028169,-0.00075478,-0.000
 47031,-0.00029624,-0.00003594,-0.00020999,-0.00020489,0.00103981,-0.00
 225593,-0.00108640,-0.00047805,-0.01950849,0.05813792,0.00014500,-0.00
 008408,0.00010167,-0.00022845,0.00047191,-0.00023461,0.00231304,-0.001
 87257,-0.00020729,-0.00012561,-0.00008570,0.00069298,-0.00031735,0.001
 18440,0.00111034,0.00092296,-0.00012471,-0.00326747,-0.01679765,0.0587
 2599,-0.33900276,-0.00216688,0.00483271,-0.01370747,0.00006001,-0.0000
 1871,-0.00001186,0.00008059,-0.00007819,-0.00031476,-0.00006657,-0.000
 02688,-0.00006337,0.00009257,-0.00012154,-0.00020420,-0.00029586,-0.00
 019751,0.00048923,0.01681018,-0.06232070,0.35407734,-0.00152310,0.0001
 9293,0.00010581,-0.00035141,-0.00118976,-0.00007120,0.00116401,-0.0008
 4471,0.00052605,0.00411992,0.00209394,0.00069675,-0.00073358,-0.000719
 46,0.00054367,0.00351960,0.00465542,0.00289827,-0.00379168,0.01138522,
 -0.00649963,-0.15037769,0.13804283,-0.05370226,0.00012414,0.00013143,-
 0.00019592,-0.00007767,0.00003061,0.00007250,0.00066476,0.00039785,0.0
 0016997,-0.00056497,-0.00045552,-0.00011141,-0.00058207,0.00020071,-0.
 00042310,-0.00212255,-0.00255855,-0.00039864,0.15041436,-0.00054266,-0
 .00014016,-0.00162977,0.00016028,-0.00148278,0.00039415,0.00129799,-0.
 00128814,0.00073846,0.00193410,0.00399233,0.00086224,-0.00063425,-0.00
 046044,-0.00104594,0.00504160,0.00250595,-0.00194782,0.00904520,-0.006
 12839,0.00691990,0.13718935,-0.20324137,0.06694842,0.00011228,-0.00004
 634,-0.00013654,-0.00017418,0.00020803,0.00028296,0.00055786,0.0004274
 8,-0.00002725,-0.00048116,-0.00044983,-0.00002195,0.00008755,-0.000617
 68,0.00040062,-0.00266435,-0.00141282,-0.00021596,-0.15071790,0.208243
 42,0.00047597,-0.00043156,0.00085369,-0.00286178,0.00226387,-0.0021035
 3,-0.01722687,0.02103721,-0.00493789,0.00122489,0.00011135,-0.00572686
 ,0.00029974,-0.00048815,-0.00050233,0.00287798,-0.00207939,-0.00276823
 ,0.01287674,-0.01582966,0.01197017,-0.05356664,0.06788044,-0.08698159,
 0.00037090,-0.00003681,-0.00032024,0.00024956,-0.00042347,0.00050114,-
 0.00080971,0.00110657,0.00001780,-0.00008978,-0.00001058,0.00008613,0.
 00058593,-0.00078557,0.00045984,-0.00056051,0.00000843,0.00061722,0.05
 599601,-0.07185435,0.08891987,-0.00109344,0.00030134,-0.00115227,-0.00
 188893,-0.00340633,0.01176102,-0.00034568,0.00060985,-0.00046589,0.000
 01414,-0.00000106,0.00004429,0.00001127,0.00009419,0.00000890,-0.00008
 362,0.00004101,0.00000258,-0.00007741,0.00007678,-0.00003896,0.0000115
 8,-0.00029444,0.00009255,-0.04388481,0.00414030,-0.00892531,0.00023429
 ,-0.00372247,0.00051610,-0.00004075,-0.00000114,-0.00000263,-0.0000195
 0,-0.00000775,0.00000892,0.00000879,0.00001699,-0.00000442,0.00002923,
 0.00000729,0.00001146,0.00017859,-0.00013115,-0.00018517,0.04317341,0.
 00079973,0.00177863,-0.00180135,0.00205861,-0.01237471,0.02853086,-0.0
 0068560,0.00158681,-0.00150514,0.00041020,0.00003153,0.00039148,-0.000
 29097,0.00013180,0.00013128,-0.00009665,0.00017240,-0.00016536,0.00008
 158,0.00003994,-0.00043950,0.00053013,-0.00047952,-0.00012115,0.002909
 38,-0.08341410,0.09800429,-0.00265254,-0.00729541,0.00162038,-0.000115
 13,0.00008646,0.00005788,-0.00003113,-0.00002477,0.00002305,-0.0000217
 7,0.00001246,-0.00002639,0.00005231,-0.00000016,-0.00001946,-0.0003914
 9,-0.00016734,-0.00052185,-0.00185074,0.09018706,-0.00093474,-0.000739
 57,-0.00042453,0.00158109,0.00104145,0.00280519,-0.00005555,0.00025521
 ,-0.00010573,-0.00022501,0.00021395,-0.00009715,0.00002295,-0.00005662
 ,-0.00022967,0.00008023,-0.00011300,0.00014350,-0.00023367,0.00014794,
 -0.00010723,0.00063111,-0.00070036,-0.00011908,-0.00774784,0.10032224,
 -0.29541579,-0.00129638,-0.00305118,0.00186303,-0.00004725,0.00004453,
 0.00001164,0.00001818,0.00000426,-0.00001665,0.00000089,0.00001441,-0.
 00000398,0.00004315,-0.00003147,-0.00002897,-0.00026383,-0.00033383,-0
 .00013327,0.00890121,-0.10689186,0.31094178,0.00039454,-0.00074936,0.0
 0007303,-0.01136893,-0.00162014,-0.00362633,0.00029045,-0.00010223,0.0
 0056186,0.00017807,-0.00022298,0.00004408,-0.00005438,-0.00006222,0.00
 001720,0.00004211,-0.00004271,0.00012556,-0.00023206,0.00013378,0.0000
 6300,0.00011296,0.00015254,-0.00028768,-0.29615857,0.01666008,-0.09322
 552,0.00150167,0.00041205,0.00086150,0.00007287,-0.00002545,-0.0000286
 8,0.00000178,0.00002118,0.00001501,0.00001928,0.00001277,0.00000096,-0
 .00001956,0.00001126,0.00001080,0.00002617,0.00002125,-0.00005703,0.00
 297199,0.00077034,0.00173867,0.31397482,-0.00672331,-0.00817039,-0.001
 12349,-0.02819465,0.00181812,-0.01209864,0.00105924,0.00040286,0.00141
 805,0.00038205,0.00004040,-0.00025763,0.00004215,-0.00020881,0.0000993
 4,0.00003193,-0.00006514,0.00008513,-0.00021206,0.00003791,0.00004289,
 0.00009453,0.00022077,-0.00012047,0.01937072,-0.04671045,0.00759535,0.
 00280826,0.00030061,0.00083137,-0.00006784,-0.00008511,0.00007157,0.00
 001174,-0.00001766,-0.00003467,0.00002025,0.00000818,-0.00000154,-0.00
 001755,-0.00000666,-0.00000148,-0.00000164,0.00003162,0.00006828,0.012
 75864,0.00027400,0.00210873,-0.01465932,0.05007776,0.00009235,0.000245
 73,0.00054217,-0.00019382,-0.00137153,-0.00278205,0.00035868,0.0002060
 0,0.00015291,0.00010979,-0.00024089,0.00003279,0.00002543,-0.00002956,
 0.00007512,0.00000529,0.00000299,-0.00004112,0.00004091,-0.00003678,-0
 .00001060,-0.00007760,0.00017434,-0.00036354,-0.09376082,0.00631771,-0
 .07926293,-0.00010551,0.00033992,-0.00066371,0.00000928,0.00001685,0.0
 0004460,0.00000263,-0.00000337,0.00000652,-0.00000025,-0.00001123,-0.0
 0000314,-0.00001401,0.00000436,-0.00000526,-0.00004618,0.00001536,0.00
 012259,-0.02542479,-0.00155489,-0.00660675,0.10061814,-0.00591688,0.08
 007573,-0.00043101,0.00018327,0.00029945,0.00762953,-0.00723091,-0.009
 82320,-0.00073134,-0.00311192,0.00047330,-0.00036717,-0.00007471,-0.00
 071752,0.00044944,0.00002598,-0.00024267,0.00005526,-0.00020840,0.0000
 9481,0.00012734,0.00011519,0.00006275,0.00012618,-0.00030448,0.0002014
 6,-0.14766949,0.08687477,0.10829921,-0.00082524,0.00141368,0.00009010,
 -0.00011405,-0.00007744,-0.00003886,0.00006673,0.00000483,-0.00005593,
 -0.00003789,-0.00001747,0.00000400,0.00001372,-0.00002077,-0.00001860,
 -0.00003909,0.00001071,0.00001271,0.00066457,-0.00167686,-0.00245199,-
 0.01206788,0.01451228,0.01841945,0.15301485,0.00099115,0.00195937,0.00
 169484,0.01738740,-0.02196416,-0.02198901,-0.00200793,-0.00430297,0.00
 034953,-0.00077678,0.00015318,-0.00089360,0.00057544,0.00013263,-0.000
 26002,-0.00002722,-0.00010876,0.00000880,0.00058473,-0.00000164,-0.000
 08365,-0.00000659,-0.00020477,0.00089065,0.08530637,-0.11530086,-0.088
 69208,-0.00145858,0.00347178,0.00237073,-0.00011124,-0.00016741,-0.000
 06286,0.00008592,0.00000442,-0.00007088,-0.00008782,-0.00003823,-0.000
 00008,0.00004105,-0.00000793,-0.00002510,-0.00025080,-0.00011870,-0.00
 016959,-0.00876529,0.00943180,0.00769588,-0.00072711,0.00093859,0.0017
 6819,-0.09054238,0.12613535,-0.00047418,0.00045108,-0.00044234,-0.0009
 5322,-0.00186557,-0.00064854,0.00055699,0.00056802,0.00052017,-0.00015
 872,-0.00001391,0.00010915,0.00002693,-0.00017020,-0.00013942,0.000084
 48,-0.00011450,0.00023523,-0.00031386,0.00015960,0.00012340,-0.0000313
 3,-0.00005737,-0.00015693,0.10744247,-0.08921527,-0.15731668,0.0001000
 7,0.00021209,-0.00068835,0.00004852,-0.00000035,0.00004235,0.00001593,
 0.00002896,0.00001133,0.00003378,0.00001093,0.00000635,-0.00002489,0.0
 0000102,0.00000689,0.00019149,0.00012591,0.00006933,0.01493044,-0.0154
 9887,-0.01289127,-0.00653922,0.00809645,0.00800181,-0.11466707,0.09716
 265,0.16298556,-0.17842136,-0.20295227,-0.02160474,-0.03193809,-0.0247
 4670,-0.00615906,0.00267051,0.00059252,0.00016231,-0.00028837,0.000746
 73,-0.00049061,0.00003429,-0.00029014,-0.00049068,0.00011552,-0.000157
 64,0.00008673,0.00003901,-0.00015663,0.00008899,0.00017386,-0.00025377
 ,0.00074882,-0.00261351,0.00223727,-0.00174426,0.00377247,0.00112800,0
 .00177013,0.00000005,0.00015403,-0.00001212,0.00001412,-0.00003803,-0.
 00007395,0.00002842,0.00002052,0.00002429,0.00005362,-0.00005824,-0.00
 003098,-0.00004775,-0.00011250,0.00038705,0.00013627,0.00020059,0.0002
 3879,0.00031467,-0.00121540,-0.00005896,0.00013555,-0.00021032,-0.0002
 6861,0.20582072,-0.23598871,-0.34206982,-0.01550578,0.00686002,0.01213
 343,-0.00154601,0.00029999,-0.00042418,0.00161555,0.00032604,-0.000266
 84,-0.00078919,0.00004912,-0.00027991,0.00017927,0.00003429,0.00001781
 ,-0.00008924,-0.00001478,-0.00020625,-0.00014602,0.00009064,-0.0000080
 8,-0.00009423,0.00264365,0.00005250,0.00082159,0.00012758,-0.00261426,
 0.00175537,0.00003913,0.00016655,0.00006299,0.00005814,-0.00002293,-0.
 00007330,0.00003730,0.00002054,-0.00000359,0.00005180,0.00001022,-0.00
 002240,-0.00000110,0.00014515,0.00015483,0.00013397,0.00002313,0.00006
 931,0.00001627,0.00111340,0.00007369,0.00012464,-0.00001168,0.00011933
 ,0.22511200,0.33222122,-0.01203245,-0.00222314,-0.01080468,-0.01686288
 ,-0.01426879,0.00152094,0.00089761,0.00047064,-0.00023543,-0.00021891,
 0.00002917,-0.00020420,0.00001852,-0.00000244,-0.00012433,0.00001072,-
 0.00007847,-0.00004032,-0.00001167,0.00000508,-0.00032012,-0.00008707,
 -0.00093864,-0.00020013,-0.00269461,0.00160917,-0.00064689,0.00347307,
 0.00208647,-0.00229136,-0.00012794,0.00013934,0.00006603,0.00000397,-0
 .00002224,-0.00001686,0.00001450,0.00004072,-0.00001071,0.00006341,-0.
 00001991,-0.00004765,0.00051165,0.00052541,-0.00014383,-0.00007802,-0.
 00021339,0.00041493,-0.00036533,-0.00086238,0.00068485,0.00005858,0.00
 030560,0.00017197,0.02742686,0.01341782,0.01222778\\0.00000775,0.00000
 035,0.00000540,-0.00000456,0.00000266,-0.00000948,-0.00000507,0.000016
 34,0.00000146,0.00000289,-0.00000811,-0.00000019,-0.00000401,0.0000047
 2,0.00001102,-0.00000010,0.00000248,-0.00000312,0.00000442,-0.00000621
 ,-0.00000111,0.00000312,-0.00000811,0.00000542,0.00001216,-0.00000614,
 0.00000091,-0.00000777,-0.00000093,-0.00000462,0.00000018,0.00000034,0
 .00000153,0.00000220,0.00000217,0.00000578,0.00000255,-0.00000127,0.00
 000471,0.00000243,-0.00000304,0.00000118,0.00000295,-0.00000090,-0.000
 00333,-0.00000581,0.00000071,-0.00000483,-0.00000581,0.00000480,-0.000
 00242,-0.00000345,0.00000656,-0.00000504,-0.00000406,-0.00000639,-0.00
 000326\\\@


 DON'T WORRY CHARLIE BROWN...WE LEARN MORE FROM LOSING 
 THAN WE DO FROM WINNING.
 THEN THAT MAKES ME THE SMARTEST PERSON IN THE WORLD...
 CHARLES SCHULZ 'PEANUTS'
 Job cpu time:       0 days  0 hours 51 minutes 50.5 seconds.
 Elapsed time:       0 days  0 hours  2 minutes 11.8 seconds.
 File lengths (MBytes):  RWF=    158 Int=      0 D2E=      0 Chk=      8 Scr=      1
 Normal termination of Gaussian 16 at Sun Oct 13 22:10:33 2019.
real 429.32
user 10053.54
sys 25.66
Machine:
brown-a269
brown-a269
brown-a269
brown-a269
brown-a269
brown-a269
brown-a269
brown-a269
brown-a269
brown-a269
brown-a269
brown-a269
brown-a269
brown-a269
brown-a269
brown-a269
brown-a269
brown-a269
brown-a269
brown-a269
brown-a269
brown-a269
brown-a269
brown-a269
