Title Card Required                                                     
Freq      RM062X                                                      6-311++G(d,p)       
Number of atoms                            I               13
Info1-9                                    I   N=           9
          36          36        1002           0           0         100
           6          18        -502
Full Title                                 C   N=           2
Title Card Required     
Route                                      C   N=           6
#P opt freq m062x/6-311++g(d,p) geom=connectivity temperatur
e=0.001     
Charge                                     I                0
Multiplicity                               I                1
Number of electrons                        I               62
Number of alpha electrons                  I               31
Number of beta electrons                   I               31
Number of basis functions                  I              204
Number of independent functions            I              204
Number of point charges in /Mol/           I                0
Number of translation vectors              I                0
Atomic numbers                             I   N=          13
           6           6          16           8           6           6
           8           1           1           1           1           1
           1
Nuclear charges                            R   N=          13
  6.00000000E+00  6.00000000E+00  1.60000000E+01  8.00000000E+00  6.00000000E+00
  6.00000000E+00  8.00000000E+00  1.00000000E+00  1.00000000E+00  1.00000000E+00
  1.00000000E+00  1.00000000E+00  1.00000000E+00
Current cartesian coordinates              R   N=          39
  4.54765901E+00  1.52912436E+00  1.22328202E-02  2.34712140E+00  1.34722044E+00
  1.18373527E+00  2.30705476E-05 -7.50711843E-01 -2.13370285E-04  1.06843540E+00
 -2.09516597E+00 -2.14773946E+00 -2.34682890E+00  1.34880077E+00 -1.18226034E+00
 -4.54780093E+00  1.52923730E+00 -1.13646600E-02 -1.06854216E+00 -2.09708370E+00
  2.14607816E+00  6.02569071E+00  2.74964454E+00  7.32242043E-01  4.91043541E+00
  4.32186851E-01 -1.68181863E+00  1.80296302E+00  2.32911912E+00  2.89613393E+00
 -1.80211454E+00  2.33274041E+00 -2.89330002E+00 -6.02590127E+00  2.74964166E+00
 -7.31427818E-01 -4.91149176E+00  4.29757021E-01  1.68081638E+00
Number of symbols in /Mol/                 I                0
Force Field                                I                0
Atom Types                                 C   N=          13
                                                            
                                                            
                                    
Int Atom Types                             I   N=          13
           0           0           0           0           0           0
           0           0           0           0           0           0
           0
MM charges                                 R   N=          13
  0.00000000E+00  0.00000000E+00  0.00000000E+00  0.00000000E+00  0.00000000E+00
  0.00000000E+00  0.00000000E+00  0.00000000E+00  0.00000000E+00  0.00000000E+00
  0.00000000E+00  0.00000000E+00  0.00000000E+00
Integer atomic weights                     I   N=          13
          12          12          32          16          12          12
          16           1           1           1           1           1
           1
Real atomic weights                        R   N=          13
  1.20000000E+01  1.20000000E+01  3.19720718E+01  1.59949146E+01  1.20000000E+01
  1.20000000E+01  1.59949146E+01  1.00782504E+00  1.00782504E+00  1.00782504E+00
  1.00782504E+00  1.00782504E+00  1.00782504E+00
Atom fragment info                         I   N=          13
           0           0           0           0           0           0
           0           0           0           0           0           0
           0
Atom residue num                           I   N=          13
           0           0           0           0           0           0
           0           0           0           0           0           0
           0
Nuclear spins                              I   N=          13
           0           0           0           0           0           0
           0           1           1           1           1           1
           1
Nuclear ZEff                               R   N=          13
 -3.60000000E+00 -3.60000000E+00 -1.36000000E+01 -5.60000000E+00 -3.60000000E+00
 -3.60000000E+00 -5.60000000E+00 -1.00000000E+00 -1.00000000E+00 -1.00000000E+00
 -1.00000000E+00 -1.00000000E+00 -1.00000000E+00
Nuclear ZNuc                               R   N=          13
  6.00000000E+00  6.00000000E+00  1.60000000E+01  8.00000000E+00  6.00000000E+00
  6.00000000E+00  8.00000000E+00  1.00000000E+00  1.00000000E+00  1.00000000E+00
  1.00000000E+00  1.00000000E+00  1.00000000E+00
Nuclear QMom                               R   N=          13
  0.00000000E+00  0.00000000E+00  0.00000000E+00  0.00000000E+00  0.00000000E+00
  0.00000000E+00  0.00000000E+00  0.00000000E+00  0.00000000E+00  0.00000000E+00
  0.00000000E+00  0.00000000E+00  0.00000000E+00
Nuclear GFac                               R   N=          13
  0.00000000E+00  0.00000000E+00  0.00000000E+00  0.00000000E+00  0.00000000E+00
  0.00000000E+00  0.00000000E+00  2.79284600E+00  2.79284600E+00  2.79284600E+00
  2.79284600E+00  2.79284600E+00  2.79284600E+00
MicOpt                                     I   N=          13
          -1          -1          -1          -1          -1          -1
          -1          -1          -1          -1          -1          -1
          -1
Number of residues                         I                0
Number of secondary structures             I                0
Redundant internal dimensions              I   N=           4
          50          12          18          20
Redundant internal coordinate indices      I   N=         200
           1           2           0           0           1           8
           0           0           1           9           0           0
           2           3           0           0           2          10
           0           0           3           4           0           0
           3           5           0           0           3           7
           0           0           5           6           0           0
           5          11           0           0           6          12
           0           0           6          13           0           0
           2           1           8           0           2           1
           9           0           8           1           9           0
           1           2           3           0           1           2
          10           0           3           2          10           0
           2           3           4           0           2           3
           5           0           2           3           7           0
           4           3           5           0           4           3
           7           0           5           3           7           0
           3           5           6           0           3           5
          11           0           6           5          11           0
           5           6          12           0           5           6
          13           0          12           6          13           0
           8           1           2           3           8           1
           2          10           9           1           2           3
           9           1           2          10           1           2
           3           4           1           2           3           5
           1           2           3           7          10           2
           3           4          10           2           3           5
          10           2           3           7           2           3
           5           6           2           3           5          11
           4           3           5           6           4           3
           5          11           7           3           5           6
           7           3           5          11           3           5
           6          12           3           5           6          13
          11           5           6          12          11           5
           6          13
Redundant internal coordinates             R   N=          50
  2.49957452E+00  2.04759872E+00  2.05053382E+00  3.36332050E+00  2.04756992E+00
  2.74971455E+00  3.36346584E+00  2.74974838E+00  2.49956635E+00  2.04756141E+00
  2.04759819E+00  2.05051324E+00  2.11069988E+00  2.09904684E+00  2.07335524E+00
  2.08837117E+00  2.20312801E+00  1.99112377E+00  1.88468540E+00  1.79391671E+00
  1.87742106E+00  1.87742279E+00  2.11904421E+00  1.88472560E+00  2.08843454E+00
  1.99107501E+00  2.20310981E+00  2.11055508E+00  2.09907790E+00  2.07345445E+00
 -3.10794493E+00 -4.62461526E-03  1.96064547E-02  3.12292677E+00  5.54062566E-02
 -1.92589494E+00  2.37063348E+00 -3.05237227E+00  1.24951184E+00 -7.37145037E-01
 -1.92642841E+00  1.24908658E+00  2.37014431E+00 -7.37526010E-01  5.48864831E-02
 -3.05278384E+00 -3.10708628E+00  1.92899998E-02 -3.88877719E-03  3.12248750E+00
ZRed-IntVec                                I   N=          50
           0           0           0           0           0           0
           0           0           0           0           0           0
           0           0           0           0           0           0
           0           0           0           0           0           0
           0           0           0           0           0           0
           0           0           0           0           0           0
           0           0           0           0           0           0
           0           0           0           0           0           0
           0           0
ZRed-FPVec                                 R   N=          50
  0.00000000E+00  0.00000000E+00  0.00000000E+00  0.00000000E+00  0.00000000E+00
  0.00000000E+00  0.00000000E+00  0.00000000E+00  0.00000000E+00  0.00000000E+00
  0.00000000E+00  0.00000000E+00  0.00000000E+00  0.00000000E+00  0.00000000E+00
  0.00000000E+00  0.00000000E+00  0.00000000E+00  0.00000000E+00  0.00000000E+00
  0.00000000E+00  0.00000000E+00  0.00000000E+00  0.00000000E+00  0.00000000E+00
  0.00000000E+00  0.00000000E+00  0.00000000E+00  0.00000000E+00  0.00000000E+00
  0.00000000E+00  0.00000000E+00  0.00000000E+00  0.00000000E+00  0.00000000E+00
  0.00000000E+00  0.00000000E+00  0.00000000E+00  0.00000000E+00  0.00000000E+00
  0.00000000E+00  0.00000000E+00  0.00000000E+00  0.00000000E+00  0.00000000E+00
  0.00000000E+00  0.00000000E+00  0.00000000E+00  0.00000000E+00  0.00000000E+00
ZRed-Constraint1                           R   N=          50
  2.49957452E+00  2.04759872E+00  2.05053382E+00  3.36332050E+00  2.04756992E+00
  2.74971455E+00  3.36346584E+00  2.74974838E+00  2.49956635E+00  2.04756141E+00
  2.04759819E+00  2.05051324E+00  2.11069988E+00  2.09904684E+00  2.07335524E+00
  2.08837117E+00  2.20312801E+00  1.99112377E+00  1.88468540E+00  1.79391671E+00
  1.87742106E+00  1.87742279E+00  2.11904421E+00  1.88472560E+00  2.08843454E+00
  1.99107501E+00  2.20310981E+00  2.11055508E+00  2.09907790E+00  2.07345445E+00
 -3.10794493E+00 -4.62461526E-03  1.96064547E-02  3.12292677E+00  5.54062566E-02
 -1.92589494E+00  2.37063348E+00 -3.05237227E+00  1.24951184E+00 -7.37145037E-01
 -1.92642841E+00  1.24908658E+00  2.37014431E+00 -7.37526010E-01  5.48864831E-02
 -3.05278384E+00 -3.10708628E+00  1.92899998E-02 -3.88877719E-03  3.12248750E+00
ZRed-Constraint2                           R   N=          50
  2.52465709E+00  2.05983372E+00  2.05973966E+00  3.30242351E+00  2.05969435E+00
  3.03883367E+00  3.30196598E+00  3.03864762E+00  2.52497834E+00  2.05974856E+00
  2.05972712E+00  2.05974708E+00  2.09440426E+00  2.09438433E+00  2.09439670E+00
  2.13370500E+00  1.83738097E+00  2.31209933E+00  1.92329422E+00  1.92347941E+00
  1.91193887E+00  1.91434095E+00  1.88012797E+00  1.91011362E+00  2.12557509E+00
  2.31396929E+00  1.84364093E+00  2.09436001E+00  2.09431635E+00  2.09450894E+00
 -1.92030396E+00  1.22115737E+00  1.22144351E+00 -1.92028047E+00  6.88700307E-01
 -1.42641147E+00  2.75423450E+00 -2.45272059E+00  1.71535295E+00 -3.87186393E-01
 -1.04213264E+00  2.09942299E+00  3.12060697E+00 -2.10227097E-02  1.06150370E+00
 -2.08012598E+00  2.14205536E+00 -9.99469244E-01 -9.99508983E-01  2.14215172E+00
SymInf integers                            I   N=          26
           1           1           1           1           1           0
           0           0           0           0           0           0
           0           0           0           0           0           0
           0           0           0           0           0           0
           0           0
RotTr to input orientation                 R   N=          12
  2.44387382E-01 -9.65762957E-01  8.70443461E-02  6.55376330E-01  2.30666926E-01
  7.19218072E-01 -7.14672424E-01 -1.18721018E-01  6.89310268E-01  5.58909671E+00
  4.43532560E+00  6.98114043E-01
Number of contracted shells                I               79
Number of primitive shells                 I              144
Pure/Cartesian d shells                    I                0
Pure/Cartesian f shells                    I                0
Highest angular momentum                   I                2
Largest degree of contraction              I                6
Shell types                                I   N=          79
           0          -1          -1          -1          -1          -2
           0          -1          -1          -1          -1          -2
           0           0           0           0           0           0
          -1           1           1           1           1           1
          -2           0          -1          -1          -1          -1
          -2           0          -1          -1          -1          -1
          -2           0          -1          -1          -1          -1
          -2           0          -1          -1          -1          -1
          -2           0           0           0           0           1
           0           0           0           0           1           0
           0           0           0           1           0           0
           0           0           1           0           0           0
           0           1           0           0           0           0
           1
Number of primitives per shell             I   N=          79
           6           3           1           1           1           1
           6           3           1           1           1           1
           6           3           1           1           1           1
           1           4           2           1           1           1
           1           6           3           1           1           1
           1           6           3           1           1           1
           1           6           3           1           1           1
           1           6           3           1           1           1
           1           3           1           1           1           1
           3           1           1           1           1           3
           1           1           1           1           3           1
           1           1           1           3           1           1
           1           1           3           1           1           1
           1
Shell to atom map                          I   N=          79
           1           1           1           1           1           1
           2           2           2           2           2           2
           3           3           3           3           3           3
           3           3           3           3           3           3
           3           4           4           4           4           4
           4           5           5           5           5           5
           5           6           6           6           6           6
           6           7           7           7           7           7
           7           8           8           8           8           8
           9           9           9           9           9          10
          10          10          10          10          11          11
          11          11          11          12          12          12
          12          12          13          13          13          13
          13
Primitive exponents                        R   N=         144
  4.56324000E+03  6.82024000E+02  1.54973000E+02  4.44553000E+01  1.30290000E+01
  1.82773000E+00  2.09642000E+01  4.80331000E+00  1.45933000E+00  4.83456000E-01
  1.45585000E-01  4.38000000E-02  6.26000000E-01  4.56324000E+03  6.82024000E+02
  1.54973000E+02  4.44553000E+01  1.30290000E+01  1.82773000E+00  2.09642000E+01
  4.80331000E+00  1.45933000E+00  4.83456000E-01  1.45585000E-01  4.38000000E-02
  6.26000000E-01  9.34134000E+04  1.39617000E+04  3.16991000E+03  9.02456000E+02
  2.97158000E+02  1.08702000E+02  1.08702000E+02  4.31553000E+01  1.81079000E+01
  5.56009000E+00  2.13183000E+00  4.20403000E-01  1.36045000E-01  4.05000000E-02
  4.95040000E+02  1.17221000E+02  3.77749000E+01  1.40584000E+01  5.56574000E+00
  2.26297000E+00  8.07994000E-01  2.77460000E-01  7.71410000E-02  6.50000000E-01
  8.58850000E+03  1.29723000E+03  2.99296000E+02  8.73771000E+01  2.56789000E+01
  3.74004000E+00  4.21175000E+01  9.62837000E+00  2.85332000E+00  9.05661000E-01
  2.55611000E-01  8.45000000E-02  1.29200000E+00  4.56324000E+03  6.82024000E+02
  1.54973000E+02  4.44553000E+01  1.30290000E+01  1.82773000E+00  2.09642000E+01
  4.80331000E+00  1.45933000E+00  4.83456000E-01  1.45585000E-01  4.38000000E-02
  6.26000000E-01  4.56324000E+03  6.82024000E+02  1.54973000E+02  4.44553000E+01
  1.30290000E+01  1.82773000E+00  2.09642000E+01  4.80331000E+00  1.45933000E+00
  4.83456000E-01  1.45585000E-01  4.38000000E-02  6.26000000E-01  8.58850000E+03
  1.29723000E+03  2.99296000E+02  8.73771000E+01  2.56789000E+01  3.74004000E+00
  4.21175000E+01  9.62837000E+00  2.85332000E+00  9.05661000E-01  2.55611000E-01
  8.45000000E-02  1.29200000E+00  3.38650000E+01  5.09479000E+00  1.15879000E+00
  3.25840000E-01  1.02741000E-01  3.60000000E-02  7.50000000E-01  3.38650000E+01
  5.09479000E+00  1.15879000E+00  3.25840000E-01  1.02741000E-01  3.60000000E-02
  7.50000000E-01  3.38650000E+01  5.09479000E+00  1.15879000E+00  3.25840000E-01
  1.02741000E-01  3.60000000E-02  7.50000000E-01  3.38650000E+01  5.09479000E+00
  1.15879000E+00  3.25840000E-01  1.02741000E-01  3.60000000E-02  7.50000000E-01
  3.38650000E+01  5.09479000E+00  1.15879000E+00  3.25840000E-01  1.02741000E-01
  3.60000000E-02  7.50000000E-01  3.38650000E+01  5.09479000E+00  1.15879000E+00
  3.25840000E-01  1.02741000E-01  3.60000000E-02  7.50000000E-01
Contraction coefficients                   R   N=         144
  1.96665025E-03  1.52306019E-02  7.61269097E-02  2.60801033E-01  6.16462078E-01
  2.21006028E-01  1.14660081E-01  9.19999648E-01 -3.03068213E-03  1.00000000E+00
  1.00000000E+00  1.00000000E+00  1.00000000E+00  1.96665025E-03  1.52306019E-02
  7.61269097E-02  2.60801033E-01  6.16462078E-01  2.21006028E-01  1.14660081E-01
  9.19999648E-01 -3.03068213E-03  1.00000000E+00  1.00000000E+00  1.00000000E+00
  1.00000000E+00  7.42999957E-04  5.79299966E-03  2.99539983E-02  1.19027993E-01
  3.68431979E-01  5.77298966E-01  1.43186060E-01  6.24465262E-01  2.83366119E-01
  1.00000000E+00  1.00000000E+00  1.00000000E+00  1.00000000E+00  1.00000000E+00
  8.30900251E-03  6.40240194E-02  2.77614084E-01  7.45076225E-01  6.13711672E-01
  4.43817763E-01  1.00000000E+00  1.00000000E+00  1.00000000E+00  1.00000000E+00
  1.89515008E-03  1.43859006E-02  7.07320031E-02  2.40001011E-01  5.94797026E-01
  2.80802012E-01  1.13889012E-01  9.20811101E-01 -3.27447036E-03  1.00000000E+00
  1.00000000E+00  1.00000000E+00  1.00000000E+00  1.96665025E-03  1.52306019E-02
  7.61269097E-02  2.60801033E-01  6.16462078E-01  2.21006028E-01  1.14660081E-01
  9.19999648E-01 -3.03068213E-03  1.00000000E+00  1.00000000E+00  1.00000000E+00
  1.00000000E+00  1.96665025E-03  1.52306019E-02  7.61269097E-02  2.60801033E-01
  6.16462078E-01  2.21006028E-01  1.14660081E-01  9.19999648E-01 -3.03068213E-03
  1.00000000E+00  1.00000000E+00  1.00000000E+00  1.00000000E+00  1.89515008E-03
  1.43859006E-02  7.07320031E-02  2.40001011E-01  5.94797026E-01  2.80802012E-01
  1.13889012E-01  9.20811101E-01 -3.27447036E-03  1.00000000E+00  1.00000000E+00
  1.00000000E+00  1.00000000E+00  2.54938145E-02  1.90373109E-01  8.52161486E-01
  1.00000000E+00  1.00000000E+00  1.00000000E+00  1.00000000E+00  2.54938145E-02
  1.90373109E-01  8.52161486E-01  1.00000000E+00  1.00000000E+00  1.00000000E+00
  1.00000000E+00  2.54938145E-02  1.90373109E-01  8.52161486E-01  1.00000000E+00
  1.00000000E+00  1.00000000E+00  1.00000000E+00  2.54938145E-02  1.90373109E-01
  8.52161486E-01  1.00000000E+00  1.00000000E+00  1.00000000E+00  1.00000000E+00
  2.54938145E-02  1.90373109E-01  8.52161486E-01  1.00000000E+00  1.00000000E+00
  1.00000000E+00  1.00000000E+00  2.54938145E-02  1.90373109E-01  8.52161486E-01
  1.00000000E+00  1.00000000E+00  1.00000000E+00  1.00000000E+00
P(S=P) Contraction coefficients            R   N=         144
  0.00000000E+00  0.00000000E+00  0.00000000E+00  0.00000000E+00  0.00000000E+00
  0.00000000E+00  4.02486927E-02  2.37593957E-01  8.15853851E-01  1.00000000E+00
  1.00000000E+00  1.00000000E+00  0.00000000E+00  0.00000000E+00  0.00000000E+00
  0.00000000E+00  0.00000000E+00  0.00000000E+00  0.00000000E+00  4.02486927E-02
  2.37593957E-01  8.15853851E-01  1.00000000E+00  1.00000000E+00  1.00000000E+00
  0.00000000E+00  0.00000000E+00  0.00000000E+00  0.00000000E+00  0.00000000E+00
  0.00000000E+00  0.00000000E+00  0.00000000E+00  0.00000000E+00  0.00000000E+00
  0.00000000E+00  0.00000000E+00  0.00000000E+00  0.00000000E+00  1.00000000E+00
  0.00000000E+00  0.00000000E+00  0.00000000E+00  0.00000000E+00  0.00000000E+00
  0.00000000E+00  0.00000000E+00  0.00000000E+00  0.00000000E+00  0.00000000E+00
  0.00000000E+00  0.00000000E+00  0.00000000E+00  0.00000000E+00  0.00000000E+00
  0.00000000E+00  3.65113974E-02  2.37152983E-01  8.19701941E-01  1.00000000E+00
  1.00000000E+00  1.00000000E+00  0.00000000E+00  0.00000000E+00  0.00000000E+00
  0.00000000E+00  0.00000000E+00  0.00000000E+00  0.00000000E+00  4.02486927E-02
  2.37593957E-01  8.15853851E-01  1.00000000E+00  1.00000000E+00  1.00000000E+00
  0.00000000E+00  0.00000000E+00  0.00000000E+00  0.00000000E+00  0.00000000E+00
  0.00000000E+00  0.00000000E+00  4.02486927E-02  2.37593957E-01  8.15853851E-01
  1.00000000E+00  1.00000000E+00  1.00000000E+00  0.00000000E+00  0.00000000E+00
  0.00000000E+00  0.00000000E+00  0.00000000E+00  0.00000000E+00  0.00000000E+00
  3.65113974E-02  2.37152983E-01  8.19701941E-01  1.00000000E+00  1.00000000E+00
  1.00000000E+00  0.00000000E+00  0.00000000E+00  0.00000000E+00  0.00000000E+00
  0.00000000E+00  0.00000000E+00  0.00000000E+00  0.00000000E+00  0.00000000E+00
  0.00000000E+00  0.00000000E+00  0.00000000E+00  0.00000000E+00  0.00000000E+00
  0.00000000E+00  0.00000000E+00  0.00000000E+00  0.00000000E+00  0.00000000E+00
  0.00000000E+00  0.00000000E+00  0.00000000E+00  0.00000000E+00  0.00000000E+00
  0.00000000E+00  0.00000000E+00  0.00000000E+00  0.00000000E+00  0.00000000E+00
  0.00000000E+00  0.00000000E+00  0.00000000E+00  0.00000000E+00  0.00000000E+00
  0.00000000E+00  0.00000000E+00  0.00000000E+00  0.00000000E+00  0.00000000E+00
  0.00000000E+00  0.00000000E+00  0.00000000E+00  0.00000000E+00
Coordinates of each shell                  R   N=         237
  4.54765901E+00  1.52912436E+00  1.22328202E-02  4.54765901E+00  1.52912436E+00
  1.22328202E-02  4.54765901E+00  1.52912436E+00  1.22328202E-02  4.54765901E+00
  1.52912436E+00  1.22328202E-02  4.54765901E+00  1.52912436E+00  1.22328202E-02
  4.54765901E+00  1.52912436E+00  1.22328202E-02  2.34712140E+00  1.34722044E+00
  1.18373527E+00  2.34712140E+00  1.34722044E+00  1.18373527E+00  2.34712140E+00
  1.34722044E+00  1.18373527E+00  2.34712140E+00  1.34722044E+00  1.18373527E+00
  2.34712140E+00  1.34722044E+00  1.18373527E+00  2.34712140E+00  1.34722044E+00
  1.18373527E+00  2.30705476E-05 -7.50711843E-01 -2.13370285E-04  2.30705476E-05
 -7.50711843E-01 -2.13370285E-04  2.30705476E-05 -7.50711843E-01 -2.13370285E-04
  2.30705476E-05 -7.50711843E-01 -2.13370285E-04  2.30705476E-05 -7.50711843E-01
 -2.13370285E-04  2.30705476E-05 -7.50711843E-01 -2.13370285E-04  2.30705476E-05
 -7.50711843E-01 -2.13370285E-04  2.30705476E-05 -7.50711843E-01 -2.13370285E-04
  2.30705476E-05 -7.50711843E-01 -2.13370285E-04  2.30705476E-05 -7.50711843E-01
 -2.13370285E-04  2.30705476E-05 -7.50711843E-01 -2.13370285E-04  2.30705476E-05
 -7.50711843E-01 -2.13370285E-04  2.30705476E-05 -7.50711843E-01 -2.13370285E-04
  1.06843540E+00 -2.09516597E+00 -2.14773946E+00  1.06843540E+00 -2.09516597E+00
 -2.14773946E+00  1.06843540E+00 -2.09516597E+00 -2.14773946E+00  1.06843540E+00
 -2.09516597E+00 -2.14773946E+00  1.06843540E+00 -2.09516597E+00 -2.14773946E+00
  1.06843540E+00 -2.09516597E+00 -2.14773946E+00 -2.34682890E+00  1.34880077E+00
 -1.18226034E+00 -2.34682890E+00  1.34880077E+00 -1.18226034E+00 -2.34682890E+00
  1.34880077E+00 -1.18226034E+00 -2.34682890E+00  1.34880077E+00 -1.18226034E+00
 -2.34682890E+00  1.34880077E+00 -1.18226034E+00 -2.34682890E+00  1.34880077E+00
 -1.18226034E+00 -4.54780093E+00  1.52923730E+00 -1.13646600E-02 -4.54780093E+00
  1.52923730E+00 -1.13646600E-02 -4.54780093E+00  1.52923730E+00 -1.13646600E-02
 -4.54780093E+00  1.52923730E+00 -1.13646600E-02 -4.54780093E+00  1.52923730E+00
 -1.13646600E-02 -4.54780093E+00  1.52923730E+00 -1.13646600E-02 -1.06854216E+00
 -2.09708370E+00  2.14607816E+00 -1.06854216E+00 -2.09708370E+00  2.14607816E+00
 -1.06854216E+00 -2.09708370E+00  2.14607816E+00 -1.06854216E+00 -2.09708370E+00
  2.14607816E+00 -1.06854216E+00 -2.09708370E+00  2.14607816E+00 -1.06854216E+00
 -2.09708370E+00  2.14607816E+00  6.02569071E+00  2.74964454E+00  7.32242043E-01
  6.02569071E+00  2.74964454E+00  7.32242043E-01  6.02569071E+00  2.74964454E+00
  7.32242043E-01  6.02569071E+00  2.74964454E+00  7.32242043E-01  6.02569071E+00
  2.74964454E+00  7.32242043E-01  4.91043541E+00  4.32186851E-01 -1.68181863E+00
  4.91043541E+00  4.32186851E-01 -1.68181863E+00  4.91043541E+00  4.32186851E-01
 -1.68181863E+00  4.91043541E+00  4.32186851E-01 -1.68181863E+00  4.91043541E+00
  4.32186851E-01 -1.68181863E+00  1.80296302E+00  2.32911912E+00  2.89613393E+00
  1.80296302E+00  2.32911912E+00  2.89613393E+00  1.80296302E+00  2.32911912E+00
  2.89613393E+00  1.80296302E+00  2.32911912E+00  2.89613393E+00  1.80296302E+00
  2.32911912E+00  2.89613393E+00 -1.80211454E+00  2.33274041E+00 -2.89330002E+00
 -1.80211454E+00  2.33274041E+00 -2.89330002E+00 -1.80211454E+00  2.33274041E+00
 -2.89330002E+00 -1.80211454E+00  2.33274041E+00 -2.89330002E+00 -1.80211454E+00
  2.33274041E+00 -2.89330002E+00 -6.02590127E+00  2.74964166E+00 -7.31427818E-01
 -6.02590127E+00  2.74964166E+00 -7.31427818E-01 -6.02590127E+00  2.74964166E+00
 -7.31427818E-01 -6.02590127E+00  2.74964166E+00 -7.31427818E-01 -6.02590127E+00
  2.74964166E+00 -7.31427818E-01 -4.91149176E+00  4.29757021E-01  1.68081638E+00
 -4.91149176E+00  4.29757021E-01  1.68081638E+00 -4.91149176E+00  4.29757021E-01
  1.68081638E+00 -4.91149176E+00  4.29757021E-01  1.68081638E+00 -4.91149176E+00
  4.29757021E-01  1.68081638E+00
Num ILSW                                   I              100
ILSW                                       I   N=         100
           0           0           0           0           2           0
           0           0           0           0        4336          -1
           5           0           0           0           2           0
           0           0           0           0           1           0
           1           0           0           0           0           0
           0           0      100000           0          -1           0
           0           0           0           0           0           0
           0           0           0           1           0           0
           0 -2000000000           1           0           0           0
           0           0           4          52           0           0
           0           0          55           0           0           0
           0           0           0          13           0           1
           0           0           0           0           0           0
           0           0           0           0           0           0
           0           0           0           0           0           0
           0           0           0           0           0           0
           0           0           0           0
Num RLSW                                   I               52
RLSW                                       R   N=          52
  1.00000000E+00  1.00000000E+00  1.00000000E+00  1.00000000E+00  5.40000000E-01
  0.00000000E+00  0.00000000E+00  1.00000000E+00  0.00000000E+00  0.00000000E+00
  0.00000000E+00  0.00000000E+00  1.00000000E+00  0.00000000E+00  0.00000000E+00
  0.00000000E+00  0.00000000E+00  1.00000000E+00  0.00000000E+00  0.00000000E+00
  0.00000000E+00  0.00000000E+00  1.00000000E+00  0.00000000E+00  0.00000000E+00
  0.00000000E+00  0.00000000E+00  1.00000000E+00  0.00000000E+00  0.00000000E+00
  0.00000000E+00  0.00000000E+00  1.00000000E+00  0.00000000E+00  0.00000000E+00
  0.00000000E+00  0.00000000E+00  0.00000000E+00  1.00000000E+00  1.00000000E+00
  0.00000000E+00  1.00000000E+00  0.00000000E+00  0.00000000E+00  0.00000000E+00