 Entering Gaussian System, Link 0=/apps/cent7/gaussian/g16-A.03/g16-haswell/g16/g16
 Initial command:
 /apps/cent7/gaussian/g16-A.03/g16-haswell/g16/l1.exe "/scratch/brown/finej/gaussian/Gau-292682.inp" -scrdir="/scratch/brown/finej/gaussian/"
 Entering Link 1 = /apps/cent7/gaussian/g16-A.03/g16-haswell/g16/l1.exe PID=    292685.
  
 Copyright (c) 1988,1990,1992,1993,1995,1998,2003,2009,2016,
            Gaussian, Inc.  All Rights Reserved.
  
 This is part of the Gaussian(R) 16 program.  It is based on
 the Gaussian(R) 09 system (copyright 2009, Gaussian, Inc.),
 the Gaussian(R) 03 system (copyright 2003, Gaussian, Inc.),
 the Gaussian(R) 98 system (copyright 1998, Gaussian, Inc.),
 the Gaussian(R) 94 system (copyright 1995, Gaussian, Inc.),
 the Gaussian 92(TM) system (copyright 1992, Gaussian, Inc.),
 the Gaussian 90(TM) system (copyright 1990, Gaussian, Inc.),
 the Gaussian 88(TM) system (copyright 1988, Gaussian, Inc.),
 the Gaussian 86(TM) system (copyright 1986, Carnegie Mellon
 University), and the Gaussian 82(TM) system (copyright 1983,
 Carnegie Mellon University). Gaussian is a federally registered
 trademark of Gaussian, Inc.
  
 This software contains proprietary and confidential information,
 including trade secrets, belonging to Gaussian, Inc.
  
 This software is provided under written license and may be
 used, copied, transmitted, or stored only in accord with that
 written license.
  
 The following legend is applicable only to US Government
 contracts under FAR:
  
                    RESTRICTED RIGHTS LEGEND
  
 Use, reproduction and disclosure by the US Government is
 subject to restrictions as set forth in subparagraphs (a)
 and (c) of the Commercial Computer Software - Restricted
 Rights clause in FAR 52.227-19.
  
 Gaussian, Inc.
 340 Quinnipiac St., Bldg. 40, Wallingford CT 06492
  
  
 ---------------------------------------------------------------
 Warning -- This program may not be used in any manner that
 competes with the business of Gaussian, Inc. or will provide
 assistance to any competitor of Gaussian, Inc.  The licensee
 of this program is prohibited from giving any competitor of
 Gaussian, Inc. access to this program.  By using this program,
 the user acknowledges that Gaussian, Inc. is engaged in the
 business of creating and licensing software in the field of
 computational chemistry and represents and warrants to the
 licensee that it is not a competitor of Gaussian, Inc. and that
 it will not use this program in any manner prohibited above.
 ---------------------------------------------------------------
  

 Cite this work as:
 Gaussian 16, Revision A.03,
 M. J. Frisch, G. W. Trucks, H. B. Schlegel, G. E. Scuseria, 
 M. A. Robb, J. R. Cheeseman, G. Scalmani, V. Barone, 
 G. A. Petersson, H. Nakatsuji, X. Li, M. Caricato, A. V. Marenich, 
 J. Bloino, B. G. Janesko, R. Gomperts, B. Mennucci, H. P. Hratchian, 
 J. V. Ortiz, A. F. Izmaylov, J. L. Sonnenberg, D. Williams-Young, 
 F. Ding, F. Lipparini, F. Egidi, J. Goings, B. Peng, A. Petrone, 
 T. Henderson, D. Ranasinghe, V. G. Zakrzewski, J. Gao, N. Rega, 
 G. Zheng, W. Liang, M. Hada, M. Ehara, K. Toyota, R. Fukuda, 
 J. Hasegawa, M. Ishida, T. Nakajima, Y. Honda, O. Kitao, H. Nakai, 
 T. Vreven, K. Throssell, J. A. Montgomery, Jr., J. E. Peralta, 
 F. Ogliaro, M. J. Bearpark, J. J. Heyd, E. N. Brothers, K. N. Kudin, 
 V. N. Staroverov, T. A. Keith, R. Kobayashi, J. Normand, 
 K. Raghavachari, A. P. Rendell, J. C. Burant, S. S. Iyengar, 
 J. Tomasi, M. Cossi, J. M. Millam, M. Klene, C. Adamo, R. Cammi, 
 J. W. Ochterski, R. L. Martin, K. Morokuma, O. Farkas, 
 J. B. Foresman, and D. J. Fox, Gaussian, Inc., Wallingford CT, 2016.
 
 ******************************************
 Gaussian 16:  ES64L-G16RevA.03 25-Dec-2016
                13-Oct-2019 
 ******************************************
 %chk=28.chk
 %nprocshared=24
 Will use up to   24 processors via shared memory.
 %mem=80GB
 -------------------------------------------------------------------
 #P opt freq m062x/6-311++g(d,p) geom=connectivity temperature=0.001
 -------------------------------------------------------------------
 1/18=20,19=15,26=3,38=1,57=2,112=-1000/1,3;
 2/9=110,12=2,17=6,18=5,40=1/2;
 3/5=4,6=6,7=1111,11=2,25=1,30=1,71=1,74=-55/1,2,3;
 4//1;
 5/5=2,38=5/2;
 6/7=2,8=2,9=2,10=2,28=1/1;
 7//1,2,3,16;
 1/18=20,19=15,26=3/3(2);
 2/9=110/2;
 99//99;
 2/9=110/2;
 3/5=4,6=6,7=1111,11=2,25=1,30=1,71=1,74=-55/1,2,3;
 4/5=5,16=3,69=1/1;
 5/5=2,38=5/2;
 7//1,2,3,16;
 1/18=20,19=15,26=3/3(-5);
 2/9=110/2;
 6/7=2,8=2,9=2,10=2,19=2,28=1/1;
 99/9=1/99;
 Leave Link    1 at Sun Oct 13 22:10:52 2019, MaxMem= 10737418240 cpu:               0.9 elap:               0.0
 (Enter /apps/cent7/gaussian/g16-A.03/g16-haswell/g16/l101.exe)
 -------------------
 Title Card Required
 -------------------
 Symbolic Z-matrix:
 Charge =  0 Multiplicity = 1
 C                     4.1742    0.5731    1.4406 
 C                     3.0409    1.2787    1.3893 
 S                     2.5625    2.1726   -0.0341 
 O                     2.9124    1.3333   -1.3604 
 C                     3.3809    3.7157   -0.0811 
 C                     3.2391    4.6176    0.8945 
 O                     0.9724    2.4106   -0.0107 
 H                     4.1376   -0.5161    1.4616 
 H                     5.1354    1.0866    1.4616 
 H                     2.5748    1.1447    2.3654 
 H                     4.0595    4.1689   -0.8037 
 H                     4.1154    4.9854    1.4282 
 H                     2.2471    4.9854    1.1566 
 
 ITRead=  0  0  0  0  0  0  0  0  0  0  0  0  0
 MicOpt= -1 -1 -1 -1 -1 -1 -1 -1 -1 -1 -1 -1 -1
 NAtoms=     13 NQM=       13 NQMF=       0 NMMI=      0 NMMIF=      0
                NMic=       0 NMicF=      0.
                    Isotopes and Nuclear Properties:
 (Nuclear quadrupole moments (NQMom) in fm**2, nuclear magnetic moments (NMagM)
  in nuclear magnetons)

  Atom         1           2           3           4           5           6           7           8           9          10
 IAtWgt=          12          12          32          16          12          12          16           1           1           1
 AtmWgt=  12.0000000  12.0000000  31.9720718  15.9949146  12.0000000  12.0000000  15.9949146   1.0078250   1.0078250   1.0078250
 NucSpn=           0           0           0           0           0           0           0           1           1           1
 AtZEff=  -0.0000000  -0.0000000  -0.0000000  -0.0000000  -0.0000000  -0.0000000  -0.0000000  -0.0000000  -0.0000000  -0.0000000
 NQMom=    0.0000000   0.0000000   0.0000000   0.0000000   0.0000000   0.0000000   0.0000000   0.0000000   0.0000000   0.0000000
 NMagM=    0.0000000   0.0000000   0.0000000   0.0000000   0.0000000   0.0000000   0.0000000   2.7928460   2.7928460   2.7928460
 AtZNuc=   6.0000000   6.0000000  16.0000000   8.0000000   6.0000000   6.0000000   8.0000000   1.0000000   1.0000000   1.0000000

  Atom        11          12          13
 IAtWgt=           1           1           1
 AtmWgt=   1.0078250   1.0078250   1.0078250
 NucSpn=           1           1           1
 AtZEff=  -0.0000000  -0.0000000  -0.0000000
 NQMom=    0.0000000   0.0000000   0.0000000
 NMagM=    2.7928460   2.7928460   2.7928460
 AtZNuc=   1.0000000   1.0000000   1.0000000
 Leave Link  101 at Sun Oct 13 22:10:53 2019, MaxMem= 10737418240 cpu:               9.0 elap:               0.4
 (Enter /apps/cent7/gaussian/g16-A.03/g16-haswell/g16/l103.exe)

 GradGradGradGradGradGradGradGradGradGradGradGradGradGradGradGradGradGrad
 Berny optimization.
 Initialization pass.
                           ----------------------------
                           !    Initial Parameters    !
                           ! (Angstroms and Degrees)  !
 --------------------------                            --------------------------
 ! Name  Definition              Value          Derivative Info.                !
 --------------------------------------------------------------------------------
 ! R1    R(1,2)                  1.336          estimate D2E/DX2                !
 ! R2    R(1,8)                  1.09           estimate D2E/DX2                !
 ! R3    R(1,9)                  1.09           estimate D2E/DX2                !
 ! R4    R(2,3)                  1.7476         estimate D2E/DX2                !
 ! R5    R(2,10)                 1.0899         estimate D2E/DX2                !
 ! R6    R(3,4)                  1.6081         estimate D2E/DX2                !
 ! R7    R(3,5)                  1.7473         estimate D2E/DX2                !
 ! R8    R(3,7)                  1.608          estimate D2E/DX2                !
 ! R9    R(5,6)                  1.3362         estimate D2E/DX2                !
 ! R10   R(5,11)                 1.09           estimate D2E/DX2                !
 ! R11   R(6,12)                 1.09           estimate D2E/DX2                !
 ! R12   R(6,13)                 1.09           estimate D2E/DX2                !
 ! A1    A(2,1,8)              120.0005         estimate D2E/DX2                !
 ! A2    A(2,1,9)              119.9994         estimate D2E/DX2                !
 ! A3    A(8,1,9)              120.0001         estimate D2E/DX2                !
 ! A4    A(1,2,3)              122.2523         estimate D2E/DX2                !
 ! A5    A(1,2,10)             105.2742         estimate D2E/DX2                !
 ! A6    A(3,2,10)             132.4735         estimate D2E/DX2                !
 ! A7    A(2,3,4)              110.1966         estimate D2E/DX2                !
 ! A8    A(2,3,5)              110.2073         estimate D2E/DX2                !
 ! A9    A(2,3,7)              109.546          estimate D2E/DX2                !
 ! A10   A(4,3,5)              109.6837         estimate D2E/DX2                !
 ! A11   A(4,3,7)              107.7234         estimate D2E/DX2                !
 ! A12   A(5,3,7)              109.4414         estimate D2E/DX2                !
 ! A13   A(3,5,6)              121.7865         estimate D2E/DX2                !
 ! A14   A(3,5,11)             132.5807         estimate D2E/DX2                !
 ! A15   A(6,5,11)             105.6328         estimate D2E/DX2                !
 ! A16   A(5,6,12)             119.998          estimate D2E/DX2                !
 ! A17   A(5,6,13)             119.9955         estimate D2E/DX2                !
 ! A18   A(12,6,13)            120.0065         estimate D2E/DX2                !
 ! D1    D(8,1,2,3)           -110.0253         estimate D2E/DX2                !
 ! D2    D(8,1,2,10)            69.9672         estimate D2E/DX2                !
 ! D3    D(9,1,2,3)             69.9836         estimate D2E/DX2                !
 ! D4    D(9,1,2,10)          -110.024          estimate D2E/DX2                !
 ! D5    D(1,2,3,4)             39.4596         estimate D2E/DX2                !
 ! D6    D(1,2,3,5)            -81.7274         estimate D2E/DX2                !
 ! D7    D(1,2,3,7)            157.806          estimate D2E/DX2                !
 ! D8    D(10,2,3,4)          -140.5305         estimate D2E/DX2                !
 ! D9    D(10,2,3,5)            98.2825         estimate D2E/DX2                !
 ! D10   D(10,2,3,7)           -22.1841         estimate D2E/DX2                !
 ! D11   D(2,3,5,6)            -59.7098         estimate D2E/DX2                !
 ! D12   D(2,3,5,11)           120.2881         estimate D2E/DX2                !
 ! D13   D(4,3,5,6)            178.7976         estimate D2E/DX2                !
 ! D14   D(4,3,5,11)            -1.2045         estimate D2E/DX2                !
 ! D15   D(7,3,5,6)             60.8197         estimate D2E/DX2                !
 ! D16   D(7,3,5,11)          -119.1824         estimate D2E/DX2                !
 ! D17   D(3,5,6,12)           122.7307         estimate D2E/DX2                !
 ! D18   D(3,5,6,13)           -57.2654         estimate D2E/DX2                !
 ! D19   D(11,5,6,12)          -57.2676         estimate D2E/DX2                !
 ! D20   D(11,5,6,13)          122.7363         estimate D2E/DX2                !
 --------------------------------------------------------------------------------
 Trust Radius=3.00D-01 FncErr=1.00D-07 GrdErr=1.00D-06 EigMax=2.50D+02 EigMin=1.00D-04
 Number of steps in this run=     60 maximum allowed number of steps=    100.
 GradGradGradGradGradGradGradGradGradGradGradGradGradGradGradGradGradGrad

 Leave Link  103 at Sun Oct 13 22:10:53 2019, MaxMem= 10737418240 cpu:               0.2 elap:               0.0
 (Enter /apps/cent7/gaussian/g16-A.03/g16-haswell/g16/l202.exe)
                          Input orientation:                          
 ---------------------------------------------------------------------
 Center     Atomic      Atomic             Coordinates (Angstroms)
 Number     Number       Type             X           Y           Z
 ---------------------------------------------------------------------
      1          6           0        4.174200    0.573100    1.440600
      2          6           0        3.040900    1.278700    1.389300
      3         16           0        2.562500    2.172600   -0.034100
      4          8           0        2.912400    1.333300   -1.360400
      5          6           0        3.380900    3.715700   -0.081100
      6          6           0        3.239100    4.617600    0.894500
      7          8           0        0.972400    2.410600   -0.010700
      8          1           0        4.137600   -0.516100    1.461600
      9          1           0        5.135400    1.086600    1.461600
     10          1           0        2.574800    1.144700    2.365400
     11          1           0        4.059500    4.168900   -0.803700
     12          1           0        4.115400    4.985400    1.428200
     13          1           0        2.247100    4.985400    1.156600
 ---------------------------------------------------------------------
                    Distance matrix (angstroms):
                    1          2          3          4          5
     1  C    0.000000
     2  C    1.335991   0.000000
     3  S    2.707530   1.747567   0.000000
     4  O    3.164750   2.753242   1.608082   0.000000
     5  C    3.580619   2.866469   1.747325   2.744436   0.000000
     6  C    4.186958   3.381178   2.701502   3.997241   1.336161
     7  O    3.966636   2.742242   1.607983   2.597280   2.740276
     8  H    1.090017   2.104587   3.456467   3.589579   4.567346
     9  H    1.089967   2.104533   3.168017   3.600871   3.517152
    10  H    1.933924   1.089943   2.610427   3.745815   3.639396
    11  H    4.240261   3.768296   2.611227   3.109080   1.089972
    12  H    4.412709   3.859493   3.530108   4.749877   2.104665
    13  H    4.823149   3.797880   3.070682   4.485058   2.104648
                    6          7          8          9         10
     6  C    0.000000
     7  O    3.290618   0.000000
     8  H    5.242498   4.555407   0.000000
     9  H    4.047903   4.609904   1.887923   0.000000
    10  H    3.829605   3.133056   2.453050   2.716045   0.000000
    11  H    1.938626   3.640145   5.204508   3.973628   4.625291
    12  H    1.089961   4.310276   5.501646   4.030156   4.242967
    13  H    1.089971   3.101136   5.825248   4.861681   4.039748
                   11         12         13
    11  H    0.000000
    12  H    2.377220   0.000000
    13  H    2.791817   1.887938   0.000000
 Stoichiometry    C4H6O2S
 Framework group  C1[X(C4H6O2S)]
 Deg. of freedom    33
 Full point group                 C1      NOp   1
 Largest Abelian subgroup         C1      NOp   1
 Largest concise Abelian subgroup C1      NOp   1
                         Standard orientation:                         
 ---------------------------------------------------------------------
 Center     Atomic      Atomic             Coordinates (Angstroms)
 Number     Number       Type             X           Y           Z
 ---------------------------------------------------------------------
      1          6           0        2.091361    1.275286   -0.036340
      2          6           0        1.169652    0.646528    0.698498
      3         16           0        0.003303   -0.448018   -0.005484
      4          8           0        0.698330   -1.339359   -1.149326
      5          6           0       -1.331196    0.449650   -0.688456
      6          6           0       -2.094471    1.252985    0.058130
      7          8           0       -0.547949   -1.447814    1.126832
      8          1           0        3.141856    0.998749    0.053798
      9          1           0        1.792898    2.064887   -0.725890
     10          1           0        1.343688    0.977732    1.722212
     11          1           0       -1.734927    0.516399   -1.698696
     12          1           0       -2.195980    2.306173   -0.203601
     13          1           0       -2.615495    0.855035    0.928882
 ---------------------------------------------------------------------
 Rotational constants (GHZ):           2.7037363           2.0578462           1.6207436
 Leave Link  202 at Sun Oct 13 22:10:53 2019, MaxMem= 10737418240 cpu:               0.4 elap:               0.0
 (Enter /apps/cent7/gaussian/g16-A.03/g16-haswell/g16/l301.exe)
 Standard basis: 6-311++G(d,p) (5D, 7F)
 Ernie: Thresh=  0.10000D-02 Tol=  0.10000D-05 Strict=F.
 There are   211 symmetry adapted cartesian basis functions of A   symmetry.
 There are   204 symmetry adapted basis functions of A   symmetry.
   204 basis functions,   320 primitive gaussians,   211 cartesian basis functions
    31 alpha electrons       31 beta electrons
       nuclear repulsion energy       377.8589237989 Hartrees.
 IExCor= 4336 DFT=T Ex+Corr=M062X ExCW=0 ScaHFX=  0.540000
 ScaDFX=  1.000000  1.000000  1.000000  1.000000 ScalE2=  1.000000  1.000000
 IRadAn=      5 IRanWt=     -1 IRanGd=            0 ICorTp=0 IEmpDi=  4
 NAtoms=   13 NActive=   13 NUniq=   13 SFac= 1.00D+00 NAtFMM=   60 NAOKFM=F Big=F
 Integral buffers will be    131072 words long.
 Raffenetti 2 integral format.
 Two-electron integral symmetry is turned on.
 Leave Link  301 at Sun Oct 13 22:10:53 2019, MaxMem= 10737418240 cpu:               1.4 elap:               0.1
 (Enter /apps/cent7/gaussian/g16-A.03/g16-haswell/g16/l302.exe)
 NPDir=0 NMtPBC=     1 NCelOv=     1 NCel=       1 NClECP=     1 NCelD=      1
         NCelK=      1 NCelE2=     1 NClLst=     1 CellRange=     0.0.
 One-electron integrals computed using PRISM.
 One-electron integral symmetry used in STVInt
 NBasis=   204 RedAO= T EigKep=  3.23D-05  NBF=   204
 NBsUse=   204 1.00D-06 EigRej= -1.00D+00 NBFU=   204
 Precomputing XC quadrature grid using
 IXCGrd= 4 IRadAn=           5 IRanWt=          -1 IRanGd=           0 AccXCQ= 0.00D+00.
 Generated NRdTot=       0 NPtTot=           0 NUsed=           0 NTot=          32
 NSgBfM=   211   211   211   211   211 MxSgAt=    13 MxSgA2=    13.
 Leave Link  302 at Sun Oct 13 22:10:53 2019, MaxMem= 10737418240 cpu:               3.9 elap:               0.2
 (Enter /apps/cent7/gaussian/g16-A.03/g16-haswell/g16/l303.exe)
 DipDrv:  MaxL=1.
 Leave Link  303 at Sun Oct 13 22:10:53 2019, MaxMem= 10737418240 cpu:               1.2 elap:               0.1
 (Enter /apps/cent7/gaussian/g16-A.03/g16-haswell/g16/l401.exe)
 ExpMin= 3.60D-02 ExpMax= 9.34D+04 ExpMxC= 3.17D+03 IAcc=3 IRadAn=         5 AccDes= 0.00D+00
 Harris functional with IExCor= 1009 and IRadAn=       5 diagonalized for initial guess.
 HarFok:  IExCor= 1009 AccDes= 0.00D+00 IRadAn=         5 IDoV= 1 UseB2=F ITyADJ=14
 ICtDFT=  3500011 ScaDFX=  1.000000  1.000000  1.000000  1.000000
 FoFCou: FMM=F IPFlag=           0 FMFlag=      100000 FMFlg1=           0
         NFxFlg=           0 DoJE=T BraDBF=F KetDBF=T FulRan=T
         wScrn=  0.000000 ICntrl=       500 IOpCl=  0 I1Cent=   200000004 NGrid=           0
         NMat0=    1 NMatS0=      1 NMatT0=    0 NMatD0=    1 NMtDS0=    0 NMtDT0=    0
 Petite list used in FoFCou.
 Harris En= -704.095540336580    
 JPrj=0 DoOrth=F DoCkMO=F.
 Leave Link  401 at Sun Oct 13 22:10:53 2019, MaxMem= 10737418240 cpu:               7.2 elap:               0.3
 (Enter /apps/cent7/gaussian/g16-A.03/g16-haswell/g16/l502.exe)
 Integral symmetry usage will be decided dynamically.
 Closed shell SCF:
 Using DIIS extrapolation, IDIIS=  1040.
 NGot= 10737418240 LenX= 10737322010 LenY= 10737277048
 Requested convergence on RMS density matrix=1.00D-08 within 128 cycles.
 Requested convergence on MAX density matrix=1.00D-06.
 Requested convergence on             energy=1.00D-06.
 No special actions if energy rises.
 Fock matrices will be formed incrementally for  20 cycles.

 Cycle   1  Pass 1  IDiag  1:
 FoFJK:  IHMeth= 1 ICntrl=       0 DoSepK=F KAlg= 0 I1Cent=           0 FoldK=F
 IRaf= 970000000 NMat=       1 IRICut=       1 DoRegI=T DoRafI=F ISym2E= 0 IDoP0=0 IntGTp=1.
 FoFCou: FMM=F IPFlag=           0 FMFlag=      100000 FMFlg1=           0
         NFxFlg=           0 DoJE=F BraDBF=F KetDBF=F FulRan=T
         wScrn=  0.000000 ICntrl=         0 IOpCl=  0 I1Cent=           0 NGrid=           0
         NMat0=    1 NMatS0=      1 NMatT0=    0 NMatD0=    1 NMtDS0=    0 NMtDT0=    0
 Symmetry not used in FoFCou.
 E= -703.859594885899    
 DIIS: error= 5.41D-02 at cycle   1 NSaved=   1.
 NSaved= 1 IEnMin= 1 EnMin= -703.859594885899     IErMin= 1 ErrMin= 5.41D-02
 ErrMax= 5.41D-02  0.00D+00 EMaxC= 1.00D-01 BMatC= 5.85D-01 BMatP= 5.85D-01
 IDIUse=3 WtCom= 4.59D-01 WtEn= 5.41D-01
 Coeff-Com:  0.100D+01
 Coeff-En:   0.100D+01
 Coeff:      0.100D+01
 Gap=     0.223 Goal=   None    Shift=    0.000
 GapD=    0.223 DampG=1.000 DampE=0.500 DampFc=0.5000 IDamp=-1.
 Damping current iteration by 5.00D-01
 RMSDP=4.50D-02 MaxDP=2.88D+00              OVMax= 2.89D-01

 Cycle   2  Pass 1  IDiag  1:
 RMSU=  1.86D-02    CP:  1.57D+00
 E= -703.947836871551     Delta-E=       -0.088241985652 Rises=F Damp=T
 DIIS: error= 2.09D-02 at cycle   2 NSaved=   2.
 NSaved= 2 IEnMin= 2 EnMin= -703.947836871551     IErMin= 2 ErrMin= 2.09D-02
 ErrMax= 2.09D-02  0.00D+00 EMaxC= 1.00D-01 BMatC= 8.68D-02 BMatP= 5.85D-01
 IDIUse=3 WtCom= 7.91D-01 WtEn= 2.09D-01
 Coeff-Com:  0.202D+00 0.798D+00
 Coeff-En:   0.387D+00 0.613D+00
 Coeff:      0.241D+00 0.759D+00
 Gap=     0.257 Goal=   None    Shift=    0.000
 RMSDP=1.14D-02 MaxDP=7.14D-01 DE=-8.82D-02 OVMax= 2.35D-01

 Cycle   3  Pass 1  IDiag  1:
 RMSU=  3.46D-03    CP:  1.31D+00  5.08D-01
 E= -704.231904048245     Delta-E=       -0.284067176694 Rises=F Damp=F
 DIIS: error= 1.29D-02 at cycle   3 NSaved=   3.
 NSaved= 3 IEnMin= 3 EnMin= -704.231904048245     IErMin= 3 ErrMin= 1.29D-02
 ErrMax= 1.29D-02  0.00D+00 EMaxC= 1.00D-01 BMatC= 3.70D-02 BMatP= 8.68D-02
 IDIUse=3 WtCom= 8.71D-01 WtEn= 1.29D-01
 Coeff-Com:  0.320D-01 0.386D+00 0.582D+00
 Coeff-En:   0.000D+00 0.000D+00 0.100D+01
 Coeff:      0.278D-01 0.336D+00 0.636D+00
 Gap=     0.212 Goal=   None    Shift=    0.000
 RMSDP=3.01D-03 MaxDP=1.32D-01 DE=-2.84D-01 OVMax= 5.05D-02

 Cycle   4  Pass 1  IDiag  1:
 RMSU=  1.93D-03    CP:  1.35D+00  6.12D-01  7.22D-01
 E= -704.262812823423     Delta-E=       -0.030908775178 Rises=F Damp=F
 DIIS: error= 3.00D-03 at cycle   4 NSaved=   4.
 NSaved= 4 IEnMin= 4 EnMin= -704.262812823423     IErMin= 4 ErrMin= 3.00D-03
 ErrMax= 3.00D-03  0.00D+00 EMaxC= 1.00D-01 BMatC= 4.62D-03 BMatP= 3.70D-02
 IDIUse=3 WtCom= 9.70D-01 WtEn= 3.00D-02
 Coeff-Com: -0.507D-02 0.256D-01 0.274D+00 0.706D+00
 Coeff-En:   0.000D+00 0.000D+00 0.671D-01 0.933D+00
 Coeff:     -0.491D-02 0.249D-01 0.267D+00 0.713D+00
 Gap=     0.210 Goal=   None    Shift=    0.000
 RMSDP=8.70D-04 MaxDP=3.75D-02 DE=-3.09D-02 OVMax= 1.76D-02

 Cycle   5  Pass 1  IDiag  1:
 RMSU=  2.77D-04    CP:  1.33D+00  5.82D-01  8.25D-01  7.98D-01
 E= -704.267062448123     Delta-E=       -0.004249624700 Rises=F Damp=F
 DIIS: error= 4.43D-04 at cycle   5 NSaved=   5.
 NSaved= 5 IEnMin= 5 EnMin= -704.267062448123     IErMin= 5 ErrMin= 4.43D-04
 ErrMax= 4.43D-04  0.00D+00 EMaxC= 1.00D-01 BMatC= 1.09D-04 BMatP= 4.62D-03
 IDIUse=3 WtCom= 9.96D-01 WtEn= 4.43D-03
 Coeff-Com: -0.167D-02-0.422D-02 0.679D-01 0.240D+00 0.698D+00
 Coeff-En:   0.000D+00 0.000D+00 0.000D+00 0.000D+00 0.100D+01
 Coeff:     -0.167D-02-0.420D-02 0.676D-01 0.239D+00 0.699D+00
 Gap=     0.207 Goal=   None    Shift=    0.000
 RMSDP=1.75D-04 MaxDP=7.23D-03 DE=-4.25D-03 OVMax= 5.47D-03

 Cycle   6  Pass 1  IDiag  1:
 RMSU=  1.28D-04    CP:  1.33D+00  5.79D-01  8.29D-01  8.35D-01  8.27D-01
 E= -704.267181439473     Delta-E=       -0.000118991350 Rises=F Damp=F
 DIIS: error= 1.85D-04 at cycle   6 NSaved=   6.
 NSaved= 6 IEnMin= 6 EnMin= -704.267181439473     IErMin= 6 ErrMin= 1.85D-04
 ErrMax= 1.85D-04  0.00D+00 EMaxC= 1.00D-01 BMatC= 2.33D-05 BMatP= 1.09D-04
 IDIUse=3 WtCom= 9.98D-01 WtEn= 1.85D-03
 Coeff-Com:  0.156D-03-0.519D-02-0.288D-02 0.206D-01 0.310D+00 0.678D+00
 Coeff-En:   0.000D+00 0.000D+00 0.000D+00 0.000D+00 0.000D+00 0.100D+01
 Coeff:      0.156D-03-0.518D-02-0.288D-02 0.206D-01 0.309D+00 0.678D+00
 Gap=     0.207 Goal=   None    Shift=    0.000
 RMSDP=1.29D-04 MaxDP=7.78D-03 DE=-1.19D-04 OVMax= 2.39D-03

 Cycle   7  Pass 1  IDiag  1:
 RMSU=  6.44D-05    CP:  1.33D+00  5.75D-01  8.32D-01  8.45D-01  1.02D+00
                    CP:  9.04D-01
 E= -704.267207051846     Delta-E=       -0.000025612373 Rises=F Damp=F
 DIIS: error= 1.47D-04 at cycle   7 NSaved=   7.
 NSaved= 7 IEnMin= 7 EnMin= -704.267207051846     IErMin= 7 ErrMin= 1.47D-04
 ErrMax= 1.47D-04  0.00D+00 EMaxC= 1.00D-01 BMatC= 7.73D-06 BMatP= 2.33D-05
 IDIUse=3 WtCom= 9.99D-01 WtEn= 1.47D-03
 Coeff-Com:  0.322D-03-0.245D-02-0.156D-01-0.343D-01 0.623D-01 0.408D+00
 Coeff-Com:  0.581D+00
 Coeff-En:   0.000D+00 0.000D+00 0.000D+00 0.000D+00 0.000D+00 0.000D+00
 Coeff-En:   0.100D+01
 Coeff:      0.321D-03-0.245D-02-0.156D-01-0.343D-01 0.622D-01 0.408D+00
 Coeff:      0.582D+00
 Gap=     0.208 Goal=   None    Shift=    0.000
 RMSDP=5.44D-05 MaxDP=3.19D-03 DE=-2.56D-05 OVMax= 1.47D-03

 Cycle   8  Pass 1  IDiag  1:
 RMSU=  2.93D-05    CP:  1.33D+00  5.74D-01  8.34D-01  8.44D-01  1.05D+00
                    CP:  1.09D+00  5.72D-01
 E= -704.267216569816     Delta-E=       -0.000009517970 Rises=F Damp=F
 DIIS: error= 5.84D-05 at cycle   8 NSaved=   8.
 NSaved= 8 IEnMin= 8 EnMin= -704.267216569816     IErMin= 8 ErrMin= 5.84D-05
 ErrMax= 5.84D-05  0.00D+00 EMaxC= 1.00D-01 BMatC= 8.37D-07 BMatP= 7.73D-06
 IDIUse=1 WtCom= 1.00D+00 WtEn= 0.00D+00
 Coeff-Com: -0.421D-04 0.259D-03-0.674D-02-0.201D-01-0.360D-01 0.187D-01
 Coeff-Com:  0.244D+00 0.800D+00
 Coeff:     -0.421D-04 0.259D-03-0.674D-02-0.201D-01-0.360D-01 0.187D-01
 Coeff:      0.244D+00 0.800D+00
 Gap=     0.208 Goal=   None    Shift=    0.000
 RMSDP=3.29D-05 MaxDP=1.57D-03 DE=-9.52D-06 OVMax= 8.19D-04

 Cycle   9  Pass 1  IDiag  1:
 RMSU=  1.06D-05    CP:  1.32D+00  5.73D-01  8.35D-01  8.46D-01  1.09D+00
                    CP:  1.12D+00  7.38D-01  1.09D+00
 E= -704.267217987647     Delta-E=       -0.000001417831 Rises=F Damp=F
 DIIS: error= 2.70D-05 at cycle   9 NSaved=   9.
 NSaved= 9 IEnMin= 9 EnMin= -704.267217987647     IErMin= 9 ErrMin= 2.70D-05
 ErrMax= 2.70D-05  0.00D+00 EMaxC= 1.00D-01 BMatC= 3.30D-07 BMatP= 8.37D-07
 IDIUse=1 WtCom= 1.00D+00 WtEn= 0.00D+00
 Coeff-Com: -0.104D-03 0.637D-03-0.213D-02-0.808D-02-0.349D-01-0.566D-01
 Coeff-Com:  0.680D-01 0.506D+00 0.527D+00
 Coeff:     -0.104D-03 0.637D-03-0.213D-02-0.808D-02-0.349D-01-0.566D-01
 Coeff:      0.680D-01 0.506D+00 0.527D+00
 Gap=     0.208 Goal=   None    Shift=    0.000
 RMSDP=1.07D-05 MaxDP=5.57D-04 DE=-1.42D-06 OVMax= 3.07D-04

 Cycle  10  Pass 1  IDiag  1:
 RMSU=  5.02D-06    CP:  1.32D+00  5.73D-01  8.35D-01  8.47D-01  1.10D+00
                    CP:  1.15D+00  7.57D-01  1.28D+00  7.47D-01
 E= -704.267218377013     Delta-E=       -0.000000389366 Rises=F Damp=F
 DIIS: error= 5.33D-06 at cycle  10 NSaved=  10.
 NSaved=10 IEnMin=10 EnMin= -704.267218377013     IErMin=10 ErrMin= 5.33D-06
 ErrMax= 5.33D-06  0.00D+00 EMaxC= 1.00D-01 BMatC= 7.36D-09 BMatP= 3.30D-07
 IDIUse=1 WtCom= 1.00D+00 WtEn= 0.00D+00
 Coeff-Com: -0.815D-05 0.299D-04 0.658D-03 0.217D-02 0.177D-02-0.661D-02
 Coeff-Com: -0.235D-01-0.926D-01 0.231D-01 0.110D+01
 Coeff:     -0.815D-05 0.299D-04 0.658D-03 0.217D-02 0.177D-02-0.661D-02
 Coeff:     -0.235D-01-0.926D-01 0.231D-01 0.110D+01
 Gap=     0.208 Goal=   None    Shift=    0.000
 RMSDP=5.41D-06 MaxDP=2.87D-04 DE=-3.89D-07 OVMax= 1.62D-04

 Cycle  11  Pass 1  IDiag  1:
 RMSU=  1.38D-06    CP:  1.32D+00  5.73D-01  8.35D-01  8.48D-01  1.11D+00
                    CP:  1.16D+00  7.75D-01  1.36D+00  8.76D-01  1.46D+00
 E= -704.267218406018     Delta-E=       -0.000000029005 Rises=F Damp=F
 DIIS: error= 1.59D-06 at cycle  11 NSaved=  11.
 NSaved=11 IEnMin=11 EnMin= -704.267218406018     IErMin=11 ErrMin= 1.59D-06
 ErrMax= 1.59D-06  0.00D+00 EMaxC= 1.00D-01 BMatC= 9.80D-10 BMatP= 7.36D-09
 IDIUse=1 WtCom= 1.00D+00 WtEn= 0.00D+00
 Coeff-Com:  0.717D-05-0.269D-04 0.302D-03 0.943D-03 0.239D-02 0.224D-03
 Coeff-Com: -0.988D-02-0.502D-01-0.272D-01 0.304D+00 0.779D+00
 Coeff:      0.717D-05-0.269D-04 0.302D-03 0.943D-03 0.239D-02 0.224D-03
 Coeff:     -0.988D-02-0.502D-01-0.272D-01 0.304D+00 0.779D+00
 Gap=     0.208 Goal=   None    Shift=    0.000
 RMSDP=9.07D-07 MaxDP=3.35D-05 DE=-2.90D-08 OVMax= 1.81D-05

 Cycle  12  Pass 1  IDiag  1:
 RMSU=  4.79D-07    CP:  1.32D+00  5.73D-01  8.35D-01  8.48D-01  1.11D+00
                    CP:  1.16D+00  7.77D-01  1.37D+00  8.83D-01  1.55D+00
                    CP:  1.02D+00
 E= -704.267218407510     Delta-E=       -0.000000001492 Rises=F Damp=F
 DIIS: error= 6.60D-07 at cycle  12 NSaved=  12.
 NSaved=12 IEnMin=12 EnMin= -704.267218407510     IErMin=12 ErrMin= 6.60D-07
 ErrMax= 6.60D-07  0.00D+00 EMaxC= 1.00D-01 BMatC= 1.82D-10 BMatP= 9.80D-10
 IDIUse=1 WtCom= 1.00D+00 WtEn= 0.00D+00
 Coeff-Com:  0.408D-05-0.127D-04 0.106D-04-0.178D-04 0.657D-03 0.736D-03
 Coeff-Com:  0.535D-03-0.185D-02-0.138D-01-0.412D-01 0.288D+00 0.767D+00
 Coeff:      0.408D-05-0.127D-04 0.106D-04-0.178D-04 0.657D-03 0.736D-03
 Coeff:      0.535D-03-0.185D-02-0.138D-01-0.412D-01 0.288D+00 0.767D+00
 Gap=     0.208 Goal=   None    Shift=    0.000
 RMSDP=3.83D-07 MaxDP=2.16D-05 DE=-1.49D-09 OVMax= 9.87D-06

 Cycle  13  Pass 1  IDiag  1:
 RMSU=  1.98D-07    CP:  1.32D+00  5.73D-01  8.35D-01  8.48D-01  1.11D+00
                    CP:  1.16D+00  7.77D-01  1.38D+00  8.82D-01  1.59D+00
                    CP:  1.10D+00  1.14D+00
 E= -704.267218407788     Delta-E=       -0.000000000278 Rises=F Damp=F
 DIIS: error= 3.12D-07 at cycle  13 NSaved=  13.
 NSaved=13 IEnMin=13 EnMin= -704.267218407788     IErMin=13 ErrMin= 3.12D-07
 ErrMax= 3.12D-07  0.00D+00 EMaxC= 1.00D-01 BMatC= 4.20D-11 BMatP= 1.82D-10
 IDIUse=1 WtCom= 1.00D+00 WtEn= 0.00D+00
 Coeff-Com:  0.440D-06-0.289D-05-0.219D-04-0.896D-04 0.635D-04 0.146D-03
 Coeff-Com:  0.126D-02 0.429D-02-0.432D-02-0.534D-01 0.626D-02 0.365D+00
 Coeff-Com:  0.681D+00
 Coeff:      0.440D-06-0.289D-05-0.219D-04-0.896D-04 0.635D-04 0.146D-03
 Coeff:      0.126D-02 0.429D-02-0.432D-02-0.534D-01 0.626D-02 0.365D+00
 Coeff:      0.681D+00
 Gap=     0.208 Goal=   None    Shift=    0.000
 RMSDP=1.88D-07 MaxDP=1.10D-05 DE=-2.78D-10 OVMax= 2.74D-06

 Cycle  14  Pass 1  IDiag  1:
 RMSU=  4.29D-08    CP:  1.32D+00  5.73D-01  8.35D-01  8.48D-01  1.11D+00
                    CP:  1.16D+00  7.78D-01  1.38D+00  8.82D-01  1.61D+00
                    CP:  1.15D+00  1.22D+00  9.80D-01
 E= -704.267218407839     Delta-E=       -0.000000000051 Rises=F Damp=F
 DIIS: error= 1.49D-07 at cycle  14 NSaved=  14.
 NSaved=14 IEnMin=14 EnMin= -704.267218407839     IErMin=14 ErrMin= 1.49D-07
 ErrMax= 1.49D-07  0.00D+00 EMaxC= 1.00D-01 BMatC= 4.66D-12 BMatP= 4.20D-11
 IDIUse=1 WtCom= 1.00D+00 WtEn= 0.00D+00
 Coeff-Com: -0.736D-06 0.154D-05-0.148D-04-0.444D-04-0.822D-04-0.624D-04
 Coeff-Com:  0.724D-03 0.275D-02 0.617D-04-0.178D-01-0.510D-01 0.492D-01
 Coeff-Com:  0.261D+00 0.755D+00
 Coeff:     -0.736D-06 0.154D-05-0.148D-04-0.444D-04-0.822D-04-0.624D-04
 Coeff:      0.724D-03 0.275D-02 0.617D-04-0.178D-01-0.510D-01 0.492D-01
 Coeff:      0.261D+00 0.755D+00
 Gap=     0.208 Goal=   None    Shift=    0.000
 RMSDP=5.82D-08 MaxDP=2.82D-06 DE=-5.07D-11 OVMax= 1.40D-06

 Cycle  15  Pass 1  IDiag  1:
 RMSU=  2.31D-08    CP:  1.32D+00  5.73D-01  8.35D-01  8.48D-01  1.11D+00
                    CP:  1.16D+00  7.78D-01  1.38D+00  8.82D-01  1.61D+00
                    CP:  1.16D+00  1.28D+00  1.03D+00  1.15D+00
 E= -704.267218407846     Delta-E=       -0.000000000007 Rises=F Damp=F
 DIIS: error= 4.02D-08 at cycle  15 NSaved=  15.
 NSaved=15 IEnMin=15 EnMin= -704.267218407846     IErMin=15 ErrMin= 4.02D-08
 ErrMax= 4.02D-08  0.00D+00 EMaxC= 1.00D-01 BMatC= 7.13D-13 BMatP= 4.66D-12
 IDIUse=1 WtCom= 1.00D+00 WtEn= 0.00D+00
 Coeff-Com: -0.405D-06 0.101D-05-0.192D-05-0.166D-05-0.335D-04-0.713D-04
 Coeff-Com:  0.873D-04 0.317D-03 0.297D-03 0.163D-02-0.206D-01-0.272D-01
 Coeff-Com: -0.101D-01 0.289D+00 0.767D+00
 Coeff:     -0.405D-06 0.101D-05-0.192D-05-0.166D-05-0.335D-04-0.713D-04
 Coeff:      0.873D-04 0.317D-03 0.297D-03 0.163D-02-0.206D-01-0.272D-01
 Coeff:     -0.101D-01 0.289D+00 0.767D+00
 Gap=     0.208 Goal=   None    Shift=    0.000
 RMSDP=2.92D-08 MaxDP=2.14D-06 DE=-7.28D-12 OVMax= 4.65D-07

 Cycle  16  Pass 1  IDiag  1:
 RMSU=  8.80D-09    CP:  1.32D+00  5.73D-01  8.35D-01  8.48D-01  1.11D+00
                    CP:  1.16D+00  7.78D-01  1.38D+00  8.82D-01  1.61D+00
                    CP:  1.16D+00  1.30D+00  1.06D+00  1.26D+00  1.08D+00
 E= -704.267218407853     Delta-E=       -0.000000000007 Rises=F Damp=F
 DIIS: error= 9.65D-09 at cycle  16 NSaved=  16.
 NSaved=16 IEnMin=16 EnMin= -704.267218407853     IErMin=16 ErrMin= 9.65D-09
 ErrMax= 9.65D-09  0.00D+00 EMaxC= 1.00D-01 BMatC= 4.25D-14 BMatP= 7.13D-13
 IDIUse=1 WtCom= 1.00D+00 WtEn= 0.00D+00
 Coeff-Com:  0.121D-06-0.213D-06 0.108D-05 0.281D-05 0.125D-04-0.636D-06
 Coeff-Com: -0.536D-04-0.256D-03-0.150D-03 0.191D-02 0.635D-02-0.249D-02
 Coeff-Com: -0.339D-01-0.949D-01-0.233D-01 0.115D+01
 Coeff:      0.121D-06-0.213D-06 0.108D-05 0.281D-05 0.125D-04-0.636D-06
 Coeff:     -0.536D-04-0.256D-03-0.150D-03 0.191D-02 0.635D-02-0.249D-02
 Coeff:     -0.339D-01-0.949D-01-0.233D-01 0.115D+01
 Gap=     0.208 Goal=   None    Shift=    0.000
 RMSDP=7.74D-09 MaxDP=4.44D-07 DE=-6.82D-12 OVMax= 2.89D-07

 SCF Done:  E(RM062X) =  -704.267218408     A.U. after   16 cycles
            NFock= 16  Conv=0.77D-08     -V/T= 2.0027
 KE= 7.024005295315D+02 PE=-2.417217650907D+03 EE= 6.326909791687D+02
 Leave Link  502 at Sun Oct 13 22:11:02 2019, MaxMem= 10737418240 cpu:             192.5 elap:               8.1
 (Enter /apps/cent7/gaussian/g16-A.03/g16-haswell/g16/l601.exe)
 Copying SCF densities to generalized density rwf, IOpCl= 0 IROHF=0.

 **********************************************************************

            Population analysis using the SCF density.

 **********************************************************************

 Orbital symmetries:
       Occupied  (A) (A) (A) (A) (A) (A) (A) (A) (A) (A) (A) (A)
                 (A) (A) (A) (A) (A) (A) (A) (A) (A) (A) (A) (A)
                 (A) (A) (A) (A) (A) (A) (A)
       Virtual   (A) (A) (A) (A) (A) (A) (A) (A) (A) (A) (A) (A)
                 (A) (A) (A) (A) (A) (A) (A) (A) (A) (A) (A) (A)
                 (A) (A) (A) (A) (A) (A) (A) (A) (A) (A) (A) (A)
                 (A) (A) (A) (A) (A) (A) (A) (A) (A) (A) (A) (A)
                 (A) (A) (A) (A) (A) (A) (A) (A) (A) (A) (A) (A)
                 (A) (A) (A) (A) (A) (A) (A) (A) (A) (A) (A) (A)
                 (A) (A) (A) (A) (A) (A) (A) (A) (A) (A) (A) (A)
                 (A) (A) (A) (A) (A) (A) (A) (A) (A) (A) (A) (A)
                 (A) (A) (A) (A) (A) (A) (A) (A) (A) (A) (A) (A)
                 (A) (A) (A) (A) (A) (A) (A) (A) (A) (A) (A) (A)
                 (A) (A) (A) (A) (A) (A) (A) (A) (A) (A) (A) (A)
                 (A) (A) (A) (A) (A) (A) (A) (A) (A) (A) (A) (A)
                 (A) (A) (A) (A) (A) (A) (A) (A) (A) (A) (A) (A)
                 (A) (A) (A) (A) (A) (A) (A) (A) (A) (A) (A) (A)
                 (A) (A) (A) (A) (A)
 The electronic state is 1-A.
 Alpha  occ. eigenvalues --  -90.12023 -19.62010 -19.61218 -10.61549 -10.61338
 Alpha  occ. eigenvalues --  -10.60658 -10.59944  -8.46145  -6.38297  -6.38248
 Alpha  occ. eigenvalues --   -6.38218  -1.16075  -1.05345  -0.95794  -0.93158
 Alpha  occ. eigenvalues --   -0.82076  -0.72429  -0.66643  -0.61428  -0.58005
 Alpha  occ. eigenvalues --   -0.56549  -0.54533  -0.53774  -0.51494  -0.48336
 Alpha  occ. eigenvalues --   -0.38575  -0.37804  -0.36502  -0.34375  -0.33023
 Alpha  occ. eigenvalues --   -0.31070
 Alpha virt. eigenvalues --   -0.10304  -0.08542  -0.01771  -0.00347   0.00712
 Alpha virt. eigenvalues --    0.01582   0.02412   0.03281   0.04013   0.05402
 Alpha virt. eigenvalues --    0.06318   0.08016   0.08414   0.08762   0.09177
 Alpha virt. eigenvalues --    0.09962   0.10215   0.10392   0.11562   0.13041
 Alpha virt. eigenvalues --    0.13216   0.13363   0.13784   0.14194   0.14532
 Alpha virt. eigenvalues --    0.15453   0.15543   0.15893   0.16825   0.17302
 Alpha virt. eigenvalues --    0.18485   0.20493   0.21963   0.22870   0.25221
 Alpha virt. eigenvalues --    0.26045   0.27009   0.28615   0.29564   0.31471
 Alpha virt. eigenvalues --    0.32314   0.33438   0.34062   0.35367   0.36669
 Alpha virt. eigenvalues --    0.36857   0.38529   0.39414   0.40905   0.41661
 Alpha virt. eigenvalues --    0.43104   0.45508   0.51811   0.54083   0.54872
 Alpha virt. eigenvalues --    0.55363   0.56237   0.57505   0.60739   0.62327
 Alpha virt. eigenvalues --    0.63163   0.63509   0.64882   0.65615   0.70164
 Alpha virt. eigenvalues --    0.70587   0.72667   0.74163   0.75416   0.79169
 Alpha virt. eigenvalues --    0.83805   0.84565   0.85669   0.88434   0.90230
 Alpha virt. eigenvalues --    0.93649   0.95715   0.96105   1.01371   1.09851
 Alpha virt. eigenvalues --    1.11116   1.18442   1.20502   1.22328   1.23258
 Alpha virt. eigenvalues --    1.26543   1.27351   1.28545   1.29165   1.35293
 Alpha virt. eigenvalues --    1.39882   1.44186   1.46662   1.47447   1.47915
 Alpha virt. eigenvalues --    1.49705   1.51967   1.60403   1.61178   1.64102
 Alpha virt. eigenvalues --    1.65462   1.67730   1.70245   1.71488   1.77001
 Alpha virt. eigenvalues --    1.78041   1.81305   1.84790   1.87180   1.92098
 Alpha virt. eigenvalues --    1.93899   1.97312   2.00441   2.00604   2.03221
 Alpha virt. eigenvalues --    2.04194   2.06404   2.09437   2.19616   2.21637
 Alpha virt. eigenvalues --    2.28639   2.31282   2.50458   2.51299   2.53515
 Alpha virt. eigenvalues --    2.56562   2.57835   2.60487   2.62385   2.64087
 Alpha virt. eigenvalues --    2.68367   2.70567   2.72514   2.75677   2.85618
 Alpha virt. eigenvalues --    2.87082   2.93496   2.94400   2.94913   2.95514
 Alpha virt. eigenvalues --    2.98302   2.99089   3.00729   3.04532   3.06939
 Alpha virt. eigenvalues --    3.09681   3.23483   3.41742   3.46503   3.52509
 Alpha virt. eigenvalues --    3.59733   3.61465   3.72299   3.73444   3.83336
 Alpha virt. eigenvalues --    3.87212   5.13659   5.17742   5.18527   5.21471
 Alpha virt. eigenvalues --    5.21842   5.29759   8.17663  17.50013  17.51770
 Alpha virt. eigenvalues --   17.56152  23.73616  23.75075  24.24688  24.25908
 Alpha virt. eigenvalues --   49.98525  50.01843 189.43163
          Condensed to atoms (all electrons):
               1          2          3          4          5          6
     1  C    7.668858  -2.929646   0.078248   0.038714   1.097419  -0.210729
     2  C   -2.929646  10.969750  -0.539682  -0.153701  -1.926305   0.427841
     3  S    0.078248  -0.539682  17.191961   0.304741  -2.056422   0.607627
     4  O    0.038714  -0.153701   0.304741   8.494678  -0.248237   0.077543
     5  C    1.097419  -1.926305  -2.056422  -0.248237  10.603389  -1.728678
     6  C   -0.210729   0.427841   0.607627   0.077543  -1.728678   6.742761
     7  O    0.098385  -0.280491   0.441263  -0.205465  -0.173569   0.006235
     8  H    0.285836   0.068920   0.051707  -0.008092  -0.044431   0.014710
     9  H    0.411569  -0.094305  -0.098021  -0.003362   0.097891  -0.021689
    10  H   -0.237947   0.588514  -0.106076   0.025024  -0.001390  -0.024692
    11  H   -0.008501   0.023015  -0.059630  -0.042618   0.641261  -0.352440
    12  H   -0.034995   0.061694   0.059563   0.001523  -0.188636   0.435569
    13  H    0.031880  -0.074049  -0.014999   0.011321   0.026219   0.343103
               7          8          9         10         11         12
     1  C    0.098385   0.285836   0.411569  -0.237947  -0.008501  -0.034995
     2  C   -0.280491   0.068920  -0.094305   0.588514   0.023015   0.061694
     3  S    0.441263   0.051707  -0.098021  -0.106076  -0.059630   0.059563
     4  O   -0.205465  -0.008092  -0.003362   0.025024  -0.042618   0.001523
     5  C   -0.173569  -0.044431   0.097891  -0.001390   0.641261  -0.188636
     6  C    0.006235   0.014710  -0.021689  -0.024692  -0.352440   0.435569
     7  O    8.440452   0.004170  -0.001196  -0.051080   0.006450   0.000369
     8  H    0.004170   0.502189  -0.050812  -0.032369  -0.002458  -0.000088
     9  H   -0.001196  -0.050812   0.584270   0.022921   0.004518  -0.003480
    10  H   -0.051080  -0.032369   0.022921   0.533933   0.003357   0.008171
    11  H    0.006450  -0.002458   0.004518   0.003357   0.520788  -0.017031
    12  H    0.000369  -0.000088  -0.003480   0.008171  -0.017031   0.554020
    13  H    0.005381   0.000171   0.000043  -0.005328  -0.000664  -0.048114
              13
     1  C    0.031880
     2  C   -0.074049
     3  S   -0.014999
     4  O    0.011321
     5  C    0.026219
     6  C    0.343103
     7  O    0.005381
     8  H    0.000171
     9  H    0.000043
    10  H   -0.005328
    11  H   -0.000664
    12  H   -0.048114
    13  H    0.530007
 Mulliken charges:
               1
     1  C   -0.289093
     2  C   -0.141556
     3  S    0.139720
     4  O   -0.292070
     5  C   -0.098512
     6  C   -0.317160
     7  O   -0.290904
     8  H    0.210546
     9  H    0.151653
    10  H    0.276962
    11  H    0.283952
    12  H    0.171434
    13  H    0.195028
 Sum of Mulliken charges =  -0.00000
 Mulliken charges with hydrogens summed into heavy atoms:
               1
     1  C    0.073106
     2  C    0.135406
     3  S    0.139720
     4  O   -0.292070
     5  C    0.185440
     6  C    0.049302
     7  O   -0.290904
 Electronic spatial extent (au):  <R**2>=            861.4128
 Charge=             -0.0000 electrons
 Dipole moment (field-independent basis, Debye):
    X=             -0.0291    Y=              7.5079    Z=             -0.0235  Tot=              7.5079
 Quadrupole moment (field-independent basis, Debye-Ang):
   XX=            -39.7383   YY=            -53.2713   ZZ=            -52.8742
   XY=              1.0363   XZ=              4.5776   YZ=              0.7369
 Traceless Quadrupole moment (field-independent basis, Debye-Ang):
   XX=              8.8897   YY=             -4.6434   ZZ=             -4.2463
   XY=              1.0363   XZ=              4.5776   YZ=              0.7369
 Octapole moment (field-independent basis, Debye-Ang**2):
  XXX=              8.8354  YYY=             12.5929  ZZZ=              0.6160  XYY=             -0.9200
  XXY=             12.4249  XXZ=              0.9674  XZZ=             -2.8358  YZZ=              8.4886
  YYZ=             -2.5651  XYZ=             -3.5923
 Hexadecapole moment (field-independent basis, Debye-Ang**3):
 XXXX=           -505.3599 YYYY=           -373.5615 ZZZZ=           -208.7039 XXXY=              5.7097
 XXXZ=             -9.1101 YYYX=             -6.4666 YYYZ=             -4.2802 ZZZX=             13.1702
 ZZZY=              5.5224 XXYY=           -149.2008 XXZZ=           -122.8678 YYZZ=           -106.0034
 XXYZ=             -0.7052 YYXZ=              2.3054 ZZXY=              2.6192
 N-N= 3.778589237989D+02 E-N=-2.417217651742D+03  KE= 7.024005295315D+02
 No NMR shielding tensors so no spin-rotation constants.
 Leave Link  601 at Sun Oct 13 22:11:02 2019, MaxMem= 10737418240 cpu:               3.5 elap:               0.2
 (Enter /apps/cent7/gaussian/g16-A.03/g16-haswell/g16/l701.exe)
 ... and contract with generalized density number  0.
 Compute integral first derivatives.
 Leave Link  701 at Sun Oct 13 22:11:02 2019, MaxMem= 10737418240 cpu:               3.9 elap:               0.2
 (Enter /apps/cent7/gaussian/g16-A.03/g16-haswell/g16/l702.exe)
 L702 exits ... SP integral derivatives will be done elsewhere.
 Leave Link  702 at Sun Oct 13 22:11:02 2019, MaxMem= 10737418240 cpu:               1.2 elap:               0.1
 (Enter /apps/cent7/gaussian/g16-A.03/g16-haswell/g16/l703.exe)
 Integral derivatives from FoFJK, PRISM(SPDF).
 Compute integral first derivatives, UseDBF=F ICtDFT=           0.
 Calling FoFJK, ICntrl=      2127 FMM=F ISym2X=0 I1Cent= 0 IOpClX= 0 NMat=1 NMatS=1 NMatT=0.
 FoFJK:  IHMeth= 1 ICntrl=    2127 DoSepK=F KAlg= 0 I1Cent=           0 FoldK=F
 IRaf=         0 NMat=       1 IRICut=       1 DoRegI=T DoRafI=F ISym2E= 0 IDoP0=0 IntGTp=1.
 FoFCou: FMM=F IPFlag=           0 FMFlag=      100000 FMFlg1=         800
         NFxFlg=           0 DoJE=F BraDBF=F KetDBF=F FulRan=T
         wScrn=  0.000000 ICntrl=      2127 IOpCl=  0 I1Cent=           0 NGrid=           0
         NMat0=    1 NMatS0=      1 NMatT0=    0 NMatD0=    1 NMtDS0=    0 NMtDT0=    0
 Symmetry not used in FoFCou.
 Leave Link  703 at Sun Oct 13 22:11:03 2019, MaxMem= 10737418240 cpu:              26.3 elap:               1.1
 (Enter /apps/cent7/gaussian/g16-A.03/g16-haswell/g16/l716.exe)
 Dipole        =-1.14375555D-02 2.95381655D+00-9.25111112D-03
 ***** Axes restored to original set *****
 -------------------------------------------------------------------
 Center     Atomic                   Forces (Hartrees/Bohr)
 Number     Number              X              Y              Z
 -------------------------------------------------------------------
      1        6           0.037159686   -0.001144172   -0.010906969
      2        6          -0.002550978   -0.007919694    0.015913056
      3       16          -0.121839920   -0.011298144   -0.123085524
      4        8           0.000463394    0.051798841    0.097577008
      5        6           0.024761928    0.019174675   -0.000053383
      6        6          -0.024725345    0.008943252    0.021636025
      7        8           0.101055507   -0.011568115    0.020968612
      8        1           0.002113805    0.000997349    0.037339237
      9        1           0.007492878   -0.008272544   -0.038269466
     10        1          -0.045659210   -0.006390992   -0.020582324
     11        1           0.023131531   -0.040377484   -0.005783110
     12        1           0.000107758    0.026283504   -0.021995387
     13        1          -0.001511032   -0.020226475    0.027242224
 -------------------------------------------------------------------
 Cartesian Forces:  Max     0.123085524 RMS     0.041492010
 Leave Link  716 at Sun Oct 13 22:11:03 2019, MaxMem= 10737418240 cpu:               0.8 elap:               0.1
 (Enter /apps/cent7/gaussian/g16-A.03/g16-haswell/g16/l103.exe)

 GradGradGradGradGradGradGradGradGradGradGradGradGradGradGradGradGradGrad
 Berny optimization.
 FormGI is forming the generalized inverse of G from B-inverse, IUseBI=4.
 Internal  Forces:  Max     0.107411718 RMS     0.028622247
 Search for a local minimum.
 Step number   1 out of a maximum of   60
 All quantities printed in internal units (Hartrees-Bohrs-Radians)
 RMS Force = .28622D-01 SwitMx=.10000D-02 MixMth= 1
 Mixed Optimization -- RFO/linear search
 Second derivative matrix not updated -- first step.
 ITU=  0
     Eigenvalues ---    0.01064   0.01067   0.01589   0.01590   0.02933
     Eigenvalues ---    0.02933   0.02935   0.02935   0.08163   0.09660
     Eigenvalues ---    0.15012   0.16000   0.16000   0.16000   0.16000
     Eigenvalues ---    0.16000   0.16000   0.20388   0.22000   0.22000
     Eigenvalues ---    0.25000   0.30724   0.30748   0.34811   0.34816
     Eigenvalues ---    0.34816   0.34816   0.34817   0.34819   0.49686
     Eigenvalues ---    0.49704   0.58074   0.58113
 RFO step:  Lambda=-1.23000313D-01 EMin= 1.06388612D-02
 Linear search not attempted -- first point.
 Maximum step size (   0.300) exceeded in Quadratic search.
    -- Step size scaled by   0.762
 Iteration  1 RMS(Cart)=  0.09485177 RMS(Int)=  0.00579377
 Iteration  2 RMS(Cart)=  0.00607403 RMS(Int)=  0.00026305
 Iteration  3 RMS(Cart)=  0.00002587 RMS(Int)=  0.00026201
 Iteration  4 RMS(Cart)=  0.00000000 RMS(Int)=  0.00026201
 ITry= 1 IFail=0 DXMaxC= 3.38D-01 DCOld= 1.00D+10 DXMaxT= 3.00D-01 DXLimC= 3.00D+00 Rises=F
 Variable       Old X    -DE/DX   Delta X   Delta X   Delta X     New X
                                 (Linear)    (Quad)   (Total)
    R1        2.52466   0.04366   0.00000   0.04725   0.04725   2.57191
    R2        2.05983  -0.00035   0.00000  -0.00056  -0.00056   2.05927
    R3        2.05974   0.00197   0.00000   0.00319   0.00319   2.06293
    R4        3.30242  -0.00221   0.00000  -0.00392  -0.00392   3.29850
    R5        2.05969   0.00188   0.00000   0.00304   0.00304   2.06273
    R6        3.03883  -0.10741   0.00000  -0.13205  -0.13205   2.90679
    R7        3.30197   0.00415   0.00000   0.00734   0.00734   3.30931
    R8        3.03865  -0.10134   0.00000  -0.12455  -0.12455   2.91410
    R9        2.52498   0.03253   0.00000   0.03522   0.03522   2.56020
   R10        2.05975   0.00145   0.00000   0.00234   0.00234   2.06209
   R11        2.05973  -0.00182   0.00000  -0.00294  -0.00294   2.05679
   R12        2.05975   0.00110   0.00000   0.00178   0.00178   2.06153
    A1        2.09440  -0.00200   0.00000  -0.00538  -0.00538   2.08902
    A2        2.09438   0.01083   0.00000   0.02917   0.02916   2.12355
    A3        2.09440  -0.00883   0.00000  -0.02379  -0.02379   2.07060
    A4        2.13371  -0.00410   0.00000  -0.00910  -0.00911   2.12460
    A5        1.83738   0.04011   0.00000   0.10704   0.10703   1.94441
    A6        2.31210  -0.03601   0.00000  -0.09794  -0.09794   2.21415
    A7        1.92329  -0.01367   0.00000  -0.03990  -0.04034   1.88296
    A8        1.92348  -0.00087   0.00000  -0.01627  -0.01677   1.90671
    A9        1.91194  -0.01159   0.00000  -0.02907  -0.02896   1.88298
   A10        1.91434  -0.00170   0.00000  -0.00570  -0.00683   1.90751
   A11        1.88013   0.02378   0.00000   0.07805   0.07771   1.95784
   A12        1.91011   0.00464   0.00000   0.01513   0.01461   1.92472
   A13        2.12558  -0.00618   0.00000  -0.01373  -0.01373   2.11184
   A14        2.31397  -0.03278   0.00000  -0.08972  -0.08972   2.22424
   A15        1.84364   0.03896   0.00000   0.10345   0.10344   1.94708
   A16        2.09436  -0.00055   0.00000  -0.00147  -0.00147   2.09289
   A17        2.09432   0.00723   0.00000   0.01946   0.01945   2.11377
   A18        2.09451  -0.00668   0.00000  -0.01799  -0.01799   2.07652
    D1       -1.92030  -0.03267   0.00000  -0.16314  -0.16288  -2.08318
    D2        1.22116  -0.03380   0.00000  -0.16933  -0.16959   1.05157
    D3        1.22144  -0.03391   0.00000  -0.16933  -0.16907   1.05238
    D4       -1.92028  -0.03504   0.00000  -0.17552  -0.17578  -2.09606
    D5        0.68870  -0.01010   0.00000  -0.04163  -0.04108   0.64762
    D6       -1.42641   0.00152   0.00000   0.00216   0.00213  -1.42428
    D7        2.75423   0.00371   0.00000   0.01216   0.01209   2.76633
    D8       -2.45272  -0.00863   0.00000  -0.03354  -0.03329  -2.48601
    D9        1.71535   0.00299   0.00000   0.01025   0.00992   1.72527
   D10       -0.38719   0.00518   0.00000   0.02024   0.01988  -0.36730
   D11       -1.04213  -0.00412   0.00000  -0.01964  -0.01940  -1.06153
   D12        2.09942  -0.00301   0.00000  -0.01357  -0.01353   2.08589
   D13        3.12061   0.01458   0.00000   0.04426   0.04450  -3.11807
   D14       -0.02102   0.01569   0.00000   0.05033   0.05037   0.02935
   D15        1.06150  -0.01605   0.00000  -0.05617  -0.05635   1.00515
   D16       -2.08013  -0.01495   0.00000  -0.05009  -0.05048  -2.13061
   D17        2.14206   0.03083   0.00000   0.15444   0.15462   2.29668
   D18       -0.99947   0.03010   0.00000   0.15076   0.15094  -0.84853
   D19       -0.99951   0.02999   0.00000   0.14980   0.14961  -0.84989
   D20        2.14215   0.02925   0.00000   0.14611   0.14593   2.28808
         Item               Value     Threshold  Converged?
 Maximum Force            0.107412     0.000450     NO 
 RMS     Force            0.028622     0.000300     NO 
 Maximum Displacement     0.338215     0.001800     NO 
 RMS     Displacement     0.094727     0.001200     NO 
 Predicted change in Energy=-7.690934D-02
 Lowest energy point so far.  Saving SCF results.
 GradGradGradGradGradGradGradGradGradGradGradGradGradGradGradGradGradGrad

 Leave Link  103 at Sun Oct 13 22:11:03 2019, MaxMem= 10737418240 cpu:               2.1 elap:               0.1
 (Enter /apps/cent7/gaussian/g16-A.03/g16-haswell/g16/l202.exe)
                          Input orientation:                          
 ---------------------------------------------------------------------
 Center     Atomic      Atomic             Coordinates (Angstroms)
 Number     Number       Type             X           Y           Z
 ---------------------------------------------------------------------
      1          6           0        4.178976    0.568789    1.415773
      2          6           0        3.023869    1.287024    1.369114
      3         16           0        2.556400    2.182252   -0.054539
      4          8           0        2.972868    1.361180   -1.286801
      5          6           0        3.396603    3.718642   -0.072059
      6          6           0        3.223857    4.619811    0.924704
      7          8           0        1.032081    2.407373    0.006851
      8          1           0        4.139194   -0.507079    1.584329
      9          1           0        5.153780    1.041802    1.282624
     10          1           0        2.469035    1.210504    2.306017
     11          1           0        4.089683    4.087107   -0.830092
     12          1           0        4.089952    5.082008    1.394686
     13          1           0        2.225902    4.897087    1.267192
 ---------------------------------------------------------------------
                    Distance matrix (angstroms):
                    1          2          3          4          5
     1  C    0.000000
     2  C    1.360996   0.000000
     3  S    2.719895   1.745493   0.000000
     4  O    3.063737   2.657439   1.538205   0.000000
     5  C    3.570340   2.851083   1.751212   2.685661   0.000000
     6  C    4.190965   3.368229   2.710371   3.946191   1.354800
     7  O    3.907480   2.660482   1.542076   2.556307   2.704925
     8  H    1.089719   2.123458   3.524717   3.618577   4.599107
     9  H    1.091656   2.145725   3.136082   3.385310   3.476825
    10  H    2.031805   1.091551   2.554241   3.631100   3.578601
    11  H    4.174978   3.716575   2.565329   2.981029   1.091210
    12  H    4.514146   3.941965   3.586171   4.720467   2.119160
    13  H    4.750867   3.698607   3.037521   4.425322   2.133745
                    6          7          8          9         10
     6  C    0.000000
     7  O    3.246725   0.000000
     8  H    5.249568   4.542755   0.000000
     9  H    4.081037   4.525570   1.876018   0.000000
    10  H    3.755151   2.963696   2.502071   2.878133   0.000000
    11  H    2.027989   3.587605   5.190224   3.856132   4.553737
    12  H    1.088407   4.293057   5.592521   4.179420   4.294932
    13  H    1.090915   3.035185   5.741627   4.841068   3.837860
                   11         12         13
    11  H    0.000000
    12  H    2.437102   0.000000
    13  H    2.920334   1.877534   0.000000
 Stoichiometry    C4H6O2S
 Framework group  C1[X(C4H6O2S)]
 Deg. of freedom    33
 Full point group                 C1      NOp   1
 RotChk:  IX=2 Diff= 2.96D-02
 Largest Abelian subgroup         C1      NOp   1
 Largest concise Abelian subgroup C1      NOp   1
                         Standard orientation:                         
 ---------------------------------------------------------------------
 Center     Atomic      Atomic             Coordinates (Angstroms)
 Number     Number       Type             X           Y           Z
 ---------------------------------------------------------------------
      1          6           0        2.075409    1.282151   -0.021379
      2          6           0        1.141593    0.622475    0.716946
      3         16           0        0.000378   -0.476271   -0.015948
      4          8           0        0.727223   -1.230149   -1.142642
      5          6           0       -1.327965    0.440053   -0.696093
      6          6           0       -2.113614    1.216749    0.088114
      7          8           0       -0.514098   -1.427557    1.083309
      8          1           0        3.134303    1.124637    0.182142
      9          1           0        1.792981    1.967099   -0.823123
     10          1           0        1.222725    0.871644    1.776576
     11          1           0       -1.642983    0.476180   -1.740219
     12          1           0       -2.331736    2.241301   -0.207432
     13          1           0       -2.538885    0.832554    1.016356
 ---------------------------------------------------------------------
 Rotational constants (GHZ):           2.8119302           2.0720589           1.6616560
 Leave Link  202 at Sun Oct 13 22:11:03 2019, MaxMem= 10737418240 cpu:               0.3 elap:               0.0
 (Enter /apps/cent7/gaussian/g16-A.03/g16-haswell/g16/l301.exe)
 Standard basis: 6-311++G(d,p) (5D, 7F)
 Ernie: Thresh=  0.10000D-02 Tol=  0.10000D-05 Strict=F.
 There are   211 symmetry adapted cartesian basis functions of A   symmetry.
 There are   204 symmetry adapted basis functions of A   symmetry.
   204 basis functions,   320 primitive gaussians,   211 cartesian basis functions
    31 alpha electrons       31 beta electrons
       nuclear repulsion energy       382.9309891981 Hartrees.
 IExCor= 4336 DFT=T Ex+Corr=M062X ExCW=0 ScaHFX=  0.540000
 ScaDFX=  1.000000  1.000000  1.000000  1.000000 ScalE2=  1.000000  1.000000
 IRadAn=      5 IRanWt=     -1 IRanGd=            0 ICorTp=0 IEmpDi=  4
 NAtoms=   13 NActive=   13 NUniq=   13 SFac= 1.00D+00 NAtFMM=   60 NAOKFM=F Big=F
 Integral buffers will be    131072 words long.
 Raffenetti 2 integral format.
 Two-electron integral symmetry is turned on.
 Leave Link  301 at Sun Oct 13 22:11:04 2019, MaxMem= 10737418240 cpu:               1.3 elap:               0.1
 (Enter /apps/cent7/gaussian/g16-A.03/g16-haswell/g16/l302.exe)
 NPDir=0 NMtPBC=     1 NCelOv=     1 NCel=       1 NClECP=     1 NCelD=      1
         NCelK=      1 NCelE2=     1 NClLst=     1 CellRange=     0.0.
 One-electron integrals computed using PRISM.
 One-electron integral symmetry used in STVInt
 NBasis=   204 RedAO= T EigKep=  3.47D-05  NBF=   204
 NBsUse=   204 1.00D-06 EigRej= -1.00D+00 NBFU=   204
 Precomputing XC quadrature grid using
 IXCGrd= 4 IRadAn=           5 IRanWt=          -1 IRanGd=           0 AccXCQ= 0.00D+00.
 Generated NRdTot=       0 NPtTot=           0 NUsed=           0 NTot=          32
 NSgBfM=   211   211   211   211   211 MxSgAt=    13 MxSgA2=    13.
 Leave Link  302 at Sun Oct 13 22:11:04 2019, MaxMem= 10737418240 cpu:               3.3 elap:               0.2
 (Enter /apps/cent7/gaussian/g16-A.03/g16-haswell/g16/l303.exe)
 DipDrv:  MaxL=1.
 Leave Link  303 at Sun Oct 13 22:11:04 2019, MaxMem= 10737418240 cpu:               1.8 elap:               0.1
 (Enter /apps/cent7/gaussian/g16-A.03/g16-haswell/g16/l401.exe)
 Initial guess from the checkpoint file:  "28.chk"
 B after Tr=    -0.000000    0.000000   -0.000000
         Rot=    0.999925   -0.009158    0.002643   -0.007699 Ang=  -1.40 deg.
 Guess basis will be translated and rotated to current coordinates.
 JPrj=2 DoOrth=T DoCkMO=T.
 Generating alternative initial guess.
 ExpMin= 3.60D-02 ExpMax= 9.34D+04 ExpMxC= 3.17D+03 IAcc=3 IRadAn=         5 AccDes= 0.00D+00
 Harris functional with IExCor= 1009 and IRadAn=       5 diagonalized for initial guess.
 HarFok:  IExCor= 1009 AccDes= 0.00D+00 IRadAn=         5 IDoV= 1 UseB2=F ITyADJ=14
 ICtDFT=  3500011 ScaDFX=  1.000000  1.000000  1.000000  1.000000
 FoFCou: FMM=F IPFlag=           0 FMFlag=      100000 FMFlg1=           0
         NFxFlg=           0 DoJE=T BraDBF=F KetDBF=T FulRan=T
         wScrn=  0.000000 ICntrl=       500 IOpCl=  0 I1Cent=   200000004 NGrid=           0
         NMat0=    1 NMatS0=      1 NMatT0=    0 NMatD0=    1 NMtDS0=    0 NMtDT0=    0
 Petite list used in FoFCou.
 Harris En= -704.153143841591    
 Leave Link  401 at Sun Oct 13 22:11:04 2019, MaxMem= 10737418240 cpu:               8.9 elap:               0.4
 (Enter /apps/cent7/gaussian/g16-A.03/g16-haswell/g16/l502.exe)
 Integral symmetry usage will be decided dynamically.
 Closed shell SCF:
 Using DIIS extrapolation, IDIIS=  1040.
 NGot= 10737418240 LenX= 10737322010 LenY= 10737277048
 Requested convergence on RMS density matrix=1.00D-08 within 128 cycles.
 Requested convergence on MAX density matrix=1.00D-06.
 Requested convergence on             energy=1.00D-06.
 No special actions if energy rises.
 Fock matrices will be formed incrementally for  20 cycles.

 Cycle   1  Pass 1  IDiag  1:
 FoFJK:  IHMeth= 1 ICntrl=       0 DoSepK=F KAlg= 0 I1Cent=           0 FoldK=F
 IRaf= 980000000 NMat=       1 IRICut=       1 DoRegI=T DoRafI=F ISym2E= 0 IDoP0=0 IntGTp=1.
 FoFCou: FMM=F IPFlag=           0 FMFlag=      100000 FMFlg1=           0
         NFxFlg=           0 DoJE=F BraDBF=F KetDBF=F FulRan=T
         wScrn=  0.000000 ICntrl=         0 IOpCl=  0 I1Cent=           0 NGrid=           0
         NMat0=    1 NMatS0=      1 NMatT0=    0 NMatD0=    1 NMtDS0=    0 NMtDT0=    0
 Symmetry not used in FoFCou.
 E= -704.331789888457    
 DIIS: error= 5.15D-03 at cycle   1 NSaved=   1.
 NSaved= 1 IEnMin= 1 EnMin= -704.331789888457     IErMin= 1 ErrMin= 5.15D-03
 ErrMax= 5.15D-03  0.00D+00 EMaxC= 1.00D-01 BMatC= 1.05D-02 BMatP= 1.05D-02
 IDIUse=3 WtCom= 9.49D-01 WtEn= 5.15D-02
 Coeff-Com:  0.100D+01
 Coeff-En:   0.100D+01
 Coeff:      0.100D+01
 Gap=     0.446 Goal=   None    Shift=    0.000
 GapD=    0.446 DampG=2.000 DampE=1.000 DampFc=2.0000 IDamp=-1.
 RMSDP=4.63D-03 MaxDP=3.92D-01              OVMax= 3.59D-02

 Cycle   2  Pass 1  IDiag  1:
 RMSU=  3.62D-03    CP:  9.08D-01
 E= -704.347092764368     Delta-E=       -0.015302875910 Rises=F Damp=F
 DIIS: error= 2.73D-03 at cycle   2 NSaved=   2.
 NSaved= 2 IEnMin= 2 EnMin= -704.347092764368     IErMin= 2 ErrMin= 2.73D-03
 ErrMax= 2.73D-03  0.00D+00 EMaxC= 1.00D-01 BMatC= 2.04D-03 BMatP= 1.05D-02
 IDIUse=3 WtCom= 9.73D-01 WtEn= 2.73D-02
 Coeff-Com:  0.162D+00 0.838D+00
 Coeff-En:   0.000D+00 0.100D+01
 Coeff:      0.158D+00 0.842D+00
 Gap=     0.232 Goal=   None    Shift=    0.000
 RMSDP=1.48D-03 MaxDP=6.43D-02 DE=-1.53D-02 OVMax= 1.71D-02

 Cycle   3  Pass 1  IDiag  1:
 RMSU=  1.10D-03    CP:  9.40D-01  9.96D-01
 E= -704.347803000263     Delta-E=       -0.000710235896 Rises=F Damp=F
 DIIS: error= 3.10D-03 at cycle   3 NSaved=   3.
 NSaved= 3 IEnMin= 3 EnMin= -704.347803000263     IErMin= 2 ErrMin= 2.73D-03
 ErrMax= 3.10D-03  0.00D+00 EMaxC= 1.00D-01 BMatC= 2.00D-03 BMatP= 2.04D-03
 IDIUse=3 WtCom= 9.69D-01 WtEn= 3.10D-02
 Coeff-Com: -0.665D-01 0.517D+00 0.550D+00
 Coeff-En:   0.000D+00 0.374D+00 0.626D+00
 Coeff:     -0.645D-01 0.512D+00 0.552D+00
 Gap=     0.233 Goal=   None    Shift=    0.000
 RMSDP=8.52D-04 MaxDP=5.51D-02 DE=-7.10D-04 OVMax= 1.21D-02

 Cycle   4  Pass 1  IDiag  1:
 RMSU=  2.65D-04    CP:  9.20D-01  1.06D+00  5.95D-01
 E= -704.349344662135     Delta-E=       -0.001541661871 Rises=F Damp=F
 DIIS: error= 5.17D-04 at cycle   4 NSaved=   4.
 NSaved= 4 IEnMin= 4 EnMin= -704.349344662135     IErMin= 4 ErrMin= 5.17D-04
 ErrMax= 5.17D-04  0.00D+00 EMaxC= 1.00D-01 BMatC= 9.88D-05 BMatP= 2.00D-03
 IDIUse=3 WtCom= 9.95D-01 WtEn= 5.17D-03
 Coeff-Com: -0.416D-01 0.119D+00 0.235D+00 0.687D+00
 Coeff-En:   0.000D+00 0.000D+00 0.000D+00 0.100D+01
 Coeff:     -0.414D-01 0.118D+00 0.234D+00 0.689D+00
 Gap=     0.232 Goal=   None    Shift=    0.000
 RMSDP=2.29D-04 MaxDP=8.34D-03 DE=-1.54D-03 OVMax= 3.11D-03

 Cycle   5  Pass 1  IDiag  1:
 RMSU=  9.65D-05    CP:  9.25D-01  1.07D+00  7.27D-01  1.05D+00
 E= -704.349446215119     Delta-E=       -0.000101552985 Rises=F Damp=F
 DIIS: error= 1.62D-04 at cycle   5 NSaved=   5.
 NSaved= 5 IEnMin= 5 EnMin= -704.349446215119     IErMin= 5 ErrMin= 1.62D-04
 ErrMax= 1.62D-04  0.00D+00 EMaxC= 1.00D-01 BMatC= 1.20D-05 BMatP= 9.88D-05
 IDIUse=3 WtCom= 9.98D-01 WtEn= 1.62D-03
 Coeff-Com: -0.402D-02-0.396D-01-0.160D-02 0.273D+00 0.772D+00
 Coeff-En:   0.000D+00 0.000D+00 0.000D+00 0.000D+00 0.100D+01
 Coeff:     -0.401D-02-0.395D-01-0.160D-02 0.273D+00 0.772D+00
 Gap=     0.232 Goal=   None    Shift=    0.000
 RMSDP=9.51D-05 MaxDP=4.52D-03 DE=-1.02D-04 OVMax= 2.41D-03

 Cycle   6  Pass 1  IDiag  1:
 RMSU=  4.69D-05    CP:  9.26D-01  1.06D+00  7.70D-01  1.22D+00  8.52D-01
 E= -704.349463788969     Delta-E=       -0.000017573850 Rises=F Damp=F
 DIIS: error= 1.07D-04 at cycle   6 NSaved=   6.
 NSaved= 6 IEnMin= 6 EnMin= -704.349463788969     IErMin= 6 ErrMin= 1.07D-04
 ErrMax= 1.07D-04  0.00D+00 EMaxC= 1.00D-01 BMatC= 3.81D-06 BMatP= 1.20D-05
 IDIUse=3 WtCom= 9.99D-01 WtEn= 1.07D-03
 Coeff-Com:  0.355D-02-0.386D-01-0.369D-01 0.464D-01 0.438D+00 0.587D+00
 Coeff-En:   0.000D+00 0.000D+00 0.000D+00 0.000D+00 0.000D+00 0.100D+01
 Coeff:      0.354D-02-0.385D-01-0.369D-01 0.463D-01 0.438D+00 0.588D+00
 Gap=     0.232 Goal=   None    Shift=    0.000
 RMSDP=2.30D-05 MaxDP=6.77D-04 DE=-1.76D-05 OVMax= 5.39D-04

 Cycle   7  Pass 1  IDiag  1:
 RMSU=  1.93D-05    CP:  9.26D-01  1.06D+00  7.76D-01  1.23D+00  9.32D-01
                    CP:  1.02D+00
 E= -704.349468094021     Delta-E=       -0.000004305052 Rises=F Damp=F
 DIIS: error= 2.49D-05 at cycle   7 NSaved=   7.
 NSaved= 7 IEnMin= 7 EnMin= -704.349468094021     IErMin= 7 ErrMin= 2.49D-05
 ErrMax= 2.49D-05  0.00D+00 EMaxC= 1.00D-01 BMatC= 1.92D-07 BMatP= 3.81D-06
 IDIUse=1 WtCom= 1.00D+00 WtEn= 0.00D+00
 Coeff-Com:  0.191D-02-0.981D-02-0.161D-01-0.255D-01 0.657D-01 0.182D+00
 Coeff-Com:  0.802D+00
 Coeff:      0.191D-02-0.981D-02-0.161D-01-0.255D-01 0.657D-01 0.182D+00
 Coeff:      0.802D+00
 Gap=     0.232 Goal=   None    Shift=    0.000
 RMSDP=1.34D-05 MaxDP=5.12D-04 DE=-4.31D-06 OVMax= 2.92D-04

 Cycle   8  Pass 1  IDiag  1:
 RMSU=  5.82D-06    CP:  9.26D-01  1.06D+00  7.79D-01  1.26D+00  9.60D-01
                    CP:  1.16D+00  1.01D+00
 E= -704.349468453017     Delta-E=       -0.000000358996 Rises=F Damp=F
 DIIS: error= 1.36D-05 at cycle   8 NSaved=   8.
 NSaved= 8 IEnMin= 8 EnMin= -704.349468453017     IErMin= 8 ErrMin= 1.36D-05
 ErrMax= 1.36D-05  0.00D+00 EMaxC= 1.00D-01 BMatC= 6.32D-08 BMatP= 1.92D-07
 IDIUse=1 WtCom= 1.00D+00 WtEn= 0.00D+00
 Coeff-Com:  0.551D-03-0.771D-03-0.367D-02-0.160D-01-0.628D-02 0.954D-02
 Coeff-Com:  0.391D+00 0.625D+00
 Coeff:      0.551D-03-0.771D-03-0.367D-02-0.160D-01-0.628D-02 0.954D-02
 Coeff:      0.391D+00 0.625D+00
 Gap=     0.232 Goal=   None    Shift=    0.000
 RMSDP=4.85D-06 MaxDP=1.75D-04 DE=-3.59D-07 OVMax= 1.38D-04

 Cycle   9  Pass 1  IDiag  1:
 RMSU=  2.04D-06    CP:  9.26D-01  1.06D+00  7.80D-01  1.25D+00  9.69D-01
                    CP:  1.17D+00  1.21D+00  8.77D-01
 E= -704.349468515097     Delta-E=       -0.000000062081 Rises=F Damp=F
 DIIS: error= 5.92D-06 at cycle   9 NSaved=   9.
 NSaved= 9 IEnMin= 9 EnMin= -704.349468515097     IErMin= 9 ErrMin= 5.92D-06
 ErrMax= 5.92D-06  0.00D+00 EMaxC= 1.00D-01 BMatC= 1.86D-08 BMatP= 6.32D-08
 IDIUse=1 WtCom= 1.00D+00 WtEn= 0.00D+00
 Coeff-Com: -0.209D-03 0.242D-02 0.256D-02-0.291D-02-0.230D-01-0.583D-01
 Coeff-Com:  0.146D-01 0.384D+00 0.681D+00
 Coeff:     -0.209D-03 0.242D-02 0.256D-02-0.291D-02-0.230D-01-0.583D-01
 Coeff:      0.146D-01 0.384D+00 0.681D+00
 Gap=     0.232 Goal=   None    Shift=    0.000
 RMSDP=2.68D-06 MaxDP=7.77D-05 DE=-6.21D-08 OVMax= 5.72D-05

 Cycle  10  Pass 1  IDiag  1:
 RMSU=  1.16D-06    CP:  9.26D-01  1.06D+00  7.81D-01  1.26D+00  9.69D-01
                    CP:  1.21D+00  1.25D+00  1.11D+00  1.04D+00
 E= -704.349468537045     Delta-E=       -0.000000021947 Rises=F Damp=F
 DIIS: error= 1.63D-06 at cycle  10 NSaved=  10.
 NSaved=10 IEnMin=10 EnMin= -704.349468537045     IErMin=10 ErrMin= 1.63D-06
 ErrMax= 1.63D-06  0.00D+00 EMaxC= 1.00D-01 BMatC= 7.26D-10 BMatP= 1.86D-08
 IDIUse=1 WtCom= 1.00D+00 WtEn= 0.00D+00
 Coeff-Com: -0.134D-03 0.897D-03 0.128D-02 0.770D-03-0.639D-02-0.244D-01
 Coeff-Com: -0.301D-01 0.755D-01 0.214D+00 0.768D+00
 Coeff:     -0.134D-03 0.897D-03 0.128D-02 0.770D-03-0.639D-02-0.244D-01
 Coeff:     -0.301D-01 0.755D-01 0.214D+00 0.768D+00
 Gap=     0.232 Goal=   None    Shift=    0.000
 RMSDP=6.56D-07 MaxDP=1.77D-05 DE=-2.19D-08 OVMax= 2.12D-05

 Cycle  11  Pass 1  IDiag  1:
 RMSU=  2.88D-07    CP:  9.26D-01  1.06D+00  7.81D-01  1.26D+00  9.70D-01
                    CP:  1.21D+00  1.26D+00  1.16D+00  1.18D+00  1.18D+00
 E= -704.349468538394     Delta-E=       -0.000000001350 Rises=F Damp=F
 DIIS: error= 7.42D-07 at cycle  11 NSaved=  11.
 NSaved=11 IEnMin=11 EnMin= -704.349468538394     IErMin=11 ErrMin= 7.42D-07
 ErrMax= 7.42D-07  0.00D+00 EMaxC= 1.00D-01 BMatC= 1.35D-10 BMatP= 7.26D-10
 IDIUse=1 WtCom= 1.00D+00 WtEn= 0.00D+00
 Coeff-Com:  0.397D-05-0.166D-03-0.836D-04 0.531D-03 0.215D-02 0.189D-02
 Coeff-Com: -0.655D-02-0.398D-01-0.785D-01 0.208D+00 0.912D+00
 Coeff:      0.397D-05-0.166D-03-0.836D-04 0.531D-03 0.215D-02 0.189D-02
 Coeff:     -0.655D-02-0.398D-01-0.785D-01 0.208D+00 0.912D+00
 Gap=     0.232 Goal=   None    Shift=    0.000
 RMSDP=5.01D-07 MaxDP=2.66D-05 DE=-1.35D-09 OVMax= 7.15D-06

 Cycle  12  Pass 1  IDiag  1:
 RMSU=  1.50D-07    CP:  9.26D-01  1.06D+00  7.81D-01  1.26D+00  9.70D-01
                    CP:  1.21D+00  1.27D+00  1.18D+00  1.26D+00  1.39D+00
                    CP:  1.08D+00
 E= -704.349468538596     Delta-E=       -0.000000000202 Rises=F Damp=F
 DIIS: error= 2.43D-07 at cycle  12 NSaved=  12.
 NSaved=12 IEnMin=12 EnMin= -704.349468538596     IErMin=12 ErrMin= 2.43D-07
 ErrMax= 2.43D-07  0.00D+00 EMaxC= 1.00D-01 BMatC= 1.72D-11 BMatP= 1.35D-10
 IDIUse=1 WtCom= 1.00D+00 WtEn= 0.00D+00
 Coeff-Com:  0.111D-04-0.142D-03-0.130D-03 0.191D-03 0.156D-02 0.248D-02
 Coeff-Com: -0.381D-03-0.225D-01-0.538D-01 0.541D-01 0.438D+00 0.580D+00
 Coeff:      0.111D-04-0.142D-03-0.130D-03 0.191D-03 0.156D-02 0.248D-02
 Coeff:     -0.381D-03-0.225D-01-0.538D-01 0.541D-01 0.438D+00 0.580D+00
 Gap=     0.232 Goal=   None    Shift=    0.000
 RMSDP=6.25D-08 MaxDP=4.28D-06 DE=-2.02D-10 OVMax= 2.13D-06

 Cycle  13  Pass 1  IDiag  1:
 RMSU=  4.77D-08    CP:  9.26D-01  1.06D+00  7.81D-01  1.26D+00  9.70D-01
                    CP:  1.21D+00  1.27D+00  1.18D+00  1.26D+00  1.40D+00
                    CP:  1.12D+00  9.56D-01
 E= -704.349468538616     Delta-E=       -0.000000000020 Rises=F Damp=F
 DIIS: error= 8.08D-08 at cycle  13 NSaved=  13.
 NSaved=13 IEnMin=13 EnMin= -704.349468538616     IErMin=13 ErrMin= 8.08D-08
 ErrMax= 8.08D-08  0.00D+00 EMaxC= 1.00D-01 BMatC= 2.47D-12 BMatP= 1.72D-11
 IDIUse=1 WtCom= 1.00D+00 WtEn= 0.00D+00
 Coeff-Com:  0.350D-05-0.276D-04-0.381D-04-0.178D-04 0.278D-03 0.662D-03
 Coeff-Com:  0.868D-03-0.212D-02-0.975D-02-0.170D-01 0.861D-02 0.269D+00
 Coeff-Com:  0.750D+00
 Coeff:      0.350D-05-0.276D-04-0.381D-04-0.178D-04 0.278D-03 0.662D-03
 Coeff:      0.868D-03-0.212D-02-0.975D-02-0.170D-01 0.861D-02 0.269D+00
 Coeff:      0.750D+00
 Gap=     0.232 Goal=   None    Shift=    0.000
 RMSDP=3.47D-08 MaxDP=9.70D-07 DE=-1.98D-11 OVMax= 6.11D-07

 Cycle  14  Pass 1  IDiag  1:
 RMSU=  2.12D-08    CP:  9.26D-01  1.06D+00  7.81D-01  1.26D+00  9.70D-01
                    CP:  1.21D+00  1.27D+00  1.18D+00  1.27D+00  1.42D+00
                    CP:  1.14D+00  9.92D-01  1.05D+00
 E= -704.349468538621     Delta-E=       -0.000000000005 Rises=F Damp=F
 DIIS: error= 1.22D-08 at cycle  14 NSaved=  14.
 NSaved=14 IEnMin=14 EnMin= -704.349468538621     IErMin=14 ErrMin= 1.22D-08
 ErrMax= 1.22D-08  0.00D+00 EMaxC= 1.00D-01 BMatC= 6.66D-14 BMatP= 2.47D-12
 IDIUse=1 WtCom= 1.00D+00 WtEn= 0.00D+00
 Coeff-Com: -0.264D-06 0.744D-05 0.482D-05-0.251D-04-0.846D-04-0.838D-04
 Coeff-Com:  0.285D-03 0.171D-02 0.295D-02-0.883D-02-0.383D-01 0.132D-01
 Coeff-Com:  0.154D+00 0.875D+00
 Coeff:     -0.264D-06 0.744D-05 0.482D-05-0.251D-04-0.846D-04-0.838D-04
 Coeff:      0.285D-03 0.171D-02 0.295D-02-0.883D-02-0.383D-01 0.132D-01
 Coeff:      0.154D+00 0.875D+00
 Gap=     0.232 Goal=   None    Shift=    0.000
 RMSDP=9.98D-09 MaxDP=3.56D-07 DE=-5.23D-12 OVMax= 1.84D-07

 SCF Done:  E(RM062X) =  -704.349468539     A.U. after   14 cycles
            NFock= 14  Conv=0.10D-07     -V/T= 2.0027
 KE= 7.024688814587D+02 PE=-2.427497558340D+03 EE= 6.377482191443D+02
 Leave Link  502 at Sun Oct 13 22:11:11 2019, MaxMem= 10737418240 cpu:             164.9 elap:               6.9
 (Enter /apps/cent7/gaussian/g16-A.03/g16-haswell/g16/l701.exe)
 ... and contract with generalized density number  0.
 Compute integral first derivatives.
 Leave Link  701 at Sun Oct 13 22:11:11 2019, MaxMem= 10737418240 cpu:               2.8 elap:               0.1
 (Enter /apps/cent7/gaussian/g16-A.03/g16-haswell/g16/l702.exe)
 L702 exits ... SP integral derivatives will be done elsewhere.
 Leave Link  702 at Sun Oct 13 22:11:11 2019, MaxMem= 10737418240 cpu:               0.4 elap:               0.0
 (Enter /apps/cent7/gaussian/g16-A.03/g16-haswell/g16/l703.exe)
 Integral derivatives from FoFJK, PRISM(SPDF).
 Compute integral first derivatives, UseDBF=F ICtDFT=           0.
 Calling FoFJK, ICntrl=      2127 FMM=F ISym2X=0 I1Cent= 0 IOpClX= 0 NMat=1 NMatS=1 NMatT=0.
 FoFJK:  IHMeth= 1 ICntrl=    2127 DoSepK=F KAlg= 0 I1Cent=           0 FoldK=F
 IRaf=         0 NMat=       1 IRICut=       1 DoRegI=T DoRafI=F ISym2E= 0 IDoP0=0 IntGTp=1.
 FoFCou: FMM=F IPFlag=           0 FMFlag=      100000 FMFlg1=         800
         NFxFlg=           0 DoJE=F BraDBF=F KetDBF=F FulRan=T
         wScrn=  0.000000 ICntrl=      2127 IOpCl=  0 I1Cent=           0 NGrid=           0
         NMat0=    1 NMatS0=      1 NMatT0=    0 NMatD0=    1 NMtDS0=    0 NMtDT0=    0
 Symmetry not used in FoFCou.
 Leave Link  703 at Sun Oct 13 22:11:12 2019, MaxMem= 10737418240 cpu:              25.3 elap:               1.1
 (Enter /apps/cent7/gaussian/g16-A.03/g16-haswell/g16/l716.exe)
 Dipole        =-1.34204763D-01 2.65743077D+00 2.56319356D-02
 ***** Axes restored to original set *****
 -------------------------------------------------------------------
 Center     Atomic                   Forces (Hartrees/Bohr)
 Number     Number              X              Y              Z
 -------------------------------------------------------------------
      1        6           0.001818044    0.011421817   -0.007806694
      2        6           0.026948519   -0.020272991    0.024518430
      3       16          -0.088797771   -0.010004139   -0.092327288
      4        8          -0.002372734    0.040651076    0.067139116
      5        6           0.014971238    0.035437643    0.014908042
      6        6          -0.013154123   -0.008150480   -0.001676938
      7        8           0.073851625   -0.006688896    0.014620636
      8        1           0.003603956    0.006162089    0.031439623
      9        1          -0.001504385   -0.009526156   -0.032376247
     10        1          -0.031661694   -0.008359314   -0.022215492
     11        1           0.016430755   -0.032380125    0.002282816
     12        1          -0.003011107    0.021209070   -0.018955332
     13        1           0.002877676   -0.019499593    0.020449327
 -------------------------------------------------------------------
 Cartesian Forces:  Max     0.092327288 RMS     0.031606734
 Leave Link  716 at Sun Oct 13 22:11:13 2019, MaxMem= 10737418240 cpu:               0.5 elap:               0.0
 (Enter /apps/cent7/gaussian/g16-A.03/g16-haswell/g16/l103.exe)

 GradGradGradGradGradGradGradGradGradGradGradGradGradGradGradGradGradGrad
 Berny optimization.
 Using GEDIIS/GDIIS optimizer.
 FormGI is forming the generalized inverse of G from B-inverse, IUseBI=4.
 Internal  Forces:  Max     0.076124918 RMS     0.020516001
 Search for a local minimum.
 Step number   2 out of a maximum of   60
 All quantities printed in internal units (Hartrees-Bohrs-Radians)
 RMS Force = .20516D-01 SwitMx=.10000D-02 MixMth= 1
 Mixed Optimization -- RFO/linear search
 Update second derivatives using D2CorX and points    1    2
 DE= -8.23D-02 DEPred=-7.69D-02 R= 1.07D+00
 TightC=F SS=  1.41D+00  RLast= 5.54D-01 DXNew= 5.0454D-01 1.6627D+00
 Trust test= 1.07D+00 RLast= 5.54D-01 DXMaxT set to 5.05D-01
 ITU=  1  0
 Use linear search instead of GDIIS.
 Linear search step of   0.587 exceeds DXMaxT=   0.505 but not scaled.
 Quartic linear search produced a step of  1.95697.
 Iteration  1 RMS(Cart)=  0.14019429 RMS(Int)=  0.04914282
 Iteration  2 RMS(Cart)=  0.05801262 RMS(Int)=  0.00334130
 Iteration  3 RMS(Cart)=  0.00308190 RMS(Int)=  0.00156235
 Iteration  4 RMS(Cart)=  0.00000781 RMS(Int)=  0.00156233
 Iteration  5 RMS(Cart)=  0.00000000 RMS(Int)=  0.00156233
 ITry= 1 IFail=0 DXMaxC= 6.04D-01 DCOld= 1.00D+10 DXMaxT= 5.05D-01 DXLimC= 3.00D+00 Rises=F
 Variable       Old X    -DE/DX   Delta X   Delta X   Delta X     New X
                                 (Linear)    (Quad)   (Total)
    R1        2.57191  -0.00123   0.09247   0.00000   0.09247   2.66438
    R2        2.05927  -0.00135  -0.00110   0.00000  -0.00110   2.05817
    R3        2.06293  -0.00152   0.00624   0.00000   0.00624   2.06918
    R4        3.29850   0.00508  -0.00767   0.00000  -0.00767   3.29083
    R5        2.06273  -0.00239   0.00594   0.00000   0.00594   2.06868
    R6        2.90679  -0.07612  -0.25841   0.00000  -0.25841   2.64837
    R7        3.30931   0.00555   0.01437   0.00000   0.01437   3.32368
    R8        2.91410  -0.07340  -0.24374   0.00000  -0.24374   2.67037
    R9        2.56020  -0.00272   0.06893   0.00000   0.06893   2.62913
   R10        2.06209  -0.00208   0.00458   0.00000   0.00458   2.06667
   R11        2.05679  -0.00158  -0.00574   0.00000  -0.00574   2.05105
   R12        2.06153  -0.00117   0.00349   0.00000   0.00349   2.06502
    A1        2.08902  -0.00032  -0.01053   0.00000  -0.01056   2.07846
    A2        2.12355   0.00433   0.05707   0.00000   0.05704   2.18058
    A3        2.07060  -0.00401  -0.04656   0.00000  -0.04659   2.02401
    A4        2.12460  -0.00180  -0.01783   0.00000  -0.01787   2.10673
    A5        1.94441   0.02758   0.20946   0.00000   0.20937   2.15378
    A6        2.21415  -0.02579  -0.19167   0.00000  -0.19169   2.02247
    A7        1.88296  -0.00597  -0.07894   0.00000  -0.08166   1.80130
    A8        1.90671  -0.00260  -0.03282   0.00000  -0.03519   1.87151
    A9        1.88298  -0.00775  -0.05668   0.00000  -0.05630   1.82668
   A10        1.90751  -0.00410  -0.01336   0.00000  -0.02019   1.88733
   A11        1.95784   0.01779   0.15207   0.00000   0.14952   2.10736
   A12        1.92472   0.00201   0.02858   0.00000   0.02504   1.94976
   A13        2.11184  -0.00387  -0.02687   0.00000  -0.02689   2.08495
   A14        2.22424  -0.02324  -0.17559   0.00000  -0.17560   2.04865
   A15        1.94708   0.02711   0.20243   0.00000   0.20239   2.14947
   A16        2.09289   0.00026  -0.00288   0.00000  -0.00289   2.09000
   A17        2.11377   0.00265   0.03807   0.00000   0.03806   2.15183
   A18        2.07652  -0.00291  -0.03520   0.00000  -0.03521   2.04131
    D1       -2.08318  -0.02834  -0.31875   0.00000  -0.31733  -2.40052
    D2        1.05157  -0.02921  -0.33189   0.00000  -0.33331   0.71826
[...]
 ! R8    R(3,7)                  1.4551         -DE/DX =    0.0                 !
 ! R9    R(5,6)                  1.3227         -DE/DX =    0.0                 !
 ! R10   R(5,11)                 1.0835         -DE/DX =    0.0                 !
 ! R11   R(6,12)                 1.0835         -DE/DX =    0.0                 !
 ! R12   R(6,13)                 1.0851         -DE/DX =    0.0                 !
 ! A1    A(2,1,8)              120.9342         -DE/DX =    0.0                 !
 ! A2    A(2,1,9)              120.2665         -DE/DX =    0.0                 !
 ! A3    A(8,1,9)              118.7945         -DE/DX =    0.0                 !
 ! A4    A(1,2,3)              119.6549         -DE/DX =    0.0                 !
 ! A5    A(1,2,10)             126.2299         -DE/DX =    0.0                 !
 ! A6    A(3,2,10)             114.083          -DE/DX =    0.0                 !
 ! A7    A(2,3,4)              107.9845         -DE/DX =    0.0                 !
 ! A8    A(2,3,5)              102.7839         -DE/DX =    0.0                 !
 ! A9    A(2,3,7)              107.5683         -DE/DX =    0.0                 !
 ! A10   A(4,3,5)              107.5684         -DE/DX =    0.0                 !
 ! A11   A(4,3,7)              121.4123         -DE/DX =    0.0                 !
 ! A12   A(5,3,7)              107.9868         -DE/DX =    0.0                 !
 ! A13   A(3,5,6)              119.6585         -DE/DX =    0.0                 !
 ! A14   A(3,5,11)             114.0802         -DE/DX =    0.0                 !
 ! A15   A(6,5,11)             126.2289         -DE/DX =    0.0                 !
 ! A16   A(5,6,12)             120.9259         -DE/DX =    0.0                 !
 ! A17   A(5,6,13)             120.2683         -DE/DX =    0.0                 !
 ! A18   A(12,6,13)            118.8002         -DE/DX =    0.0                 !
 ! D1    D(8,1,2,3)           -178.0721         -DE/DX =    0.0                 !
 ! D2    D(8,1,2,10)            -0.265          -DE/DX =    0.0                 !
 ! D3    D(9,1,2,3)              1.1234         -DE/DX =    0.0                 !
 ! D4    D(9,1,2,10)           178.9305         -DE/DX =    0.0                 !
 ! D5    D(1,2,3,4)              3.1745         -DE/DX =    0.0                 !
 ! D6    D(1,2,3,5)           -110.3457         -DE/DX =    0.0                 !
 ! D7    D(1,2,3,7)            135.8273         -DE/DX =    0.0                 !
 ! D8    D(10,2,3,4)          -174.888          -DE/DX =    0.0                 !
 ! D9    D(10,2,3,5)            71.5918         -DE/DX =    0.0                 !
 ! D10   D(10,2,3,7)           -42.2353         -DE/DX =    0.0                 !
 ! D11   D(2,3,5,6)           -110.3762         -DE/DX =    0.0                 !
 ! D12   D(2,3,5,11)            71.5674         -DE/DX =    0.0                 !
 ! D13   D(4,3,5,6)            135.7993         -DE/DX =    0.0                 !
 ! D14   D(4,3,5,11)           -42.2571         -DE/DX =    0.0                 !
 ! D15   D(7,3,5,6)              3.1448         -DE/DX =    0.0                 !
 ! D16   D(7,3,5,11)          -174.9116         -DE/DX =    0.0                 !
 ! D17   D(3,5,6,12)          -178.0229         -DE/DX =    0.0                 !
 ! D18   D(3,5,6,13)             1.1052         -DE/DX =    0.0                 !
 ! D19   D(11,5,6,12)           -0.2228         -DE/DX =    0.0                 !
 ! D20   D(11,5,6,13)          178.9054         -DE/DX =    0.0                 !
 --------------------------------------------------------------------------------
 GradGradGradGradGradGradGradGradGradGradGradGradGradGradGradGradGradGrad

 Leave Link  103 at Sun Oct 13 22:13:35 2019, MaxMem= 10737418240 cpu:               0.5 elap:               0.0
 (Enter /apps/cent7/gaussian/g16-A.03/g16-haswell/g16/l9999.exe)

 ----------------------------------------------------------------------

 Electric dipole moment (input orientation):
 (Debye = 10**-18 statcoulomb cm , SI units = C m)
                  (au)            (Debye)         (10**-30 SI)
   Tot        0.193500D+01      0.491827D+01      0.164056D+02
   x          0.126774D+01      0.322227D+01      0.107483D+02
   y          0.446264D+00      0.113429D+01      0.378358D+01
   z          0.139208D+01      0.353832D+01      0.118026D+02

 Dipole polarizability, Alpha (input orientation).
 (esu units = cm**3 , SI units = C**2 m**2 J**-1)
 Alpha(0;0):
               (au)            (10**-24 esu)      (10**-40 SI)
   iso        0.718313D+02      0.106443D+02      0.118434D+02
   aniso      0.392032D+02      0.580932D+01      0.646373D+01
   xx         0.648409D+02      0.960843D+01      0.106908D+02
   yx        -0.141310D+02     -0.209399D+01     -0.232988D+01
   yy         0.917414D+02      0.135947D+02      0.151261D+02
   zx        -0.133042D+01     -0.197147D+00     -0.219356D+00
   zy         0.217883D+01      0.322870D+00      0.359241D+00
   zz         0.589118D+02      0.872982D+01      0.971324D+01

 ----------------------------------------------------------------------

 Dipole orientation:
     6          4.29572489         -0.80157787          6.71606613
     6          2.68580494          1.10185740          6.53450427
    16          3.34667886          3.64593402          4.43620863
     8          5.67103071          3.05513421          3.09111601
     6          4.00697047          6.18964946          6.53535827
     6          2.39765754          8.09366179          6.71613666
     8          1.02271649          4.23696374          3.09047503
     1          3.90450415         -2.39826112          7.93680749
     1          6.02786166         -0.79842754          5.61862309
     1          0.89739005          1.27211388          7.51691328
     1          5.79474792          6.01869424          7.51878791
     1          2.78962854          9.69058708          7.93631972
     1          0.66651513          8.09165315          5.61716146

 Electric dipole moment (dipole orientation):
 (Debye = 10**-18 statcoulomb cm , SI units = C m)
                  (au)            (Debye)         (10**-30 SI)
   Tot        0.193500D+01      0.491827D+01      0.164056D+02
   x          0.000000D+00      0.000000D+00      0.000000D+00
   y          0.000000D+00      0.000000D+00      0.000000D+00
   z          0.193500D+01      0.491827D+01      0.164056D+02

 Dipole polarizability, Alpha (dipole orientation).
 (esu units = cm**3 , SI units = C**2 m**2 J**-1)
 Alpha(0;0):
               (au)            (10**-24 esu)      (10**-40 SI)
   iso        0.718313D+02      0.106443D+02      0.118434D+02
   aniso      0.392032D+02      0.580932D+01      0.646373D+01
   xx         0.659262D+02      0.976925D+01      0.108698D+02
   yx        -0.147567D+02     -0.218671D+01     -0.243305D+01
   yy         0.911664D+02      0.135095D+02      0.150313D+02
   zx         0.353293D-02      0.523526D-03      0.582501D-03
   zy        -0.121019D-02     -0.179331D-03     -0.199533D-03
   zz         0.584015D+02      0.865421D+01      0.962910D+01

 ----------------------------------------------------------------------
 1\1\GINC-BROWN-A459\Freq\RM062X\6-311++G(d,p)\C4H6O2S1\FINEJ\13-Oct-20
 19\0\\#P Geom=AllCheck Guess=TCheck SCRF=Check GenChk RM062X/6-311++G(
 d,p) Freq\\Title Card Required\\0,1\C,4.0714347664,0.2088297933,1.1653
 371901\C,3.2807171995,1.2376331216,1.4220705406\S,2.6973517487,2.25544
 01963,0.0836329909\O,3.1814222963,1.6802258039,-1.1621921084\C,3.56901
 57508,3.7853574699,0.3434220123\C,2.9041348448,4.8586495426,0.73781856
 05\O,1.2805223797,2.5023581709,0.3048889969\H,4.4135698459,-0.44278572
 03,1.9605763551\H,4.3785919494,-0.0040389889,0.1466251743\H,2.90326758
 69,1.528004218,2.3953371572\H,4.6277961309,3.734574319,0.1188626251\H,
 3.4085488595,5.8082517506,0.8715573391\H,1.8358266412,4.8040003229,0.9
 198631664\\Version=ES64L-G16RevA.03\State=1-A\HF=-704.4973775\RMSD=3.5
 27e-09\RMSF=1.851e-05\ZeroPoint=0.0960703\Thermal=0.0960703\Dipole=1.2
 677384,0.4462635,1.3920838\DipoleDeriv=-0.1070138,-0.0967407,0.0002159
 ,-0.0695206,-0.0628241,-0.0275229,-0.0695998,0.1154222,-0.0163334,-0.3
 015974,-0.0732402,-0.0604095,-0.0175394,-0.4358749,-0.0261927,-0.07458
 31,0.0038733,-0.1474196,1.8314428,0.1205201,0.048401,-0.2188795,2.1402
 498,0.1308384,0.1572162,-0.1780503,1.8409665,-0.5812906,0.034103,0.169
 2978,0.0440089,-0.8298561,-0.2102923,0.0097873,-0.1257312,-1.1414866,-
 0.1612534,0.049355,-0.0748105,0.0843607,-0.3740831,0.0264035,-0.089846
 7,0.0790232,-0.3493757,0.0190622,-0.1221505,-0.0337836,0.0368136,-0.04
 97833,0.0285501,-0.023474,0.0545263,-0.155534,-1.2248146,-0.0201767,-0
 .0664369,0.1128965,-0.7449584,0.0311617,0.0472589,0.0766566,-0.5829006
 ,0.1168121,0.08049,-0.015142,0.0595821,0.0674979,0.05711,-0.0208843,0.
 0533384,0.0393747,0.1290866,0.0036704,-0.0024419,0.0114475,0.118084,0.
 0205696,0.023834,-0.0115539,0.0623308,0.112284,0.0876154,-0.0053652,0.
 0682664,0.0668047,0.0355006,0.0013005,0.0313404,0.0050953,0.0257321,-0
 .0261224,0.0184859,-0.0329546,0.0017964,-0.0338185,0.0202484,-0.053472
 3,0.1565646,0.0737358,-0.0396509,0.004445,-0.0420844,-0.0053582,-0.031
 0144,0.0176728,-0.0482025,0.1552926,0.0678144,0.0023274,0.017544,-0.03
 63972,0.1083052,-0.001293,0.0010698,0.0028297,0.1334255\Polar=64.84091
 27,-14.130965,91.7413694,-1.3304153,2.1788342,58.9117527\Quadrupole=-3
 .3696383,6.5329265,-3.1632882,-1.3544911,0.1833896,-2.0314106\PG=C01 [
 X(C4H6O2S1)]\NImag=0\\0.38803201,-0.35280810,0.61079838,-0.07586899,-0
 .01079125,0.65186545,-0.23879051,0.25067839,0.06407221,0.38481864,0.24
 818799,-0.37423693,-0.06876941,-0.33050725,0.54266523,0.07057634,-0.07
 902046,-0.12963987,-0.14910868,0.10551032,0.55510335,-0.00480894,0.011
 51412,-0.00954168,-0.07087183,0.01716375,-0.02527256,0.84989403,0.0115
 9237,-0.01834469,0.01561900,0.01099044,-0.09688109,0.03812694,-0.12657
 589,0.52976215,-0.00645395,0.00843033,0.01074028,-0.01469726,0.0399272
 1,-0.13095620,-0.17714300,0.14114394,0.72689544,-0.00053296,0.00087469
 ,-0.00004084,0.00705644,0.00240366,-0.00546135,-0.13370242,0.06079373,
 0.13067379,0.11640621,0.00137828,-0.00115909,0.00055410,0.00250011,0.0
 0989648,0.01184485,0.06595855,-0.16186161,-0.16945774,-0.07290769,0.14
 636045,0.00035952,-0.00097636,-0.00203291,0.01383242,-0.01655795,-0.02
 379592,0.14279013,-0.16560012,-0.44333672,-0.15155956,0.18967487,0.475
 80108,0.00003586,0.00036954,-0.00064152,0.01061522,0.00822723,-0.00062
 999,-0.10026341,-0.04340177,-0.01027930,0.00866890,0.01057532,0.012216
 44,0.67884649,-0.00047639,-0.00124931,0.00159941,-0.00627766,-0.009599
 21,-0.00248531,-0.04136578,-0.13294704,-0.01148001,-0.00744461,-0.0038
 0602,-0.00288929,-0.17530055,0.61568972,0.00020526,0.00132775,-0.00328
 685,0.00375171,0.01498898,0.00924968,-0.00233294,-0.00221471,-0.065420
 88,-0.00707198,-0.02907394,-0.00507368,-0.15442622,0.16036850,0.187950
 52,0.00043560,-0.00051146,0.00076995,-0.00213827,-0.00212716,-0.000169
 26,0.01577032,-0.00369216,-0.00157031,-0.00089716,-0.00545225,-0.00479
 511,-0.23560496,0.19001328,0.08388296,0.68730522,-0.00010911,0.0002048
 3,0.00081279,-0.00155864,-0.00223944,-0.00008095,0.00410409,-0.0288814
 2,-0.00593235,0.00027067,-0.00313317,-0.00546263,0.20193093,-0.4124247
 9,-0.12897635,-0.06465409,0.77682239,-0.00008638,0.00007042,0.00024978
 ,0.00022395,0.00092855,-0.00012476,-0.00094715,-0.00608015,0.00069994,
 -0.00024106,-0.00078320,-0.00049823,0.08576193,-0.12610545,-0.09461346
 ,-0.12301009,0.17316416,0.18655496,-0.00163150,0.00343516,-0.00775329,
 -0.01460820,0.00242450,0.01132862,-0.54874502,0.08152058,0.07534957,-0
 .00109087,-0.00125436,-0.00681101,-0.02276545,0.00945407,0.00711679,-0
 .00218187,0.00091856,0.00025252,0.59322261,0.00032990,0.00010527,0.003
 21072,0.02135238,0.00634103,-0.00176983,0.08130804,-0.09774419,-0.0115
 6046,0.01597055,0.01416295,-0.00369484,-0.02371977,0.00684188,-0.00100
 179,-0.00063730,-0.00164624,-0.00091509,-0.08838541,0.07639353,-0.0003
 6887,-0.00014492,-0.00300643,-0.01980083,0.00567857,0.00805362,0.06164
 704,-0.01090230,-0.09235350,0.03444763,-0.00809166,0.00598674,-0.00157
 889,-0.00270964,0.00908736,0.00019651,-0.00034581,0.00010837,-0.074854
 42,0.01529795,0.06888617,-0.07373234,0.05965127,-0.06422843,-0.0005949
 8,0.01412501,-0.01379891,0.00740428,0.00861367,0.00336271,0.00039577,-
 0.00170834,0.00005762,-0.00165157,0.00122526,-0.00198943,0.00044459,0.
 00040498,0.00004575,0.00001044,-0.00199857,0.00073862,0.06552589,0.060
 77319,-0.15362915,0.12842093,0.00908992,-0.00993172,0.01967117,0.00661
 011,0.00404397,-0.00317469,-0.00105653,0.00036266,0.00087960,-0.001160
 21,0.00055690,-0.00065302,0.00010098,0.00008205,-0.00000616,0.00236177
 ,-0.00228233,0.00149920,-0.07186654,0.15579974,-0.06720307,0.13183907,
 -0.21744831,0.00444667,-0.00643230,0.00862638,0.00293137,-0.00102034,-
 0.00211488,-0.00119428,0.00150399,0.00075975,-0.00018401,-0.00000555,0
 .00018875,-0.00000370,0.00000496,-0.00001193,0.00065037,-0.00070977,0.
 00086245,0.07036934,-0.14072477,0.21990502,-0.06857308,0.02250549,0.07
 597396,0.00008407,0.00549292,0.01807374,-0.00569329,-0.00266913,0.0027
 5663,0.00024807,-0.00130443,-0.00105765,0.00094993,-0.00057334,0.00054
 324,-0.00032549,-0.00034728,-0.00010547,-0.00067927,0.00127444,-0.0009
 2296,0.00650656,-0.00101005,-0.00879380,0.06191576,0.02192189,-0.06134
 535,-0.04812158,0.00933474,-0.00069611,-0.02390798,-0.00100218,-0.0052
 5253,-0.00463772,-0.00168548,0.00135124,0.00092437,0.00080207,-0.00038
 179,0.00086364,-0.00018260,-0.00011093,-0.00000547,-0.00128297,0.00122
 284,0.00025065,-0.00439061,0.00701744,0.01595672,-0.03073645,0.0575869
 9,0.08017481,-0.05300399,-0.31088856,0.00253365,-0.00194214,-0.0011831
 6,-0.00148322,0.00091086,0.00098456,-0.00034693,0.00087193,-0.00190305
 ,0.00010859,-0.00011149,-0.00036010,-0.00010782,-0.00014083,-0.0000372
 1,-0.00017282,0.00001473,-0.00025992,0.00588401,-0.00507278,-0.0112282
 6,-0.08716729,0.05748643,0.32407428,-0.00048646,0.00449282,0.01721997,
 -0.07586655,0.03487676,0.09483358,0.00492069,-0.00159962,-0.00815869,0
 .00076554,0.00081606,-0.00433744,-0.00070272,0.00010623,0.00033943,0.0
 0019247,0.00016661,0.00000349,-0.00114024,-0.00015550,0.00151001,-0.00
 437302,-0.00387643,-0.00100284,0.00556077,0.00730429,0.00052624,0.0712
 3543,0.00861132,-0.00088491,-0.02322751,0.03398310,-0.06506455,-0.0673
 2519,-0.00564612,0.00548882,0.01347175,0.00065251,-0.00039115,0.005838
 41,0.00036351,-0.00000074,-0.00082713,-0.00030977,-0.00046086,-0.00051
 633,0.00092186,-0.00101374,-0.00157726,-0.00412365,-0.00181858,-0.0003
 7392,0.00750783,0.00063983,0.00113202,-0.04212532,0.06378077,-0.001119
 28,0.00234968,0.00327578,0.09548633,-0.07181597,-0.29427905,0.00923421
 ,-0.00709182,-0.01310462,-0.00024569,0.00145172,-0.00441795,-0.0006395
 4,0.00039314,0.00039006,0.00024994,0.00054799,0.00019231,-0.00204225,0
 .00051482,0.00269105,-0.00067855,-0.00099960,0.00047938,0.00078857,0.0
 0133276,0.00072347,-0.10089652,0.07314134,0.30418140,0.00011437,-0.000
 27341,0.00022634,0.00022896,-0.00041282,-0.00025013,-0.00906408,0.0038
 3097,0.00409106,0.00201173,-0.00001720,-0.00126758,-0.33703839,0.01283
 330,0.06290806,-0.00583754,-0.00279541,0.00172494,-0.00132074,-0.00164
 969,0.00017768,0.00008726,-0.00001978,-0.00002852,-0.00002194,-0.00006
 101,-0.00000516,-0.00006790,-0.00002668,-0.00000084,0.34985585,0.00063
 193,-0.00027455,0.00062644,0.00106995,-0.00004925,-0.00061769,-0.02147
 182,0.00356373,0.00580141,0.00317373,-0.00056378,-0.00130043,0.0083479
 8,-0.04954124,-0.00580652,0.02755092,0.00386983,-0.00580132,-0.0071491
 6,-0.00374680,-0.00033461,-0.00000994,-0.00025902,-0.00004882,-0.00006
 345,-0.00004882,-0.00010555,-0.00007750,-0.00012710,0.00003224,-0.0126
 4354,0.05007687,-0.00015762,-0.00004833,0.00008449,0.00017083,-0.00025
 256,-0.00049224,-0.00389266,-0.00034103,0.00280403,0.00091779,0.000490
 94,-0.00091219,0.06397385,-0.00620296,-0.04863671,0.00902279,-0.000021
 17,0.00387036,-0.00209687,-0.00110115,0.00102366,0.00003730,0.00002824
 ,-0.00002806,-0.00001116,-0.00003441,0.00005830,-0.00000125,0.00008796
 ,-0.00010568,-0.06835418,0.00931728,0.03927492,-0.00002186,0.00000763,
 -0.00004405,0.00028598,0.00001009,-0.00026713,-0.00404968,0.00084402,0
 .00305307,0.00058174,0.00174543,0.00093378,0.01077351,0.01732804,0.003
 51061,-0.12224569,-0.12461309,-0.01502273,0.00166533,-0.00171147,-0.00
 079248,-0.00001817,0.00000764,-0.00000685,0.00003817,-0.00000623,0.000
 04249,-0.00005261,0.00008840,-0.00008421,0.00034943,-0.00008681,-0.001
 50544,0.11818160,0.00002382,-0.00002735,0.00005827,-0.00006564,0.00027
 175,0.00040697,0.00295082,0.00143305,-0.00286770,-0.00015211,-0.001917
 01,-0.00141458,-0.01351483,-0.01818024,-0.00344294,-0.12036868,-0.2762
 4938,-0.03431066,-0.00068508,0.00033689,0.00049742,-0.00001566,-0.0000
 4862,-0.00000226,-0.00003555,0.00003755,-0.00005560,0.00003736,-0.0001
 8681,0.00010220,0.00061712,0.00060246,0.00181477,0.12945437,0.29101893
 ,0.00009764,-0.00021593,0.00056327,-0.00128425,-0.00247705,-0.00146648
 ,0.00344592,-0.00494937,0.01194902,0.00023409,0.00303905,-0.00006989,-
 0.00322381,-0.01000359,0.00549835,-0.01375750,-0.03280753,-0.04630813,
 -0.00007800,0.00140035,-0.00048370,0.00043728,0.00018022,-0.00000757,-
 0.00018933,-0.00018656,0.00004332,0.00000100,0.00012392,0.00003963,-0.
 00148541,0.00206203,-0.00666399,0.01369827,0.03992850,0.03202975,-0.00
 004019,0.00006385,-0.00014365,-0.00021897,0.00013531,0.00014575,-0.000
 79065,-0.00024721,-0.00098431,0.00008899,-0.00032948,-0.00036155,-0.01
 186341,0.00047817,0.00356251,-0.33491722,-0.01371822,0.05140029,-0.000
 73520,-0.00197761,-0.00039905,-0.00000470,0.00004594,0.00001933,-0.000
 01025,-0.00001546,0.00001344,0.00001460,0.00010301,-0.00005217,0.00070
 299,0.00072770,0.00189661,-0.00548774,0.00175405,0.00210411,0.35326176
 ,-0.00005710,0.00004287,0.00000808,-0.00058982,-0.00047620,-0.00035284
 ,0.00645230,-0.00237915,0.00033603,-0.00089314,0.00069804,0.00057895,0
 .02648055,0.00504188,-0.00555247,-0.01972971,-0.05583287,0.00036070,-0
 .00227952,0.00102890,0.00088241,0.00009310,0.00010664,0.00001298,-0.00
 004098,-0.00002036,0.00001640,0.00003424,0.00003902,0.00004149,0.00061
 815,-0.00350233,-0.00373758,-0.02306801,0.00290879,0.00390597,0.012979
 94,0.05234475,-0.00015541,0.00018398,-0.00047613,0.00037324,0.00121373
 ,0.00090466,0.00056455,0.00239910,-0.00678647,-0.00011162,-0.00202491,
 -0.00050703,0.00954247,-0.00036774,0.00502696,0.04929165,-0.00076228,-
 0.05008199,-0.00088920,0.00031435,-0.00059586,-0.00023730,-0.00004835,
 0.00001728,0.00011151,0.00007914,-0.00002368,-0.00003699,0.00005194,-0
 .00006578,0.00226374,-0.00382446,0.00972311,-0.00351532,-0.00071439,0.
 00487643,-0.05720132,0.00349987,0.03798851\\-0.00004760,-0.00004766,-0
 .00001091,-0.00001119,0.00002173,0.00002380,0.00000878,-0.00001821,-0.
 00002100,0.00001426,-0.00000081,0.00000771,0.00004465,0.00001986,-0.00
 000791,-0.00001797,0.00001154,0.00002345,-0.00001686,-0.00000117,0.000
 02292,0.00002769,0.00000681,-0.00000412,0.00001845,0.00000941,-0.00000
 661,-0.00001335,0.00001240,-0.00000406,-0.00000133,-0.00001703,-0.0000
 0558,-0.00000204,0.00000355,-0.00001066,-0.00000348,-0.00000042,-0.000
 00702\\\@


 KNOWLEDGE IS CHIMERA - FOR BEYOND IT LIES OTHER KNOWLEDGE,
 AND THE INCOMPLETENESS OF WHAT IS KNOWN RENDERS THE KNOWING FALSE.
     -- THE THOMAS COVENANT CHRONICLES
 Job cpu time:       0 days  0 hours 16 minutes 56.6 seconds.
 Elapsed time:       0 days  0 hours  0 minutes 43.1 seconds.
 File lengths (MBytes):  RWF=     65 Int=      0 D2E=      0 Chk=      5 Scr=      1
 Normal termination of Gaussian 16 at Sun Oct 13 22:13:35 2019.
real 162.64
user 3728.15
sys 18.54
Machine:
brown-a459
brown-a459
brown-a459
brown-a459
brown-a459
brown-a459
brown-a459
brown-a459
brown-a459
brown-a459
brown-a459
brown-a459
brown-a459
brown-a459
brown-a459
brown-a459
brown-a459
brown-a459
brown-a459
brown-a459
brown-a459
brown-a459
brown-a459
brown-a459
