 Entering Gaussian System, Link 0=/apps/cent7/gaussian/g16-A.03/g16-haswell/g16/g16
 Initial command:
 /apps/cent7/gaussian/g16-A.03/g16-haswell/g16/l1.exe "/scratch/brown/finej/gaussian/Gau-134292.inp" -scrdir="/scratch/brown/finej/gaussian/"
 Entering Link 1 = /apps/cent7/gaussian/g16-A.03/g16-haswell/g16/l1.exe PID=    134295.
  
 Copyright (c) 1988,1990,1992,1993,1995,1998,2003,2009,2016,
            Gaussian, Inc.  All Rights Reserved.
  
 This is part of the Gaussian(R) 16 program.  It is based on
 the Gaussian(R) 09 system (copyright 2009, Gaussian, Inc.),
 the Gaussian(R) 03 system (copyright 2003, Gaussian, Inc.),
 the Gaussian(R) 98 system (copyright 1998, Gaussian, Inc.),
 the Gaussian(R) 94 system (copyright 1995, Gaussian, Inc.),
 the Gaussian 92(TM) system (copyright 1992, Gaussian, Inc.),
 the Gaussian 90(TM) system (copyright 1990, Gaussian, Inc.),
 the Gaussian 88(TM) system (copyright 1988, Gaussian, Inc.),
 the Gaussian 86(TM) system (copyright 1986, Carnegie Mellon
 University), and the Gaussian 82(TM) system (copyright 1983,
 Carnegie Mellon University). Gaussian is a federally registered
 trademark of Gaussian, Inc.
  
 This software contains proprietary and confidential information,
 including trade secrets, belonging to Gaussian, Inc.
  
 This software is provided under written license and may be
 used, copied, transmitted, or stored only in accord with that
 written license.
  
 The following legend is applicable only to US Government
 contracts under FAR:
  
                    RESTRICTED RIGHTS LEGEND
  
 Use, reproduction and disclosure by the US Government is
 subject to restrictions as set forth in subparagraphs (a)
 and (c) of the Commercial Computer Software - Restricted
 Rights clause in FAR 52.227-19.
  
 Gaussian, Inc.
 340 Quinnipiac St., Bldg. 40, Wallingford CT 06492
  
  
 ---------------------------------------------------------------
 Warning -- This program may not be used in any manner that
 competes with the business of Gaussian, Inc. or will provide
 assistance to any competitor of Gaussian, Inc.  The licensee
 of this program is prohibited from giving any competitor of
 Gaussian, Inc. access to this program.  By using this program,
 the user acknowledges that Gaussian, Inc. is engaged in the
 business of creating and licensing software in the field of
 computational chemistry and represents and warrants to the
 licensee that it is not a competitor of Gaussian, Inc. and that
 it will not use this program in any manner prohibited above.
 ---------------------------------------------------------------
  

 Cite this work as:
 Gaussian 16, Revision A.03,
 M. J. Frisch, G. W. Trucks, H. B. Schlegel, G. E. Scuseria, 
 M. A. Robb, J. R. Cheeseman, G. Scalmani, V. Barone, 
 G. A. Petersson, H. Nakatsuji, X. Li, M. Caricato, A. V. Marenich, 
 J. Bloino, B. G. Janesko, R. Gomperts, B. Mennucci, H. P. Hratchian, 
 J. V. Ortiz, A. F. Izmaylov, J. L. Sonnenberg, D. Williams-Young, 
 F. Ding, F. Lipparini, F. Egidi, J. Goings, B. Peng, A. Petrone, 
 T. Henderson, D. Ranasinghe, V. G. Zakrzewski, J. Gao, N. Rega, 
 G. Zheng, W. Liang, M. Hada, M. Ehara, K. Toyota, R. Fukuda, 
 J. Hasegawa, M. Ishida, T. Nakajima, Y. Honda, O. Kitao, H. Nakai, 
 T. Vreven, K. Throssell, J. A. Montgomery, Jr., J. E. Peralta, 
 F. Ogliaro, M. J. Bearpark, J. J. Heyd, E. N. Brothers, K. N. Kudin, 
 V. N. Staroverov, T. A. Keith, R. Kobayashi, J. Normand, 
 K. Raghavachari, A. P. Rendell, J. C. Burant, S. S. Iyengar, 
 J. Tomasi, M. Cossi, J. M. Millam, M. Klene, C. Adamo, R. Cammi, 
 J. W. Ochterski, R. L. Martin, K. Morokuma, O. Farkas, 
 J. B. Foresman, and D. J. Fox, Gaussian, Inc., Wallingford CT, 2016.
 
 ******************************************
 Gaussian 16:  ES64L-G16RevA.03 25-Dec-2016
                13-Oct-2019 
 ******************************************
 %chk=28_p.chk
 %nprocshared=24
 Will use up to   24 processors via shared memory.
 %mem=80GB
 -------------------------------------------------------------------
 #P opt freq m062x/6-311++g(d,p) geom=connectivity temperature=0.001
 -------------------------------------------------------------------
 1/18=20,19=15,26=3,38=1,57=2,112=-1000/1,3;
 2/9=110,12=2,17=6,18=5,40=1/2;
 3/5=4,6=6,7=1111,11=2,25=1,30=1,71=1,74=-55/1,2,3;
 4//1;
 5/5=2,38=5/2;
 6/7=2,8=2,9=2,10=2,28=1/1;
 7//1,2,3,16;
 1/18=20,19=15,26=3/3(2);
 2/9=110/2;
 99//99;
 2/9=110/2;
 3/5=4,6=6,7=1111,11=2,25=1,30=1,71=1,74=-55/1,2,3;
 4/5=5,16=3,69=1/1;
 5/5=2,38=5/2;
 7//1,2,3,16;
 1/18=20,19=15,26=3/3(-5);
 2/9=110/2;
 6/7=2,8=2,9=2,10=2,19=2,28=1/1;
 99/9=1/99;
 Leave Link    1 at Sun Oct 13 22:11:55 2019, MaxMem= 10737418240 cpu:               0.9 elap:               0.0
 (Enter /apps/cent7/gaussian/g16-A.03/g16-haswell/g16/l101.exe)
 -------------------
 Title Card Required
 -------------------
 Symbolic Z-matrix:
 Charge =  1 Multiplicity = 1
 C                     4.1742    0.5731    1.4406 
 C                     3.0409    1.2787    1.3893 
 S                     2.5625    2.1726   -0.0341 
 O                     2.9124    1.3333   -1.3604 
 C                     3.3809    3.7157   -0.0811 
 C                     3.2391    4.6176    0.8945 
 O                     0.9724    2.4106   -0.0107 
 H                     4.1376   -0.5161    1.4616 
 H                     5.1354    1.0866    1.4616 
 H                     2.5748    1.1447    2.3654 
 H                     4.0595    4.1689   -0.8037 
 H                     4.1154    4.9854    1.4282 
 H                     2.2471    4.9854    1.1566 
 H                     0.62139   3.29984   0.07673 
 
 ITRead=  0  0  0  0  0  0  0  0  0  0  0  0  0  0
 MicOpt= -1 -1 -1 -1 -1 -1 -1 -1 -1 -1 -1 -1 -1 -1
 NAtoms=     14 NQM=       14 NQMF=       0 NMMI=      0 NMMIF=      0
                NMic=       0 NMicF=      0.
                    Isotopes and Nuclear Properties:
 (Nuclear quadrupole moments (NQMom) in fm**2, nuclear magnetic moments (NMagM)
  in nuclear magnetons)

  Atom         1           2           3           4           5           6           7           8           9          10
 IAtWgt=          12          12          32          16          12          12          16           1           1           1
 AtmWgt=  12.0000000  12.0000000  31.9720718  15.9949146  12.0000000  12.0000000  15.9949146   1.0078250   1.0078250   1.0078250
 NucSpn=           0           0           0           0           0           0           0           1           1           1
 AtZEff=  -0.0000000  -0.0000000  -0.0000000  -0.0000000  -0.0000000  -0.0000000  -0.0000000  -0.0000000  -0.0000000  -0.0000000
 NQMom=    0.0000000   0.0000000   0.0000000   0.0000000   0.0000000   0.0000000   0.0000000   0.0000000   0.0000000   0.0000000
 NMagM=    0.0000000   0.0000000   0.0000000   0.0000000   0.0000000   0.0000000   0.0000000   2.7928460   2.7928460   2.7928460
 AtZNuc=   6.0000000   6.0000000  16.0000000   8.0000000   6.0000000   6.0000000   8.0000000   1.0000000   1.0000000   1.0000000

  Atom        11          12          13          14
 IAtWgt=           1           1           1           1
 AtmWgt=   1.0078250   1.0078250   1.0078250   1.0078250
 NucSpn=           1           1           1           1
 AtZEff=  -0.0000000  -0.0000000  -0.0000000  -0.0000000
 NQMom=    0.0000000   0.0000000   0.0000000   0.0000000
 NMagM=    2.7928460   2.7928460   2.7928460   2.7928460
 AtZNuc=   1.0000000   1.0000000   1.0000000   1.0000000
 Leave Link  101 at Sun Oct 13 22:11:56 2019, MaxMem= 10737418240 cpu:              14.4 elap:               0.6
 (Enter /apps/cent7/gaussian/g16-A.03/g16-haswell/g16/l103.exe)

 GradGradGradGradGradGradGradGradGradGradGradGradGradGradGradGradGradGrad
 Berny optimization.
 Initialization pass.
                           ----------------------------
                           !    Initial Parameters    !
                           ! (Angstroms and Degrees)  !
 --------------------------                            --------------------------
 ! Name  Definition              Value          Derivative Info.                !
 --------------------------------------------------------------------------------
 ! R1    R(1,2)                  1.336          estimate D2E/DX2                !
 ! R2    R(1,8)                  1.09           estimate D2E/DX2                !
 ! R3    R(1,9)                  1.09           estimate D2E/DX2                !
 ! R4    R(2,3)                  1.7476         estimate D2E/DX2                !
 ! R5    R(2,10)                 1.0899         estimate D2E/DX2                !
 ! R6    R(3,4)                  1.6081         estimate D2E/DX2                !
 ! R7    R(3,5)                  1.7473         estimate D2E/DX2                !
 ! R8    R(3,7)                  1.608          estimate D2E/DX2                !
 ! R9    R(5,6)                  1.3362         estimate D2E/DX2                !
 ! R10   R(5,11)                 1.09           estimate D2E/DX2                !
 ! R11   R(6,12)                 1.09           estimate D2E/DX2                !
 ! R12   R(6,13)                 1.09           estimate D2E/DX2                !
 ! R13   R(7,14)                 0.96           estimate D2E/DX2                !
 ! A1    A(2,1,8)              120.0005         estimate D2E/DX2                !
 ! A2    A(2,1,9)              119.9994         estimate D2E/DX2                !
 ! A3    A(8,1,9)              120.0001         estimate D2E/DX2                !
 ! A4    A(1,2,3)              122.2523         estimate D2E/DX2                !
 ! A5    A(1,2,10)             105.2742         estimate D2E/DX2                !
 ! A6    A(3,2,10)             132.4735         estimate D2E/DX2                !
 ! A7    A(2,3,4)              110.1966         estimate D2E/DX2                !
 ! A8    A(2,3,5)              110.2073         estimate D2E/DX2                !
 ! A9    A(2,3,7)              109.546          estimate D2E/DX2                !
 ! A10   A(4,3,5)              109.6837         estimate D2E/DX2                !
 ! A11   A(4,3,7)              107.7234         estimate D2E/DX2                !
 ! A12   A(5,3,7)              109.4414         estimate D2E/DX2                !
 ! A13   A(3,5,6)              121.7865         estimate D2E/DX2                !
 ! A14   A(3,5,11)             132.5807         estimate D2E/DX2                !
 ! A15   A(6,5,11)             105.6328         estimate D2E/DX2                !
 ! A16   A(5,6,12)             119.998          estimate D2E/DX2                !
 ! A17   A(5,6,13)             119.9955         estimate D2E/DX2                !
 ! A18   A(12,6,13)            120.0065         estimate D2E/DX2                !
 ! A19   A(3,7,14)             120.0            estimate D2E/DX2                !
 ! D1    D(8,1,2,3)           -110.0253         estimate D2E/DX2                !
 ! D2    D(8,1,2,10)            69.9672         estimate D2E/DX2                !
 ! D3    D(9,1,2,3)             69.9836         estimate D2E/DX2                !
 ! D4    D(9,1,2,10)          -110.024          estimate D2E/DX2                !
 ! D5    D(1,2,3,4)             39.4596         estimate D2E/DX2                !
 ! D6    D(1,2,3,5)            -81.7274         estimate D2E/DX2                !
 ! D7    D(1,2,3,7)            157.806          estimate D2E/DX2                !
 ! D8    D(10,2,3,4)          -140.5305         estimate D2E/DX2                !
 ! D9    D(10,2,3,5)            98.2825         estimate D2E/DX2                !
 ! D10   D(10,2,3,7)           -22.1841         estimate D2E/DX2                !
 ! D11   D(2,3,5,6)            -59.7098         estimate D2E/DX2                !
 ! D12   D(2,3,5,11)           120.2881         estimate D2E/DX2                !
 ! D13   D(4,3,5,6)            178.7976         estimate D2E/DX2                !
 ! D14   D(4,3,5,11)            -1.2045         estimate D2E/DX2                !
 ! D15   D(7,3,5,6)             60.8197         estimate D2E/DX2                !
 ! D16   D(7,3,5,11)          -119.1824         estimate D2E/DX2                !
 ! D17   D(2,3,7,14)           114.0381         estimate D2E/DX2                !
 ! D18   D(4,3,7,14)          -126.0894         estimate D2E/DX2                !
 ! D19   D(5,3,7,14)            -6.8935         estimate D2E/DX2                !
 ! D20   D(3,5,6,12)           122.7307         estimate D2E/DX2                !
 ! D21   D(3,5,6,13)           -57.2654         estimate D2E/DX2                !
 ! D22   D(11,5,6,12)          -57.2676         estimate D2E/DX2                !
 ! D23   D(11,5,6,13)          122.7363         estimate D2E/DX2                !
 --------------------------------------------------------------------------------
 Trust Radius=3.00D-01 FncErr=1.00D-07 GrdErr=1.00D-06 EigMax=2.50D+02 EigMin=1.00D-04
 Number of steps in this run=     65 maximum allowed number of steps=    100.
 GradGradGradGradGradGradGradGradGradGradGradGradGradGradGradGradGradGrad

 Leave Link  103 at Sun Oct 13 22:11:56 2019, MaxMem= 10737418240 cpu:               0.4 elap:               0.0
 (Enter /apps/cent7/gaussian/g16-A.03/g16-haswell/g16/l202.exe)
                          Input orientation:                          
 ---------------------------------------------------------------------
 Center     Atomic      Atomic             Coordinates (Angstroms)
 Number     Number       Type             X           Y           Z
 ---------------------------------------------------------------------
      1          6           0        4.174200    0.573100    1.440600
      2          6           0        3.040900    1.278700    1.389300
      3         16           0        2.562500    2.172600   -0.034100
      4          8           0        2.912400    1.333300   -1.360400
      5          6           0        3.380900    3.715700   -0.081100
      6          6           0        3.239100    4.617600    0.894500
      7          8           0        0.972400    2.410600   -0.010700
      8          1           0        4.137600   -0.516100    1.461600
      9          1           0        5.135400    1.086600    1.461600
     10          1           0        2.574800    1.144700    2.365400
     11          1           0        4.059500    4.168900   -0.803700
     12          1           0        4.115400    4.985400    1.428200
     13          1           0        2.247100    4.985400    1.156600
     14          1           0        0.621386    3.299839    0.076729
 ---------------------------------------------------------------------
                    Distance matrix (angstroms):
                    1          2          3          4          5
     1  C    0.000000
     2  C    1.335991   0.000000
     3  S    2.707530   1.747567   0.000000
     4  O    3.164750   2.753242   1.608082   0.000000
     5  C    3.580619   2.866469   1.747325   2.744436   0.000000
     6  C    4.186958   3.381178   2.701502   3.997241   1.336161
     7  O    3.966636   2.742242   1.607983   2.597280   2.740276
     8  H    1.090017   2.104587   3.456467   3.589579   4.567346
     9  H    1.089967   2.104533   3.168017   3.600871   3.517152
    10  H    1.933924   1.089943   2.610427   3.745815   3.639396
    11  H    4.240261   3.768296   2.611227   3.109080   1.089972
    12  H    4.412709   3.859493   3.530108   4.749877   2.104665
    13  H    4.823149   3.797880   3.070682   4.485058   2.104648
    14  H    4.681638   3.414951   2.247415   3.343854   2.795133
                    6          7          8          9         10
     6  C    0.000000
     7  O    3.290618   0.000000
     8  H    5.242498   4.555407   0.000000
     9  H    4.047903   4.609904   1.887923   0.000000
    10  H    3.829605   3.133056   2.453050   2.716045   0.000000
    11  H    1.938626   3.640145   5.204508   3.973628   4.625291
    12  H    1.089961   4.310276   5.501646   4.030156   4.242967
    13  H    1.089971   3.101136   5.825248   4.861681   4.039748
    14  H    3.042642   0.960000   5.370569   5.214654   3.701143
                   11         12         13         14
    11  H    0.000000
    12  H    2.377220   0.000000
    13  H    2.791817   1.887938   0.000000
    14  H    3.653909   4.108007   2.578795   0.000000
 Stoichiometry    C4H7O2S(1+)
 Framework group  C1[X(C4H7O2S)]
 Deg. of freedom    36
 Full point group                 C1      NOp   1
 Largest Abelian subgroup         C1      NOp   1
 Largest concise Abelian subgroup C1      NOp   1
                         Standard orientation:                         
 ---------------------------------------------------------------------
 Center     Atomic      Atomic             Coordinates (Angstroms)
 Number     Number       Type             X           Y           Z
 ---------------------------------------------------------------------
      1          6           0       -2.183715    1.177444   -0.063717
      2          6           0       -1.208056    0.565465   -0.740801
      3         16           0       -0.003913   -0.424575    0.049042
      4          8           0       -0.681377   -1.294903    1.219297
      5          6           0        1.258965    0.580313    0.718731
      6          6           0        1.997980    1.386778   -0.048601
      7          8           0        0.633851   -1.447494   -1.015151
      8          1           0       -3.214366    0.837842   -0.166504
      9          1           0       -1.949111    2.016413    0.591357
     10          1           0       -1.370586    0.834253   -1.784503
     11          1           0        1.629221    0.720624    1.734241
     12          1           0        2.033785    2.455878    0.160584
     13          1           0        2.564922    0.975466   -0.883728
     14          1           0        1.557911   -1.368099   -1.262958
 ---------------------------------------------------------------------
 Rotational constants (GHZ):           2.6530028           2.0236247           1.5997282
 Leave Link  202 at Sun Oct 13 22:11:56 2019, MaxMem= 10737418240 cpu:               0.5 elap:               0.0
 (Enter /apps/cent7/gaussian/g16-A.03/g16-haswell/g16/l301.exe)
 Standard basis: 6-311++G(d,p) (5D, 7F)
 Ernie: Thresh=  0.10000D-02 Tol=  0.10000D-05 Strict=F.
 There are   218 symmetry adapted cartesian basis functions of A   symmetry.
 There are   211 symmetry adapted basis functions of A   symmetry.
   211 basis functions,   329 primitive gaussians,   218 cartesian basis functions
    31 alpha electrons       31 beta electrons
       nuclear repulsion energy       391.9113586833 Hartrees.
 IExCor= 4336 DFT=T Ex+Corr=M062X ExCW=0 ScaHFX=  0.540000
 ScaDFX=  1.000000  1.000000  1.000000  1.000000 ScalE2=  1.000000  1.000000
 IRadAn=      5 IRanWt=     -1 IRanGd=            0 ICorTp=0 IEmpDi=  4
 NAtoms=   14 NActive=   14 NUniq=   14 SFac= 1.00D+00 NAtFMM=   60 NAOKFM=F Big=F
 Integral buffers will be    131072 words long.
 Raffenetti 2 integral format.
 Two-electron integral symmetry is turned on.
 Leave Link  301 at Sun Oct 13 22:11:56 2019, MaxMem= 10737418240 cpu:               1.6 elap:               0.1
 (Enter /apps/cent7/gaussian/g16-A.03/g16-haswell/g16/l302.exe)
 NPDir=0 NMtPBC=     1 NCelOv=     1 NCel=       1 NClECP=     1 NCelD=      1
         NCelK=      1 NCelE2=     1 NClLst=     1 CellRange=     0.0.
 One-electron integrals computed using PRISM.
 One-electron integral symmetry used in STVInt
 NBasis=   211 RedAO= T EigKep=  3.03D-05  NBF=   211
 NBsUse=   211 1.00D-06 EigRej= -1.00D+00 NBFU=   211
 Precomputing XC quadrature grid using
 IXCGrd= 4 IRadAn=           5 IRanWt=          -1 IRanGd=           0 AccXCQ= 0.00D+00.
 Generated NRdTot=       0 NPtTot=           0 NUsed=           0 NTot=          32
 NSgBfM=   218   218   218   218   218 MxSgAt=    14 MxSgA2=    14.
 Leave Link  302 at Sun Oct 13 22:11:56 2019, MaxMem= 10737418240 cpu:               3.6 elap:               0.2
 (Enter /apps/cent7/gaussian/g16-A.03/g16-haswell/g16/l303.exe)
 DipDrv:  MaxL=1.
 Leave Link  303 at Sun Oct 13 22:11:56 2019, MaxMem= 10737418240 cpu:               1.3 elap:               0.1
 (Enter /apps/cent7/gaussian/g16-A.03/g16-haswell/g16/l401.exe)
 ExpMin= 3.60D-02 ExpMax= 9.34D+04 ExpMxC= 3.17D+03 IAcc=3 IRadAn=         5 AccDes= 0.00D+00
 Harris functional with IExCor= 1009 and IRadAn=       5 diagonalized for initial guess.
 HarFok:  IExCor= 1009 AccDes= 0.00D+00 IRadAn=         5 IDoV= 1 UseB2=F ITyADJ=14
 ICtDFT=  3500011 ScaDFX=  1.000000  1.000000  1.000000  1.000000
 FoFCou: FMM=F IPFlag=           0 FMFlag=      100000 FMFlg1=           0
         NFxFlg=           0 DoJE=T BraDBF=F KetDBF=T FulRan=T
         wScrn=  0.000000 ICntrl=       500 IOpCl=  0 I1Cent=   200000004 NGrid=           0
         NMat0=    1 NMatS0=      1 NMatT0=    0 NMatD0=    1 NMtDS0=    0 NMtDT0=    0
 Petite list used in FoFCou.
 Harris En= -704.472232217859    
 JPrj=0 DoOrth=F DoCkMO=F.
 Leave Link  401 at Sun Oct 13 22:11:57 2019, MaxMem= 10737418240 cpu:               7.4 elap:               0.3
 (Enter /apps/cent7/gaussian/g16-A.03/g16-haswell/g16/l502.exe)
 Integral symmetry usage will be decided dynamically.
 Closed shell SCF:
 Using DIIS extrapolation, IDIIS=  1040.
 NGot= 10737418240 LenX= 10737315751 LenY= 10737267786
 Requested convergence on RMS density matrix=1.00D-08 within 128 cycles.
 Requested convergence on MAX density matrix=1.00D-06.
 Requested convergence on             energy=1.00D-06.
 No special actions if energy rises.
 Fock matrices will be formed incrementally for  20 cycles.

 Cycle   1  Pass 1  IDiag  1:
 FoFJK:  IHMeth= 1 ICntrl=       0 DoSepK=F KAlg= 0 I1Cent=           0 FoldK=F
 IRaf= 970000000 NMat=       1 IRICut=       1 DoRegI=T DoRafI=F ISym2E= 0 IDoP0=0 IntGTp=1.
 FoFCou: FMM=F IPFlag=           0 FMFlag=      100000 FMFlg1=           0
         NFxFlg=           0 DoJE=F BraDBF=F KetDBF=F FulRan=T
         wScrn=  0.000000 ICntrl=         0 IOpCl=  0 I1Cent=           0 NGrid=           0
         NMat0=    1 NMatS0=      1 NMatT0=    0 NMatD0=    1 NMtDS0=    0 NMtDT0=    0
 Symmetry not used in FoFCou.
 E= -704.196309038647    
 DIIS: error= 3.51D-02 at cycle   1 NSaved=   1.
 NSaved= 1 IEnMin= 1 EnMin= -704.196309038647     IErMin= 1 ErrMin= 3.51D-02
 ErrMax= 3.51D-02  0.00D+00 EMaxC= 1.00D-01 BMatC= 5.55D-01 BMatP= 5.55D-01
 IDIUse=3 WtCom= 6.49D-01 WtEn= 3.51D-01
 Coeff-Com:  0.100D+01
 Coeff-En:   0.100D+01
 Coeff:      0.100D+01
 Gap=     0.217 Goal=   None    Shift=    0.000
 GapD=    0.217 DampG=1.000 DampE=0.500 DampFc=0.5000 IDamp=-1.
 Damping current iteration by 5.00D-01
 RMSDP=4.91D-02 MaxDP=3.35D+00              OVMax= 3.35D-01

 Cycle   2  Pass 1  IDiag  1:
 RMSU=  2.11D-02    CP:  1.61D+00
 E= -704.259454341074     Delta-E=       -0.063145302427 Rises=F Damp=T
 DIIS: error= 1.87D-02 at cycle   2 NSaved=   2.
 NSaved= 2 IEnMin= 2 EnMin= -704.259454341074     IErMin= 2 ErrMin= 1.87D-02
 ErrMax= 1.87D-02  0.00D+00 EMaxC= 1.00D-01 BMatC= 1.00D-01 BMatP= 5.55D-01
 IDIUse=3 WtCom= 8.13D-01 WtEn= 1.87D-01
 Coeff-Com:  0.220D+00 0.780D+00
 Coeff-En:   0.423D+00 0.577D+00
 Coeff:      0.258D+00 0.742D+00
 Gap=     0.247 Goal=   None    Shift=    0.000
 RMSDP=1.57D-02 MaxDP=1.10D+00 DE=-6.31D-02 OVMax= 2.40D-01

 Cycle   3  Pass 1  IDiag  1:
 RMSU=  4.20D-03    CP:  1.26D+00  3.67D-01
 E= -704.540462971566     Delta-E=       -0.281008630492 Rises=F Damp=F
 DIIS: error= 1.65D-02 at cycle   3 NSaved=   3.
 NSaved= 3 IEnMin= 3 EnMin= -704.540462971566     IErMin= 3 ErrMin= 1.65D-02
 ErrMax= 1.65D-02  0.00D+00 EMaxC= 1.00D-01 BMatC= 6.88D-02 BMatP= 1.00D-01
 IDIUse=3 WtCom= 8.35D-01 WtEn= 1.65D-01
 Coeff-Com:  0.492D-01 0.443D+00 0.508D+00
 Coeff-En:   0.000D+00 0.000D+00 0.100D+01
 Coeff:      0.411D-01 0.370D+00 0.589D+00
 Gap=     0.210 Goal=   None    Shift=    0.000
 RMSDP=6.49D-03 MaxDP=3.54D-01 DE=-2.81D-01 OVMax= 9.29D-02

 Cycle   4  Pass 1  IDiag  1:
 RMSU=  2.48D-03    CP:  1.37D+00  6.02D-01  4.32D-01
 E= -704.587807906395     Delta-E=       -0.047344934828 Rises=F Damp=F
 DIIS: error= 4.91D-03 at cycle   4 NSaved=   4.
 NSaved= 4 IEnMin= 4 EnMin= -704.587807906395     IErMin= 4 ErrMin= 4.91D-03
 ErrMax= 4.91D-03  0.00D+00 EMaxC= 1.00D-01 BMatC= 1.31D-02 BMatP= 6.88D-02
 IDIUse=3 WtCom= 9.51D-01 WtEn= 4.91D-02
 Coeff-Com: -0.659D-02 0.583D-01 0.318D+00 0.630D+00
 Coeff-En:   0.000D+00 0.000D+00 0.160D+00 0.840D+00
 Coeff:     -0.627D-02 0.554D-01 0.311D+00 0.640D+00
 Gap=     0.207 Goal=   None    Shift=    0.000
 RMSDP=2.70D-03 MaxDP=1.62D-01 DE=-4.73D-02 OVMax= 3.55D-02

 Cycle   5  Pass 1  IDiag  1:
 RMSU=  4.81D-04    CP:  1.32D+00  5.01D-01  6.39D-01  7.36D-01
 E= -704.597644902480     Delta-E=       -0.009836996086 Rises=F Damp=F
 DIIS: error= 1.27D-03 at cycle   5 NSaved=   5.
 NSaved= 5 IEnMin= 5 EnMin= -704.597644902480     IErMin= 5 ErrMin= 1.27D-03
 ErrMax= 1.27D-03  0.00D+00 EMaxC= 1.00D-01 BMatC= 6.62D-04 BMatP= 1.31D-02
 IDIUse=3 WtCom= 9.87D-01 WtEn= 1.27D-02
 Coeff-Com: -0.564D-02-0.314D-02 0.114D+00 0.322D+00 0.573D+00
 Coeff-En:   0.000D+00 0.000D+00 0.000D+00 0.000D+00 0.100D+01
 Coeff:     -0.557D-02-0.310D-02 0.113D+00 0.318D+00 0.578D+00
 Gap=     0.205 Goal=   None    Shift=    0.000
 RMSDP=2.71D-04 MaxDP=1.22D-02 DE=-9.84D-03 OVMax= 8.06D-03

 Cycle   6  Pass 1  IDiag  1:
 RMSU=  1.49D-04    CP:  1.32D+00  5.07D-01  6.23D-01  7.76D-01  7.81D-01
 E= -704.598224426071     Delta-E=       -0.000579523591 Rises=F Damp=F
 DIIS: error= 2.36D-04 at cycle   6 NSaved=   6.
 NSaved= 6 IEnMin= 6 EnMin= -704.598224426071     IErMin= 6 ErrMin= 2.36D-04
 ErrMax= 2.36D-04  0.00D+00 EMaxC= 1.00D-01 BMatC= 3.94D-05 BMatP= 6.62D-04
 IDIUse=3 WtCom= 9.98D-01 WtEn= 2.36D-03
 Coeff-Com:  0.162D-05-0.752D-02-0.110D-02 0.243D-01 0.202D+00 0.782D+00
 Coeff-En:   0.000D+00 0.000D+00 0.000D+00 0.000D+00 0.000D+00 0.100D+01
 Coeff:      0.161D-05-0.751D-02-0.110D-02 0.243D-01 0.202D+00 0.783D+00
 Gap=     0.206 Goal=   None    Shift=    0.000
 RMSDP=2.49D-04 MaxDP=1.96D-02 DE=-5.80D-04 OVMax= 5.78D-03

 Cycle   7  Pass 1  IDiag  1:
 RMSU=  7.52D-05    CP:  1.32D+00  4.99D-01  6.24D-01  7.87D-01  9.49D-01
                    CP:  1.06D+00
 E= -704.598285148813     Delta-E=       -0.000060722743 Rises=F Damp=F
 DIIS: error= 1.54D-04 at cycle   7 NSaved=   7.
 NSaved= 7 IEnMin= 7 EnMin= -704.598285148813     IErMin= 7 ErrMin= 1.54D-04
 ErrMax= 1.54D-04  0.00D+00 EMaxC= 1.00D-01 BMatC= 7.55D-06 BMatP= 3.94D-05
 IDIUse=3 WtCom= 9.98D-01 WtEn= 1.54D-03
 Coeff-Com:  0.934D-03-0.323D-02-0.151D-01-0.324D-01-0.108D-01 0.316D+00
 Coeff-Com:  0.745D+00
 Coeff-En:   0.000D+00 0.000D+00 0.000D+00 0.000D+00 0.000D+00 0.000D+00
 Coeff-En:   0.100D+01
 Coeff:      0.933D-03-0.323D-02-0.151D-01-0.323D-01-0.107D-01 0.315D+00
 Coeff:      0.745D+00
 Gap=     0.206 Goal=   None    Shift=    0.000
 RMSDP=8.19D-05 MaxDP=5.68D-03 DE=-6.07D-05 OVMax= 1.79D-03

 Cycle   8  Pass 1  IDiag  1:
 RMSU=  2.33D-05    CP:  1.31D+00  4.96D-01  6.26D-01  7.88D-01  9.92D-01
                    CP:  1.20D+00  1.17D+00
 E= -704.598296861915     Delta-E=       -0.000011713102 Rises=F Damp=F
 DIIS: error= 3.16D-05 at cycle   8 NSaved=   8.
 NSaved= 8 IEnMin= 8 EnMin= -704.598296861915     IErMin= 8 ErrMin= 3.16D-05
 ErrMax= 3.16D-05  0.00D+00 EMaxC= 1.00D-01 BMatC= 6.02D-07 BMatP= 7.55D-06
 IDIUse=1 WtCom= 1.00D+00 WtEn= 0.00D+00
 Coeff-Com:  0.219D-03 0.276D-03-0.334D-02-0.106D-01-0.411D-01-0.203D-01
 Coeff-Com:  0.688D-01 0.101D+01
 Coeff:      0.219D-03 0.276D-03-0.334D-02-0.106D-01-0.411D-01-0.203D-01
 Coeff:      0.688D-01 0.101D+01
 Gap=     0.206 Goal=   None    Shift=    0.000
 RMSDP=4.39D-05 MaxDP=3.51D-03 DE=-1.17D-05 OVMax= 1.31D-03

 Cycle   9  Pass 1  IDiag  1:
 RMSU=  1.01D-05    CP:  1.31D+00  4.95D-01  6.26D-01  7.88D-01  1.02D+00
                    CP:  1.27D+00  1.35D+00  1.40D+00
 E= -704.598298655420     Delta-E=       -0.000001793505 Rises=F Damp=F
 DIIS: error= 3.51D-05 at cycle   9 NSaved=   9.
 NSaved= 9 IEnMin= 9 EnMin= -704.598298655420     IErMin= 8 ErrMin= 3.16D-05
 ErrMax= 3.51D-05  0.00D+00 EMaxC= 1.00D-01 BMatC= 1.73D-07 BMatP= 6.02D-07
 IDIUse=1 WtCom= 1.00D+00 WtEn= 0.00D+00
 Coeff-Com:  0.378D-04 0.359D-03-0.142D-03-0.153D-02-0.200D-01-0.327D-01
 Coeff-Com: -0.467D-01 0.433D+00 0.668D+00
 Coeff:      0.378D-04 0.359D-03-0.142D-03-0.153D-02-0.200D-01-0.327D-01
 Coeff:     -0.467D-01 0.433D+00 0.668D+00
 Gap=     0.206 Goal=   None    Shift=    0.000
 RMSDP=8.84D-06 MaxDP=5.65D-04 DE=-1.79D-06 OVMax= 4.50D-04

 Cycle  10  Pass 1  IDiag  1:
 RMSU=  3.76D-06    CP:  1.31D+00  4.95D-01  6.26D-01  7.89D-01  1.02D+00
                    CP:  1.29D+00  1.41D+00  1.54D+00  1.01D+00
 E= -704.598298935542     Delta-E=       -0.000000280122 Rises=F Damp=F
 DIIS: error= 8.52D-06 at cycle  10 NSaved=  10.
 NSaved=10 IEnMin=10 EnMin= -704.598298935542     IErMin=10 ErrMin= 8.52D-06
 ErrMax= 8.52D-06  0.00D+00 EMaxC= 1.00D-01 BMatC= 3.67D-08 BMatP= 1.73D-07
 IDIUse=1 WtCom= 1.00D+00 WtEn= 0.00D+00
 Coeff-Com: -0.121D-05-0.106D-04 0.796D-03 0.233D-02 0.199D-02-0.421D-02
 Coeff-Com: -0.386D-01-0.120D+00 0.298D+00 0.859D+00
 Coeff:     -0.121D-05-0.106D-04 0.796D-03 0.233D-02 0.199D-02-0.421D-02
 Coeff:     -0.386D-01-0.120D+00 0.298D+00 0.859D+00
 Gap=     0.206 Goal=   None    Shift=    0.000
 RMSDP=6.04D-06 MaxDP=3.57D-04 DE=-2.80D-07 OVMax= 2.30D-04

 Cycle  11  Pass 1  IDiag  1:
 RMSU=  1.71D-06    CP:  1.31D+00  4.95D-01  6.26D-01  7.89D-01  1.03D+00
                    CP:  1.29D+00  1.46D+00  1.66D+00  1.25D+00  1.35D+00
 E= -704.598298998042     Delta-E=       -0.000000062500 Rises=F Damp=F
 DIIS: error= 3.08D-06 at cycle  11 NSaved=  11.
 NSaved=11 IEnMin=11 EnMin= -704.598298998042     IErMin=11 ErrMin= 3.08D-06
 ErrMax= 3.08D-06  0.00D+00 EMaxC= 1.00D-01 BMatC= 2.67D-09 BMatP= 3.67D-08
 IDIUse=1 WtCom= 1.00D+00 WtEn= 0.00D+00
 Coeff-Com:  0.982D-05-0.480D-04 0.287D-03 0.743D-03 0.203D-02 0.253D-02
 Coeff-Com: -0.751D-02-0.619D-01 0.579D-01 0.204D+00 0.802D+00
 Coeff:      0.982D-05-0.480D-04 0.287D-03 0.743D-03 0.203D-02 0.253D-02
 Coeff:     -0.751D-02-0.619D-01 0.579D-01 0.204D+00 0.802D+00
 Gap=     0.206 Goal=   None    Shift=    0.000
 RMSDP=9.48D-07 MaxDP=2.45D-05 DE=-6.25D-08 OVMax= 5.42D-05

 Cycle  12  Pass 1  IDiag  1:
 RMSU=  6.04D-07    CP:  1.31D+00  4.95D-01  6.26D-01  7.89D-01  1.03D+00
                    CP:  1.29D+00  1.46D+00  1.68D+00  1.28D+00  1.41D+00
                    CP:  1.03D+00
 E= -704.598299002994     Delta-E=       -0.000000004952 Rises=F Damp=F
 DIIS: error= 1.50D-06 at cycle  12 NSaved=  12.
 NSaved=12 IEnMin=12 EnMin= -704.598299002994     IErMin=12 ErrMin= 1.50D-06
 ErrMax= 1.50D-06  0.00D+00 EMaxC= 1.00D-01 BMatC= 1.03D-09 BMatP= 2.67D-09
 IDIUse=1 WtCom= 1.00D+00 WtEn= 0.00D+00
 Coeff-Com:  0.479D-05-0.261D-04 0.351D-05-0.121D-03 0.631D-03 0.186D-02
 Coeff-Com:  0.334D-02-0.532D-02-0.369D-01-0.135D+00 0.371D+00 0.801D+00
 Coeff:      0.479D-05-0.261D-04 0.351D-05-0.121D-03 0.631D-03 0.186D-02
 Coeff:      0.334D-02-0.532D-02-0.369D-01-0.135D+00 0.371D+00 0.801D+00
 Gap=     0.206 Goal=   None    Shift=    0.000
 RMSDP=9.80D-07 MaxDP=4.81D-05 DE=-4.95D-09 OVMax= 3.45D-05

 Cycle  13  Pass 1  IDiag  1:
 RMSU=  2.63D-07    CP:  1.31D+00  4.95D-01  6.26D-01  7.89D-01  1.03D+00
                    CP:  1.29D+00  1.47D+00  1.69D+00  1.31D+00  1.50D+00
                    CP:  1.28D+00  1.16D+00
 E= -704.598299004856     Delta-E=       -0.000000001863 Rises=F Damp=F
 DIIS: error= 3.99D-07 at cycle  13 NSaved=  13.
 NSaved=13 IEnMin=13 EnMin= -704.598299004856     IErMin=13 ErrMin= 3.99D-07
 ErrMax= 3.99D-07  0.00D+00 EMaxC= 1.00D-01 BMatC= 5.98D-11 BMatP= 1.03D-09
 IDIUse=1 WtCom= 1.00D+00 WtEn= 0.00D+00
 Coeff-Com:  0.727D-06-0.186D-05-0.300D-04-0.116D-03-0.148D-03 0.304D-03
 Coeff-Com:  0.168D-02 0.870D-02-0.102D-01-0.698D-01 0.139D-01 0.207D+00
 Coeff-Com:  0.849D+00
 Coeff:      0.727D-06-0.186D-05-0.300D-04-0.116D-03-0.148D-03 0.304D-03
 Coeff:      0.168D-02 0.870D-02-0.102D-01-0.698D-01 0.139D-01 0.207D+00
 Coeff:      0.849D+00
 Gap=     0.206 Goal=   None    Shift=    0.000
 RMSDP=2.80D-07 MaxDP=1.23D-05 DE=-1.86D-09 OVMax= 1.06D-05

 Cycle  14  Pass 1  IDiag  1:
 RMSU=  1.07D-07    CP:  1.31D+00  4.95D-01  6.26D-01  7.89D-01  1.03D+00
                    CP:  1.29D+00  1.47D+00  1.69D+00  1.31D+00  1.52D+00
                    CP:  1.34D+00  1.29D+00  1.02D+00
 E= -704.598299004985     Delta-E=       -0.000000000129 Rises=F Damp=F
 DIIS: error= 3.93D-07 at cycle  14 NSaved=  14.
 NSaved=14 IEnMin=14 EnMin= -704.598299004985     IErMin=14 ErrMin= 3.93D-07
 ErrMax= 3.93D-07  0.00D+00 EMaxC= 1.00D-01 BMatC= 3.01D-11 BMatP= 5.98D-11
 IDIUse=1 WtCom= 1.00D+00 WtEn= 0.00D+00
 Coeff-Com: -0.861D-06 0.297D-05-0.130D-04-0.276D-04-0.146D-03-0.163D-03
 Coeff-Com:  0.195D-03 0.386D-02 0.415D-03-0.175D-01-0.483D-01-0.449D-01
 Coeff-Com:  0.431D+00 0.676D+00
 Coeff:     -0.861D-06 0.297D-05-0.130D-04-0.276D-04-0.146D-03-0.163D-03
 Coeff:      0.195D-03 0.386D-02 0.415D-03-0.175D-01-0.483D-01-0.449D-01
 Coeff:      0.431D+00 0.676D+00
 Gap=     0.206 Goal=   None    Shift=    0.000
 RMSDP=1.16D-07 MaxDP=4.46D-06 DE=-1.29D-10 OVMax= 3.91D-06

 Cycle  15  Pass 1  IDiag  1:
 RMSU=  4.48D-08    CP:  1.31D+00  4.95D-01  6.26D-01  7.89D-01  1.03D+00
                    CP:  1.29D+00  1.47D+00  1.69D+00  1.31D+00  1.52D+00
                    CP:  1.37D+00  1.38D+00  1.12D+00  1.01D+00
 E= -704.598299005026     Delta-E=       -0.000000000041 Rises=F Damp=F
 DIIS: error= 4.36D-08 at cycle  15 NSaved=  15.
 NSaved=15 IEnMin=15 EnMin= -704.598299005026     IErMin=15 ErrMin= 4.36D-08
 ErrMax= 4.36D-08  0.00D+00 EMaxC= 1.00D-01 BMatC= 1.31D-12 BMatP= 3.01D-11
 IDIUse=1 WtCom= 1.00D+00 WtEn= 0.00D+00
 Coeff-Com: -0.233D-06 0.101D-05 0.100D-06 0.772D-05-0.286D-04-0.764D-04
 Coeff-Com: -0.181D-03 0.184D-04 0.270D-02 0.376D-02-0.116D-01-0.454D-01
 Coeff-Com:  0.298D-01 0.169D+00 0.852D+00
 Coeff:     -0.233D-06 0.101D-05 0.100D-06 0.772D-05-0.286D-04-0.764D-04
 Coeff:     -0.181D-03 0.184D-04 0.270D-02 0.376D-02-0.116D-01-0.454D-01
 Coeff:      0.298D-01 0.169D+00 0.852D+00
 Gap=     0.206 Goal=   None    Shift=    0.000
 RMSDP=3.55D-08 MaxDP=2.41D-06 DE=-4.09D-11 OVMax= 1.16D-06

 Cycle  16  Pass 1  IDiag  1:
 RMSU=  1.61D-08    CP:  1.31D+00  4.95D-01  6.26D-01  7.89D-01  1.03D+00
                    CP:  1.29D+00  1.47D+00  1.69D+00  1.31D+00  1.52D+00
                    CP:  1.37D+00  1.40D+00  1.16D+00  1.12D+00  1.08D+00
 E= -704.598299005036     Delta-E=       -0.000000000010 Rises=F Damp=F
 DIIS: error= 2.10D-08 at cycle  16 NSaved=  16.
 NSaved=16 IEnMin=16 EnMin= -704.598299005036     IErMin=16 ErrMin= 2.10D-08
 ErrMax= 2.10D-08  0.00D+00 EMaxC= 1.00D-01 BMatC= 2.27D-13 BMatP= 1.31D-12
 IDIUse=1 WtCom= 1.00D+00 WtEn= 0.00D+00
 Coeff-Com:  0.166D-06-0.402D-06 0.166D-05 0.264D-05 0.173D-04 0.155D-04
 Coeff-Com: -0.333D-04-0.508D-03 0.421D-03 0.191D-02 0.641D-02 0.542D-03
 Coeff-Com: -0.494D-01-0.101D+00 0.101D+00 0.104D+01
 Coeff:      0.166D-06-0.402D-06 0.166D-05 0.264D-05 0.173D-04 0.155D-04
 Coeff:     -0.333D-04-0.508D-03 0.421D-03 0.191D-02 0.641D-02 0.542D-03
 Coeff:     -0.494D-01-0.101D+00 0.101D+00 0.104D+01
 Gap=     0.206 Goal=   None    Shift=    0.000
 RMSDP=2.08D-08 MaxDP=1.27D-06 DE=-9.55D-12 OVMax= 4.44D-07

 Cycle  17  Pass 1  IDiag  1:
 RMSU=  4.28D-09    CP:  1.31D+00  4.95D-01  6.26D-01  7.89D-01  1.03D+00
                    CP:  1.29D+00  1.47D+00  1.69D+00  1.31D+00  1.52D+00
                    CP:  1.37D+00  1.41D+00  1.16D+00  1.19D+00  1.28D+00
                    CP:  1.11D+00
 E= -704.598299005030     Delta-E=        0.000000000006 Rises=F Damp=F
 DIIS: error= 5.84D-09 at cycle  17 NSaved=  17.
 NSaved=17 IEnMin=16 EnMin= -704.598299005036     IErMin=17 ErrMin= 5.84D-09
 ErrMax= 5.84D-09  0.00D+00 EMaxC= 1.00D-01 BMatC= 1.30D-14 BMatP= 2.27D-13
 IDIUse=1 WtCom= 1.00D+00 WtEn= 0.00D+00
 Coeff-Com:  0.436D-07-0.132D-06 0.348D-06 0.119D-06 0.201D-05 0.210D-05
 Coeff-Com:  0.877D-05-0.137D-04-0.530D-04-0.206D-03 0.719D-03 0.195D-02
 Coeff-Com: -0.714D-03-0.133D-01-0.477D-01-0.252D-01 0.108D+01
 Coeff:      0.436D-07-0.132D-06 0.348D-06 0.119D-06 0.201D-05 0.210D-05
 Coeff:      0.877D-05-0.137D-04-0.530D-04-0.206D-03 0.719D-03 0.195D-02
 Coeff:     -0.714D-03-0.133D-01-0.477D-01-0.252D-01 0.108D+01
 Gap=     0.206 Goal=   None    Shift=    0.000
 RMSDP=5.42D-09 MaxDP=3.49D-07 DE= 5.91D-12 OVMax= 1.19D-07

 SCF Done:  E(RM062X) =  -704.598299005     A.U. after   17 cycles
            NFock= 17  Conv=0.54D-08     -V/T= 2.0024
 KE= 7.029017899701D+02 PE=-2.433350427202D+03 EE= 6.339389795438D+02
 Leave Link  502 at Sun Oct 13 22:12:06 2019, MaxMem= 10737418240 cpu:             227.0 elap:               9.5
 (Enter /apps/cent7/gaussian/g16-A.03/g16-haswell/g16/l601.exe)
 Copying SCF densities to generalized density rwf, IOpCl= 0 IROHF=0.

 **********************************************************************

            Population analysis using the SCF density.

 **********************************************************************

 Orbital symmetries:
       Occupied  (A) (A) (A) (A) (A) (A) (A) (A) (A) (A) (A) (A)
                 (A) (A) (A) (A) (A) (A) (A) (A) (A) (A) (A) (A)
                 (A) (A) (A) (A) (A) (A) (A)
       Virtual   (A) (A) (A) (A) (A) (A) (A) (A) (A) (A) (A) (A)
                 (A) (A) (A) (A) (A) (A) (A) (A) (A) (A) (A) (A)
                 (A) (A) (A) (A) (A) (A) (A) (A) (A) (A) (A) (A)
                 (A) (A) (A) (A) (A) (A) (A) (A) (A) (A) (A) (A)
                 (A) (A) (A) (A) (A) (A) (A) (A) (A) (A) (A) (A)
                 (A) (A) (A) (A) (A) (A) (A) (A) (A) (A) (A) (A)
                 (A) (A) (A) (A) (A) (A) (A) (A) (A) (A) (A) (A)
                 (A) (A) (A) (A) (A) (A) (A) (A) (A) (A) (A) (A)
                 (A) (A) (A) (A) (A) (A) (A) (A) (A) (A) (A) (A)
                 (A) (A) (A) (A) (A) (A) (A) (A) (A) (A) (A) (A)
                 (A) (A) (A) (A) (A) (A) (A) (A) (A) (A) (A) (A)
                 (A) (A) (A) (A) (A) (A) (A) (A) (A) (A) (A) (A)
                 (A) (A) (A) (A) (A) (A) (A) (A) (A) (A) (A) (A)
                 (A) (A) (A) (A) (A) (A) (A) (A) (A) (A) (A) (A)
                 (A) (A) (A) (A) (A) (A) (A) (A) (A) (A) (A) (A)
 The electronic state is 1-A.
 Alpha  occ. eigenvalues --  -90.34015 -19.89553 -19.82871 -10.79044 -10.78593
 Alpha  occ. eigenvalues --  -10.78031 -10.77658  -8.68168  -6.60460  -6.60193
 Alpha  occ. eigenvalues --   -6.60126  -1.44036  -1.30593  -1.15076  -1.10644
 Alpha  occ. eigenvalues --   -1.03206  -0.91157  -0.89241  -0.82755  -0.80050
 Alpha  occ. eigenvalues --   -0.75647  -0.72900  -0.71878  -0.70272  -0.69193
 Alpha  occ. eigenvalues --   -0.68358  -0.64406  -0.56961  -0.56382  -0.51283
 Alpha  occ. eigenvalues --   -0.48362
 Alpha virt. eigenvalues --   -0.27749  -0.26067  -0.17379  -0.15303  -0.12863
 Alpha virt. eigenvalues --   -0.11940  -0.11017  -0.10135  -0.09432  -0.07962
 Alpha virt. eigenvalues --   -0.07675  -0.07226  -0.06279  -0.05526  -0.05376
 Alpha virt. eigenvalues --   -0.04719  -0.03258  -0.02835  -0.02465  -0.01370
 Alpha virt. eigenvalues --   -0.00602  -0.00319   0.00339   0.00825   0.01338
 Alpha virt. eigenvalues --    0.02322   0.02877   0.03400   0.04069   0.04263
 Alpha virt. eigenvalues --    0.04733   0.05169   0.06468   0.06969   0.08269
 Alpha virt. eigenvalues --    0.10180   0.11347   0.11378   0.12710   0.13587
 Alpha virt. eigenvalues --    0.14411   0.14676   0.16878   0.17248   0.19110
 Alpha virt. eigenvalues --    0.20690   0.21221   0.21630   0.22377   0.23314
 Alpha virt. eigenvalues --    0.24506   0.26238   0.27821   0.30209   0.34773
 Alpha virt. eigenvalues --    0.36854   0.39234   0.40024   0.40767   0.41635
 Alpha virt. eigenvalues --    0.43200   0.45379   0.46409   0.46711   0.48290
 Alpha virt. eigenvalues --    0.49257   0.50500   0.54331   0.56187   0.56964
 Alpha virt. eigenvalues --    0.58837   0.59183   0.62933   0.65187   0.67729
 Alpha virt. eigenvalues --    0.69449   0.71135   0.72673   0.73055   0.75814
 Alpha virt. eigenvalues --    0.77953   0.80965   0.90736   0.93018   0.95896
 Alpha virt. eigenvalues --    0.98488   0.99938   1.05693   1.06912   1.08659
 Alpha virt. eigenvalues --    1.09237   1.10289   1.18384   1.23106   1.24037
 Alpha virt. eigenvalues --    1.27449   1.29613   1.30880   1.31764   1.32851
 Alpha virt. eigenvalues --    1.34956   1.37154   1.43786   1.44364   1.48004
 Alpha virt. eigenvalues --    1.50123   1.51179   1.53042   1.54793   1.60928
 Alpha virt. eigenvalues --    1.63112   1.64702   1.68878   1.69454   1.74382
 Alpha virt. eigenvalues --    1.76698   1.79481   1.83988   1.84645   1.86318
 Alpha virt. eigenvalues --    1.87522   1.88351   1.92685   1.94830   2.03853
 Alpha virt. eigenvalues --    2.05185   2.12077   2.14170   2.34445   2.35169
 Alpha virt. eigenvalues --    2.36946   2.37953   2.39863   2.42716   2.44155
 Alpha virt. eigenvalues --    2.46462   2.47912   2.52770   2.54658   2.57140
 Alpha virt. eigenvalues --    2.60408   2.67487   2.70081   2.74254   2.75704
 Alpha virt. eigenvalues --    2.76158   2.81943   2.82626   2.84868   2.87405
 Alpha virt. eigenvalues --    2.89625   2.93473   3.02964   3.22979   3.25370
 Alpha virt. eigenvalues --    3.30310   3.42478   3.44634   3.56550   3.56764
 Alpha virt. eigenvalues --    3.64936   3.67206   3.70820   4.88637   4.92159
 Alpha virt. eigenvalues --    4.99549   5.00620   5.04810   5.37589   7.97370
 Alpha virt. eigenvalues --   17.28503  17.30280  17.36825  23.56412  23.58054
 Alpha virt. eigenvalues --   24.07424  24.08490  49.75957  49.79917 189.23418
          Condensed to atoms (all electrons):
               1          2          3          4          5          6
     1  C    6.758821  -1.705946  -0.408236   0.054438   0.923784  -0.164286
     2  C   -1.705946  10.024653  -0.732768  -0.277012  -1.797137   0.413322
     3  S   -0.408236  -0.732768  18.421563   0.541328  -2.421182   0.808572
     4  O    0.054438  -0.277012   0.541328   8.187266  -0.286780   0.071731
     5  C    0.923784  -1.797137  -2.421182  -0.286780  10.788844  -1.730073
     6  C   -0.164286   0.413322   0.808572   0.071731  -1.730073   6.426215
     7  O    0.092656  -0.188449  -0.044601  -0.124791   0.020816  -0.041781
     8  H    0.274893   0.065432   0.057212  -0.001547  -0.049019   0.014061
     9  H    0.404489  -0.078644  -0.059530  -0.002530   0.074309  -0.018451
    10  H   -0.026031   0.360539  -0.087772   0.005839   0.062723  -0.024654
    11  H    0.042284  -0.086539  -0.178269  -0.032222   0.774756  -0.307902
    12  H   -0.010669   0.055695  -0.015618  -0.001143  -0.099491   0.443146
    13  H    0.019403  -0.107728   0.113486   0.009210  -0.072892   0.359201
    14  H   -0.019983   0.106177   0.022140   0.008765  -0.134201   0.047377
               7          8          9         10         11         12
     1  C    0.092656   0.274893   0.404489  -0.026031   0.042284  -0.010669
     2  C   -0.188449   0.065432  -0.078644   0.360539  -0.086539   0.055695
     3  S   -0.044601   0.057212  -0.059530  -0.087772  -0.178269  -0.015618
     4  O   -0.124791  -0.001547  -0.002530   0.005839  -0.032222  -0.001143
     5  C    0.020816  -0.049019   0.074309   0.062723   0.774756  -0.099491
     6  C   -0.041781   0.014061  -0.018451  -0.024654  -0.307902   0.443146
     7  O    8.226493   0.002039  -0.000328  -0.031369   0.008977  -0.001764
     8  H    0.002039   0.428421  -0.024846  -0.021189  -0.003495  -0.000021
     9  H   -0.000328  -0.024846   0.491080   0.014562   0.006503  -0.003618
    10  H   -0.031369  -0.021189   0.014562   0.409951   0.002471   0.001422
    11  H    0.008977  -0.003495   0.006503   0.002471   0.438424  -0.018198
    12  H   -0.001764  -0.000021  -0.003618   0.001422  -0.018198   0.442979
    13  H    0.007970   0.000582   0.000166  -0.003012   0.004349  -0.032458
    14  H    0.175490  -0.000654   0.000277   0.009655  -0.003062   0.004230
              13         14
     1  C    0.019403  -0.019983
     2  C   -0.107728   0.106177
     3  S    0.113486   0.022140
     4  O    0.009210   0.008765
     5  C   -0.072892  -0.134201
     6  C    0.359201   0.047377
     7  O    0.007970   0.175490
     8  H    0.000582  -0.000654
     9  H    0.000166   0.000277
    10  H   -0.003012   0.009655
    11  H    0.004349  -0.003062
    12  H   -0.032458   0.004230
    13  H    0.535756  -0.013525
    14  H   -0.013525   0.437408
 Mulliken charges:
               1
     1  C   -0.235618
     2  C   -0.051596
     3  S   -0.016326
     4  O   -0.152553
     5  C   -0.054457
     6  C   -0.296478
     7  O   -0.101357
     8  H    0.258132
     9  H    0.196559
    10  H    0.326865
    11  H    0.351922
    12  H    0.235508
    13  H    0.179492
    14  H    0.359906
 Sum of Mulliken charges =   1.00000
 Mulliken charges with hydrogens summed into heavy atoms:
               1
     1  C    0.219074
     2  C    0.275270
     3  S   -0.016326
     4  O   -0.152553
     5  C    0.297465
     6  C    0.118522
     7  O    0.258549
 Electronic spatial extent (au):  <R**2>=            855.7600
 Charge=              1.0000 electrons
 Dipole moment (field-independent basis, Debye):
    X=              2.1181    Y=              5.2767    Z=             -2.7163  Tot=              6.3014
 Quadrupole moment (field-independent basis, Debye-Ang):
   XX=            -24.2023   YY=            -41.3682   ZZ=            -43.9440
   XY=             -4.9550   XZ=              0.3924   YZ=              3.2336
 Traceless Quadrupole moment (field-independent basis, Debye-Ang):
   XX=             12.3025   YY=             -4.8633   ZZ=             -7.4392
   XY=             -4.9550   XZ=              0.3924   YZ=              3.2336
 Octapole moment (field-independent basis, Debye-Ang**2):
  XXX=             -7.7326  YYY=             10.8951  ZZZ=             -6.2517  XYY=              8.4101
  XXY=             14.9574  XXZ=             -8.9847  XZZ=              8.6631  YZZ=              2.1542
  YYZ=             -2.5393  XYZ=              5.2015
 Hexadecapole moment (field-independent basis, Debye-Ang**3):
 XXXX=           -405.6308 YYYY=           -322.5119 ZZZZ=           -179.8831 XXXY=            -26.0055
 XXXZ=            -19.5991 YYYX=             -0.6774 YYYZ=             12.8061 ZZZX=              4.5876
 ZZZY=              4.5708 XXYY=           -110.0472 XXZZ=           -102.0903 YYZZ=            -90.0115
 XXYZ=             11.3560 YYXZ=             -7.4338 ZZXY=             -9.6684
 N-N= 3.919113586833D+02 E-N=-2.433350426968D+03  KE= 7.029017899701D+02
 No NMR shielding tensors so no spin-rotation constants.
 Leave Link  601 at Sun Oct 13 22:12:07 2019, MaxMem= 10737418240 cpu:               2.4 elap:               0.1
 (Enter /apps/cent7/gaussian/g16-A.03/g16-haswell/g16/l701.exe)
 ... and contract with generalized density number  0.
 Compute integral first derivatives.
 Leave Link  701 at Sun Oct 13 22:12:07 2019, MaxMem= 10737418240 cpu:               2.8 elap:               0.1
 (Enter /apps/cent7/gaussian/g16-A.03/g16-haswell/g16/l702.exe)
 L702 exits ... SP integral derivatives will be done elsewhere.
 Leave Link  702 at Sun Oct 13 22:12:07 2019, MaxMem= 10737418240 cpu:               1.1 elap:               0.1
 (Enter /apps/cent7/gaussian/g16-A.03/g16-haswell/g16/l703.exe)
 Integral derivatives from FoFJK, PRISM(SPDF).
 Compute integral first derivatives, UseDBF=F ICtDFT=           0.
 Calling FoFJK, ICntrl=      2127 FMM=F ISym2X=0 I1Cent= 0 IOpClX= 0 NMat=1 NMatS=1 NMatT=0.
 FoFJK:  IHMeth= 1 ICntrl=    2127 DoSepK=F KAlg= 0 I1Cent=           0 FoldK=F
 IRaf=         0 NMat=       1 IRICut=       1 DoRegI=T DoRafI=F ISym2E= 0 IDoP0=0 IntGTp=1.
 FoFCou: FMM=F IPFlag=           0 FMFlag=      100000 FMFlg1=         800
         NFxFlg=           0 DoJE=F BraDBF=F KetDBF=F FulRan=T
         wScrn=  0.000000 ICntrl=      2127 IOpCl=  0 I1Cent=           0 NGrid=           0
         NMat0=    1 NMatS0=      1 NMatT0=    0 NMatD0=    1 NMtDS0=    0 NMtDT0=    0
 Symmetry not used in FoFCou.
 Leave Link  703 at Sun Oct 13 22:12:08 2019, MaxMem= 10737418240 cpu:              28.4 elap:               1.2
 (Enter /apps/cent7/gaussian/g16-A.03/g16-haswell/g16/l716.exe)
 Dipole        = 8.33313125D-01 2.07600715D+00-1.06867094D+00
 ***** Axes restored to original set *****
 -------------------------------------------------------------------
 Center     Atomic                   Forces (Hartrees/Bohr)
 Number     Number              X              Y              Z
 -------------------------------------------------------------------
      1        6           0.045104125    0.001257044   -0.015691337
      2        6          -0.032859362   -0.003796790    0.002252383
      3       16           0.016272129   -0.024686698   -0.120252568
      4        8          -0.022810214    0.060853119    0.112519926
      5        6           0.012930079    0.017330166    0.001765846
      6        6          -0.022565210    0.007830720    0.020265473
      7        8           0.016203240   -0.027480021    0.013271230
      8        1           0.000549823   -0.000018107    0.037934357
      9        1           0.008355762   -0.008543133   -0.035626529
     10        1          -0.043721214   -0.006956679   -0.016761559
     11        1           0.021414133   -0.039655666   -0.008896037
     12        1          -0.000356016    0.025601288   -0.020661297
     13        1          -0.000581401   -0.015060004    0.028336076
     14        1           0.002064125    0.013324760    0.001544037
 -------------------------------------------------------------------
 Cartesian Forces:  Max     0.120252568 RMS     0.033716377
 Leave Link  716 at Sun Oct 13 22:12:08 2019, MaxMem= 10737418240 cpu:               0.6 elap:               0.1
 (Enter /apps/cent7/gaussian/g16-A.03/g16-haswell/g16/l103.exe)

 GradGradGradGradGradGradGradGradGradGradGradGradGradGradGradGradGradGrad
 Berny optimization.
 FormGI is forming the generalized inverse of G from B-inverse, IUseBI=4.
 Internal  Forces:  Max     0.129527455 RMS     0.025690213
 Search for a local minimum.
 Step number   1 out of a maximum of   65
 All quantities printed in internal units (Hartrees-Bohrs-Radians)
 RMS Force = .25690D-01 SwitMx=.10000D-02 MixMth= 1
 Mixed Optimization -- RFO/linear search
 Second derivative matrix not updated -- first step.
 ITU=  0
     Eigenvalues ---    0.01064   0.01067   0.01589   0.01590   0.02513
     Eigenvalues ---    0.02933   0.02933   0.02935   0.02935   0.07769
     Eigenvalues ---    0.09201   0.11959   0.16000   0.16000   0.16000
     Eigenvalues ---    0.16000   0.16000   0.16000   0.16000   0.19910
     Eigenvalues ---    0.21672   0.22000   0.22000   0.30724   0.30748
     Eigenvalues ---    0.34811   0.34816   0.34816   0.34816   0.34817
     Eigenvalues ---    0.34819   0.49686   0.49704   0.55473   0.58074
     Eigenvalues ---    0.58113
 RFO step:  Lambda=-1.13874595D-01 EMin= 1.06388612D-02
 Linear search not attempted -- first point.
 Maximum step size (   0.300) exceeded in Quadratic search.
    -- Step size scaled by   0.772
 Iteration  1 RMS(Cart)=  0.09701342 RMS(Int)=  0.00562679
 Iteration  2 RMS(Cart)=  0.00589790 RMS(Int)=  0.00027396
 Iteration  3 RMS(Cart)=  0.00002295 RMS(Int)=  0.00027316
 Iteration  4 RMS(Cart)=  0.00000000 RMS(Int)=  0.00027316
 ITry= 1 IFail=0 DXMaxC= 2.86D-01 DCOld= 1.00D+10 DXMaxT= 3.00D-01 DXLimC= 3.00D+00 Rises=F
 Variable       Old X    -DE/DX   Delta X   Delta X   Delta X     New X
                                 (Linear)    (Quad)   (Total)
    R1        2.52466   0.04916   0.00000   0.05462   0.05462   2.57928
    R2        2.05983   0.00073   0.00000   0.00122   0.00122   2.06106
    R3        2.05974   0.00266   0.00000   0.00444   0.00444   2.06418
    R4        3.30242  -0.01966   0.00000  -0.03605  -0.03605   3.26637
    R5        2.05969   0.00454   0.00000   0.00759   0.00759   2.06729
    R6        3.03883  -0.12953   0.00000  -0.16379  -0.16379   2.87504
    R7        3.30197   0.00103   0.00000   0.00188   0.00188   3.30385
    R8        3.03865  -0.01994   0.00000  -0.02521  -0.02521   3.01344
    R9        2.52498   0.03529   0.00000   0.03924   0.03924   2.56422
   R10        2.05975   0.00274   0.00000   0.00458   0.00458   2.06433
   R11        2.05973  -0.00176   0.00000  -0.00295  -0.00295   2.05678
   R12        2.05975   0.00226   0.00000   0.00378   0.00378   2.06352
   R13        1.81414   0.01173   0.00000   0.01355   0.01355   1.82769
    A1        2.09440  -0.00458   0.00000  -0.01290  -0.01291   2.08149
    A2        2.09438   0.01288   0.00000   0.03631   0.03630   2.13068
    A3        2.09440  -0.00830   0.00000  -0.02341  -0.02342   2.07098
    A4        2.13371  -0.00848   0.00000  -0.01961  -0.01961   2.11409
    A5        1.83738   0.03932   0.00000   0.10873   0.10873   1.94611
    A6        2.31210  -0.03084   0.00000  -0.08912  -0.08912   2.22298
    A7        1.92329  -0.00793   0.00000  -0.02519  -0.02538   1.89792
    A8        1.92348   0.01362   0.00000   0.02918   0.02953   1.95301
    A9        1.91194  -0.02218   0.00000  -0.06141  -0.06160   1.85034
   A10        1.91434  -0.00054   0.00000   0.00857   0.00836   1.92270
   A11        1.88013   0.01025   0.00000   0.02813   0.02689   1.90702
   A12        1.91011   0.00668   0.00000   0.02066   0.02088   1.93099
   A13        2.12558   0.00376   0.00000   0.00869   0.00869   2.13427
   A14        2.31397  -0.03909   0.00000  -0.10928  -0.10928   2.20468
   A15        1.84364   0.03534   0.00000   0.10059   0.10059   1.94423
   A16        2.09436  -0.00256   0.00000  -0.00722  -0.00724   2.08712
   A17        2.09432   0.01252   0.00000   0.03532   0.03529   2.12961
   A18        2.09451  -0.00996   0.00000  -0.02810  -0.02812   2.06639
   A19        2.09440  -0.01238   0.00000  -0.03492  -0.03492   2.05948
    D1       -1.92030  -0.03392   0.00000  -0.18294  -0.18300  -2.10331
    D2        1.22116  -0.03367   0.00000  -0.18149  -0.18143   1.03973
    D3        1.22144  -0.03227   0.00000  -0.17408  -0.17413   1.04731
    D4       -1.92028  -0.03203   0.00000  -0.17262  -0.17257  -2.09285
    D5        0.68870   0.00299   0.00000   0.01085   0.01020   0.69890
    D6       -1.42641  -0.00004   0.00000  -0.00247  -0.00255  -1.42896
    D7        2.75423  -0.00276   0.00000  -0.00732  -0.00669   2.74755
    D8       -2.45272   0.00267   0.00000   0.00892   0.00834  -2.44438
    D9        1.71535  -0.00036   0.00000  -0.00439  -0.00440   1.71095
   D10       -0.38719  -0.00308   0.00000  -0.00924  -0.00854  -0.39573
   D11       -1.04213   0.00428   0.00000   0.01178   0.01182  -1.03031
   D12        2.09942   0.00437   0.00000   0.01233   0.01235   2.11178
   D13        3.12061   0.00572   0.00000   0.01875   0.01869   3.13930
   D14       -0.02102   0.00582   0.00000   0.01931   0.01923  -0.00180
   D15        1.06150  -0.01036   0.00000  -0.03272  -0.03268   1.02883
   D16       -2.08013  -0.01027   0.00000  -0.03217  -0.03214  -2.11227
   D17        1.99034   0.00764   0.00000   0.01911   0.01927   2.00961
   D18       -2.20067  -0.00854   0.00000  -0.02974  -0.03035  -2.23102
   D19       -0.12031   0.00054   0.00000   0.00860   0.00905  -0.11127
   D20        2.14206   0.02916   0.00000   0.15729   0.15730   2.29936
   D21       -0.99947   0.02688   0.00000   0.14497   0.14499  -0.85448
   D22       -0.99951   0.02909   0.00000   0.15687   0.15685  -0.84266
   D23        2.14215   0.02681   0.00000   0.14455   0.14453   2.28668
         Item               Value     Threshold  Converged?
 Maximum Force            0.129527     0.000450     NO 
 RMS     Force            0.025690     0.000300     NO 
 Maximum Displacement     0.285785     0.001800     NO 
 RMS     Displacement     0.096871     0.001200     NO 
 Predicted change in Energy=-7.165339D-02
 Lowest energy point so far.  Saving SCF results.
 GradGradGradGradGradGradGradGradGradGradGradGradGradGradGradGradGradGrad

 Leave Link  103 at Sun Oct 13 22:12:08 2019, MaxMem= 10737418240 cpu:               1.0 elap:               0.1
 (Enter /apps/cent7/gaussian/g16-A.03/g16-haswell/g16/l202.exe)
                          Input orientation:                          
 ---------------------------------------------------------------------
 Center     Atomic      Atomic             Coordinates (Angstroms)
 Number     Number       Type             X           Y           Z
 ---------------------------------------------------------------------
      1          6           0        4.172274    0.550750    1.417781
      2          6           0        3.012775    1.268623    1.361531
      3         16           0        2.595764    2.183859   -0.044214
      4          8           0        2.972154    1.380357   -1.280092
      5          6           0        3.394126    3.739033   -0.070308
      6          6           0        3.228361    4.655468    0.916565
      7          8           0        1.012229    2.365727    0.002937
      8          1           0        4.124731   -0.527116    1.577439
      9          1           0        5.152184    1.022533    1.316018
     10          1           0        2.437490    1.174406    2.287230
     11          1           0        4.070361    4.106236   -0.845678
     12          1           0        4.100605    5.136631    1.355072
     13          1           0        2.239638    4.939041    1.283189
     14          1           0        0.660894    3.260790    0.107059
 ---------------------------------------------------------------------
                    Distance matrix (angstroms):
                    1          2          3          4          5
     1  C    0.000000
     2  C    1.364897   0.000000
     3  S    2.699974   1.728488   0.000000
     4  O    3.067092   2.644297   1.521407   0.000000
     5  C    3.603481   2.880714   1.748322   2.684211   0.000000
     6  C    4.241568   3.422746   2.726193   3.951872   1.356926
     7  O    3.909195   2.655484   1.594641   2.541343   2.750412
     8  H    1.090663   2.123144   3.509541   3.623861   4.631294
     9  H    1.092317   2.153996   3.119966   3.408864   3.520233
    10  H    2.038226   1.093960   2.545520   3.613041   3.612540
    11  H    4.216055   3.747307   2.551924   2.970722   1.092397
    12  H    4.586869   4.018071   3.597417   4.725154   2.117570
    13  H    4.796905   3.751779   3.078937   4.446484   2.145883
    14  H    4.625160   3.327728   2.219547   3.286661   2.780419
                    6          7          8          9         10
     6  C    0.000000
     7  O    3.314946   0.000000
     8  H    5.300888   4.531585   0.000000
     9  H    4.130239   4.546160   1.877608   0.000000
    10  H    3.823871   2.944249   2.499153   2.887193   0.000000
    11  H    2.028823   3.619626   5.228997   3.918226   4.590970
    12  H    1.088401   4.363971   5.668162   4.246545   4.397055
    13  H    1.091970   3.125303   5.789562   4.880885   3.901245
    14  H    3.031883   0.967169   5.339328   5.161692   3.501776
                   11         12         13         14
    11  H    0.000000
    12  H    2.430212   0.000000
    13  H    2.928683   1.872807   0.000000
    14  H    3.639637   4.111925   2.586936   0.000000
 Stoichiometry    C4H7O2S(1+)
 Framework group  C1[X(C4H7O2S)]
 Deg. of freedom    36
 Full point group                 C1      NOp   1
 RotChk:  IX=0 Diff= 7.69D-02
 Largest Abelian subgroup         C1      NOp   1
 Largest concise Abelian subgroup C1      NOp   1
                         Standard orientation:                         
 ---------------------------------------------------------------------
 Center     Atomic      Atomic             Coordinates (Angstroms)
 Number     Number       Type             X           Y           Z
 ---------------------------------------------------------------------
      1          6           0       -2.149365    1.228892   -0.085555
      2          6           0       -1.185883    0.534455   -0.758164
      3         16           0       -0.017666   -0.419165    0.086556
      4          8           0       -0.710268   -1.135006    1.236578
      5          6           0        1.304045    0.552968    0.690433
      6          6           0        2.091472    1.294693   -0.128744
      7          8           0        0.511304   -1.497667   -0.962208
      8          1           0       -3.199626    1.013724   -0.286060
      9          1           0       -1.903376    2.002940    0.644853
     10          1           0       -1.271629    0.674840   -1.839685
     11          1           0        1.609675    0.652494    1.734472
     12          1           0        2.297635    2.333951    0.120365
     13          1           0        2.539922    0.878711   -1.033316
     14          1           0        1.440155   -1.454684   -1.228301
 ---------------------------------------------------------------------
 Rotational constants (GHZ):           2.7555286           2.0096668           1.6243004
 Leave Link  202 at Sun Oct 13 22:12:08 2019, MaxMem= 10737418240 cpu:               0.2 elap:               0.0
 (Enter /apps/cent7/gaussian/g16-A.03/g16-haswell/g16/l301.exe)
 Standard basis: 6-311++G(d,p) (5D, 7F)
 Ernie: Thresh=  0.10000D-02 Tol=  0.10000D-05 Strict=F.
 There are   218 symmetry adapted cartesian basis functions of A   symmetry.
 There are   211 symmetry adapted basis functions of A   symmetry.
   211 basis functions,   329 primitive gaussians,   218 cartesian basis functions
    31 alpha electrons       31 beta electrons
       nuclear repulsion energy       395.7417156833 Hartrees.
 IExCor= 4336 DFT=T Ex+Corr=M062X ExCW=0 ScaHFX=  0.540000
 ScaDFX=  1.000000  1.000000  1.000000  1.000000 ScalE2=  1.000000  1.000000
 IRadAn=      5 IRanWt=     -1 IRanGd=            0 ICorTp=0 IEmpDi=  4
 NAtoms=   14 NActive=   14 NUniq=   14 SFac= 1.00D+00 NAtFMM=   60 NAOKFM=F Big=F
 Integral buffers will be    131072 words long.
 Raffenetti 2 integral format.
 Two-electron integral symmetry is turned on.
 Leave Link  301 at Sun Oct 13 22:12:08 2019, MaxMem= 10737418240 cpu:               1.3 elap:               0.1
 (Enter /apps/cent7/gaussian/g16-A.03/g16-haswell/g16/l302.exe)
 NPDir=0 NMtPBC=     1 NCelOv=     1 NCel=       1 NClECP=     1 NCelD=      1
         NCelK=      1 NCelE2=     1 NClLst=     1 CellRange=     0.0.
 One-electron integrals computed using PRISM.
 One-electron integral symmetry used in STVInt
 NBasis=   211 RedAO= T EigKep=  3.28D-05  NBF=   211
 NBsUse=   211 1.00D-06 EigRej= -1.00D+00 NBFU=   211
 Precomputing XC quadrature grid using
 IXCGrd= 4 IRadAn=           5 IRanWt=          -1 IRanGd=           0 AccXCQ= 0.00D+00.
 Generated NRdTot=       0 NPtTot=           0 NUsed=           0 NTot=          32
 NSgBfM=   218   218   218   218   218 MxSgAt=    14 MxSgA2=    14.
 Leave Link  302 at Sun Oct 13 22:12:09 2019, MaxMem= 10737418240 cpu:               3.4 elap:               0.2
 (Enter /apps/cent7/gaussian/g16-A.03/g16-haswell/g16/l303.exe)
 DipDrv:  MaxL=1.
 Leave Link  303 at Sun Oct 13 22:12:09 2019, MaxMem= 10737418240 cpu:               0.9 elap:               0.1
 (Enter /apps/cent7/gaussian/g16-A.03/g16-haswell/g16/l401.exe)
 Initial guess from the checkpoint file:  "28_p.chk"
 B after Tr=    -0.000000    0.000000    0.000000
         Rot=    0.999498    0.022112   -0.004910    0.022174 Ang=   3.63 deg.
 Guess basis will be translated and rotated to current coordinates.
 JPrj=2 DoOrth=T DoCkMO=T.
 Generating alternative initial guess.
 ExpMin= 3.60D-02 ExpMax= 9.34D+04 ExpMxC= 3.17D+03 IAcc=3 IRadAn=         5 AccDes= 0.00D+00
 Harris functional with IExCor= 1009 and IRadAn=       5 diagonalized for initial guess.
 HarFok:  IExCor= 1009 AccDes= 0.00D+00 IRadAn=         5 IDoV= 1 UseB2=F ITyADJ=14
 ICtDFT=  3500011 ScaDFX=  1.000000  1.000000  1.000000  1.000000
 FoFCou: FMM=F IPFlag=           0 FMFlag=      100000 FMFlg1=           0
         NFxFlg=           0 DoJE=T BraDBF=F KetDBF=T FulRan=T
         wScrn=  0.000000 ICntrl=       500 IOpCl=  0 I1Cent=   200000004 NGrid=           0
         NMat0=    1 NMatS0=      1 NMatT0=    0 NMatD0=    1 NMtDS0=    0 NMtDT0=    0
 Petite list used in FoFCou.
 Harris En= -704.525528219632    
 Leave Link  401 at Sun Oct 13 22:12:09 2019, MaxMem= 10737418240 cpu:               9.7 elap:               0.4
 (Enter /apps/cent7/gaussian/g16-A.03/g16-haswell/g16/l502.exe)
 Integral symmetry usage will be decided dynamically.
 Closed shell SCF:
 Using DIIS extrapolation, IDIIS=  1040.
 NGot= 10737418240 LenX= 10737315751 LenY= 10737267786
 Requested convergence on RMS density matrix=1.00D-08 within 128 cycles.
 Requested convergence on MAX density matrix=1.00D-06.
 Requested convergence on             energy=1.00D-06.
 No special actions if energy rises.
 Fock matrices will be formed incrementally for  20 cycles.

 Cycle   1  Pass 1  IDiag  1:
 FoFJK:  IHMeth= 1 ICntrl=       0 DoSepK=F KAlg= 0 I1Cent=           0 FoldK=F
 IRaf= 970000000 NMat=       1 IRICut=       1 DoRegI=T DoRafI=F ISym2E= 0 IDoP0=0 IntGTp=1.
 FoFCou: FMM=F IPFlag=           0 FMFlag=      100000 FMFlg1=           0
         NFxFlg=           0 DoJE=F BraDBF=F KetDBF=F FulRan=T
         wScrn=  0.000000 ICntrl=         0 IOpCl=  0 I1Cent=           0 NGrid=           0
         NMat0=    1 NMatS0=      1 NMatT0=    0 NMatD0=    1 NMtDS0=    0 NMtDT0=    0
 Symmetry not used in FoFCou.
 E= -704.658285354728    
 DIIS: error= 3.95D-03 at cycle   1 NSaved=   1.
 NSaved= 1 IEnMin= 1 EnMin= -704.658285354728     IErMin= 1 ErrMin= 3.95D-03
 ErrMax= 3.95D-03  0.00D+00 EMaxC= 1.00D-01 BMatC= 9.43D-03 BMatP= 9.43D-03
 IDIUse=3 WtCom= 9.60D-01 WtEn= 3.95D-02
 Coeff-Com:  0.100D+01
 Coeff-En:   0.100D+01
 Coeff:      0.100D+01
 Gap=     0.442 Goal=   None    Shift=    0.000
 GapD=    0.442 DampG=2.000 DampE=1.000 DampFc=2.0000 IDamp=-1.
 RMSDP=6.65D-03 MaxDP=3.98D-01              OVMax= 3.40D-02

 Cycle   2  Pass 1  IDiag  1:
 RMSU=  5.04D-03    CP:  8.52D-01
 E= -704.672286522841     Delta-E=       -0.014001168113 Rises=F Damp=F
 DIIS: error= 1.82D-03 at cycle   2 NSaved=   2.
 NSaved= 2 IEnMin= 2 EnMin= -704.672286522841     IErMin= 2 ErrMin= 1.82D-03
 ErrMax= 1.82D-03  0.00D+00 EMaxC= 1.00D-01 BMatC= 1.54D-03 BMatP= 9.43D-03
 IDIUse=3 WtCom= 9.82D-01 WtEn= 1.82D-02
 Coeff-Com:  0.134D+00 0.866D+00
 Coeff-En:   0.000D+00 0.100D+01
 Coeff:      0.131D+00 0.869D+00
 Gap=     0.232 Goal=   None    Shift=    0.000
 RMSDP=1.25D-03 MaxDP=7.44D-02 DE=-1.40D-02 OVMax= 2.33D-02

 Cycle   3  Pass 1  IDiag  1:
 RMSU=  1.07D-03    CP:  8.74D-01  9.86D-01
 E= -704.672769536537     Delta-E=       -0.000483013696 Rises=F Damp=F
 DIIS: error= 2.71D-03 at cycle   3 NSaved=   3.
 NSaved= 3 IEnMin= 3 EnMin= -704.672769536537     IErMin= 2 ErrMin= 1.82D-03
 ErrMax= 2.71D-03  0.00D+00 EMaxC= 1.00D-01 BMatC= 1.96D-03 BMatP= 1.54D-03
 IDIUse=3 WtCom= 1.61D-01 WtEn= 8.39D-01
 Coeff-Com: -0.666D-01 0.555D+00 0.512D+00
 Coeff-En:   0.000D+00 0.406D+00 0.594D+00
 Coeff:     -0.107D-01 0.430D+00 0.581D+00
 Gap=     0.232 Goal=   None    Shift=    0.000
 RMSDP=1.05D-03 MaxDP=6.24D-02 DE=-4.83D-04 OVMax= 1.60D-02

 Cycle   4  Pass 1  IDiag  1:
 RMSU=  2.37D-04    CP:  8.49D-01  1.06D+00  4.42D-01
 E= -704.674051759389     Delta-E=       -0.001282222852 Rises=F Damp=F
 DIIS: error= 1.12D-03 at cycle   4 NSaved=   4.
 NSaved= 4 IEnMin= 4 EnMin= -704.674051759389     IErMin= 4 ErrMin= 1.12D-03
 ErrMax= 1.12D-03  0.00D+00 EMaxC= 1.00D-01 BMatC= 4.17D-04 BMatP= 1.54D-03
 IDIUse=3 WtCom= 9.89D-01 WtEn= 1.12D-02
 Coeff-Com: -0.405D-01 0.705D-01 0.349D+00 0.621D+00
 Coeff-En:   0.000D+00 0.000D+00 0.151D+00 0.849D+00
 Coeff:     -0.401D-01 0.697D-01 0.347D+00 0.624D+00
 Gap=     0.232 Goal=   None    Shift=    0.000
 RMSDP=4.57D-04 MaxDP=3.16D-02 DE=-1.28D-03 OVMax= 6.92D-03

 Cycle   5  Pass 1  IDiag  1:
 RMSU=  9.60D-05    CP:  8.59D-01  1.05D+00  7.33D-01  9.40D-01
 E= -704.674397989686     Delta-E=       -0.000346230297 Rises=F Damp=F
 DIIS: error= 2.18D-04 at cycle   5 NSaved=   5.
 NSaved= 5 IEnMin= 5 EnMin= -704.674397989686     IErMin= 5 ErrMin= 2.18D-04
 ErrMax= 2.18D-04  0.00D+00 EMaxC= 1.00D-01 BMatC= 1.52D-05 BMatP= 4.17D-04
 IDIUse=3 WtCom= 9.98D-01 WtEn= 2.18D-03
 Coeff-Com: -0.529D-02-0.664D-01 0.568D-01 0.279D+00 0.736D+00
 Coeff-En:   0.000D+00 0.000D+00 0.000D+00 0.000D+00 0.100D+01
 Coeff:     -0.528D-02-0.663D-01 0.567D-01 0.278D+00 0.736D+00
 Gap=     0.232 Goal=   None    Shift=    0.000
 RMSDP=6.11D-05 MaxDP=3.69D-03 DE=-3.46D-04 OVMax= 3.13D-03

 Cycle   6  Pass 1  IDiag  1:
 RMSU=  3.16D-05    CP:  8.59D-01  1.05D+00  7.62D-01  1.09D+00  8.18D-01
 E= -704.674419912149     Delta-E=       -0.000021922462 Rises=F Damp=F
 DIIS: error= 1.26D-04 at cycle   6 NSaved=   6.
 NSaved= 6 IEnMin= 6 EnMin= -704.674419912149     IErMin= 6 ErrMin= 1.26D-04
 ErrMax= 1.26D-04  0.00D+00 EMaxC= 1.00D-01 BMatC= 4.16D-06 BMatP= 1.52D-05
 IDIUse=3 WtCom= 9.99D-01 WtEn= 1.26D-03
 Coeff-Com:  0.376D-02-0.472D-01-0.338D-01 0.415D-01 0.408D+00 0.627D+00
 Coeff-En:   0.000D+00 0.000D+00 0.000D+00 0.000D+00 0.000D+00 0.100D+01
 Coeff:      0.375D-02-0.471D-01-0.338D-01 0.414D-01 0.408D+00 0.628D+00
 Gap=     0.233 Goal=   None    Shift=    0.000
 RMSDP=2.32D-05 MaxDP=9.74D-04 DE=-2.19D-05 OVMax= 7.39D-04

 Cycle   7  Pass 1  IDiag  1:
 RMSU=  1.52D-05    CP:  8.59D-01  1.05D+00  7.74D-01  1.12D+00  8.64D-01
                    CP:  1.11D+00
 E= -704.674424860932     Delta-E=       -0.000004948783 Rises=F Damp=F
 DIIS: error= 3.70D-05 at cycle   7 NSaved=   7.
 NSaved= 7 IEnMin= 7 EnMin= -704.674424860932     IErMin= 7 ErrMin= 3.70D-05
 ErrMax= 3.70D-05  0.00D+00 EMaxC= 1.00D-01 BMatC= 2.19D-07 BMatP= 4.16D-06
 IDIUse=1 WtCom= 1.00D+00 WtEn= 0.00D+00
 Coeff-Com:  0.207D-02-0.795D-02-0.239D-01-0.251D-01 0.665D-01 0.192D+00
 Coeff-Com:  0.796D+00
 Coeff:      0.207D-02-0.795D-02-0.239D-01-0.251D-01 0.665D-01 0.192D+00
 Coeff:      0.796D+00
 Gap=     0.233 Goal=   None    Shift=    0.000
 RMSDP=7.80D-06 MaxDP=1.85D-04 DE=-4.95D-06 OVMax= 4.36D-04

 Cycle   8  Pass 1  IDiag  1:
 RMSU=  4.45D-06    CP:  8.59D-01  1.05D+00  7.75D-01  1.14D+00  8.83D-01
                    CP:  1.23D+00  1.12D+00
 E= -704.674425296399     Delta-E=       -0.000000435467 Rises=F Damp=F
 DIIS: error= 1.10D-05 at cycle   8 NSaved=   8.
 NSaved= 8 IEnMin= 8 EnMin= -704.674425296399     IErMin= 8 ErrMin= 1.10D-05
 ErrMax= 1.10D-05  0.00D+00 EMaxC= 1.00D-01 BMatC= 4.23D-08 BMatP= 2.19D-07
 IDIUse=1 WtCom= 1.00D+00 WtEn= 0.00D+00
 Coeff-Com:  0.732D-04 0.293D-02-0.199D-02-0.874D-02-0.145D-01-0.606D-01
 Coeff-Com:  0.212D+00 0.871D+00
 Coeff:      0.732D-04 0.293D-02-0.199D-02-0.874D-02-0.145D-01-0.606D-01
 Coeff:      0.212D+00 0.871D+00
 Gap=     0.233 Goal=   None    Shift=    0.000
 RMSDP=4.36D-06 MaxDP=2.79D-04 DE=-4.35D-07 OVMax= 1.46D-04

 Cycle   9  Pass 1  IDiag  1:
 RMSU=  1.55D-06    CP:  8.59D-01  1.05D+00  7.75D-01  1.14D+00  8.74D-01
                    CP:  1.28D+00  1.30D+00  1.14D+00
 E= -704.674425359001     Delta-E=       -0.000000062603 Rises=F Damp=F
 DIIS: error= 5.01D-06 at cycle   9 NSaved=   9.
 NSaved= 9 IEnMin= 9 EnMin= -704.674425359001     IErMin= 9 ErrMin= 5.01D-06
 ErrMax= 5.01D-06  0.00D+00 EMaxC= 1.00D-01 BMatC= 6.83D-09 BMatP= 4.23D-08
 IDIUse=1 WtCom= 1.00D+00 WtEn= 0.00D+00
 Coeff-Com: -0.264D-03 0.256D-02 0.248D-02-0.580D-03-0.148D-01-0.665D-01
 Coeff-Com: -0.778D-02 0.358D+00 0.727D+00
 Coeff:     -0.264D-03 0.256D-02 0.248D-02-0.580D-03-0.148D-01-0.665D-01
 Coeff:     -0.778D-02 0.358D+00 0.727D+00
 Gap=     0.233 Goal=   None    Shift=    0.000
 RMSDP=1.66D-06 MaxDP=7.00D-05 DE=-6.26D-08 OVMax= 4.37D-05

 Cycle  10  Pass 1  IDiag  1:
 RMSU=  8.78D-07    CP:  8.59D-01  1.05D+00  7.75D-01  1.15D+00  8.75D-01
                    CP:  1.30D+00  1.35D+00  1.28D+00  1.02D+00
 E= -704.674425368444     Delta-E=       -0.000000009443 Rises=F Damp=F
 DIIS: error= 1.66D-06 at cycle  10 NSaved=  10.
 NSaved=10 IEnMin=10 EnMin= -704.674425368444     IErMin=10 ErrMin= 1.66D-06
 ErrMax= 1.66D-06  0.00D+00 EMaxC= 1.00D-01 BMatC= 9.05D-10 BMatP= 6.83D-09
 IDIUse=1 WtCom= 1.00D+00 WtEn= 0.00D+00
 Coeff-Com: -0.115D-03 0.659D-03 0.124D-02 0.917D-03-0.314D-02-0.240D-01
 Coeff-Com: -0.195D-01 0.480D-01 0.307D+00 0.689D+00
 Coeff:     -0.115D-03 0.659D-03 0.124D-02 0.917D-03-0.314D-02-0.240D-01
 Coeff:     -0.195D-01 0.480D-01 0.307D+00 0.689D+00
 Gap=     0.233 Goal=   None    Shift=    0.000
 RMSDP=5.46D-07 MaxDP=3.42D-05 DE=-9.44D-09 OVMax= 2.60D-05

 Cycle  11  Pass 1  IDiag  1:
 RMSU=  2.27D-07    CP:  8.59D-01  1.05D+00  7.75D-01  1.15D+00  8.75D-01
                    CP:  1.30D+00  1.36D+00  1.30D+00  1.15D+00  1.04D+00
 E= -704.674425369520     Delta-E=       -0.000000001075 Rises=F Damp=F
 DIIS: error= 6.60D-07 at cycle  11 NSaved=  11.
 NSaved=11 IEnMin=11 EnMin= -704.674425369520     IErMin=11 ErrMin= 6.60D-07
 ErrMax= 6.60D-07  0.00D+00 EMaxC= 1.00D-01 BMatC= 1.98D-10 BMatP= 9.05D-10
 IDIUse=1 WtCom= 1.00D+00 WtEn= 0.00D+00
 Coeff-Com:  0.151D-04-0.314D-03-0.694D-04 0.470D-03 0.236D-02 0.385D-02
 Coeff-Com: -0.283D-02-0.679D-01-0.621D-01 0.297D+00 0.830D+00
 Coeff:      0.151D-04-0.314D-03-0.694D-04 0.470D-03 0.236D-02 0.385D-02
 Coeff:     -0.283D-02-0.679D-01-0.621D-01 0.297D+00 0.830D+00
 Gap=     0.233 Goal=   None    Shift=    0.000
 RMSDP=4.17D-07 MaxDP=2.61D-05 DE=-1.08D-09 OVMax= 8.30D-06

 Cycle  12  Pass 1  IDiag  1:
 RMSU=  1.07D-07    CP:  8.59D-01  1.05D+00  7.74D-01  1.15D+00  8.74D-01
                    CP:  1.30D+00  1.37D+00  1.32D+00  1.18D+00  1.22D+00
                    CP:  1.11D+00
 E= -704.674425369774     Delta-E=       -0.000000000254 Rises=F Damp=F
 DIIS: error= 1.23D-07 at cycle  12 NSaved=  12.
 NSaved=12 IEnMin=12 EnMin= -704.674425369774     IErMin=12 ErrMin= 1.23D-07
 ErrMax= 1.23D-07  0.00D+00 EMaxC= 1.00D-01 BMatC= 6.17D-12 BMatP= 1.98D-10
 IDIUse=1 WtCom= 1.00D+00 WtEn= 0.00D+00
 Coeff-Com:  0.904D-05-0.111D-03-0.820D-04 0.726D-04 0.863D-03 0.197D-02
 Coeff-Com:  0.526D-03-0.206D-01-0.381D-01 0.633D-01 0.204D+00 0.789D+00
 Coeff:      0.904D-05-0.111D-03-0.820D-04 0.726D-04 0.863D-03 0.197D-02
 Coeff:      0.526D-03-0.206D-01-0.381D-01 0.633D-01 0.204D+00 0.789D+00
 Gap=     0.233 Goal=   None    Shift=    0.000
 RMSDP=5.71D-08 MaxDP=2.11D-06 DE=-2.54D-10 OVMax= 1.84D-06

 Cycle  13  Pass 1  IDiag  1:
 RMSU=  3.33D-08    CP:  8.59D-01  1.05D+00  7.74D-01  1.15D+00  8.75D-01
                    CP:  1.30D+00  1.37D+00  1.32D+00  1.19D+00  1.25D+00
                    CP:  1.14D+00  1.01D+00
 E= -704.674425369781     Delta-E=       -0.000000000007 Rises=F Damp=F
 DIIS: error= 8.96D-08 at cycle  13 NSaved=  13.
 NSaved=13 IEnMin=13 EnMin= -704.674425369781     IErMin=13 ErrMin= 8.96D-08
 ErrMax= 8.96D-08  0.00D+00 EMaxC= 1.00D-01 BMatC= 2.44D-12 BMatP= 6.17D-12
 IDIUse=1 WtCom= 1.00D+00 WtEn= 0.00D+00
 Coeff-Com:  0.253D-05-0.945D-05-0.361D-04-0.427D-04 0.115D-03 0.387D-03
 Coeff-Com:  0.929D-03 0.818D-03-0.121D-01-0.974D-02-0.370D-01 0.442D+00
 Coeff-Com:  0.615D+00
 Coeff:      0.253D-05-0.945D-05-0.361D-04-0.427D-04 0.115D-03 0.387D-03
 Coeff:      0.929D-03 0.818D-03-0.121D-01-0.974D-02-0.370D-01 0.442D+00
 Coeff:      0.615D+00
 Gap=     0.233 Goal=   None    Shift=    0.000
 RMSDP=1.60D-08 MaxDP=6.77D-07 DE=-6.82D-12 OVMax= 5.06D-07

 Cycle  14  Pass 1  IDiag  1:
 RMSU=  9.48D-09    CP:  8.59D-01  1.05D+00  7.74D-01  1.15D+00  8.75D-01
                    CP:  1.30D+00  1.37D+00  1.32D+00  1.19D+00  1.26D+00
                    CP:  1.16D+00  1.06D+00  1.04D+00
 E= -704.674425369786     Delta-E=       -0.000000000005 Rises=F Damp=F
 DIIS: error= 1.49D-08 at cycle  14 NSaved=  14.
 NSaved=14 IEnMin=14 EnMin= -704.674425369786     IErMin=14 ErrMin= 1.49D-08
 ErrMax= 1.49D-08  0.00D+00 EMaxC= 1.00D-01 BMatC= 1.11D-13 BMatP= 2.44D-12
 IDIUse=1 WtCom= 1.00D+00 WtEn= 0.00D+00
 Coeff-Com: -0.561D-06 0.143D-04 0.937D-06-0.279D-04-0.887D-04-0.182D-03
 Coeff-Com:  0.252D-03 0.330D-02 0.934D-03-0.942D-02-0.447D-01 0.383D-01
 Coeff-Com:  0.108D+00 0.904D+00
 Coeff:     -0.561D-06 0.143D-04 0.937D-06-0.279D-04-0.887D-04-0.182D-03
 Coeff:      0.252D-03 0.330D-02 0.934D-03-0.942D-02-0.447D-01 0.383D-01
 Coeff:      0.108D+00 0.904D+00
 Gap=     0.233 Goal=   None    Shift=    0.000
 RMSDP=7.46D-09 MaxDP=3.36D-07 DE=-5.00D-12 OVMax= 2.87D-07

 SCF Done:  E(RM062X) =  -704.674425370     A.U. after   14 cycles
            NFock= 14  Conv=0.75D-08     -V/T= 2.0025
 KE= 7.029247767930D+02 PE=-2.441079621188D+03 EE= 6.377387033421D+02
 Leave Link  502 at Sun Oct 13 22:12:17 2019, MaxMem= 10737418240 cpu:             182.0 elap:               7.6
 (Enter /apps/cent7/gaussian/g16-A.03/g16-haswell/g16/l701.exe)
 ... and contract with generalized density number  0.
 Compute integral first derivatives.
 Leave Link  701 at Sun Oct 13 22:12:17 2019, MaxMem= 10737418240 cpu:               2.7 elap:               0.1
 (Enter /apps/cent7/gaussian/g16-A.03/g16-haswell/g16/l702.exe)
 L702 exits ... SP integral derivatives will be done elsewhere.
 Leave Link  702 at Sun Oct 13 22:12:17 2019, MaxMem= 10737418240 cpu:               0.4 elap:               0.0
 (Enter /apps/cent7/gaussian/g16-A.03/g16-haswell/g16/l703.exe)
 Integral derivatives from FoFJK, PRISM(SPDF).
 Compute integral first derivatives, UseDBF=F ICtDFT=           0.
 Calling FoFJK, ICntrl=      2127 FMM=F ISym2X=0 I1Cent= 0 IOpClX= 0 NMat=1 NMatS=1 NMatT=0.
 FoFJK:  IHMeth= 1 ICntrl=    2127 DoSepK=F KAlg= 0 I1Cent=           0 FoldK=F
 IRaf=         0 NMat=       1 IRICut=       1 DoRegI=T DoRafI=F ISym2E= 0 IDoP0=0 IntGTp=1.
 FoFCou: FMM=F IPFlag=           0 FMFlag=      100000 FMFlg1=         800
         NFxFlg=           0 DoJE=F BraDBF=F KetDBF=F FulRan=T
         wScrn=  0.000000 ICntrl=      2127 IOpCl=  0 I1Cent=           0 NGrid=           0
         NMat0=    1 NMatS0=      1 NMatT0=    0 NMatD0=    1 NMtDS0=    0 NMtDT0=    0
 Symmetry not used in FoFCou.
 Leave Link  703 at Sun Oct 13 22:12:18 2019, MaxMem= 10737418240 cpu:              28.6 elap:               1.2
 (Enter /apps/cent7/gaussian/g16-A.03/g16-haswell/g16/l716.exe)
 Dipole        = 9.73701231D-01 1.83905619D+00-1.07595342D+00
 ***** Axes restored to original set *****
 -------------------------------------------------------------------
 Center     Atomic                   Forces (Hartrees/Bohr)
 Number     Number              X              Y              Z
 -------------------------------------------------------------------
      1        6           0.005516708    0.013707151   -0.011025117
      2        6           0.007349211   -0.020714816    0.020307103
      3       16           0.015232665   -0.020388731   -0.091984152
      4        8          -0.017683472    0.045047756    0.074716775
      5        6           0.004516099    0.036231454    0.016869473
      6        6          -0.012614028   -0.010460063   -0.002170204
      7        8           0.008419280   -0.009682968    0.011728097
      8        1           0.001696330    0.005731223    0.031365716
      9        1          -0.000294093   -0.008844920   -0.030430662
     10        1          -0.029004709   -0.007576810   -0.021515549
     11        1           0.014867583   -0.032775483   -0.000108403
     12        1          -0.003493032    0.020119416   -0.018334917
     13        1           0.004345747   -0.015580959    0.021236600
     14        1           0.001145710    0.005187752   -0.000654759
 -------------------------------------------------------------------
 Cartesian Forces:  Max     0.091984152 RMS     0.025183675
 Leave Link  716 at Sun Oct 13 22:12:18 2019, MaxMem= 10737418240 cpu:               0.5 elap:               0.0
 (Enter /apps/cent7/gaussian/g16-A.03/g16-haswell/g16/l103.exe)

 GradGradGradGradGradGradGradGradGradGradGradGradGradGradGradGradGradGrad
 Berny optimization.
 Using GEDIIS/GDIIS optimizer.
 FormGI is forming the generalized inverse of G from B-inverse, IUseBI=4.
 Internal  Forces:  Max     0.088860075 RMS     0.017514301
 Search for a local minimum.
[...]
 ! D1    D(8,1,2,3)            179.6813         -DE/DX =    0.0                 !
 ! D2    D(8,1,2,10)             0.6068         -DE/DX =    0.0                 !
 ! D3    D(9,1,2,3)             -0.7195         -DE/DX =    0.0                 !
 ! D4    D(9,1,2,10)          -179.7939         -DE/DX =    0.0                 !
 ! D5    D(1,2,3,4)              5.4027         -DE/DX =    0.0                 !
 ! D6    D(1,2,3,5)           -121.0082         -DE/DX =    0.0                 !
 ! D7    D(1,2,3,7)            129.1419         -DE/DX =    0.0                 !
 ! D8    D(10,2,3,4)          -175.3952         -DE/DX =    0.0                 !
 ! D9    D(10,2,3,5)            58.1939         -DE/DX =    0.0                 !
 ! D10   D(10,2,3,7)           -51.656          -DE/DX =    0.0                 !
 ! D11   D(2,3,5,6)            -88.7475         -DE/DX =    0.0                 !
 ! D12   D(2,3,5,11)            90.6627         -DE/DX =    0.0                 !
 ! D13   D(4,3,5,6)            143.7673         -DE/DX =    0.0                 !
 ! D14   D(4,3,5,11)           -36.8225         -DE/DX =    0.0                 !
 ! D15   D(7,3,5,6)             17.6385         -DE/DX =    0.0                 !
 ! D16   D(7,3,5,11)          -162.9513         -DE/DX =    0.0                 !
 ! D17   D(2,3,7,14)          -165.4211         -DE/DX =    0.0                 !
 ! D18   D(4,3,7,14)           -42.9535         -DE/DX =    0.0                 !
 ! D19   D(5,3,7,14)            80.8341         -DE/DX =    0.0                 !
 ! D20   D(3,5,6,12)           179.9264         -DE/DX =    0.0                 !
 ! D21   D(3,5,6,13)            -0.2979         -DE/DX =    0.0                 !
 ! D22   D(11,5,6,12)            0.615          -DE/DX =    0.0                 !
 ! D23   D(11,5,6,13)         -179.6092         -DE/DX =    0.0                 !
 --------------------------------------------------------------------------------
 GradGradGradGradGradGradGradGradGradGradGradGradGradGradGradGradGradGrad

 Leave Link  103 at Sun Oct 13 22:16:09 2019, MaxMem= 10737418240 cpu:               1.0 elap:               0.1
 (Enter /apps/cent7/gaussian/g16-A.03/g16-haswell/g16/l9999.exe)

 ----------------------------------------------------------------------

 Electric dipole moment (input orientation):
 (Debye = 10**-18 statcoulomb cm , SI units = C m)
                  (au)            (Debye)         (10**-30 SI)
   Tot        0.120108D+01      0.305284D+01      0.101832D+02
   x          0.322519D-01      0.819761D-01      0.273443D+00
   y          0.771649D+00      0.196133D+01      0.654231D+01
   z          0.919842D+00      0.233801D+01      0.779875D+01

 Dipole polarizability, Alpha (input orientation).
 (esu units = cm**3 , SI units = C**2 m**2 J**-1)
 Alpha(0;0):
               (au)            (10**-24 esu)      (10**-40 SI)
   iso        0.685816D+02      0.101627D+02      0.113076D+02
   aniso      0.380368D+02      0.563647D+01      0.627142D+01
   xx         0.580468D+02      0.860165D+01      0.957063D+01
   yx        -0.124512D+02     -0.184507D+01     -0.205292D+01
   yy         0.891417D+02      0.132094D+02      0.146975D+02
   zx        -0.149055D+01     -0.220877D+00     -0.245759D+00
   zy         0.281244D+01      0.416760D+00      0.463708D+00
   zz         0.585562D+02      0.867714D+01      0.965462D+01

 ----------------------------------------------------------------------

 Dipole orientation:
     6          7.42169336         -1.26023822          2.16527180
     6          6.13147530          0.05558974          3.86037291
    16          5.33090914          3.16712151          3.04757141
     8          5.99078524          3.83982969          0.50311806
     6          6.62336385          5.28635393          5.26871214
     6          5.37721980          5.93556819          7.34143392
     8          2.39800401          3.10947390          3.65335478
     1          7.97075220         -3.18955960          2.58117171
     1          7.94482883         -0.46787419          0.34610100
     1          5.51329917         -0.52787094          5.72352746
     1          8.49205929          5.91156234          4.70298117
     1          6.23831776          7.24359594          8.66331431
     1          3.50882907          5.21869026          7.78527844
     1          1.48429675          4.53872002          2.93420519

 Electric dipole moment (dipole orientation):
 (Debye = 10**-18 statcoulomb cm , SI units = C m)
                  (au)            (Debye)         (10**-30 SI)
   Tot        0.120108D+01      0.305284D+01      0.101832D+02
   x          0.000000D+00      0.000000D+00      0.000000D+00
   y          0.000000D+00      0.000000D+00      0.000000D+00
   z          0.120108D+01      0.305284D+01      0.101832D+02

 Dipole polarizability, Alpha (dipole orientation).
 (esu units = cm**3 , SI units = C**2 m**2 J**-1)
 Alpha(0;0):
               (au)            (10**-24 esu)      (10**-40 SI)
   iso        0.685816D+02      0.101627D+02      0.113076D+02
   aniso      0.380368D+02      0.563647D+01      0.627142D+01
   xx         0.583748D+02      0.865026D+01      0.962471D+01
   yx        -0.884543D+01     -0.131076D+01     -0.145841D+01
   yy         0.739129D+02      0.109528D+02      0.121866D+02
   zx        -0.940808D+01     -0.139413D+01     -0.155118D+01
   zy         0.154054D+02      0.228285D+01      0.254001D+01
   zz         0.734569D+02      0.108852D+02      0.121114D+02

 ----------------------------------------------------------------------
 1\1\GINC-BROWN-A121\Freq\RM062X\6-311++G(d,p)\C4H7O2S1(1+)\FINEJ\13-Oc
 t-2019\0\\#P Geom=AllCheck Guess=TCheck SCRF=Check GenChk RM062X/6-311
 ++G(d,p) Freq\\Title Card Required\\1,1\C,3.9630703925,0.1867654898,1.
 2005079735\C,3.2978793789,1.3032783395,1.458461836\S,2.8467751447,2.29
 2761665,0.0825868266\O,3.1561902799,1.6970683504,-1.1866815056\C,3.551
 0389999,3.9005316817,0.2438902817\C,2.9179735979,4.8748973223,0.880888
 6763\O,1.3042883492,2.4905013428,0.3893661905\H,4.2693853125,-0.456986
 8069,2.0171812569\H,4.2098424724,-0.1131232013,0.1864366242\H,3.000379
 4764,1.7033188969,2.4206866588\H,4.5282351569,3.9520478249,-0.22449242
 33\H,3.3854821181,5.850238983,0.9596703349\H,1.9396805737,4.7447704946
 ,1.3310358091\H,0.803364827,2.8302682472,-0.3750091996\\Version=ES64L-
 G16RevA.03\State=1-A\HF=-704.8182565\RMSD=4.988e-09\RMSF=3.790e-06\Zer
 oPoint=0.1067565\Thermal=0.1067565\Dipole=0.0322519,0.7716485,0.919842
 1\DipoleDeriv=0.0239616,-0.1186965,0.0213619,-0.1003471,0.1436728,-0.0
 41286,-0.0657987,0.1979263,-0.0388443,-0.2985459,-0.0732996,0.0081707,
 0.0362148,-0.5751248,-0.0379946,-0.0516309,-0.0375006,-0.1279146,1.906
 4228,0.006693,0.1298456,-0.2366353,2.1683328,0.1570618,0.1689805,-0.28
 49249,1.7499703,-0.4962475,0.0232016,0.0161662,0.045966,-0.7155344,-0.
 1604005,0.0022974,-0.0549404,-0.9140829,-0.2102735,0.2184619,-0.096581
 2,0.1505836,-0.3916414,-0.0483235,-0.0897196,-0.0301355,-0.3521754,0.0
 242405,-0.1909185,-0.069735,-0.0086184,0.0316091,0.0497714,-0.0474396,
 0.1458142,-0.0038661,-1.2971567,0.0732476,-0.1056883,0.1563073,-0.6517
 282,-0.0247485,-0.1086489,0.1239196,-0.4461322,0.1509152,0.0480006,0.0
 015604,0.0049276,0.1621002,0.0007934,0.0162405,-0.0311557,0.1197884,0.
 1571638,-0.0364586,-0.0125667,-0.0094945,0.1572065,0.0376837,-0.004483
 1,0.0251327,0.0952228,0.1600444,0.0679783,-0.0289072,0.0741886,0.05158
 15,0.065343,-0.0199243,0.0323579,0.1212466,0.1655822,0.0035088,0.00779
 14,-0.0255295,0.0110742,-0.0440738,0.0006296,-0.06619,0.1741931,0.1199
 727,0.0083447,0.0250198,-0.0159972,0.1490743,-0.004101,0.0265779,-0.03
 85036,0.1543257,0.0957341,-0.0389025,0.0091115,-0.0517947,0.1212,0.019
 5877,-0.0021999,0.0281935,0.1378405,0.4981864,0.0088392,0.0944508,-0.0
 197713,0.3381773,0.030687,0.1751192,-0.0099936,0.3304281\Polar=58.0468
 204,-12.451175,89.1416575,-1.490553,2.8124377,58.5562421\Quadrupole=-1
 .5579456,7.7447757,-6.1868301,-3.9530146,2.9362945,-2.7161391\PG=C01 [
 X(C4H7O2S1)]\NImag=0\\0.31539409,-0.31508947,0.67583914,-0.04963354,0.
 01472069,0.66301464,-0.17738919,0.22002279,0.05510631,0.29191320,0.218
 86558,-0.41343582,-0.08208806,-0.29622768,0.59715047,0.06115555,-0.095
 14321,-0.12975368,-0.12631592,0.16199364,0.55047844,-0.00693140,0.0160
 9759,-0.01099419,-0.05565698,0.01364351,-0.01487861,0.54189651,0.01521
 033,-0.03100520,0.02364862,0.00248930,-0.08517649,0.02961942,-0.067137
 39,0.53313299,-0.01117230,0.02177129,0.00829905,0.00290882,0.02447449,
 -0.14031622,-0.10205310,0.16708042,0.82157899,-0.00019134,0.00002046,-
 0.00041269,0.00657751,0.00138421,-0.00564503,-0.09988480,0.04799560,0.
 10027016,0.07957058,0.00032522,-0.00018167,-0.00037270,0.00160156,0.00
 934340,0.01419115,0.04954457,-0.17961082,-0.21438112,-0.05573680,0.166
 71672,0.00124873,-0.00316916,-0.00094581,0.01009686,-0.01908432,-0.018
 11535,0.10292388,-0.20878144,-0.52814892,-0.11914250,0.23201658,0.5534
 7748,0.00129258,-0.00005904,-0.00117320,0.00884185,0.00671264,-0.00062
 743,-0.08830123,-0.03609466,-0.00091369,0.01002671,0.01061494,0.010255
 74,0.59090830,-0.00124212,-0.00070052,0.00187855,-0.00405531,-0.007242
 48,-0.00429020,-0.03127457,-0.13072680,-0.01126313,-0.00645198,-0.0016
 0297,0.00343852,-0.12254423,0.52823497,0.00076121,0.00117548,-0.003767
 07,0.00118473,0.01213996,0.01011741,0.00914663,0.00584442,-0.06857721,
 -0.00590766,-0.02952062,-0.00165200,-0.28080785,0.19487006,0.31405005,
 0.00008001,-0.00026687,0.00098507,-0.00189539,-0.00223882,-0.00041260,
 0.01381791,-0.00229118,-0.00602702,-0.00151869,-0.00678516,-0.00380074
 ,-0.21374670,0.15743017,0.13484878,0.60939374,-0.00019380,0.00023270,0
 .00053449,-0.00133990,-0.00048319,0.00059187,0.00204553,-0.03709570,-0
 .01150976,-0.00066088,-0.00395543,-0.00520049,0.16784688,-0.33578394,-
 0.17727264,-0.01267030,0.72484501,0.00021543,0.00001434,-0.00027335,0.
 00115817,0.00260249,0.00031001,-0.00681160,-0.01005920,-0.00074863,0.0
 0024757,0.00039888,0.00043496,0.13815042,-0.17239435,-0.17124329,-0.24
 696964,0.19947941,0.31678895,-0.00137020,-0.00081653,-0.00569379,-0.01
 724703,0.00317548,0.00519591,-0.26524787,0.02202914,0.04277308,-0.0023
 7559,0.00003173,0.00122271,-0.01999575,0.00911519,0.00813541,-0.002166
 38,0.00094200,0.00184872,0.44781145,0.00027059,0.00131553,0.00296075,0
 .01936980,0.00096184,-0.00055820,0.02877586,-0.06602593,0.00086306,0.0
 1400065,0.00972104,-0.00417133,-0.02013971,0.00532839,0.00304080,0.000
 14970,-0.00164793,-0.00129671,-0.11533168,0.11561247,-0.00084556,-0.00
 084719,-0.00580459,-0.02725258,0.00888937,0.00864102,0.00774733,0.0041
 8594,-0.09616902,0.03193834,-0.00515007,0.00450558,-0.00001426,-0.0000
 4339,0.00866641,0.00121880,-0.00072434,-0.00102063,0.14885498,-0.13847
 558,0.40014649,-0.06996961,0.05254012,-0.06088936,0.00112358,0.0102773
 9,-0.01094003,0.00750925,0.00957341,0.00063760,0.00002832,-0.00168708,
 0.00027873,-0.00167191,0.00138171,-0.00158541,0.00044712,0.00025917,-0
 .00022823,0.00191133,-0.00197784,0.00207779,0.05776759,0.05264602,-0.1
 5426963,0.13084042,0.00851892,-0.01137688,0.01898632,0.00655486,0.0012
 0279,-0.00225443,-0.00079763,0.00053364,0.00035139,-0.00105344,0.00062
 553,-0.00030227,0.00013775,0.00007654,-0.00011682,0.00186102,-0.001475
 15,0.00202625,-0.06354782,0.15638152,-0.06371021,0.13537940,-0.2270526
 7,0.00347124,-0.00671369,0.00832998,0.00208590,-0.00259645,-0.00191774
 ,-0.00069630,0.00120509,0.00082776,0.00013651,-0.00011476,0.00058941,-
 0.00009577,-0.00006200,0.00001015,0.00095148,-0.00062090,0.00109929,0.
 06574637,-0.14176077,0.22923593,-0.06161020,0.02264799,0.06002907,0.00
 373657,0.00662326,0.01467762,-0.00560279,-0.00247318,0.00205194,-0.000
 20039,-0.00051013,-0.00073740,0.00102244,-0.00071918,0.00038943,-0.000
 35970,-0.00028403,0.00005395,-0.00109935,0.00093891,-0.00130594,0.0073
 4394,-0.00134205,-0.00758847,0.05008375,0.02216451,-0.07430592,-0.0694
 7242,0.00892361,-0.00366984,-0.02368960,-0.00062842,-0.00524221,-0.004
 32786,-0.00101904,0.00126826,0.00089927,0.00046487,-0.00016249,0.00044
 014,-0.00001546,-0.00002286,0.00001640,-0.00149314,0.00104063,-0.00037
 621,-0.00321276,0.00943124,0.01570889,-0.03124134,0.07212216,0.0632978
 3,-0.07472517,-0.31087695,0.00067235,-0.00019474,0.00109913,-0.0011902
 6,0.00113279,0.00200760,-0.00036112,0.00068124,-0.00172720,-0.00004141
 ,0.00003047,-0.00036294,-0.00004019,-0.00015505,-0.00004862,0.00001586
 ,-0.00006630,-0.00063165,0.00528290,-0.00716387,-0.01145134,-0.0677034
 7,0.07927106,0.32134561,0.00113210,0.00517674,0.01380799,-0.05703029,0
 .03776149,0.07573634,0.00246464,-0.00331074,-0.00911463,0.00094257,0.0
 0164967,-0.00335561,-0.00057675,0.00013195,0.00031103,0.00026414,0.000
 04917,-0.00013085,-0.00136411,0.00046626,0.00118345,-0.00497419,-0.003
 45844,-0.00046836,0.00688383,0.00616350,0.00000500,0.05208095,0.006511
 16,-0.00324218,-0.02394898,0.03797456,-0.08531963,-0.09955099,-0.00528
 172,0.00507752,0.01704540,0.00132511,-0.00080267,0.00628852,0.00078376
 ,0.00011589,-0.00106342,-0.00055321,-0.00063090,-0.00029904,0.00087853
 ,-0.00066227,-0.00094574,-0.00345636,-0.00078739,-0.00025876,0.0061608
 6,-0.00052493,0.00119358,-0.04456151,0.08688317,-0.00093035,0.00119838
 ,0.00592407,0.07631356,-0.10099899,-0.28960042,0.00439250,-0.00452494,
 -0.01685107,0.00006493,0.00094672,-0.00272349,-0.00057047,0.00006002,0
 .00051172,0.00007305,0.00045968,0.00011322,-0.00052042,0.00021866,0.00
 134233,-0.00025337,-0.00042853,0.00052935,-0.00005935,0.00128716,0.000
 48241,-0.07816270,0.10148632,0.29996678,-0.00017335,-0.00008645,0.0000
 2395,-0.00022879,-0.00013526,-0.00024514,-0.00762615,-0.00228579,0.004
 15845,0.00127303,0.00055325,-0.00111023,-0.29133045,-0.01378484,0.1226
 8047,-0.00303479,-0.00186200,0.00374681,-0.00029607,-0.00123834,0.0006
 9078,0.00007040,0.00004560,-0.00001701,0.00003185,-0.00003415,0.000002
 91,0.00001075,0.00005722,0.00005818,0.29945318,0.00048020,-0.00048514,
 0.00089740,0.00053583,-0.00111636,-0.00161505,-0.02394792,-0.00445784,
 0.01230153,0.00288361,0.00045157,-0.00159023,-0.01624076,-0.04780259,0
 .00376260,0.02332224,0.00648838,-0.01136775,-0.00602011,-0.00277066,-0
 .00075262,0.00010157,-0.00017005,-0.00011045,-0.00009468,0.00000060,-0
 .00003458,-0.00005339,-0.00000364,-0.00004944,0.01825916,0.05264119,-0
 .00026731,0.00012417,0.00005912,0.00010975,0.00014382,-0.00028372,-0.0
 0352335,-0.00039648,0.00260224,0.00065452,0.00025732,-0.00088413,0.124
 17592,0.00345544,-0.09217910,0.01207815,0.00087524,-0.00030868,-0.0034
 4991,-0.00265712,0.00090280,0.00000541,0.00004447,-0.00004514,-0.00000
 830,0.00003039,0.00005359,0.00004664,0.00005146,-0.00000574,-0.1311577
 8,0.00015704,0.08742681,-0.00002057,-0.00003646,0.00009790,-0.00006404
 ,-0.00069542,-0.00055103,-0.00107662,0.00006303,0.00697967,0.00040377,
 0.00285075,0.00088195,0.00963617,0.01524478,0.00302982,-0.11025917,-0.
 12047393,-0.00517805,0.00165986,-0.00100409,-0.00108814,0.00010006,0.0
 0003862,-0.00001627,-0.00001116,-0.00006509,0.00005309,-0.00006509,0.0
 0017280,-0.00005139,-0.00086721,0.00091143,-0.00290726,0.10518914,0.00
 005656,0.00002303,-0.00021460,0.00023059,0.00094361,0.00056095,0.00030
 335,0.00091629,-0.00434721,-0.00012857,-0.00141204,-0.00042792,-0.0098
 3785,-0.01552615,-0.00176378,-0.11661201,-0.29138784,-0.02155571,-0.00
 031649,0.00030320,0.00040172,-0.00013001,-0.00005791,0.00002597,0.0000
 4743,0.00003600,-0.00005226,-0.00000963,-0.00015879,0.00004968,0.00093
 129,0.00049028,0.00199777,0.12462731,0.30334103,-0.00009665,-0.0001717
 3,0.00070132,-0.00120087,-0.00222350,-0.00111763,0.00599012,-0.0064446
 2,0.00989816,-0.00039742,0.00216551,-0.00085298,-0.00391632,-0.0146080
 5,0.00386589,-0.00390887,-0.01899736,-0.04815730,0.00053223,0.00134816
 ,-0.00037215,0.00042806,0.00014616,-0.00007691,-0.00022365,-0.00011018
 ,0.00004683,0.00003238,-0.00001639,0.00010783,-0.00296229,0.00206392,-
 0.00514500,0.00046783,0.02682986,0.03478499,-0.00004325,0.00009146,-0.
 00021855,0.00015297,0.00038850,0.00038295,-0.00156759,0.00207839,-0.00
 255328,0.00012627,-0.00086634,-0.00026631,-0.00654959,-0.00359896,0.00
 614351,-0.29178071,-0.03349747,0.11431493,-0.00116383,-0.00231586,-0.0
 0077132,-0.00008063,0.00000368,0.00001707,0.00003855,0.00002144,0.0000
 0601,0.00002176,0.00018732,-0.00008727,0.00259836,-0.00028542,0.003994
 59,-0.00455582,0.00087565,0.00544078,0.30247044,-0.00001217,-0.0000834
 9,0.00017285,-0.00034040,-0.00046434,-0.00041613,0.00460771,-0.0010443
 3,0.00045830,-0.00053331,0.00093003,0.00058985,0.02162803,0.00514995,-
 0.01183206,-0.03893135,-0.06032342,0.01410223,-0.00091999,-0.00034747,
 0.00018753,0.00010994,0.00003790,0.00000690,-0.00004041,-0.00001793,0.
 00000649,0.00010033,-0.00003650,0.00013482,-0.00052985,-0.00246352,-0.
 00402539,-0.02195319,0.00259413,0.01005149,0.03732968,0.05631631,-0.00
 000089,0.00014355,-0.00056379,0.00049161,0.00112199,0.00074995,-0.0000
 5536,0.00276546,-0.00640562,-0.00011802,-0.00142240,0.00004760,0.01343
 463,0.00014039,0.00139188,0.11238175,0.01184240,-0.09620849,-0.0017351
 3,0.00093446,0.00021449,-0.00024709,-0.00006150,0.00006693,0.00015118,
 0.00005170,-0.00003173,-0.00008069,0.00014240,-0.00001430,0.00402766,-
 0.00425422,0.00759322,-0.00188547,-0.00147762,0.00635901,-0.12611174,-
 0.00890450,0.08711266,-0.00019968,-0.00024232,-0.00103495,-0.00283397,
 0.00046513,0.00246742,-0.03379288,0.01415375,-0.02794571,0.00522205,-0
 .00158619,0.00150418,0.00044432,0.00036740,0.00166991,0.00075862,-0.00
 016043,-0.00041763,-0.13905645,0.07803576,-0.16243367,0.00039474,0.000
 39290,0.00018381,-0.00025734,-0.00002852,0.00000050,0.00020970,-0.0001
 9853,-0.00026691,0.00011923,0.00014826,0.00024890,-0.00006932,-0.00003
 760,-0.00018535,0.00033307,-0.00051502,-0.00025242,0.16872793,0.000007
 41,0.00029917,0.00044299,0.00229633,-0.00011428,-0.00067997,0.00669705
 ,0.00005573,0.00408903,-0.00228142,-0.00139906,-0.00115923,-0.00208142
 ,0.00009321,0.00048133,-0.00067549,-0.00031141,0.00047583,0.08686483,-
 0.06135368,0.13162434,-0.00023144,-0.00015214,-0.00008847,0.00028656,0
 .00004729,0.00007634,-0.00010539,0.00009233,0.00016046,0.00011017,-0.0
 0080221,-0.00005814,0.00031948,-0.00010484,-0.00003326,-0.00041206,-0.
 00024731,-0.00102210,-0.09079460,0.06389721,-0.00002194,-0.00047085,0.
 00103971,0.00325596,-0.00006247,-0.00053895,0.00722010,-0.00147392,0.0
 1474838,-0.00049478,-0.00101558,-0.00424349,0.00191141,-0.00115957,-0.
 00141116,-0.00033078,0.00013855,0.00035169,-0.19813112,0.13848025,-0.3
 2152037,-0.00031338,-0.00030682,-0.00014500,0.00027338,0.00027127,0.00
 009525,0.00019001,-0.00012435,0.00021733,0.00010324,0.00059186,0.00021
 375,0.00016736,-0.00002684,-0.00004205,-0.00029135,-0.00053238,-0.0003
 1181,0.18646190,-0.13430915,0.31154673\\0.00000823,0.00000024,0.000000
 11,0.00000027,-0.00000547,0.00000247,-0.00000384,0.00000900,0.00000341
 ,-0.00000069,-0.00000368,-0.00000511,-0.00000235,-0.00000016,0.0000043
 0,0.00000803,0.00000370,0.00001039,-0.00000444,0.00000109,-0.00000617,
 -0.00000293,-0.00000341,-0.00000297,-0.00000091,0.00000108,-0.00000207
 ,0.00000209,0.00000204,-0.00000158,-0.00000007,0.00000101,0.00000021,-
 0.00000189,-0.00000025,-0.00000008,-0.00000171,-0.00000406,-0.00000324
 ,0.00000022,-0.00000116,0.00000034\\\@


 TIME IS NATURE'S WAY OF MAKING SURE EVERYTHING
 DOESN'T HAPPEN AT ONCE.
                     - WOODY ALLEN
 Job cpu time:       0 days  0 hours 19 minutes 50.9 seconds.
 Elapsed time:       0 days  0 hours  0 minutes 50.2 seconds.
 File lengths (MBytes):  RWF=     71 Int=      0 D2E=      0 Chk=      5 Scr=      1
 Normal termination of Gaussian 16 at Sun Oct 13 22:16:09 2019.
real 253.54
user 5761.12
sys 32.05
Machine:
brown-a121
brown-a121
brown-a121
brown-a121
brown-a121
brown-a121
brown-a121
brown-a121
brown-a121
brown-a121
brown-a121
brown-a121
brown-a121
brown-a121
brown-a121
brown-a121
brown-a121
brown-a121
brown-a121
brown-a121
brown-a121
brown-a121
brown-a121
brown-a121
