Title Card Required                                                     
Freq      RM062X                                                      6-311++G(d,p)       
Number of atoms                            I               18
Info1-9                                    I   N=           9
          46          46        1002           0           0         100
           6          18        -502
Full Title                                 C   N=           2
Title Card Required     
Route                                      C   N=           6
#P opt freq m062x/6-311++g(d,p) geom=connectivity temperatur
e=0.001     
Charge                                     I                0
Multiplicity                               I                1
Number of electrons                        I               90
Number of alpha electrons                  I               45
Number of beta electrons                   I               45
Number of basis functions                  I              299
Number of independent functions            I              298
Number of point charges in /Mol/           I                0
Number of translation vectors              I                0
Atomic numbers                             I   N=          18
           8          16           6           6           6           6
           6           6           7           8           8           1
           1           1           1           1           1           1
Nuclear charges                            R   N=          18
  8.00000000E+00  1.60000000E+01  6.00000000E+00  6.00000000E+00  6.00000000E+00
  6.00000000E+00  6.00000000E+00  6.00000000E+00  7.00000000E+00  8.00000000E+00
  8.00000000E+00  1.00000000E+00  1.00000000E+00  1.00000000E+00  1.00000000E+00
  1.00000000E+00  1.00000000E+00  1.00000000E+00
Current cartesian coordinates              R   N=          54
  3.25235783E+00 -9.56629502E-01  2.71437889E+00  2.41124676E+00  6.83270171E-01
  6.99722344E-01 -9.05207287E-01  3.18973502E-01  3.57731521E-01 -2.26102539E+00
  2.20182504E+00 -8.73978581E-01 -4.84923347E+00  1.88534317E+00 -1.17461006E+00
 -6.02656805E+00 -2.83268428E-01 -2.56394980E-01 -4.63502193E+00 -2.14481284E+00
  9.73984488E-01 -2.04245169E+00 -1.85319755E+00  1.29505267E+00  3.40258814E+00
 -3.92907267E-01 -2.19488922E+00  3.21118512E+00 -3.03517793E+00 -2.29938692E+00
  3.09255548E+00  3.33199638E+00  6.28240745E-01 -1.29449131E+00  3.87563915E+00
 -1.54998862E+00 -5.94897311E+00  3.33291967E+00 -2.11436739E+00 -8.04693307E+00
 -5.17160293E-01 -4.93521196E-01 -5.56664126E+00 -3.81811552E+00  1.69532996E+00
 -9.06908407E-01 -3.25354462E+00  2.26510890E+00  5.27790572E+00  4.87022646E-02
 -2.32433367E+00  1.95623581E+00 -3.32110144E+00 -3.58613303E+00
Number of symbols in /Mol/                 I                0
Force Field                                I                0
Atom Types                                 C   N=          18
                                                            
                                                            
                                                            
                                    
Int Atom Types                             I   N=          18
           0           0           0           0           0           0
           0           0           0           0           0           0
           0           0           0           0           0           0
MM charges                                 R   N=          18
  0.00000000E+00  0.00000000E+00  0.00000000E+00  0.00000000E+00  0.00000000E+00
  0.00000000E+00  0.00000000E+00  0.00000000E+00  0.00000000E+00  0.00000000E+00
  0.00000000E+00  0.00000000E+00  0.00000000E+00  0.00000000E+00  0.00000000E+00
  0.00000000E+00  0.00000000E+00  0.00000000E+00
Integer atomic weights                     I   N=          18
          16          32          12          12          12          12
          12          12          14          16          16           1
           1           1           1           1           1           1
Real atomic weights                        R   N=          18
  1.59949146E+01  3.19720718E+01  1.20000000E+01  1.20000000E+01  1.20000000E+01
  1.20000000E+01  1.20000000E+01  1.20000000E+01  1.40030740E+01  1.59949146E+01
  1.59949146E+01  1.00782504E+00  1.00782504E+00  1.00782504E+00  1.00782504E+00
  1.00782504E+00  1.00782504E+00  1.00782504E+00
Atom fragment info                         I   N=          18
           0           0           0           0           0           0
           0           0           0           0           0           0
           0           0           0           0           0           0
Atom residue num                           I   N=          18
           0           0           0           0           0           0
           0           0           0           0           0           0
           0           0           0           0           0           0
Nuclear spins                              I   N=          18
           0           0           0           0           0           0
           0           0           2           0           0           1
           1           1           1           1           1           1
Nuclear ZEff                               R   N=          18
 -5.60000000E+00 -1.36000000E+01 -3.60000000E+00 -3.60000000E+00 -3.60000000E+00
 -3.60000000E+00 -3.60000000E+00 -3.60000000E+00 -4.55000000E+00 -5.60000000E+00
 -5.60000000E+00 -1.00000000E+00 -1.00000000E+00 -1.00000000E+00 -1.00000000E+00
 -1.00000000E+00 -1.00000000E+00 -1.00000000E+00
Nuclear ZNuc                               R   N=          18
  8.00000000E+00  1.60000000E+01  6.00000000E+00  6.00000000E+00  6.00000000E+00
  6.00000000E+00  6.00000000E+00  6.00000000E+00  7.00000000E+00  8.00000000E+00
  8.00000000E+00  1.00000000E+00  1.00000000E+00  1.00000000E+00  1.00000000E+00
  1.00000000E+00  1.00000000E+00  1.00000000E+00
Nuclear QMom                               R   N=          18
  0.00000000E+00  0.00000000E+00  0.00000000E+00  0.00000000E+00  0.00000000E+00
  0.00000000E+00  0.00000000E+00  0.00000000E+00  2.04400000E+00  0.00000000E+00
  0.00000000E+00  0.00000000E+00  0.00000000E+00  0.00000000E+00  0.00000000E+00
  0.00000000E+00  0.00000000E+00  0.00000000E+00
Nuclear GFac                               R   N=          18
  0.00000000E+00  0.00000000E+00  0.00000000E+00  0.00000000E+00  0.00000000E+00
  0.00000000E+00  0.00000000E+00  0.00000000E+00  4.03761000E-01  0.00000000E+00
  0.00000000E+00  2.79284600E+00  2.79284600E+00  2.79284600E+00  2.79284600E+00
  2.79284600E+00  2.79284600E+00  2.79284600E+00
MicOpt                                     I   N=          18
          -1          -1          -1          -1          -1          -1
          -1          -1          -1          -1          -1          -1
          -1          -1          -1          -1          -1          -1
Number of residues                         I                0
Number of secondary structures             I                0
Redundant internal dimensions              I   N=           4
          84          18          28          38
Redundant internal coordinate indices      I   N=         336
           1           2           0           0           2           3
           0           0           2           9           0           0
           2          11           0           0           3           4
           0           0           3           8           0           0
           4           5           0           0           4          12
           0           0           5           6           0           0
           5          13           0           0           6           7
           0           0           6          14           0           0
           7           8           0           0           7          15
           0           0           8          16           0           0
           9          10           0           0           9          17
           0           0          10          18           0           0
           1           2           3           0           1           2
           9           0           1           2          11           0
           3           2           9           0           3           2
          11           0           9           2          11           0
           2           3           4           0           2           3
           8           0           4           3           8           0
           3           4           5           0           3           4
          12           0           5           4          12           0
           4           5           6           0           4           5
          13           0           6           5          13           0
           5           6           7           0           5           6
          14           0           7           6          14           0
           6           7           8           0           6           7
          15           0           8           7          15           0
           3           8           7           0           3           8
          16           0           7           8          16           0
           2           9          10           0           2           9
          17           0          10           9          17           0
           9          10          18           0           1           2
           3           4           1           2           3           8
           9           2           3           4           9           2
           3           8          11           2           3           4
          11           2           3           8           1           2
           9          10           1           2           9          17
           3           2           9          10           3           2
           9          17          11           2           9          10
          11           2           9          17           2           3
           4           5           2           3           4          12
           8           3           4           5           8           3
           4          12           2           3           8           7
           2           3           8          16           4           3
           8           7           4           3           8          16
           3           4           5           6           3           4
           5          13          12           4           5           6
          12           4           5          13           4           5
           6           7           4           5           6          14
          13           5           6           7          13           5
           6          14           5           6           7           8
           5           6           7          15          14           6
           7           8          14           6           7          15
           6           7           8           3           6           7
           8          16          15           7           8           3
          15           7           8          16           2           9
          10          18          17           9          10          18
Redundant internal coordinates             R   N=          84
  2.73049075E+00  3.35388390E+00  3.24340743E+00  2.73588043E+00  2.62687693E+00
  2.62492340E+00  2.62475925E+00  2.04764044E+00  2.63289041E+00  2.04647229E+00
  2.62974939E+00  2.04763498E+00  2.62860128E+00  2.04650818E+00  2.04730055E+00
  2.65125426E+00  1.93095595E+00  1.81999055E+00  1.89083874E+00  1.94449251E+00
  2.12236279E+00  1.74689888E+00  1.92702593E+00  1.79445864E+00  2.07182760E+00
  2.07360269E+00  2.13761874E+00  2.06715440E+00  2.09102753E+00  2.12492157E+00
  2.09474888E+00  2.09117259E+00  2.09724778E+00  2.10551860E+00  2.08852231E+00
  2.08912851E+00  2.09499333E+00  2.09765145E+00  2.09051879E+00  2.06632679E+00
  2.08852918E+00  2.12826938E+00  1.92174661E+00  1.85540812E+00  1.87066634E+00
  1.80720793E+00  2.79953711E+00 -3.59351651E-01 -1.44652679E+00  1.67776976E+00
  4.35880290E-01 -2.72300847E+00  6.92719423E-01 -1.32796117E+00 -1.30383810E+00
  2.95866662E+00  2.99294221E+00  9.72261612E-01  3.12231120E+00 -3.27851403E-02
 -1.31644007E-03  3.12677252E+00 -3.11980261E+00  3.33275661E-02  3.80751959E-03
 -3.12624761E+00 -2.56234091E-03  3.13294951E+00 -3.13037588E+00  5.13597244E-03
  3.91061612E-03  3.13942577E+00 -3.13157988E+00  3.93528086E-03 -1.36164849E-03
  3.13313076E+00 -3.13687470E+00 -2.38229910E-03 -2.41649501E-03  3.12736196E+00
 -3.13693806E+00 -7.15960760E-03  2.01440079E+00 -2.25772792E+00
ZRed-IntVec                                I   N=          84
           0           0           0           0           0           0
           0           0           0           0           0           0
           0           0           0           0           0           0
           0           0           0           0           0           0
           0           0           0           0           0           0
           0           0           0           0           0           0
           0           0           0           0           0           0
           0           0           0           0           0           0
           0           0           0           0           0           0
           0           0           0           0           0           0
           0           0           0           0           0           0
           0           0           0           0           0           0
           0           0           0           0           0           0
           0           0           0           0           0           0
ZRed-FPVec                                 R   N=          84
  0.00000000E+00  0.00000000E+00  0.00000000E+00  0.00000000E+00  0.00000000E+00
  0.00000000E+00  0.00000000E+00  0.00000000E+00  0.00000000E+00  0.00000000E+00
  0.00000000E+00  0.00000000E+00  0.00000000E+00  0.00000000E+00  0.00000000E+00
  0.00000000E+00  0.00000000E+00  0.00000000E+00  0.00000000E+00  0.00000000E+00
  0.00000000E+00  0.00000000E+00  0.00000000E+00  0.00000000E+00  0.00000000E+00
  0.00000000E+00  0.00000000E+00  0.00000000E+00  0.00000000E+00  0.00000000E+00
  0.00000000E+00  0.00000000E+00  0.00000000E+00  0.00000000E+00  0.00000000E+00
  0.00000000E+00  0.00000000E+00  0.00000000E+00  0.00000000E+00  0.00000000E+00
  0.00000000E+00  0.00000000E+00  0.00000000E+00  0.00000000E+00  0.00000000E+00
  0.00000000E+00  0.00000000E+00  0.00000000E+00  0.00000000E+00  0.00000000E+00
  0.00000000E+00  0.00000000E+00  0.00000000E+00  0.00000000E+00  0.00000000E+00
  0.00000000E+00  0.00000000E+00  0.00000000E+00  0.00000000E+00  0.00000000E+00
  0.00000000E+00  0.00000000E+00  0.00000000E+00  0.00000000E+00  0.00000000E+00
  0.00000000E+00  0.00000000E+00  0.00000000E+00  0.00000000E+00  0.00000000E+00
  0.00000000E+00  0.00000000E+00  0.00000000E+00  0.00000000E+00  0.00000000E+00
  0.00000000E+00  0.00000000E+00  0.00000000E+00  0.00000000E+00  0.00000000E+00
  0.00000000E+00  0.00000000E+00  0.00000000E+00  0.00000000E+00
ZRed-Constraint1                           R   N=          84
  2.73049075E+00  3.35388390E+00  3.24340743E+00  2.73588043E+00  2.62687693E+00
  2.62492340E+00  2.62475925E+00  2.04764044E+00  2.63289041E+00  2.04647229E+00
  2.62974939E+00  2.04763498E+00  2.62860128E+00  2.04650818E+00  2.04730055E+00
  2.65125426E+00  1.93095595E+00  1.81999055E+00  1.89083874E+00  1.94449251E+00
  2.12236279E+00  1.74689888E+00  1.92702593E+00  1.79445864E+00  2.07182760E+00
  2.07360269E+00  2.13761874E+00  2.06715440E+00  2.09102753E+00  2.12492157E+00
  2.09474888E+00  2.09117259E+00  2.09724778E+00  2.10551860E+00  2.08852231E+00
  2.08912851E+00  2.09499333E+00  2.09765145E+00  2.09051879E+00  2.06632679E+00
  2.08852918E+00  2.12826938E+00  1.92174661E+00  1.85540812E+00  1.87066634E+00
  1.80720793E+00  2.79953711E+00 -3.59351651E-01 -1.44652679E+00  1.67776976E+00
  4.35880290E-01 -2.72300847E+00  6.92719423E-01 -1.32796117E+00 -1.30383810E+00
  2.95866662E+00  2.99294221E+00  9.72261612E-01  3.12231120E+00 -3.27851403E-02
 -1.31644007E-03  3.12677252E+00 -3.11980261E+00  3.33275661E-02  3.80751959E-03
 -3.12624761E+00 -2.56234091E-03  3.13294951E+00 -3.13037588E+00  5.13597244E-03
  3.91061612E-03  3.13942577E+00 -3.13157988E+00  3.93528086E-03 -1.36164849E-03
  3.13313076E+00 -3.13687470E+00 -2.38229910E-03 -2.41649501E-03  3.12736196E+00
 -3.13693806E+00 -7.15960760E-03  2.01440079E+00 -2.25772792E+00
ZRed-Constraint2                           R   N=          84
  3.03167909E+00  3.34577355E+00  3.32332358E+00  3.03132330E+00  2.66639778E+00
  2.66636727E+00  2.65866216E+00  2.05979635E+00  2.65813915E+00  2.05983063E+00
  2.65789756E+00  2.05987264E+00  2.65824062E+00  2.05984737E+00  2.05988509E+00
  2.55641975E+00  1.90858538E+00  1.81425732E+00  1.93690508E+00  1.89436600E+00
  1.89400257E+00  1.90977235E+00  1.93437002E+00  1.89345111E+00  2.10063850E+00
  2.09681124E+00  2.08571746E+00  2.09798201E+00  2.09498885E+00  2.09021444E+00
  2.09474595E+00  2.09438996E+00  2.09404939E+00  2.09490884E+00  2.09421284E+00
  2.09406363E+00  2.09435449E+00  2.09441159E+00  2.09441922E+00  2.09861747E+00
  2.09498644E+00  2.08958139E+00  1.87697036E+00  2.37915327E+00  2.02706168E+00
  1.91058792E+00  2.62214119E+00 -5.25949836E-01 -1.57097930E+00  1.56411498E+00
  5.16371739E-01 -2.63171928E+00  1.11166981E+00 -2.02980876E+00 -1.00434211E+00
  2.13736462E+00 -3.11669838E+00  2.50083492E-02 -3.13776395E+00  3.87919427E-03
  1.02858819E-02 -3.13125628E+00  3.13828182E+00 -3.18582526E-03 -9.75361532E-03
  3.13196405E+00 -5.04626356E-03  3.13645686E+00  3.13649604E+00 -5.18614303E-03
 -8.05483594E-04  3.14083485E+00  3.14087668E+00 -6.68290638E-04  1.34030318E-03
 -3.14029883E+00 -3.14030003E+00  1.24614361E-03  3.97609264E-03 -3.13774118E+00
 -3.13757008E+00  3.89795360E-03  4.33780087E-01 -2.70790034E+00
SymInf integers                            I   N=          26
           1           1           1           1           1           0
           0           0           0           0           0           0
           0           0           0           0           0           0
           0           0           0           0           0           0
           0           0
RotTr to input orientation                 R   N=          12
 -7.21790450E-01  8.20401167E-02 -6.87232105E-01 -5.54410404E-01 -6.62923649E-01
  5.03151409E-01 -4.14303814E-01  7.44178510E-01  5.23975853E-01 -1.26808402E+00
  1.63800714E+00 -2.50793583E-01
Number of contracted shells                I              108
Number of primitive shells                 I              203
Pure/Cartesian d shells                    I                0
Pure/Cartesian f shells                    I                0
Highest angular momentum                   I                2
Largest degree of contraction              I                6
Shell types                                I   N=         108
           0          -1          -1          -1          -1          -2
           0           0           0           0           0           0
          -1           1           1           1           1           1
          -2           0          -1          -1          -1          -1
          -2           0          -1          -1          -1          -1
          -2           0          -1          -1          -1          -1
          -2           0          -1          -1          -1          -1
          -2           0          -1          -1          -1          -1
          -2           0          -1          -1          -1          -1
          -2           0          -1          -1          -1          -1
          -2           0          -1          -1          -1          -1
          -2           0          -1          -1          -1          -1
          -2           0           0           0           0           1
           0           0           0           0           1           0
           0           0           0           1           0           0
           0           0           1           0           0           0
           0           1           0           0           0           0
           1           0           0           0           0           1
Number of primitives per shell             I   N=         108
           6           3           1           1           1           1
           6           3           1           1           1           1
           1           4           2           1           1           1
           1           6           3           1           1           1
           1           6           3           1           1           1
           1           6           3           1           1           1
           1           6           3           1           1           1
           1           6           3           1           1           1
           1           6           3           1           1           1
           1           6           3           1           1           1
           1           6           3           1           1           1
           1           6           3           1           1           1
           1           3           1           1           1           1
           3           1           1           1           1           3
           1           1           1           1           3           1
           1           1           1           3           1           1
           1           1           3           1           1           1
           1           3           1           1           1           1
Shell to atom map                          I   N=         108
           1           1           1           1           1           1
           2           2           2           2           2           2
           2           2           2           2           2           2
           2           3           3           3           3           3
           3           4           4           4           4           4
           4           5           5           5           5           5
           5           6           6           6           6           6
           6           7           7           7           7           7
           7           8           8           8           8           8
           8           9           9           9           9           9
           9          10          10          10          10          10
          10          11          11          11          11          11
          11          12          12          12          12          12
          13          13          13          13          13          14
          14          14          14          14          15          15
          15          15          15          16          16          16
          16          16          17          17          17          17
          17          18          18          18          18          18
Primitive exponents                        R   N=         203
  8.58850000E+03  1.29723000E+03  2.99296000E+02  8.73771000E+01  2.56789000E+01
  3.74004000E+00  4.21175000E+01  9.62837000E+00  2.85332000E+00  9.05661000E-01
  2.55611000E-01  8.45000000E-02  1.29200000E+00  9.34134000E+04  1.39617000E+04
  3.16991000E+03  9.02456000E+02  2.97158000E+02  1.08702000E+02  1.08702000E+02
  4.31553000E+01  1.81079000E+01  5.56009000E+00  2.13183000E+00  4.20403000E-01
  1.36045000E-01  4.05000000E-02  4.95040000E+02  1.17221000E+02  3.77749000E+01
  1.40584000E+01  5.56574000E+00  2.26297000E+00  8.07994000E-01  2.77460000E-01
  7.71410000E-02  6.50000000E-01  4.56324000E+03  6.82024000E+02  1.54973000E+02
  4.44553000E+01  1.30290000E+01  1.82773000E+00  2.09642000E+01  4.80331000E+00
  1.45933000E+00  4.83456000E-01  1.45585000E-01  4.38000000E-02  6.26000000E-01
  4.56324000E+03  6.82024000E+02  1.54973000E+02  4.44553000E+01  1.30290000E+01
  1.82773000E+00  2.09642000E+01  4.80331000E+00  1.45933000E+00  4.83456000E-01
  1.45585000E-01  4.38000000E-02  6.26000000E-01  4.56324000E+03  6.82024000E+02
  1.54973000E+02  4.44553000E+01  1.30290000E+01  1.82773000E+00  2.09642000E+01
  4.80331000E+00  1.45933000E+00  4.83456000E-01  1.45585000E-01  4.38000000E-02
  6.26000000E-01  4.56324000E+03  6.82024000E+02  1.54973000E+02  4.44553000E+01
  1.30290000E+01  1.82773000E+00  2.09642000E+01  4.80331000E+00  1.45933000E+00
  4.83456000E-01  1.45585000E-01  4.38000000E-02  6.26000000E-01  4.56324000E+03
  6.82024000E+02  1.54973000E+02  4.44553000E+01  1.30290000E+01  1.82773000E+00
  2.09642000E+01  4.80331000E+00  1.45933000E+00  4.83456000E-01  1.45585000E-01
  4.38000000E-02  6.26000000E-01  4.56324000E+03  6.82024000E+02  1.54973000E+02
  4.44553000E+01  1.30290000E+01  1.82773000E+00  2.09642000E+01  4.80331000E+00
  1.45933000E+00  4.83456000E-01  1.45585000E-01  4.38000000E-02  6.26000000E-01
  6.29348000E+03  9.49044000E+02  2.18776000E+02  6.36916000E+01  1.88282000E+01
  2.72023000E+00  3.06331000E+01  7.02614000E+00  2.11205000E+00  6.84009000E-01
  2.00878000E-01  6.39000000E-02  9.13000000E-01  8.58850000E+03  1.29723000E+03
  2.99296000E+02  8.73771000E+01  2.56789000E+01  3.74004000E+00  4.21175000E+01
  9.62837000E+00  2.85332000E+00  9.05661000E-01  2.55611000E-01  8.45000000E-02
  1.29200000E+00  8.58850000E+03  1.29723000E+03  2.99296000E+02  8.73771000E+01
  2.56789000E+01  3.74004000E+00  4.21175000E+01  9.62837000E+00  2.85332000E+00
  9.05661000E-01  2.55611000E-01  8.45000000E-02  1.29200000E+00  3.38650000E+01
  5.09479000E+00  1.15879000E+00  3.25840000E-01  1.02741000E-01  3.60000000E-02
  7.50000000E-01  3.38650000E+01  5.09479000E+00  1.15879000E+00  3.25840000E-01
  1.02741000E-01  3.60000000E-02  7.50000000E-01  3.38650000E+01  5.09479000E+00
  1.15879000E+00  3.25840000E-01  1.02741000E-01  3.60000000E-02  7.50000000E-01
  3.38650000E+01  5.09479000E+00  1.15879000E+00  3.25840000E-01  1.02741000E-01
  3.60000000E-02  7.50000000E-01  3.38650000E+01  5.09479000E+00  1.15879000E+00
  3.25840000E-01  1.02741000E-01  3.60000000E-02  7.50000000E-01  3.38650000E+01
  5.09479000E+00  1.15879000E+00  3.25840000E-01  1.02741000E-01  3.60000000E-02
  7.50000000E-01  3.38650000E+01  5.09479000E+00  1.15879000E+00  3.25840000E-01
  1.02741000E-01  3.60000000E-02  7.50000000E-01
Contraction coefficients                   R   N=         203
  1.89515008E-03  1.43859006E-02  7.07320031E-02  2.40001011E-01  5.94797026E-01
  2.80802012E-01  1.13889012E-01  9.20811101E-01 -3.27447036E-03  1.00000000E+00
  1.00000000E+00  1.00000000E+00  1.00000000E+00  7.42999957E-04  5.79299966E-03
  2.99539983E-02  1.19027993E-01  3.68431979E-01  5.77298966E-01  1.43186060E-01
  6.24465262E-01  2.83366119E-01  1.00000000E+00  1.00000000E+00  1.00000000E+00
  1.00000000E+00  1.00000000E+00  8.30900251E-03  6.40240194E-02  2.77614084E-01
  7.45076225E-01  6.13711672E-01  4.43817763E-01  1.00000000E+00  1.00000000E+00
  1.00000000E+00  1.00000000E+00  1.96665025E-03  1.52306019E-02  7.61269097E-02
  2.60801033E-01  6.16462078E-01  2.21006028E-01  1.14660081E-01  9.19999648E-01
 -3.03068213E-03  1.00000000E+00  1.00000000E+00  1.00000000E+00  1.00000000E+00
  1.96665025E-03  1.52306019E-02  7.61269097E-02  2.60801033E-01  6.16462078E-01
  2.21006028E-01  1.14660081E-01  9.19999648E-01 -3.03068213E-03  1.00000000E+00
  1.00000000E+00  1.00000000E+00  1.00000000E+00  1.96665025E-03  1.52306019E-02
  7.61269097E-02  2.60801033E-01  6.16462078E-01  2.21006028E-01  1.14660081E-01
  9.19999648E-01 -3.03068213E-03  1.00000000E+00  1.00000000E+00  1.00000000E+00
  1.00000000E+00  1.96665025E-03  1.52306019E-02  7.61269097E-02  2.60801033E-01
  6.16462078E-01  2.21006028E-01  1.14660081E-01  9.19999648E-01 -3.03068213E-03
  1.00000000E+00  1.00000000E+00  1.00000000E+00  1.00000000E+00  1.96665025E-03
  1.52306019E-02  7.61269097E-02  2.60801033E-01  6.16462078E-01  2.21006028E-01
  1.14660081E-01  9.19999648E-01 -3.03068213E-03  1.00000000E+00  1.00000000E+00
  1.00000000E+00  1.00000000E+00  1.96665025E-03  1.52306019E-02  7.61269097E-02
  2.60801033E-01  6.16462078E-01  2.21006028E-01  1.14660081E-01  9.19999648E-01
 -3.03068213E-03  1.00000000E+00  1.00000000E+00  1.00000000E+00  1.00000000E+00
  1.96978815E-03  1.49612859E-02  7.35005308E-02  2.48936766E-01  6.02459433E-01
  2.56201759E-01  1.11906080E-01  9.21666655E-01 -2.56919183E-03  1.00000000E+00
  1.00000000E+00  1.00000000E+00  1.00000000E+00  1.89515008E-03  1.43859006E-02
  7.07320031E-02  2.40001011E-01  5.94797026E-01  2.80802012E-01  1.13889012E-01
  9.20811101E-01 -3.27447036E-03  1.00000000E+00  1.00000000E+00  1.00000000E+00
  1.00000000E+00  1.89515008E-03  1.43859006E-02  7.07320031E-02  2.40001011E-01
  5.94797026E-01  2.80802012E-01  1.13889012E-01  9.20811101E-01 -3.27447036E-03
  1.00000000E+00  1.00000000E+00  1.00000000E+00  1.00000000E+00  2.54938145E-02
  1.90373109E-01  8.52161486E-01  1.00000000E+00  1.00000000E+00  1.00000000E+00
  1.00000000E+00  2.54938145E-02  1.90373109E-01  8.52161486E-01  1.00000000E+00
  1.00000000E+00  1.00000000E+00  1.00000000E+00  2.54938145E-02  1.90373109E-01
  8.52161486E-01  1.00000000E+00  1.00000000E+00  1.00000000E+00  1.00000000E+00
  2.54938145E-02  1.90373109E-01  8.52161486E-01  1.00000000E+00  1.00000000E+00
  1.00000000E+00  1.00000000E+00  2.54938145E-02  1.90373109E-01  8.52161486E-01
  1.00000000E+00  1.00000000E+00  1.00000000E+00  1.00000000E+00  2.54938145E-02
  1.90373109E-01  8.52161486E-01  1.00000000E+00  1.00000000E+00  1.00000000E+00
  1.00000000E+00  2.54938145E-02  1.90373109E-01  8.52161486E-01  1.00000000E+00
  1.00000000E+00  1.00000000E+00  1.00000000E+00