 Entering Gaussian System, Link 0=/apps/cent7/gaussian/g16-A.03/g16-haswell/g16/g16
 Initial command:
 /apps/cent7/gaussian/g16-A.03/g16-haswell/g16/l1.exe "/scratch/brown/finej/gaussian/Gau-444699.inp" -scrdir="/scratch/brown/finej/gaussian/"
 Entering Link 1 = /apps/cent7/gaussian/g16-A.03/g16-haswell/g16/l1.exe PID=    444702.
  
 Copyright (c) 1988,1990,1992,1993,1995,1998,2003,2009,2016,
            Gaussian, Inc.  All Rights Reserved.
  
 This is part of the Gaussian(R) 16 program.  It is based on
 the Gaussian(R) 09 system (copyright 2009, Gaussian, Inc.),
 the Gaussian(R) 03 system (copyright 2003, Gaussian, Inc.),
 the Gaussian(R) 98 system (copyright 1998, Gaussian, Inc.),
 the Gaussian(R) 94 system (copyright 1995, Gaussian, Inc.),
 the Gaussian 92(TM) system (copyright 1992, Gaussian, Inc.),
 the Gaussian 90(TM) system (copyright 1990, Gaussian, Inc.),
 the Gaussian 88(TM) system (copyright 1988, Gaussian, Inc.),
 the Gaussian 86(TM) system (copyright 1986, Carnegie Mellon
 University), and the Gaussian 82(TM) system (copyright 1983,
 Carnegie Mellon University). Gaussian is a federally registered
 trademark of Gaussian, Inc.
  
 This software contains proprietary and confidential information,
 including trade secrets, belonging to Gaussian, Inc.
  
 This software is provided under written license and may be
 used, copied, transmitted, or stored only in accord with that
 written license.
  
 The following legend is applicable only to US Government
 contracts under FAR:
  
                    RESTRICTED RIGHTS LEGEND
  
 Use, reproduction and disclosure by the US Government is
 subject to restrictions as set forth in subparagraphs (a)
 and (c) of the Commercial Computer Software - Restricted
 Rights clause in FAR 52.227-19.
  
 Gaussian, Inc.
 340 Quinnipiac St., Bldg. 40, Wallingford CT 06492
  
  
 ---------------------------------------------------------------
 Warning -- This program may not be used in any manner that
 competes with the business of Gaussian, Inc. or will provide
 assistance to any competitor of Gaussian, Inc.  The licensee
 of this program is prohibited from giving any competitor of
 Gaussian, Inc. access to this program.  By using this program,
 the user acknowledges that Gaussian, Inc. is engaged in the
 business of creating and licensing software in the field of
 computational chemistry and represents and warrants to the
 licensee that it is not a competitor of Gaussian, Inc. and that
 it will not use this program in any manner prohibited above.
 ---------------------------------------------------------------
  

 Cite this work as:
 Gaussian 16, Revision A.03,
 M. J. Frisch, G. W. Trucks, H. B. Schlegel, G. E. Scuseria, 
 M. A. Robb, J. R. Cheeseman, G. Scalmani, V. Barone, 
 G. A. Petersson, H. Nakatsuji, X. Li, M. Caricato, A. V. Marenich, 
 J. Bloino, B. G. Janesko, R. Gomperts, B. Mennucci, H. P. Hratchian, 
 J. V. Ortiz, A. F. Izmaylov, J. L. Sonnenberg, D. Williams-Young, 
 F. Ding, F. Lipparini, F. Egidi, J. Goings, B. Peng, A. Petrone, 
 T. Henderson, D. Ranasinghe, V. G. Zakrzewski, J. Gao, N. Rega, 
 G. Zheng, W. Liang, M. Hada, M. Ehara, K. Toyota, R. Fukuda, 
 J. Hasegawa, M. Ishida, T. Nakajima, Y. Honda, O. Kitao, H. Nakai, 
 T. Vreven, K. Throssell, J. A. Montgomery, Jr., J. E. Peralta, 
 F. Ogliaro, M. J. Bearpark, J. J. Heyd, E. N. Brothers, K. N. Kudin, 
 V. N. Staroverov, T. A. Keith, R. Kobayashi, J. Normand, 
 K. Raghavachari, A. P. Rendell, J. C. Burant, S. S. Iyengar, 
 J. Tomasi, M. Cossi, J. M. Millam, M. Klene, C. Adamo, R. Cammi, 
 J. W. Ochterski, R. L. Martin, K. Morokuma, O. Farkas, 
 J. B. Foresman, and D. J. Fox, Gaussian, Inc., Wallingford CT, 2016.
 
 ******************************************
 Gaussian 16:  ES64L-G16RevA.03 25-Dec-2016
                13-Oct-2019 
 ******************************************
 %chk=29.chk
 %nprocshared=24
 Will use up to   24 processors via shared memory.
 %mem=80GB
 -------------------------------------------------------------------
 #P opt freq m062x/6-311++g(d,p) geom=connectivity temperature=0.001
 -------------------------------------------------------------------
 1/18=20,19=15,26=3,38=1,57=2,112=-1000/1,3;
 2/9=110,12=2,17=6,18=5,40=1/2;
 3/5=4,6=6,7=1111,11=2,25=1,30=1,71=1,74=-55/1,2,3;
 4//1;
 5/5=2,38=5/2;
 6/7=2,8=2,9=2,10=2,28=1/1;
 7//1,2,3,16;
 1/18=20,19=15,26=3/3(2);
 2/9=110/2;
 99//99;
 2/9=110/2;
 3/5=4,6=6,7=1111,11=2,25=1,30=1,71=1,74=-55/1,2,3;
 4/5=5,16=3,69=1/1;
 5/5=2,38=5/2;
 7//1,2,3,16;
 1/18=20,19=15,26=3/3(-5);
 2/9=110/2;
 6/7=2,8=2,9=2,10=2,19=2,28=1/1;
 99/9=1/99;
 Leave Link    1 at Sun Oct 13 23:06:10 2019, MaxMem= 10737418240 cpu:               0.9 elap:               0.0
 (Enter /apps/cent7/gaussian/g16-A.03/g16-haswell/g16/l101.exe)
 -------------------
 Title Card Required
 -------------------
 Symbolic Z-matrix:
 Charge =  0 Multiplicity = 1
 O                    -2.3639    2.5186   -0.8329 
 S                    -1.914     0.9836   -0.7099 
 C                    -0.4772    0.8242    0.3123 
 C                    -0.263    -0.3511    1.0631 
 C                     0.8775   -0.4725    1.8779 
 C                     1.8119    0.577     1.9415 
 C                     1.6073    1.7481    1.1899 
 C                     0.467     1.8708    0.3754 
 N                    -1.5562    0.375    -2.3206 
 O                    -0.5022    1.0767   -2.7968 
 O                    -3.1387    0.1404   -0.108 
 H                    -0.9819   -1.1689    1.0133 
 H                     1.0372   -1.38      2.4602 
 H                     2.695     0.4827    2.5735 
 H                     2.3323    2.5606    1.2386 
 H                     0.3147    2.7789   -0.208 
 H                    -1.9328   -0.3335   -2.934 
 H                     0.0123    1.4193   -2.0622 
 
 ITRead=  0  0  0  0  0  0  0  0  0  0  0  0  0  0  0  0  0  0
 MicOpt= -1 -1 -1 -1 -1 -1 -1 -1 -1 -1 -1 -1 -1 -1 -1 -1 -1 -1
 NAtoms=     18 NQM=       18 NQMF=       0 NMMI=      0 NMMIF=      0
                NMic=       0 NMicF=      0.
                    Isotopes and Nuclear Properties:
 (Nuclear quadrupole moments (NQMom) in fm**2, nuclear magnetic moments (NMagM)
  in nuclear magnetons)

  Atom         1           2           3           4           5           6           7           8           9          10
 IAtWgt=          16          32          12          12          12          12          12          12          14          16
 AtmWgt=  15.9949146  31.9720718  12.0000000  12.0000000  12.0000000  12.0000000  12.0000000  12.0000000  14.0030740  15.9949146
 NucSpn=           0           0           0           0           0           0           0           0           2           0
 AtZEff=  -0.0000000  -0.0000000  -0.0000000  -0.0000000  -0.0000000  -0.0000000  -0.0000000  -0.0000000  -0.0000000  -0.0000000
 NQMom=    0.0000000   0.0000000   0.0000000   0.0000000   0.0000000   0.0000000   0.0000000   0.0000000   2.0440000   0.0000000
 NMagM=    0.0000000   0.0000000   0.0000000   0.0000000   0.0000000   0.0000000   0.0000000   0.0000000   0.4037610   0.0000000
 AtZNuc=   8.0000000  16.0000000   6.0000000   6.0000000   6.0000000   6.0000000   6.0000000   6.0000000   7.0000000   8.0000000

  Atom        11          12          13          14          15          16          17          18
 IAtWgt=          16           1           1           1           1           1           1           1
 AtmWgt=  15.9949146   1.0078250   1.0078250   1.0078250   1.0078250   1.0078250   1.0078250   1.0078250
 NucSpn=           0           1           1           1           1           1           1           1
 AtZEff=  -0.0000000  -0.0000000  -0.0000000  -0.0000000  -0.0000000  -0.0000000  -0.0000000  -0.0000000
 NQMom=    0.0000000   0.0000000   0.0000000   0.0000000   0.0000000   0.0000000   0.0000000   0.0000000
 NMagM=    0.0000000   2.7928460   2.7928460   2.7928460   2.7928460   2.7928460   2.7928460   2.7928460
 AtZNuc=   8.0000000   1.0000000   1.0000000   1.0000000   1.0000000   1.0000000   1.0000000   1.0000000
 Leave Link  101 at Sun Oct 13 23:06:11 2019, MaxMem= 10737418240 cpu:               9.0 elap:               0.4
 (Enter /apps/cent7/gaussian/g16-A.03/g16-haswell/g16/l103.exe)

 GradGradGradGradGradGradGradGradGradGradGradGradGradGradGradGradGradGrad
 Berny optimization.
 Initialization pass.
                           ----------------------------
                           !    Initial Parameters    !
                           ! (Angstroms and Degrees)  !
 --------------------------                            --------------------------
 ! Name  Definition              Value          Derivative Info.                !
 --------------------------------------------------------------------------------
 ! R1    R(1,2)                  1.6043         estimate D2E/DX2                !
 ! R2    R(2,3)                  1.7705         estimate D2E/DX2                !
 ! R3    R(2,9)                  1.7586         estimate D2E/DX2                !
 ! R4    R(2,11)                 1.6041         estimate D2E/DX2                !
 ! R5    R(3,4)                  1.411          estimate D2E/DX2                !
 ! R6    R(3,8)                  1.411          estimate D2E/DX2                !
 ! R7    R(4,5)                  1.4069         estimate D2E/DX2                !
 ! R8    R(4,12)                 1.09           estimate D2E/DX2                !
 ! R9    R(5,6)                  1.4066         estimate D2E/DX2                !
 ! R10   R(5,13)                 1.09           estimate D2E/DX2                !
 ! R11   R(6,7)                  1.4065         estimate D2E/DX2                !
 ! R12   R(6,14)                 1.09           estimate D2E/DX2                !
 ! R13   R(7,8)                  1.4067         estimate D2E/DX2                !
 ! R14   R(7,15)                 1.09           estimate D2E/DX2                !
 ! R15   R(8,16)                 1.09           estimate D2E/DX2                !
 ! R16   R(9,10)                 1.3528         estimate D2E/DX2                !
 ! R17   R(9,17)                 1.01           estimate D2E/DX2                !
 ! R18   R(10,18)                0.9601         estimate D2E/DX2                !
 ! A1    A(1,2,3)              110.9765         estimate D2E/DX2                !
 ! A2    A(1,2,9)              108.5392         estimate D2E/DX2                !
 ! A3    A(1,2,11)             108.5184         estimate D2E/DX2                !
 ! A4    A(3,2,9)              109.4219         estimate D2E/DX2                !
 ! A5    A(3,2,11)             110.8312         estimate D2E/DX2                !
 ! A6    A(9,2,11)             108.4868         estimate D2E/DX2                !
 ! A7    A(2,3,4)              120.3577         estimate D2E/DX2                !
 ! A8    A(2,3,8)              120.1384         estimate D2E/DX2                !
 ! A9    A(4,3,8)              119.5028         estimate D2E/DX2                !
 ! A10   A(3,4,5)              120.2055         estimate D2E/DX2                !
 ! A11   A(3,4,12)             120.034          estimate D2E/DX2                !
 ! A12   A(5,4,12)             119.7605         estimate D2E/DX2                !
 ! A13   A(4,5,6)              120.0201         estimate D2E/DX2                !
 ! A14   A(4,5,13)             119.9997         estimate D2E/DX2                !
 ! A15   A(6,5,13)             119.9802         estimate D2E/DX2                !
 ! A16   A(5,6,7)              120.0294         estimate D2E/DX2                !
 ! A17   A(5,6,14)             119.9896         estimate D2E/DX2                !
 ! A18   A(7,6,14)             119.981          estimate D2E/DX2                !
 ! A19   A(6,7,8)              119.9977         estimate D2E/DX2                !
 ! A20   A(6,7,15)             120.0009         estimate D2E/DX2                !
 ! A21   A(8,7,15)             120.0014         estimate D2E/DX2                !
 ! A22   A(3,8,7)              120.2419         estimate D2E/DX2                !
 ! A23   A(3,8,16)             120.0339         estimate D2E/DX2                !
 ! A24   A(7,8,16)             119.7242         estimate D2E/DX2                !
 ! A25   A(2,9,10)             107.5425         estimate D2E/DX2                !
 ! A26   A(2,9,17)             136.3154         estimate D2E/DX2                !
 ! A27   A(10,9,17)            116.1421         estimate D2E/DX2                !
 ! A28   A(9,10,18)            109.4686         estimate D2E/DX2                !
 ! D1    D(1,2,3,4)            150.2376         estimate D2E/DX2                !
 ! D2    D(1,2,3,8)            -30.1347         estimate D2E/DX2                !
 ! D3    D(9,2,3,4)            -90.0105         estimate D2E/DX2                !
 ! D4    D(9,2,3,8)             89.6172         estimate D2E/DX2                !
 ! D5    D(11,2,3,4)            29.5859         estimate D2E/DX2                !
 ! D6    D(11,2,3,8)          -150.7864         estimate D2E/DX2                !
 ! D7    D(1,2,9,10)            63.694          estimate D2E/DX2                !
 ! D8    D(1,2,9,17)          -116.2995         estimate D2E/DX2                !
 ! D9    D(3,2,9,10)           -57.5446         estimate D2E/DX2                !
 ! D10   D(3,2,9,17)           122.462          estimate D2E/DX2                !
 ! D11   D(11,2,9,10)         -178.5737         estimate D2E/DX2                !
 ! D12   D(11,2,9,17)            1.4329         estimate D2E/DX2                !
 ! D13   D(2,3,4,5)           -179.7806         estimate D2E/DX2                !
 ! D14   D(2,3,4,12)             0.2223         estimate D2E/DX2                !
 ! D15   D(8,3,4,5)              0.5893         estimate D2E/DX2                !
 ! D16   D(8,3,4,12)          -179.4078         estimate D2E/DX2                !
 ! D17   D(2,3,8,7)            179.8103         estimate D2E/DX2                !
 ! D18   D(2,3,8,16)            -0.1825         estimate D2E/DX2                !
 ! D19   D(4,3,8,7)             -0.5588         estimate D2E/DX2                !
 ! D20   D(4,3,8,16)           179.4483         estimate D2E/DX2                !
 ! D21   D(3,4,5,6)             -0.2891         estimate D2E/DX2                !
 ! D22   D(3,4,5,13)           179.7057         estimate D2E/DX2                !
 ! D23   D(12,4,5,6)           179.708          estimate D2E/DX2                !
 ! D24   D(12,4,5,13)           -0.2971         estimate D2E/DX2                !
 ! D25   D(4,5,6,7)             -0.0462         estimate D2E/DX2                !
 ! D26   D(4,5,6,14)           179.9566         estimate D2E/DX2                !
 ! D27   D(13,5,6,7)           179.959          estimate D2E/DX2                !
 ! D28   D(13,5,6,14)           -0.0383         estimate D2E/DX2                !
 ! D29   D(5,6,7,8)              0.0768         estimate D2E/DX2                !
 ! D30   D(5,6,7,15)          -179.9259         estimate D2E/DX2                !
 ! D31   D(14,6,7,8)          -179.9259         estimate D2E/DX2                !
 ! D32   D(14,6,7,15)            0.0714         estimate D2E/DX2                !
 ! D33   D(6,7,8,3)              0.2278         estimate D2E/DX2                !
 ! D34   D(6,7,8,16)          -179.7793         estimate D2E/DX2                !
 ! D35   D(15,7,8,3)          -179.7695         estimate D2E/DX2                !
 ! D36   D(15,7,8,16)            0.2233         estimate D2E/DX2                !
 ! D37   D(2,9,10,18)           24.8538         estimate D2E/DX2                !
 ! D38   D(17,9,10,18)        -155.1513         estimate D2E/DX2                !
 --------------------------------------------------------------------------------
 Trust Radius=3.00D-01 FncErr=1.00D-07 GrdErr=1.00D-06 EigMax=2.50D+02 EigMin=1.00D-04
 Number of steps in this run=     94 maximum allowed number of steps=    108.
 GradGradGradGradGradGradGradGradGradGradGradGradGradGradGradGradGradGrad

 Leave Link  103 at Sun Oct 13 23:06:11 2019, MaxMem= 10737418240 cpu:               0.3 elap:               0.0
 (Enter /apps/cent7/gaussian/g16-A.03/g16-haswell/g16/l202.exe)
                          Input orientation:                          
 ---------------------------------------------------------------------
 Center     Atomic      Atomic             Coordinates (Angstroms)
 Number     Number       Type             X           Y           Z
 ---------------------------------------------------------------------
      1          8           0       -2.363900    2.518600   -0.832900
      2         16           0       -1.914000    0.983600   -0.709900
      3          6           0       -0.477200    0.824200    0.312300
      4          6           0       -0.263000   -0.351100    1.063100
      5          6           0        0.877500   -0.472500    1.877900
      6          6           0        1.811900    0.577000    1.941500
      7          6           0        1.607300    1.748100    1.189900
      8          6           0        0.467000    1.870800    0.375400
      9          7           0       -1.556200    0.375000   -2.320600
     10          8           0       -0.502200    1.076700   -2.796800
     11          8           0       -3.138700    0.140400   -0.108000
     12          1           0       -0.981900   -1.168900    1.013300
     13          1           0        1.037200   -1.380000    2.460200
     14          1           0        2.695000    0.482700    2.573500
     15          1           0        2.332300    2.560600    1.238600
     16          1           0        0.314700    2.778900   -0.208000
     17          1           0       -1.932800   -0.333500   -2.934000
     18          1           0        0.012300    1.419300   -2.062200
 ---------------------------------------------------------------------
                    Distance matrix (angstroms):
                    1          2          3          4          5
     1  O    0.000000
     2  S    1.604295   0.000000
     3  C    2.782465   1.770507   0.000000
     4  C    4.030357   2.766000   1.410997   0.000000
     5  C    5.177045   4.075464   2.442897   1.406903   0.000000
     6  C    5.376282   4.591032   2.820528   2.436835   1.406627
     7  C    4.522811   4.073482   2.443136   2.814381   2.436599
     8  C    3.145414   2.762999   1.410981   2.437759   2.813729
     9  N    2.731419   1.758627   2.880657   3.694457   4.926312
    10  O    3.066253   2.521309   3.119436   4.122458   5.114334
    11  O    2.604156   1.604107   2.779895   3.143676   4.522091
    12  H    4.349257   2.910582   2.172227   1.089997   2.165612
    13  H    6.132787   4.934138   3.430070   2.168189   1.090015
    14  H    6.429690   5.681065   3.910563   3.424368   2.167850
    15  H    5.132950   4.930988   3.430220   3.904405   3.424156
    16  H    2.762816   2.905531   2.172250   3.427292   3.903758
    17  H    3.568605   2.584904   3.741324   4.331899   5.574181
    18  H    2.892398   2.393571   2.496398   3.602444   4.455543
                    6          7          8          9         10
     6  C    0.000000
     7  C    1.406499   0.000000
     8  C    2.436256   1.406680   0.000000
     9  N    5.436028   4.921051   3.687706   0.000000
    10  O    5.296815   4.560104   3.410689   1.352799   0.000000
    11  O    5.375826   5.176269   4.028527   2.730374   3.880391
    12  H    3.422724   3.904361   3.427244   3.718647   4.448561
    13  H    2.167731   3.423987   3.903744   5.715050   6.003430
    14  H    1.090038   2.167643   3.423806   6.483557   6.278140
    15  H    2.167845   1.090024   2.168013   5.706591   5.149835
    16  H    3.422035   2.165061   1.090044   3.707031   3.204169
    17  H    6.214683   5.819959   4.644363   1.009980   2.013481
    18  H    4.469636   3.637071   2.520416   1.901979   0.960064
                   11         12         13         14         15
    11  O    0.000000
    12  H    2.761044   0.000000
    13  H    5.132778   2.492960   0.000000
    14  H    6.429593   4.322222   2.496155   0.000000
    15  H    6.132091   4.994382   4.324109   2.496233   0.000000
    16  H    4.347143   4.331036   4.993771   4.321470   2.492191
    17  H    3.108867   4.145272   6.246075   7.239839   6.631552
    18  H    3.922153   4.140762   5.416512   5.437262   4.192880
                   16         17         18
    16  H    0.000000
    17  H    4.708436   0.000000
    18  H    2.319055   2.759666   0.000000
 Stoichiometry    C6H7NO3S
 Framework group  C1[X(C6H7NO3S)]
 Deg. of freedom    48
 Full point group                 C1      NOp   1
 Largest Abelian subgroup         C1      NOp   1
 Largest concise Abelian subgroup C1      NOp   1
                         Standard orientation:                         
 ---------------------------------------------------------------------
 Center     Atomic      Atomic             Coordinates (Angstroms)
 Number     Number       Type             X           Y           Z
 ---------------------------------------------------------------------
      1          8           0        1.821857   -0.390930    1.587018
      2         16           0        1.272550    0.346441    0.272365
      3          6           0       -0.482082    0.159607    0.127262
      4          6           0       -1.255146    1.154887   -0.507326
      5          6           0       -2.649787    1.005305   -0.616779
      6          6           0       -3.277374   -0.141814   -0.098270
      7          6           0       -2.511121   -1.140560    0.529105
      8          6           0       -1.116712   -0.991722    0.639659
      9          7           0        2.054442   -0.362513   -1.134333
     10          8           0        1.676131   -1.659644   -1.200640
     11          8           0        1.676535    1.896829    0.351434
     12          1           0       -0.772642    2.043264   -0.914844
     13          1           0       -3.244319    1.778508   -1.103422
     14          1           0       -4.358029   -0.256864   -0.182716
     15          1           0       -2.997788   -2.029861    0.929671
     16          1           0       -0.526754   -1.770191    1.123531
     17          1           0        2.681865   -0.044363   -1.859027
     18          1           0        0.832922   -1.770208   -0.755111
 ---------------------------------------------------------------------
 Rotational constants (GHZ):           1.7195361           0.6863999           0.6232735
 Leave Link  202 at Sun Oct 13 23:06:11 2019, MaxMem= 10737418240 cpu:               0.4 elap:               0.0
 (Enter /apps/cent7/gaussian/g16-A.03/g16-haswell/g16/l301.exe)
 Standard basis: 6-311++G(d,p) (5D, 7F)
 Ernie: Thresh=  0.10000D-02 Tol=  0.10000D-05 Strict=F.
 There are   310 symmetry adapted cartesian basis functions of A   symmetry.
 There are   299 symmetry adapted basis functions of A   symmetry.
   299 basis functions,   473 primitive gaussians,   310 cartesian basis functions
    45 alpha electrons       45 beta electrons
       nuclear repulsion energy       726.1768626244 Hartrees.
 IExCor= 4336 DFT=T Ex+Corr=M062X ExCW=0 ScaHFX=  0.540000
 ScaDFX=  1.000000  1.000000  1.000000  1.000000 ScalE2=  1.000000  1.000000
 IRadAn=      5 IRanWt=     -1 IRanGd=            0 ICorTp=0 IEmpDi=  4
 NAtoms=   18 NActive=   18 NUniq=   18 SFac= 1.00D+00 NAtFMM=   60 NAOKFM=F Big=F
 Integral buffers will be    131072 words long.
 Raffenetti 2 integral format.
 Two-electron integral symmetry is turned on.
 Leave Link  301 at Sun Oct 13 23:06:11 2019, MaxMem= 10737418240 cpu:               1.4 elap:               0.1
 (Enter /apps/cent7/gaussian/g16-A.03/g16-haswell/g16/l302.exe)
 NPDir=0 NMtPBC=     1 NCelOv=     1 NCel=       1 NClECP=     1 NCelD=      1
         NCelK=      1 NCelE2=     1 NClLst=     1 CellRange=     0.0.
 One-electron integrals computed using PRISM.
 One-electron integral symmetry used in STVInt
 NBasis=   299 RedAO= T EigKep=  2.55D-06  NBF=   299
 NBsUse=   298 1.00D-06 EigRej=  9.46D-07 NBFU=   298
 Precomputing XC quadrature grid using
 IXCGrd= 4 IRadAn=           5 IRanWt=          -1 IRanGd=           0 AccXCQ= 0.00D+00.
 Generated NRdTot=       0 NPtTot=           0 NUsed=           0 NTot=          32
 NSgBfM=   310   310   310   310   310 MxSgAt=    18 MxSgA2=    18.
 Leave Link  302 at Sun Oct 13 23:06:11 2019, MaxMem= 10737418240 cpu:               5.7 elap:               0.3
 (Enter /apps/cent7/gaussian/g16-A.03/g16-haswell/g16/l303.exe)
 DipDrv:  MaxL=1.
 Leave Link  303 at Sun Oct 13 23:06:11 2019, MaxMem= 10737418240 cpu:               1.1 elap:               0.1
 (Enter /apps/cent7/gaussian/g16-A.03/g16-haswell/g16/l401.exe)
 ExpMin= 3.60D-02 ExpMax= 9.34D+04 ExpMxC= 3.17D+03 IAcc=3 IRadAn=         5 AccDes= 0.00D+00
 Harris functional with IExCor= 1009 and IRadAn=       5 diagonalized for initial guess.
 HarFok:  IExCor= 1009 AccDes= 0.00D+00 IRadAn=         5 IDoV= 1 UseB2=F ITyADJ=14
 ICtDFT=  3500011 ScaDFX=  1.000000  1.000000  1.000000  1.000000
 FoFCou: FMM=F IPFlag=           0 FMFlag=      100000 FMFlg1=           0
         NFxFlg=           0 DoJE=T BraDBF=F KetDBF=T FulRan=T
         wScrn=  0.000000 ICntrl=       500 IOpCl=  0 I1Cent=   200000004 NGrid=           0
         NMat0=    1 NMatS0=      1 NMatT0=    0 NMatD0=    1 NMtDS0=    0 NMtDT0=    0
 Petite list used in FoFCou.
 Harris En= -910.867156220802    
 JPrj=0 DoOrth=F DoCkMO=F.
 Leave Link  401 at Sun Oct 13 23:06:12 2019, MaxMem= 10737418240 cpu:              11.8 elap:               0.5
 (Enter /apps/cent7/gaussian/g16-A.03/g16-haswell/g16/l502.exe)
 Integral symmetry usage will be decided dynamically.
 Closed shell SCF:
 Using DIIS extrapolation, IDIIS=  1040.
 NGot= 10737418240 LenX= 10737215603 LenY= 10737119062
 Requested convergence on RMS density matrix=1.00D-08 within 128 cycles.
 Requested convergence on MAX density matrix=1.00D-06.
 Requested convergence on             energy=1.00D-06.
 No special actions if energy rises.
 Fock matrices will be formed incrementally for  20 cycles.

 Cycle   1  Pass 1  IDiag  1:
 FoFJK:  IHMeth= 1 ICntrl=       0 DoSepK=F KAlg= 0 I1Cent=           0 FoldK=F
 IRaf= 930000000 NMat=       1 IRICut=       1 DoRegI=T DoRafI=F ISym2E= 0 IDoP0=0 IntGTp=1.
 FoFCou: FMM=F IPFlag=           0 FMFlag=      100000 FMFlg1=           0
         NFxFlg=           0 DoJE=F BraDBF=F KetDBF=F FulRan=T
         wScrn=  0.000000 ICntrl=         0 IOpCl=  0 I1Cent=           0 NGrid=           0
         NMat0=    1 NMatS0=      1 NMatT0=    0 NMatD0=    1 NMtDS0=    0 NMtDT0=    0
 Symmetry not used in FoFCou.
 E= -910.678468798723    
 DIIS: error= 3.93D-02 at cycle   1 NSaved=   1.
 NSaved= 1 IEnMin= 1 EnMin= -910.678468798723     IErMin= 1 ErrMin= 3.93D-02
 ErrMax= 3.93D-02  0.00D+00 EMaxC= 1.00D-01 BMatC= 7.26D-01 BMatP= 7.26D-01
 IDIUse=3 WtCom= 6.07D-01 WtEn= 3.93D-01
 Coeff-Com:  0.100D+01
 Coeff-En:   0.100D+01
 Coeff:      0.100D+01
 Gap=     0.332 Goal=   None    Shift=    0.000
 GapD=    0.332 DampG=1.000 DampE=0.500 DampFc=0.5000 IDamp=-1.
 Damping current iteration by 5.00D-01
 RMSDP=6.08D-01 MaxDP=5.80D+01              OVMax= 2.81D-01

 Cycle   2  Pass 1  IDiag  1:
 RMSU=  9.00D-02    CP:  3.00D+00
 E= -910.745530156557     Delta-E=       -0.067061357833 Rises=F Damp=T
 DIIS: error= 2.01D-02 at cycle   2 NSaved=   2.
 NSaved= 2 IEnMin= 2 EnMin= -910.745530156557     IErMin= 2 ErrMin= 2.01D-02
 ErrMax= 2.01D-02  0.00D+00 EMaxC= 1.00D-01 BMatC= 1.34D-01 BMatP= 7.26D-01
 IDIUse=3 WtCom= 7.99D-01 WtEn= 2.01D-01
 Coeff-Com:  0.228D+00 0.772D+00
 Coeff-En:   0.437D+00 0.563D+00
 Coeff:      0.270D+00 0.730D+00
 Gap=     0.333 Goal=   None    Shift=    0.000
 RMSDP=1.83D-01 MaxDP=1.78D+01 DE=-6.71D-02 OVMax= 2.49D-01

 Cycle   3  Pass 1  IDiag  1:
 RMSU=  1.62D-02    CP:  1.93D+00  3.02D-01
 E= -911.129188915140     Delta-E=       -0.383658758583 Rises=F Damp=F
 DIIS: error= 1.24D-02 at cycle   3 NSaved=   3.
 NSaved= 3 IEnMin= 3 EnMin= -911.129188915140     IErMin= 3 ErrMin= 1.24D-02
 ErrMax= 1.24D-02  0.00D+00 EMaxC= 1.00D-01 BMatC= 4.96D-02 BMatP= 1.34D-01
 IDIUse=3 WtCom= 8.76D-01 WtEn= 1.24D-01
 Coeff-Com:  0.299D-01 0.365D+00 0.605D+00
 Coeff-En:   0.000D+00 0.000D+00 0.100D+01
 Coeff:      0.262D-01 0.320D+00 0.654D+00
 Gap=     0.260 Goal=   None    Shift=    0.000
 RMSDP=4.30D-02 MaxDP=3.82D+00 DE=-3.84D-01 OVMax= 5.40D-02

 Cycle   4  Pass 1  IDiag  1:
 RMSU=  9.19D-03    CP:  2.25D+00  4.18D-01  1.22D+00
 E= -911.165466228730     Delta-E=       -0.036277313591 Rises=F Damp=F
 DIIS: error= 4.30D-03 at cycle   4 NSaved=   4.
 NSaved= 4 IEnMin= 4 EnMin= -911.165466228730     IErMin= 4 ErrMin= 4.30D-03
 ErrMax= 4.30D-03  0.00D+00 EMaxC= 1.00D-01 BMatC= 9.64D-03 BMatP= 4.96D-02
 IDIUse=3 WtCom= 9.57D-01 WtEn= 4.30D-02
 Coeff-Com: -0.113D-01 0.691D-01 0.335D+00 0.607D+00
 Coeff-En:   0.000D+00 0.000D+00 0.140D+00 0.860D+00
 Coeff:     -0.108D-01 0.661D-01 0.327D+00 0.618D+00
 Gap=     0.252 Goal=   None    Shift=    0.000
 RMSDP=8.64D-03 MaxDP=7.55D-01 DE=-3.63D-02 OVMax= 2.32D-02

 Cycle   5  Pass 1  IDiag  1:
 RMSU=  2.10D-03    CP:  2.20D+00  4.03D-01  1.23D+00  5.27D-01
 E= -911.173228265793     Delta-E=       -0.007762037063 Rises=F Damp=F
 DIIS: error= 1.08D-03 at cycle   5 NSaved=   5.
 NSaved= 5 IEnMin= 5 EnMin= -911.173228265793     IErMin= 5 ErrMin= 1.08D-03
 ErrMax= 1.08D-03  0.00D+00 EMaxC= 1.00D-01 BMatC= 5.66D-04 BMatP= 9.64D-03
 IDIUse=3 WtCom= 9.89D-01 WtEn= 1.08D-02
 Coeff-Com: -0.663D-02 0.123D-01 0.116D+00 0.292D+00 0.586D+00
 Coeff-En:   0.000D+00 0.000D+00 0.000D+00 0.000D+00 0.100D+01
 Coeff:     -0.656D-02 0.122D-01 0.115D+00 0.289D+00 0.590D+00
 Gap=     0.250 Goal=   None    Shift=    0.000
 RMSDP=3.35D-03 MaxDP=2.37D-01 DE=-7.76D-03 OVMax= 7.52D-03

 Cycle   6  Pass 1  IDiag  1:
 RMSU=  7.31D-04    CP:  2.18D+00  3.95D-01  1.20D+00  7.43D-01  1.34D-01
 E= -911.173583826146     Delta-E=       -0.000355560353 Rises=F Damp=F
 DIIS: error= 6.21D-04 at cycle   6 NSaved=   6.
 NSaved= 6 IEnMin= 6 EnMin= -911.173583826146     IErMin= 6 ErrMin= 6.21D-04
 ErrMax= 6.21D-04  0.00D+00 EMaxC= 1.00D-01 BMatC= 1.57D-04 BMatP= 5.66D-04
 IDIUse=3 WtCom= 9.94D-01 WtEn= 6.21D-03
 Coeff-Com: -0.185D-02-0.333D-02 0.141D-01 0.711D-01 0.369D+00 0.551D+00
 Coeff-En:   0.000D+00 0.000D+00 0.000D+00 0.000D+00 0.189D+00 0.811D+00
 Coeff:     -0.184D-02-0.331D-02 0.141D-01 0.707D-01 0.368D+00 0.553D+00
 Gap=     0.251 Goal=   None    Shift=    0.000
 RMSDP=1.26D-03 MaxDP=9.05D-02 DE=-3.56D-04 OVMax= 3.34D-03

 Cycle   7  Pass 1  IDiag  1:
 RMSU=  2.05D-04    CP:  2.18D+00  3.95D-01  1.21D+00  6.66D-01  5.29D-01
                    CP:  7.44D-01
 E= -911.173709951301     Delta-E=       -0.000126125155 Rises=F Damp=F
 DIIS: error= 9.09D-05 at cycle   7 NSaved=   7.
 NSaved= 7 IEnMin= 7 EnMin= -911.173709951301     IErMin= 7 ErrMin= 9.09D-05
 ErrMax= 9.09D-05  0.00D+00 EMaxC= 1.00D-01 BMatC= 7.10D-06 BMatP= 1.57D-04
 IDIUse=1 WtCom= 1.00D+00 WtEn= 0.00D+00
 Coeff-Com:  0.108D-03-0.279D-02-0.896D-02-0.940D-02 0.683D-01 0.209D+00
 Coeff-Com:  0.744D+00
 Coeff:      0.108D-03-0.279D-02-0.896D-02-0.940D-02 0.683D-01 0.209D+00
 Coeff:      0.744D+00
 Gap=     0.250 Goal=   None    Shift=    0.000
 RMSDP=4.09D-04 MaxDP=3.76D-02 DE=-1.26D-04 OVMax= 9.73D-04

 Cycle   8  Pass 1  IDiag  1:
 RMSU=  6.48D-05    CP:  2.18D+00  3.94D-01  1.20D+00  6.73D-01  4.70D-01
                    CP:  8.51D-01  9.70D-01
 E= -911.173718739076     Delta-E=       -0.000008787775 Rises=F Damp=F
 DIIS: error= 4.85D-05 at cycle   8 NSaved=   8.
 NSaved= 8 IEnMin= 8 EnMin= -911.173718739076     IErMin= 8 ErrMin= 4.85D-05
 ErrMax= 4.85D-05  0.00D+00 EMaxC= 1.00D-01 BMatC= 1.03D-06 BMatP= 7.10D-06
 IDIUse=1 WtCom= 1.00D+00 WtEn= 0.00D+00
 Coeff-Com:  0.335D-03-0.541D-03-0.669D-02-0.169D-01-0.368D-01-0.117D-01
 Coeff-Com:  0.283D+00 0.789D+00
 Coeff:      0.335D-03-0.541D-03-0.669D-02-0.169D-01-0.368D-01-0.117D-01
 Coeff:      0.283D+00 0.789D+00
 Gap=     0.250 Goal=   None    Shift=    0.000
 RMSDP=2.74D-04 MaxDP=2.30D-02 DE=-8.79D-06 OVMax= 5.46D-04

 Cycle   9  Pass 1  IDiag  1:
 RMSU=  4.00D-05    CP:  2.18D+00  3.93D-01  1.20D+00  6.69D-01  4.77D-01
                    CP:  8.81D-01  9.36D-01  1.21D+00
 E= -911.173720418531     Delta-E=       -0.000001679455 Rises=F Damp=F
 DIIS: error= 1.56D-05 at cycle   9 NSaved=   9.
 NSaved= 9 IEnMin= 9 EnMin= -911.173720418531     IErMin= 9 ErrMin= 1.56D-05
 ErrMax= 1.56D-05  0.00D+00 EMaxC= 1.00D-01 BMatC= 1.09D-07 BMatP= 1.03D-06
 IDIUse=1 WtCom= 1.00D+00 WtEn= 0.00D+00
 Coeff-Com:  0.870D-04 0.144D-03-0.168D-02-0.529D-02-0.213D-01-0.247D-01
 Coeff-Com:  0.356D-01 0.269D+00 0.748D+00
 Coeff:      0.870D-04 0.144D-03-0.168D-02-0.529D-02-0.213D-01-0.247D-01
 Coeff:      0.356D-01 0.269D+00 0.748D+00
 Gap=     0.250 Goal=   None    Shift=    0.000
 RMSDP=9.62D-05 MaxDP=7.92D-03 DE=-1.68D-06 OVMax= 1.91D-04

 Cycle  10  Pass 1  IDiag  1:
 RMSU=  8.19D-06    CP:  2.17D+00  3.93D-01  1.20D+00  6.68D-01  4.75D-01
                    CP:  8.88D-01  9.18D-01  1.33D+00  1.27D+00
 E= -911.173720584441     Delta-E=       -0.000000165910 Rises=F Damp=F
 DIIS: error= 4.42D-06 at cycle  10 NSaved=  10.
 NSaved=10 IEnMin=10 EnMin= -911.173720584441     IErMin=10 ErrMin= 4.42D-06
 ErrMax= 4.42D-06  0.00D+00 EMaxC= 1.00D-01 BMatC= 1.10D-08 BMatP= 1.09D-07
 IDIUse=1 WtCom= 1.00D+00 WtEn= 0.00D+00
 Coeff-Com: -0.317D-04 0.112D-03 0.448D-03 0.112D-02-0.826D-03-0.472D-02
 Coeff-Com: -0.298D-01-0.553D-01 0.167D+00 0.922D+00
 Coeff:     -0.317D-04 0.112D-03 0.448D-03 0.112D-02-0.826D-03-0.472D-02
 Coeff:     -0.298D-01-0.553D-01 0.167D+00 0.922D+00
 Gap=     0.250 Goal=   None    Shift=    0.000
 RMSDP=3.89D-05 MaxDP=2.42D-03 DE=-1.66D-07 OVMax= 1.00D-04

 Cycle  11  Pass 1  IDiag  1:
 RMSU=  2.63D-06    CP:  2.17D+00  3.93D-01  1.20D+00  6.67D-01  4.75D-01
                    CP:  8.90D-01  8.93D-01  1.41D+00  1.54D+00  1.34D+00
 E= -911.173720607765     Delta-E=       -0.000000023324 Rises=F Damp=F
 DIIS: error= 1.90D-06 at cycle  11 NSaved=  11.
 NSaved=11 IEnMin=11 EnMin= -911.173720607765     IErMin=11 ErrMin= 1.90D-06
 ErrMax= 1.90D-06  0.00D+00 EMaxC= 1.00D-01 BMatC= 1.43D-09 BMatP= 1.10D-08
 IDIUse=1 WtCom= 1.00D+00 WtEn= 0.00D+00
 Coeff-Com: -0.121D-04 0.218D-04 0.256D-03 0.703D-03 0.108D-02 0.211D-03
 Coeff-Com: -0.120D-01-0.363D-01-0.197D-02 0.313D+00 0.735D+00
 Coeff:     -0.121D-04 0.218D-04 0.256D-03 0.703D-03 0.108D-02 0.211D-03
 Coeff:     -0.120D-01-0.363D-01-0.197D-02 0.313D+00 0.735D+00
 Gap=     0.250 Goal=   None    Shift=    0.000
 RMSDP=7.61D-06 MaxDP=4.67D-04 DE=-2.33D-08 OVMax= 2.26D-05

 Cycle  12  Pass 1  IDiag  1:
 RMSU=  8.07D-07    CP:  2.17D+00  3.93D-01  1.20D+00  6.67D-01  4.75D-01
                    CP:  8.90D-01  8.86D-01  1.43D+00  1.60D+00  1.48D+00
                    CP:  1.17D+00
 E= -911.173720609510     Delta-E=       -0.000000001745 Rises=F Damp=F
 DIIS: error= 9.46D-07 at cycle  12 NSaved=  12.
 NSaved=12 IEnMin=12 EnMin= -911.173720609510     IErMin=12 ErrMin= 9.46D-07
 ErrMax= 9.46D-07  0.00D+00 EMaxC= 1.00D-01 BMatC= 3.75D-10 BMatP= 1.43D-09
 IDIUse=1 WtCom= 1.00D+00 WtEn= 0.00D+00
 Coeff-Com:  0.150D-05-0.828D-05 0.374D-04 0.101D-03 0.567D-03 0.923D-03
 Coeff-Com: -0.126D-03-0.555D-02-0.297D-01-0.164D-01 0.356D+00 0.694D+00
 Coeff:      0.150D-05-0.828D-05 0.374D-04 0.101D-03 0.567D-03 0.923D-03
 Coeff:     -0.126D-03-0.555D-02-0.297D-01-0.164D-01 0.356D+00 0.694D+00
 Gap=     0.250 Goal=   None    Shift=    0.000
 RMSDP=4.35D-06 MaxDP=2.90D-04 DE=-1.75D-09 OVMax= 1.00D-05

 Cycle  13  Pass 1  IDiag  1:
 RMSU=  4.33D-07    CP:  2.17D+00  3.93D-01  1.20D+00  6.66D-01  4.75D-01
                    CP:  8.91D-01  8.83D-01  1.44D+00  1.63D+00  1.56D+00
                    CP:  1.25D+00  1.11D+00
 E= -911.173720609990     Delta-E=       -0.000000000480 Rises=F Damp=F
 DIIS: error= 2.28D-07 at cycle  13 NSaved=  13.
 NSaved=13 IEnMin=13 EnMin= -911.173720609990     IErMin=13 ErrMin= 2.28D-07
 ErrMax= 2.28D-07  0.00D+00 EMaxC= 1.00D-01 BMatC= 1.74D-11 BMatP= 3.75D-10
 IDIUse=1 WtCom= 1.00D+00 WtEn= 0.00D+00
 Coeff-Com:  0.486D-06-0.231D-05-0.115D-04-0.368D-04 0.151D-04 0.137D-03
 Coeff-Com:  0.847D-03 0.254D-02-0.310D-02-0.355D-01-0.173D-01 0.122D+00
 Coeff-Com:  0.930D+00
 Coeff:      0.486D-06-0.231D-05-0.115D-04-0.368D-04 0.151D-04 0.137D-03
 Coeff:      0.847D-03 0.254D-02-0.310D-02-0.355D-01-0.173D-01 0.122D+00
 Coeff:      0.930D+00
 Gap=     0.250 Goal=   None    Shift=    0.000
 RMSDP=9.47D-07 MaxDP=4.21D-05 DE=-4.80D-10 OVMax= 4.22D-06

 Cycle  14  Pass 1  IDiag  1:
 RMSU=  1.33D-07    CP:  2.17D+00  3.93D-01  1.20D+00  6.66D-01  4.75D-01
                    CP:  8.91D-01  8.82D-01  1.44D+00  1.64D+00  1.59D+00
                    CP:  1.33D+00  1.28D+00  1.12D+00
 E= -911.173720609985     Delta-E=        0.000000000005 Rises=F Damp=F
 DIIS: error= 1.65D-07 at cycle  14 NSaved=  14.
 NSaved=14 IEnMin=13 EnMin= -911.173720609990     IErMin=14 ErrMin= 1.65D-07
 ErrMax= 1.65D-07  0.00D+00 EMaxC= 1.00D-01 BMatC= 7.74D-12 BMatP= 1.74D-11
 IDIUse=1 WtCom= 1.00D+00 WtEn= 0.00D+00
 Coeff-Com: -0.170D-06 0.371D-06-0.135D-04-0.376D-04-0.865D-04-0.654D-04
 Coeff-Com:  0.495D-03 0.234D-02 0.298D-02-0.172D-01-0.654D-01-0.389D-01
 Coeff-Com:  0.489D+00 0.627D+00
 Coeff:     -0.170D-06 0.371D-06-0.135D-04-0.376D-04-0.865D-04-0.654D-04
 Coeff:      0.495D-03 0.234D-02 0.298D-02-0.172D-01-0.654D-01-0.389D-01
 Coeff:      0.489D+00 0.627D+00
 Gap=     0.250 Goal=   None    Shift=    0.000
 RMSDP=2.67D-07 MaxDP=1.06D-05 DE= 4.55D-12 OVMax= 1.31D-06

 Cycle  15  Pass 1  IDiag  1:
 RMSU=  3.56D-08    CP:  2.17D+00  3.93D-01  1.20D+00  6.66D-01  4.75D-01
                    CP:  8.91D-01  8.81D-01  1.44D+00  1.64D+00  1.60D+00
                    CP:  1.35D+00  1.36D+00  1.23D+00  1.05D+00
 E= -911.173720610030     Delta-E=       -0.000000000045 Rises=F Damp=F
 DIIS: error= 3.17D-08 at cycle  15 NSaved=  15.
 NSaved=15 IEnMin=15 EnMin= -911.173720610030     IErMin=15 ErrMin= 3.17D-08
 ErrMax= 3.17D-08  0.00D+00 EMaxC= 1.00D-01 BMatC= 5.52D-13 BMatP= 7.74D-12
 IDIUse=1 WtCom= 1.00D+00 WtEn= 0.00D+00
 Coeff-Com: -0.267D-06 0.621D-06-0.286D-05-0.478D-05-0.247D-04-0.286D-04
 Coeff-Com:  0.251D-04 0.286D-03 0.108D-02-0.150D-03-0.170D-01-0.278D-01
 Coeff-Com:  0.105D-01 0.192D+00 0.842D+00
 Coeff:     -0.267D-06 0.621D-06-0.286D-05-0.478D-05-0.247D-04-0.286D-04
 Coeff:      0.251D-04 0.286D-03 0.108D-02-0.150D-03-0.170D-01-0.278D-01
 Coeff:      0.105D-01 0.192D+00 0.842D+00
 Gap=     0.250 Goal=   None    Shift=    0.000
 RMSDP=8.45D-08 MaxDP=5.69D-06 DE=-4.46D-11 OVMax= 5.41D-07

 Cycle  16  Pass 1  IDiag  1:
 RMSU=  1.25D-08    CP:  2.17D+00  3.93D-01  1.20D+00  6.66D-01  4.75D-01
                    CP:  8.91D-01  8.81D-01  1.44D+00  1.65D+00  1.60D+00
                    CP:  1.35D+00  1.37D+00  1.28D+00  1.10D+00  1.13D+00
 E= -911.173720610044     Delta-E=       -0.000000000014 Rises=F Damp=F
 DIIS: error= 1.20D-08 at cycle  16 NSaved=  16.
 NSaved=16 IEnMin=16 EnMin= -911.173720610044     IErMin=16 ErrMin= 1.20D-08
 ErrMax= 1.20D-08  0.00D+00 EMaxC= 1.00D-01 BMatC= 6.43D-14 BMatP= 5.52D-13
 IDIUse=1 WtCom= 1.00D+00 WtEn= 0.00D+00
 Coeff-Com: -0.115D-06 0.278D-06-0.347D-06 0.544D-06-0.442D-05-0.703D-05
 Coeff-Com: -0.294D-04-0.569D-04 0.206D-03 0.132D-02-0.168D-02-0.828D-02
 Coeff-Com: -0.360D-01 0.257D-01 0.344D+00 0.675D+00
 Coeff:     -0.115D-06 0.278D-06-0.347D-06 0.544D-06-0.442D-05-0.703D-05
 Coeff:     -0.294D-04-0.569D-04 0.206D-03 0.132D-02-0.168D-02-0.828D-02
 Coeff:     -0.360D-01 0.257D-01 0.344D+00 0.675D+00
 Gap=     0.250 Goal=   None    Shift=    0.000
 RMSDP=3.74D-08 MaxDP=3.84D-06 DE=-1.41D-11 OVMax= 9.28D-08

 Cycle  17  Pass 1  IDiag  1:
 RMSU=  3.33D-09    CP:  2.17D+00  3.93D-01  1.20D+00  6.66D-01  4.75D-01
                    CP:  8.91D-01  8.81D-01  1.45D+00  1.65D+00  1.60D+00
                    CP:  1.35D+00  1.38D+00  1.28D+00  1.11D+00  1.22D+00
                    CP:  1.06D+00
 E= -911.173720610014     Delta-E=        0.000000000030 Rises=F Damp=F
 DIIS: error= 3.53D-09 at cycle  17 NSaved=  17.
 NSaved=17 IEnMin=16 EnMin= -911.173720610044     IErMin=17 ErrMin= 3.53D-09
 ErrMax= 3.53D-09  0.00D+00 EMaxC= 1.00D-01 BMatC= 7.74D-15 BMatP= 6.43D-14
 IDIUse=1 WtCom= 1.00D+00 WtEn= 0.00D+00
 Coeff-Com: -0.425D-08 0.181D-07 0.227D-06 0.706D-06 0.209D-05 0.191D-05
 Coeff-Com: -0.153D-04-0.560D-04-0.807D-04 0.444D-03 0.201D-02 0.132D-02
 Coeff-Com: -0.140D-01-0.222D-01-0.764D-02 0.263D+00 0.777D+00
 Coeff:     -0.425D-08 0.181D-07 0.227D-06 0.706D-06 0.209D-05 0.191D-05
 Coeff:     -0.153D-04-0.560D-04-0.807D-04 0.444D-03 0.201D-02 0.132D-02
 Coeff:     -0.140D-01-0.222D-01-0.764D-02 0.263D+00 0.777D+00
 Gap=     0.250 Goal=   None    Shift=    0.000
 RMSDP=1.57D-08 MaxDP=1.69D-06 DE= 2.98D-11 OVMax= 4.29D-08

 Cycle  18  Pass 1  IDiag  1:
 RMSU=  1.53D-09    CP:  2.17D+00  3.93D-01  1.20D+00  6.66D-01  4.75D-01
                    CP:  8.91D-01  8.81D-01  1.45D+00  1.65D+00  1.60D+00
                    CP:  1.35D+00  1.38D+00  1.28D+00  1.13D+00  1.25D+00
                    CP:  1.11D+00  1.23D+00
 E= -911.173720610026     Delta-E=       -0.000000000012 Rises=F Damp=F
 DIIS: error= 1.82D-09 at cycle  18 NSaved=  18.
 NSaved=18 IEnMin=16 EnMin= -911.173720610044     IErMin=18 ErrMin= 1.82D-09
 ErrMax= 1.82D-09  0.00D+00 EMaxC= 1.00D-01 BMatC= 6.34D-16 BMatP= 7.74D-15
 IDIUse=1 WtCom= 1.00D+00 WtEn= 0.00D+00
 Large coefficients: NSaved= 18 BigCof=    0.00 CofMax=   10.00 Det=-4.27D-15
 Inversion failed.  Reducing to 17 matrices.
 Large coefficients: NSaved= 17 BigCof=    0.00 CofMax=   10.00 Det=-4.27D-15
 Inversion failed.  Reducing to 16 matrices.
 Large coefficients: NSaved= 16 BigCof=    0.00 CofMax=   10.00 Det=-4.28D-15
 Inversion failed.  Reducing to 15 matrices.
 Coeff-Com: -0.672D-07 0.121D-06 0.108D-06-0.970D-06 0.522D-06-0.347D-05
 Coeff-Com:  0.479D-05 0.250D-03 0.324D-03-0.565D-03-0.519D-02-0.149D-01
 Coeff-Com:  0.341D-01 0.243D+00 0.743D+00
 Coeff:     -0.672D-07 0.121D-06 0.108D-06-0.970D-06 0.522D-06-0.347D-05
 Coeff:      0.479D-05 0.250D-03 0.324D-03-0.565D-03-0.519D-02-0.149D-01
 Coeff:      0.341D-01 0.243D+00 0.743D+00
 Gap=     0.250 Goal=   None    Shift=    0.000
 RMSDP=9.98D-10 MaxDP=5.72D-08 DE=-1.16D-11 OVMax= 1.35D-08

 SCF Done:  E(RM062X) =  -911.173720610     A.U. after   18 cycles
            NFock= 18  Conv=0.10D-08     -V/T= 2.0035
 KE= 9.080318563170D+02 PE=-3.596908008047D+03 EE= 1.051525568496D+03
 Leave Link  502 at Sun Oct 13 23:06:33 2019, MaxMem= 10737418240 cpu:             497.8 elap:              20.9
 (Enter /apps/cent7/gaussian/g16-A.03/g16-haswell/g16/l601.exe)
 Copying SCF densities to generalized density rwf, IOpCl= 0 IROHF=0.

 **********************************************************************

            Population analysis using the SCF density.

 **********************************************************************

 Orbital symmetries:
       Occupied  (A) (A) (A) (A) (A) (A) (A) (A) (A) (A) (A) (A)
                 (A) (A) (A) (A) (A) (A) (A) (A) (A) (A) (A) (A)
                 (A) (A) (A) (A) (A) (A) (A) (A) (A) (A) (A) (A)
                 (A) (A) (A) (A) (A) (A) (A) (A) (A)
       Virtual   (A) (A) (A) (A) (A) (A) (A) (A) (A) (A) (A) (A)
                 (A) (A) (A) (A) (A) (A) (A) (A) (A) (A) (A) (A)
                 (A) (A) (A) (A) (A) (A) (A) (A) (A) (A) (A) (A)
                 (A) (A) (A) (A) (A) (A) (A) (A) (A) (A) (A) (A)
                 (A) (A) (A) (A) (A) (A) (A) (A) (A) (A) (A) (A)
                 (A) (A) (A) (A) (A) (A) (A) (A) (A) (A) (A) (A)
                 (A) (A) (A) (A) (A) (A) (A) (A) (A) (A) (A) (A)
                 (A) (A) (A) (A) (A) (A) (A) (A) (A) (A) (A) (A)
                 (A) (A) (A) (A) (A) (A) (A) (A) (A) (A) (A) (A)
                 (A) (A) (A) (A) (A) (A) (A) (A) (A) (A) (A) (A)
                 (A) (A) (A) (A) (A) (A) (A) (A) (A) (A) (A) (A)
                 (A) (A) (A) (A) (A) (A) (A) (A) (A) (A) (A) (A)
                 (A) (A) (A) (A) (A) (A) (A) (A) (A) (A) (A) (A)
                 (A) (A) (A) (A) (A) (A) (A) (A) (A) (A) (A) (A)
                 (A) (A) (A) (A) (A) (A) (A) (A) (A) (A) (A) (A)
                 (A) (A) (A) (A) (A) (A) (A) (A) (A) (A) (A) (A)
                 (A) (A) (A) (A) (A) (A) (A) (A) (A) (A) (A) (A)
                 (A) (A) (A) (A) (A) (A) (A) (A) (A) (A) (A) (A)
                 (A) (A) (A) (A) (A) (A) (A) (A) (A) (A) (A) (A)
                 (A) (A) (A) (A) (A) (A) (A) (A) (A) (A) (A) (A)
                 (A) (A) (A) (A) (A) (A) (A) (A) (A) (A) (A) (A)
                 (A)
 The electronic state is 1-A.
 Alpha  occ. eigenvalues --  -90.14663 -19.68975 -19.63230 -19.62842 -14.84552
 Alpha  occ. eigenvalues --  -10.63544 -10.61020 -10.60788 -10.60075 -10.59804
 Alpha  occ. eigenvalues --  -10.59740  -8.48465  -6.40692  -6.40556  -6.40515
 Alpha  occ. eigenvalues --   -1.26575  -1.16916  -1.06815  -1.01285  -0.95334
 Alpha  occ. eigenvalues --   -0.91355  -0.89249  -0.81620  -0.74098  -0.72785
 Alpha  occ. eigenvalues --   -0.66624  -0.64844  -0.62335  -0.58276  -0.57662
 Alpha  occ. eigenvalues --   -0.55768  -0.53681  -0.52685  -0.51733  -0.49405
 Alpha  occ. eigenvalues --   -0.47925  -0.46880  -0.45394  -0.39697  -0.39108
 Alpha  occ. eigenvalues --   -0.37652  -0.36224  -0.35628  -0.35525  -0.31397
 Alpha virt. eigenvalues --   -0.06366  -0.03355  -0.01914  -0.00555  -0.00154
 Alpha virt. eigenvalues --    0.01025   0.01412   0.01758   0.03572   0.04293
 Alpha virt. eigenvalues --    0.04503   0.05447   0.06422   0.07048   0.07693
 Alpha virt. eigenvalues --    0.08346   0.09297   0.09679   0.10082   0.10331
 Alpha virt. eigenvalues --    0.10966   0.11120   0.11516   0.12188   0.12382
 Alpha virt. eigenvalues --    0.12785   0.13075   0.13305   0.13559   0.14654
 Alpha virt. eigenvalues --    0.15176   0.15255   0.16232   0.16536   0.16912
 Alpha virt. eigenvalues --    0.17216   0.18523   0.19697   0.20133   0.21000
 Alpha virt. eigenvalues --    0.21691   0.22165   0.22907   0.23373   0.24631
 Alpha virt. eigenvalues --    0.25772   0.26025   0.26275   0.26984   0.27544
 Alpha virt. eigenvalues --    0.27942   0.28478   0.28965   0.29609   0.30931
 Alpha virt. eigenvalues --    0.31925   0.32744   0.33532   0.34083   0.34506
 Alpha virt. eigenvalues --    0.35107   0.35633   0.35991   0.36822   0.37122
 Alpha virt. eigenvalues --    0.38962   0.39783   0.41660   0.43463   0.44054
 Alpha virt. eigenvalues --    0.46253   0.48932   0.50791   0.52276   0.53056
 Alpha virt. eigenvalues --    0.54580   0.55673   0.55842   0.56185   0.57479
 Alpha virt. eigenvalues --    0.58091   0.58582   0.60499   0.61724   0.63869
 Alpha virt. eigenvalues --    0.65748   0.67572   0.68872   0.70698   0.71423
 Alpha virt. eigenvalues --    0.72951   0.73441   0.74192   0.76944   0.80407
 Alpha virt. eigenvalues --    0.82956   0.83229   0.84134   0.84522   0.86774
 Alpha virt. eigenvalues --    0.86952   0.88001   0.89672   0.90267   0.90909
 Alpha virt. eigenvalues --    0.91688   0.93159   0.95436   0.95896   1.00356
 Alpha virt. eigenvalues --    1.01540   1.02631   1.03135   1.06300   1.08324
 Alpha virt. eigenvalues --    1.10485   1.11482   1.13100   1.14595   1.15543
 Alpha virt. eigenvalues --    1.18577   1.21289   1.23604   1.24527   1.25529
 Alpha virt. eigenvalues --    1.26197   1.28164   1.28459   1.31176   1.32229
 Alpha virt. eigenvalues --    1.37290   1.41863   1.48393   1.50540   1.50813
 Alpha virt. eigenvalues --    1.51479   1.55444   1.55989   1.56769   1.60100
 Alpha virt. eigenvalues --    1.61932   1.63288   1.64255   1.64595   1.68495
 Alpha virt. eigenvalues --    1.73077   1.73419   1.75002   1.77899   1.78111
 Alpha virt. eigenvalues --    1.79763   1.83445   1.85088   1.86224   1.88452
 Alpha virt. eigenvalues --    1.90194   1.90831   1.92423   1.94745   1.95335
 Alpha virt. eigenvalues --    1.96325   1.99571   1.99950   2.01455   2.04223
 Alpha virt. eigenvalues --    2.05348   2.06666   2.10255   2.19283   2.25084
 Alpha virt. eigenvalues --    2.28860   2.29400   2.32952   2.36701   2.38686
 Alpha virt. eigenvalues --    2.45171   2.45380   2.47854   2.48459   2.58129
 Alpha virt. eigenvalues --    2.61141   2.65244   2.67784   2.68522   2.69910
 Alpha virt. eigenvalues --    2.71104   2.71522   2.73529   2.75654   2.79109
 Alpha virt. eigenvalues --    2.79447   2.81348   2.84085   2.90386   2.90962
 Alpha virt. eigenvalues --    2.92614   2.92731   2.93773   2.93918   2.95067
 Alpha virt. eigenvalues --    2.97325   2.97910   3.01941   3.08134   3.09157
 Alpha virt. eigenvalues --    3.09470   3.12528   3.16512   3.18977   3.22320
 Alpha virt. eigenvalues --    3.32854   3.36160   3.38364   3.41456   3.43322
 Alpha virt. eigenvalues --    3.47546   3.50715   3.52541   3.56621   3.79000
 Alpha virt. eigenvalues --    3.86494   3.94021   3.98685   4.03485   4.12841
 Alpha virt. eigenvalues --    4.13701   4.27588   4.58058   4.78442   5.09147
 Alpha virt. eigenvalues --    5.14922   5.17647   5.20604   5.21700   5.23490
 Alpha virt. eigenvalues --    5.29990   5.52311   5.85855   8.15783  17.50519
 Alpha virt. eigenvalues --   17.56534  17.60840  23.60048  23.93703  23.96852
 Alpha virt. eigenvalues --   24.04833  24.07535  24.16240  35.53305  49.96934
 Alpha virt. eigenvalues --   49.99474  50.01425 189.40146
          Condensed to atoms (all electrons):
               1          2          3          4          5          6
     1  O    8.398897   0.136349   0.528245   1.592889   0.089831  -0.008422
     2  S    0.136349  20.893069  -6.810723   0.779919  -0.105302  -0.151380
     3  C    0.528245  -6.810723  57.102882 -14.371011  -6.158747  -3.298413
     4  C    1.592889   0.779919 -14.371011  71.360832   2.530838  -0.507542
     5  C    0.089831  -0.105302  -6.158747   2.530838  10.014220   1.194611
     6  C   -0.008422  -0.151380  -3.298413  -0.507542   1.194611   8.472344
     7  C   -0.150498   0.900887  -7.386286  -1.214058  -0.806841   1.061627
     8  C   -2.093356   2.228500 -12.790744 -53.075895  -0.908680  -0.961914
     9  N    0.008282  -1.696173  -1.825499   0.867511   0.252097   0.111247
    10  O    0.005483   0.138466   0.229945   0.016119   0.022206  -0.016975
    11  O   -0.293140   0.283632   0.445696  -2.210659  -0.179198  -0.053952
    12  H   -0.001597   0.010391   0.005197   0.438132  -0.091013  -0.026700
    13  H   -0.000054   0.018416   0.047493  -0.129581   0.413648  -0.099794
    14  H   -0.000044  -0.009571   0.039122  -0.021781  -0.069632   0.497339
    15  H   -0.000582   0.045454  -0.056645   0.035661   0.013166  -0.078525
    16  H   -0.003713  -0.168989   0.478756   0.110082  -0.019327   0.001312
    17  H   -0.002387  -0.028073   0.077258  -0.223722   0.004779   0.004607
    18  H   -0.032346  -0.296029  -0.067682  -0.062120   0.031338   0.042834
               7          8          9         10         11         12
     1  O   -0.150498  -2.093356   0.008282   0.005483  -0.293140  -0.001597
     2  S    0.900887   2.228500  -1.696173   0.138466   0.283632   0.010391
     3  C   -7.386286 -12.790744  -1.825499   0.229945   0.445696   0.005197
     4  C   -1.214058 -53.075895   0.867511   0.016119  -2.210659   0.438132
     5  C   -0.806841  -0.908680   0.252097   0.022206  -0.179198  -0.091013
     6  C    1.061627  -0.961914   0.111247  -0.016975  -0.053952  -0.026700
     7  C   10.943035   2.623804   0.122247  -0.055672   0.136214  -0.006792
     8  C    2.623804  69.151268   0.013782  -0.079019   1.608980  -0.024984
     9  N    0.122247   0.013782   9.636842  -0.235003  -0.291665  -0.027947
    10  O   -0.055672  -0.079019  -0.235003   7.866432   0.006436   0.001766
    11  O    0.136214   1.608980  -0.291665   0.006436   8.799025   0.019221
    12  H   -0.006792  -0.024984  -0.027947   0.001766   0.019221   0.436076
    13  H    0.008272   0.066910  -0.004275   0.000887   0.002758  -0.008198
    14  H   -0.081745  -0.021777   0.000696  -0.000234  -0.000357   0.000183
    15  H    0.509672  -0.131484  -0.002709   0.000328   0.001905   0.000594
    16  H   -0.328867   0.208781  -0.025968  -0.005644  -0.011225   0.000536
    17  H   -0.002111   0.173944   0.247814  -0.043647  -0.006753   0.000079
    18  H    0.017684   0.191342   0.152641   0.234868  -0.013990  -0.001475
              13         14         15         16         17         18
     1  O   -0.000054  -0.000044  -0.000582  -0.003713  -0.002387  -0.032346
     2  S    0.018416  -0.009571   0.045454  -0.168989  -0.028073  -0.296029
     3  C    0.047493   0.039122  -0.056645   0.478756   0.077258  -0.067682
     4  C   -0.129581  -0.021781   0.035661   0.110082  -0.223722  -0.062120
     5  C    0.413648  -0.069632   0.013166  -0.019327   0.004779   0.031338
     6  C   -0.099794   0.497339  -0.078525   0.001312   0.004607   0.042834
     7  C    0.008272  -0.081745   0.509672  -0.328867  -0.002111   0.017684
     8  C    0.066910  -0.021777  -0.131484   0.208781   0.173944   0.191342
     9  N   -0.004275   0.000696  -0.002709  -0.025968   0.247814   0.152641
    10  O    0.000887  -0.000234   0.000328  -0.005644  -0.043647   0.234868
    11  O    0.002758  -0.000357   0.001905  -0.011225  -0.006753  -0.013990
    12  H   -0.008198   0.000183   0.000594   0.000536   0.000079  -0.001475
    13  H    0.461614  -0.012041   0.002235  -0.000972  -0.000335  -0.000947
    14  H   -0.012041   0.476574  -0.012726   0.002388   0.000087   0.000576
    15  H    0.002235  -0.012726   0.468817  -0.022256  -0.000302  -0.003958
    16  H   -0.000972   0.002388  -0.022256   0.474260   0.000220   0.004581
    17  H   -0.000335   0.000087  -0.000302   0.000220   0.366526   0.011886
    18  H   -0.000947   0.000576  -0.003958   0.004581   0.011886   0.510696
 Mulliken charges:
               1
     1  O   -0.173836
     2  S   -0.168844
     3  C   -0.188844
     4  C    0.084385
     5  C   -0.227995
     6  C   -0.182304
     7  C   -0.290572
     8  C   -0.179457
     9  N   -0.303919
    10  O   -0.086745
    11  O   -0.242929
    12  H    0.276531
    13  H    0.233964
    14  H    0.212940
    15  H    0.231353
    16  H    0.306042
    17  H    0.420129
    18  H    0.280102
 Sum of Mulliken charges =  -0.00000
 Mulliken charges with hydrogens summed into heavy atoms:
               1
     1  O   -0.173836
     2  S   -0.168844
     3  C   -0.188844
     4  C    0.360916
     5  C    0.005969
     6  C    0.030636
     7  C   -0.059219
     8  C    0.126584
     9  N    0.116210
    10  O    0.193357
    11  O   -0.242929
 Electronic spatial extent (au):  <R**2>=           1934.3727
 Charge=             -0.0000 electrons
 Dipole moment (field-independent basis, Debye):
    X=             -6.5002    Y=             -1.5567    Z=             -3.6461  Tot=              7.6137
 Quadrupole moment (field-independent basis, Debye-Ang):
   XX=            -65.1595   YY=            -74.4244   ZZ=            -75.4231
   XY=             -0.3359   XZ=             -8.4547   YZ=             -6.2118
 Traceless Quadrupole moment (field-independent basis, Debye-Ang):
   XX=              6.5095   YY=             -2.7554   ZZ=             -3.7541
   XY=             -0.3359   XZ=             -8.4547   YZ=             -6.2118
 Octapole moment (field-independent basis, Debye-Ang**2):
  XXX=            -27.9619  YYY=            -14.7014  ZZZ=            -13.5830  XYY=            -21.6641
  XXY=             -0.6493  XXZ=            -28.7934  XZZ=             10.7346  YZZ=              4.6598
  YYZ=              0.2896  XYZ=              4.8424
 Hexadecapole moment (field-independent basis, Debye-Ang**3):
 XXXX=          -1455.6267 YYYY=           -533.9063 ZZZZ=           -344.6747 XXXY=             10.2943
 XXXZ=            -52.1874 YYYX=            -12.9549 YYYZ=            -24.4182 ZZZX=            -38.8558
 ZZZY=              0.5196 XXYY=           -379.4659 XXZZ=           -324.6535 YYZZ=           -146.5382
 XXYZ=            -30.7848 YYXZ=              3.9977 ZZXY=              6.0207
 N-N= 7.261768626244D+02 E-N=-3.596908008227D+03  KE= 9.080318563170D+02
 No NMR shielding tensors so no spin-rotation constants.
 Leave Link  601 at Sun Oct 13 23:06:33 2019, MaxMem= 10737418240 cpu:               2.9 elap:               0.2
 (Enter /apps/cent7/gaussian/g16-A.03/g16-haswell/g16/l701.exe)
 ... and contract with generalized density number  0.
 Compute integral first derivatives.
 Leave Link  701 at Sun Oct 13 23:06:33 2019, MaxMem= 10737418240 cpu:               3.2 elap:               0.2
 (Enter /apps/cent7/gaussian/g16-A.03/g16-haswell/g16/l702.exe)
 L702 exits ... SP integral derivatives will be done elsewhere.
 Leave Link  702 at Sun Oct 13 23:06:33 2019, MaxMem= 10737418240 cpu:               0.5 elap:               0.0
 (Enter /apps/cent7/gaussian/g16-A.03/g16-haswell/g16/l703.exe)
 Integral derivatives from FoFJK, PRISM(SPDF).
 Compute integral first derivatives, UseDBF=F ICtDFT=           0.
 Calling FoFJK, ICntrl=      2127 FMM=F ISym2X=0 I1Cent= 0 IOpClX= 0 NMat=1 NMatS=1 NMatT=0.
 FoFJK:  IHMeth= 1 ICntrl=    2127 DoSepK=F KAlg= 0 I1Cent=           0 FoldK=F
 IRaf=         0 NMat=       1 IRICut=       1 DoRegI=T DoRafI=F ISym2E= 0 IDoP0=0 IntGTp=1.
 FoFCou: FMM=F IPFlag=           0 FMFlag=      100000 FMFlg1=         800
         NFxFlg=           0 DoJE=F BraDBF=F KetDBF=F FulRan=T
         wScrn=  0.000000 ICntrl=      2127 IOpCl=  0 I1Cent=           0 NGrid=           0
         NMat0=    1 NMatS0=      1 NMatT0=    0 NMatD0=    1 NMtDS0=    0 NMtDT0=    0
 Symmetry not used in FoFCou.
 Leave Link  703 at Sun Oct 13 23:06:36 2019, MaxMem= 10737418240 cpu:              68.6 elap:               2.9
 (Enter /apps/cent7/gaussian/g16-A.03/g16-haswell/g16/l716.exe)
 Dipole        =-2.55735792D+00-6.12440127D-01-1.43447472D+00
 ***** Axes restored to original set *****
 -------------------------------------------------------------------
 Center     Atomic                   Forces (Hartrees/Bohr)
 Number     Number              X              Y              Z
 -------------------------------------------------------------------
      1        8           0.057315955   -0.099718721    0.005161659
      2       16          -0.175055827    0.031734314   -0.001690157
      3        6           0.030549379   -0.003469430    0.009234518
      4        6           0.000357132   -0.000582413   -0.001214262
      5        6          -0.003348249    0.011194366   -0.008180907
      6        6          -0.008918153    0.002256924   -0.006361424
      7        6          -0.007383539   -0.009944130   -0.000256184
      8        6           0.000228287   -0.002232572   -0.000280789
      9        7          -0.006436343    0.018015693    0.077336605
     10        8           0.026887524    0.018497122   -0.040247918
     11        8           0.096160148    0.038445877   -0.041247199
     12        1           0.000753533    0.004755344   -0.000424885
     13        1          -0.002248040    0.004042836   -0.003275546
     14        1          -0.003854179    0.000503871   -0.002799073
     15        1          -0.004421222   -0.003262586   -0.001089750
     16        1          -0.002469930   -0.001682097    0.003347537
     17        1          -0.005096718   -0.003487133    0.010687080
     18        1           0.006980241   -0.005067266    0.001300695
 -------------------------------------------------------------------
 Cartesian Forces:  Max     0.175055827 RMS     0.035550225
 Leave Link  716 at Sun Oct 13 23:06:36 2019, MaxMem= 10737418240 cpu:               0.6 elap:               0.0
 (Enter /apps/cent7/gaussian/g16-A.03/g16-haswell/g16/l103.exe)

 GradGradGradGradGradGradGradGradGradGradGradGradGradGradGradGradGradGrad
 Berny optimization.
 FormGI is forming the generalized inverse of G from B-inverse, IUseBI=4.
 Internal  Forces:  Max     0.111878351 RMS     0.021439591
 Search for a local minimum.
 Step number   1 out of a maximum of   94
 All quantities printed in internal units (Hartrees-Bohrs-Radians)
 RMS Force = .21440D-01 SwitMx=.10000D-02 MixMth= 1
 Mixed Optimization -- RFO/linear search
 Second derivative matrix not updated -- first step.
 ITU=  0
     Eigenvalues ---    0.00521   0.00751   0.00760   0.01470   0.01919
     Eigenvalues ---    0.01950   0.01968   0.01974   0.01988   0.01999
     Eigenvalues ---    0.02001   0.02001   0.02002   0.08073   0.09416
     Eigenvalues ---    0.14619   0.16000   0.16000   0.16000   0.16000
     Eigenvalues ---    0.16000   0.16000   0.16000   0.20149   0.22000
     Eigenvalues ---    0.22000   0.22000   0.23479   0.24999   0.25000
     Eigenvalues ---    0.28585   0.29667   0.34808   0.34808   0.34810
     Eigenvalues ---    0.34811   0.34813   0.40462   0.40494   0.43975
     Eigenvalues ---    0.44225   0.44511   0.44545   0.45976   0.50396
     Eigenvalues ---    0.50432   0.54430   0.55460
 RFO step:  Lambda=-8.60133051D-02 EMin= 5.20610167D-03
 Linear search not attempted -- first point.
 Maximum step size (   0.300) exceeded in Quadratic search.
    -- Step size scaled by   0.703
 Iteration  1 RMS(Cart)=  0.06736140 RMS(Int)=  0.00235283
 Iteration  2 RMS(Cart)=  0.00367383 RMS(Int)=  0.00037819
 Iteration  3 RMS(Cart)=  0.00001225 RMS(Int)=  0.00037812
 Iteration  4 RMS(Cart)=  0.00000000 RMS(Int)=  0.00037812
 ITry= 1 IFail=0 DXMaxC= 3.04D-01 DCOld= 1.00D+10 DXMaxT= 3.00D-01 DXLimC= 3.00D+00 Rises=F
 Variable       Old X    -DE/DX   Delta X   Delta X   Delta X     New X
                                 (Linear)    (Quad)   (Total)
    R1        3.03168  -0.11188   0.00000  -0.13331  -0.13331   2.89837
    R2        3.34577  -0.00728   0.00000  -0.01376  -0.01376   3.33201
    R3        3.32332  -0.05008   0.00000  -0.09199  -0.09199   3.23133
    R4        3.03132  -0.10910   0.00000  -0.12992  -0.12992   2.90140
    R5        2.66640  -0.01947   0.00000  -0.02618  -0.02615   2.64024
    R6        2.66637  -0.01741   0.00000  -0.02336  -0.02333   2.64304
    R7        2.65866  -0.01962   0.00000  -0.02603  -0.02604   2.63263
    R8        2.05980  -0.00404   0.00000  -0.00655  -0.00655   2.05325
    R9        2.65814  -0.01152   0.00000  -0.01521  -0.01524   2.64290
   R10        2.05983  -0.00544   0.00000  -0.00882  -0.00882   2.05101
   R11        2.65790  -0.01345   0.00000  -0.01769  -0.01772   2.64018
   R12        2.05987  -0.00479   0.00000  -0.00776  -0.00776   2.05212
   R13        2.65824  -0.01797   0.00000  -0.02372  -0.02372   2.63452
   R14        2.05985  -0.00542   0.00000  -0.00878  -0.00878   2.05107
   R15        2.05989  -0.00285   0.00000  -0.00461  -0.00461   2.05527
   R16        2.55642   0.04706   0.00000   0.05249   0.05249   2.60891
   R17        1.90859  -0.00214   0.00000  -0.00276  -0.00276   1.90582
   R18        1.81426   0.00293   0.00000   0.00321   0.00321   1.81747
    A1        1.93691  -0.01099   0.00000  -0.03438  -0.03492   1.90199
    A2        1.89437   0.00742   0.00000   0.01396   0.01192   1.90629
    A3        1.89400   0.02356   0.00000   0.09415   0.09402   1.98802
    A4        1.90977  -0.01748   0.00000  -0.05869  -0.06016   1.84961
    A5        1.93437  -0.00119   0.00000  -0.00882  -0.00957   1.92480
    A6        1.89345  -0.00064   0.00000  -0.00414  -0.00549   1.88796
    A7        2.10064  -0.00871   0.00000  -0.01834  -0.01837   2.08227
    A8        2.09681  -0.00471   0.00000  -0.00996  -0.00999   2.08682
    A9        2.08572   0.01343   0.00000   0.02832   0.02838   2.11410
   A10        2.09798  -0.00794   0.00000  -0.01804  -0.01801   2.07997
   A11        2.09499   0.00153   0.00000   0.00205   0.00203   2.09702
   A12        2.09021   0.00641   0.00000   0.01599   0.01597   2.10619
   A13        2.09475   0.00047   0.00000   0.00150   0.00147   2.09621
   A14        2.09439  -0.00184   0.00000  -0.00533  -0.00532   2.08907
   A15        2.09405   0.00137   0.00000   0.00383   0.00385   2.09790
   A16        2.09491   0.00226   0.00000   0.00587   0.00581   2.10072
   A17        2.09421  -0.00103   0.00000  -0.00267  -0.00264   2.09158
   A18        2.09406  -0.00122   0.00000  -0.00321  -0.00318   2.09088
   A19        2.09435  -0.00092   0.00000  -0.00137  -0.00140   2.09295
   A20        2.09441   0.00191   0.00000   0.00482   0.00483   2.09925
   A21        2.09442  -0.00099   0.00000  -0.00345  -0.00344   2.09098
   A22        2.09862  -0.00730   0.00000  -0.01625  -0.01623   2.08239
   A23        2.09499   0.00207   0.00000   0.00363   0.00360   2.09858
   A24        2.08958   0.00522   0.00000   0.01263   0.01260   2.10218
   A25        1.87697   0.05282   0.00000   0.12135   0.12132   1.99829
   A26        2.37915  -0.03756   0.00000  -0.09253  -0.09255   2.28660
   A27        2.02706  -0.01526   0.00000  -0.02882  -0.02884   1.99822
   A28        1.91059   0.00265   0.00000   0.00757   0.00757   1.91816
    D1        2.62214   0.01092   0.00000   0.04982   0.04894   2.67108
    D2       -0.52595   0.01156   0.00000   0.05417   0.05323  -0.47272
    D3       -1.57098   0.00200   0.00000   0.00788   0.00831  -1.56266
    D4        1.56411   0.00265   0.00000   0.01223   0.01261   1.57673
    D5        0.51637  -0.01068   0.00000  -0.04016  -0.03963   0.47674
    D6       -2.63172  -0.01003   0.00000  -0.03581  -0.03534  -2.66706
    D7        1.11167  -0.01880   0.00000  -0.07523  -0.07535   1.03632
    D8       -2.02981  -0.01698   0.00000  -0.06147  -0.06178  -2.09159
    D9       -1.00434   0.00065   0.00000  -0.00626  -0.00590  -1.01024
   D10        2.13736   0.00248   0.00000   0.00750   0.00767   2.14504
   D11       -3.11670   0.01302   0.00000   0.04238   0.04242  -3.07428
   D12        0.02501   0.01485   0.00000   0.05613   0.05599   0.08100
   D13       -3.13776   0.00026   0.00000   0.00189   0.00190  -3.13587
   D14        0.00388  -0.00029   0.00000  -0.00182  -0.00180   0.00208
   D15        0.01029  -0.00031   0.00000  -0.00229  -0.00232   0.00796
   D16       -3.13126  -0.00087   0.00000  -0.00601  -0.00602  -3.13728
   D17        3.13828  -0.00015   0.00000  -0.00121  -0.00123   3.13705
   D18       -0.00319   0.00118   0.00000   0.00766   0.00762   0.00443
   D19       -0.00975   0.00041   0.00000   0.00294   0.00297  -0.00678
   D20        3.13196   0.00173   0.00000   0.01181   0.01182  -3.13940
   D21       -0.00505   0.00007   0.00000   0.00033   0.00032  -0.00472
   D22        3.13646  -0.00021   0.00000  -0.00147  -0.00147   3.13499
   D23        3.13650   0.00062   0.00000   0.00404   0.00404   3.14053
   D24       -0.00519   0.00034   0.00000   0.00224   0.00225  -0.00294
   D25       -0.00081   0.00019   0.00000   0.00123   0.00124   0.00043
   D26        3.14083  -0.00016   0.00000  -0.00102  -0.00102   3.13982
   D27        3.14088   0.00047   0.00000   0.00303   0.00304  -3.13927
   D28       -0.00067   0.00012   0.00000   0.00078   0.00078   0.00011
   D29        0.00134  -0.00009   0.00000  -0.00058  -0.00057   0.00077
   D30       -3.14030  -0.00063   0.00000  -0.00409  -0.00410   3.13879
   D31       -3.14030   0.00026   0.00000   0.00168   0.00169  -3.13861
   D32        0.00125  -0.00028   0.00000  -0.00184  -0.00184  -0.00060
   D33        0.00398  -0.00026   0.00000  -0.00164  -0.00162   0.00235
   D34       -3.13774  -0.00159   0.00000  -0.01048  -0.01049   3.13495
   D35       -3.13757   0.00027   0.00000   0.00188   0.00189  -3.13568
   D36        0.00390  -0.00105   0.00000  -0.00696  -0.00698  -0.00308
   D37        0.43378   0.00762   0.00000   0.05153   0.05186   0.48564
   D38       -2.70790   0.00621   0.00000   0.04093   0.04060  -2.66730
         Item               Value     Threshold  Converged?
 Maximum Force            0.111878     0.000450     NO 
 RMS     Force            0.021440     0.000300     NO 
 Maximum Displacement     0.304230     0.001800     NO 
 RMS     Displacement     0.068022     0.001200     NO 
 Predicted change in Energy=-4.424169D-02
 Lowest energy point so far.  Saving SCF results.
 GradGradGradGradGradGradGradGradGradGradGradGradGradGradGradGradGradGrad

 Leave Link  103 at Sun Oct 13 23:06:36 2019, MaxMem= 10737418240 cpu:               1.4 elap:               0.1
 (Enter /apps/cent7/gaussian/g16-A.03/g16-haswell/g16/l202.exe)
                          Input orientation:                          
 ---------------------------------------------------------------------
 Center     Atomic      Atomic             Coordinates (Angstroms)
 Number     Number       Type             X           Y           Z
 ---------------------------------------------------------------------
      1          8           0       -2.293157    2.488703   -0.792138
      2         16           0       -1.936995    1.001643   -0.672998
      3          6           0       -0.491156    0.836349    0.322585
      4          6           0       -0.285427   -0.345546    1.038719
      5          6           0        0.854413   -0.470527    1.829885
      6          6           0        1.779816    0.575934    1.897161
      7          6           0        1.569192    1.752513    1.173803
      8          6           0        0.430549    1.886713    0.380658
      9          7           0       -1.516961    0.397915   -2.216696
     10          8           0       -0.445366    1.036036   -2.808706
     11          8           0       -3.071862    0.133109   -0.111715
     12          1           0       -1.009929   -1.153052    0.978875
     13          1           0        1.019576   -1.382553    2.394610
     14          1           0        2.666012    0.474549    2.516539
     15          1           0        2.286961    2.564794    1.229060
     16          1           0        0.254921    2.801249   -0.181177
     17          1           0       -1.924773   -0.337826   -2.773008
     18          1           0        0.139485    1.389897   -2.132155
 ---------------------------------------------------------------------
                    Distance matrix (angstroms):
                    1          2          3          4          5
     1  O    0.000000
     2  S    1.533752   0.000000
     3  C    2.687023   1.763223   0.000000
     4  C    3.926320   2.733600   1.397157   0.000000
     5  C    5.053637   4.027861   2.406332   1.393126   0.000000
     6  C    5.242149   4.538902   2.775684   2.418941   1.398562
     7  C    4.395980   4.033340   2.410180   2.803518   2.425543
     8  C    3.025957   2.738394   1.398634   2.434881   2.799375
     9  N    2.646364   1.709948   2.773527   3.559093   4.769950
    10  O    3.096953   2.605262   3.137986   4.091091   5.047344
    11  O    2.572583   1.535354   2.709834   3.052348   4.421518
    12  H    4.248004   2.868945   2.158137   1.086531   2.160054
    13  H    6.009675   4.882205   3.391036   2.148687   1.085350
    14  H    6.292656   5.624824   3.861612   3.401103   2.155587
    15  H    5.006846   4.889076   3.395166   3.888893   3.409745
    16  H    2.638874   2.878361   2.161306   3.417959   3.886938
    17  H    3.471141   2.490858   3.607859   4.149311   5.378486
    18  H    2.986765   2.567421   2.594201   3.639610   4.435095
                    6          7          8          9         10
     6  C    0.000000
     7  C    1.397121   0.000000
     8  C    2.416288   1.394130   0.000000
     9  N    5.274870   4.780666   3.571493   0.000000
    10  O    5.225736   4.520195   3.415101   1.380575   0.000000
    11  O    5.269768   5.080788   3.947713   2.630358   3.871371
    12  H    3.408126   3.890009   3.416579   3.588071   4.410964
    13  H    2.158956   3.408971   3.884721   5.555919   5.922003
    14  H    1.085934   2.153867   3.399043   6.317171   6.193075
    15  H    2.158500   1.085378   2.150778   5.571214   5.109429
    16  H    3.405411   2.159428   1.087603   3.613712   3.241957
    17  H    6.030707   5.670506   4.521253   1.008518   2.019261
    18  H    4.425903   3.620071   2.577940   1.932612   0.961764
                   11         12         13         14         15
    11  O    0.000000
    12  H    2.663674   0.000000
    13  H    5.031775   2.485130   0.000000
    14  H    6.320403   4.304189   2.484844   0.000000
    15  H    6.035540   4.975385   4.306544   2.484030   0.000000
    16  H    4.265123   4.310692   4.972281   4.301694   2.484727
    17  H    2.935996   3.946918   6.038620   7.050856   6.494649
    18  H    3.996804   4.179265   5.380766   5.369503   4.158101
                   16         17         18
    16  H    0.000000
    17  H    4.617624   0.000000
    18  H    2.410717   2.767107   0.000000
 Stoichiometry    C6H7NO3S
 Framework group  C1[X(C6H7NO3S)]
 Deg. of freedom    48
 Full point group                 C1      NOp   1
 RotChk:  IX=0 Diff= 1.54D-02
 Largest Abelian subgroup         C1      NOp   1
 Largest concise Abelian subgroup C1      NOp   1
                         Standard orientation:                         
 ---------------------------------------------------------------------
 Center     Atomic      Atomic             Coordinates (Angstroms)
 Number     Number       Type             X           Y           Z
 ---------------------------------------------------------------------
      1          8           0        1.749501   -0.383327    1.556834
      2         16           0        1.276474    0.366158    0.305071
      3          6           0       -0.467990    0.167473    0.142818
      4          6           0       -1.209274    1.148700   -0.520310
      5          6           0       -2.588331    0.992313   -0.640908
      6          6           0       -3.215424   -0.138202   -0.107365
      7          6           0       -2.466143   -1.117343    0.549755
      8          6           0       -1.085793   -0.968268    0.676286
      9          7           0        1.964011   -0.362366   -1.080738
     10          8           0        1.641346   -1.694390   -1.246831
     11          8           0        1.645589    1.856452    0.295576
     12          1           0       -0.712403    2.022794   -0.932171
     13          1           0       -3.173245    1.752387   -1.148991
     14          1           0       -4.290876   -0.254923   -0.202390
     15          1           0       -2.954565   -1.992888    0.965581
     16          1           0       -0.494988   -1.722162    1.191529
     17          1           0        2.573295    0.012012   -1.791881
     18          1           0        0.787364   -1.877099   -0.843938
 ---------------------------------------------------------------------
 Rotational constants (GHZ):           1.7288846           0.7133591           0.6473098
 Leave Link  202 at Sun Oct 13 23:06:36 2019, MaxMem= 10737418240 cpu:               1.1 elap:               0.1
 (Enter /apps/cent7/gaussian/g16-A.03/g16-haswell/g16/l301.exe)
 Standard basis: 6-311++G(d,p) (5D, 7F)
 Ernie: Thresh=  0.10000D-02 Tol=  0.10000D-05 Strict=F.
 There are   310 symmetry adapted cartesian basis functions of A   symmetry.
 There are   299 symmetry adapted basis functions of A   symmetry.
   299 basis functions,   473 primitive gaussians,   310 cartesian basis functions
    45 alpha electrons       45 beta electrons
       nuclear repulsion energy       736.7520591636 Hartrees.
 IExCor= 4336 DFT=T Ex+Corr=M062X ExCW=0 ScaHFX=  0.540000
 ScaDFX=  1.000000  1.000000  1.000000  1.000000 ScalE2=  1.000000  1.000000
 IRadAn=      5 IRanWt=     -1 IRanGd=            0 ICorTp=0 IEmpDi=  4
 NAtoms=   18 NActive=   18 NUniq=   18 SFac= 1.00D+00 NAtFMM=   60 NAOKFM=F Big=F
 Integral buffers will be    131072 words long.
 Raffenetti 2 integral format.
 Two-electron integral symmetry is turned on.
 Leave Link  301 at Sun Oct 13 23:06:37 2019, MaxMem= 10737418240 cpu:               1.8 elap:               0.1
 (Enter /apps/cent7/gaussian/g16-A.03/g16-haswell/g16/l302.exe)
 NPDir=0 NMtPBC=     1 NCelOv=     1 NCel=       1 NClECP=     1 NCelD=      1
         NCelK=      1 NCelE2=     1 NClLst=     1 CellRange=     0.0.
 One-electron integrals computed using PRISM.
 One-electron integral symmetry used in STVInt
 NBasis=   299 RedAO= T EigKep=  2.31D-06  NBF=   299
 NBsUse=   298 1.00D-06 EigRej=  8.95D-07 NBFU=   298
 Precomputing XC quadrature grid using
 IXCGrd= 4 IRadAn=           5 IRanWt=          -1 IRanGd=           0 AccXCQ= 0.00D+00.
 Generated NRdTot=       0 NPtTot=           0 NUsed=           0 NTot=          32
 NSgBfM=   310   310   310   310   310 MxSgAt=    18 MxSgA2=    18.
 Leave Link  302 at Sun Oct 13 23:06:37 2019, MaxMem= 10737418240 cpu:               4.4 elap:               0.2
 (Enter /apps/cent7/gaussian/g16-A.03/g16-haswell/g16/l303.exe)
 DipDrv:  MaxL=1.
 Leave Link  303 at Sun Oct 13 23:06:37 2019, MaxMem= 10737418240 cpu:               0.8 elap:               0.1
 (Enter /apps/cent7/gaussian/g16-A.03/g16-haswell/g16/l401.exe)
 Initial guess from the checkpoint file:  "29.chk"
 B after Tr=     0.000000   -0.000000   -0.000000
         Rot=    0.999986    0.004905   -0.000260    0.001890 Ang=   0.60 deg.
 Guess basis will be translated and rotated to current coordinates.
 JPrj=2 DoOrth=T DoCkMO=T.
 Generating alternative initial guess.
 ExpMin= 3.60D-02 ExpMax= 9.34D+04 ExpMxC= 3.17D+03 IAcc=3 IRadAn=         5 AccDes= 0.00D+00
 Harris functional with IExCor= 1009 and IRadAn=       5 diagonalized for initial guess.
 HarFok:  IExCor= 1009 AccDes= 0.00D+00 IRadAn=         5 IDoV= 1 UseB2=F ITyADJ=14
 ICtDFT=  3500011 ScaDFX=  1.000000  1.000000  1.000000  1.000000
 FoFCou: FMM=F IPFlag=           0 FMFlag=      100000 FMFlg1=           0
         NFxFlg=           0 DoJE=T BraDBF=F KetDBF=T FulRan=T
         wScrn=  0.000000 ICntrl=       500 IOpCl=  0 I1Cent=   200000004 NGrid=           0
         NMat0=    1 NMatS0=      1 NMatT0=    0 NMatD0=    1 NMtDS0=    0 NMtDT0=    0
 Petite list used in FoFCou.
 Harris En= -910.901547045323    
 Leave Link  401 at Sun Oct 13 23:06:37 2019, MaxMem= 10737418240 cpu:              14.1 elap:               0.6
 (Enter /apps/cent7/gaussian/g16-A.03/g16-haswell/g16/l502.exe)
 Integral symmetry usage will be decided dynamically.
 Closed shell SCF:
 Using DIIS extrapolation, IDIIS=  1040.
 NGot= 10737418240 LenX= 10737215603 LenY= 10737119062
 Requested convergence on RMS density matrix=1.00D-08 within 128 cycles.
 Requested convergence on MAX density matrix=1.00D-06.
 Requested convergence on             energy=1.00D-06.
 No special actions if energy rises.
 Fock matrices will be formed incrementally for  20 cycles.

 Cycle   1  Pass 1  IDiag  1:
 FoFJK:  IHMeth= 1 ICntrl=       0 DoSepK=F KAlg= 0 I1Cent=           0 FoldK=F
 IRaf= 930000000 NMat=       1 IRICut=       1 DoRegI=T DoRafI=F ISym2E= 0 IDoP0=0 IntGTp=1.
 FoFCou: FMM=F IPFlag=           0 FMFlag=      100000 FMFlg1=           0
         NFxFlg=           0 DoJE=F BraDBF=F KetDBF=F FulRan=T
         wScrn=  0.000000 ICntrl=         0 IOpCl=  0 I1Cent=           0 NGrid=           0
         NMat0=    1 NMatS0=      1 NMatT0=    0 NMatD0=    1 NMtDS0=    0 NMtDT0=    0
 Symmetry not used in FoFCou.
 E= -911.196178586503    
 DIIS: error= 5.30D-03 at cycle   1 NSaved=   1.
 NSaved= 1 IEnMin= 1 EnMin= -911.196178586503     IErMin= 1 ErrMin= 5.30D-03
 ErrMax= 5.30D-03  0.00D+00 EMaxC= 1.00D-01 BMatC= 1.65D-02 BMatP= 1.65D-02
 IDIUse=3 WtCom= 9.47D-01 WtEn= 5.30D-02
 Coeff-Com:  0.100D+01
 Coeff-En:   0.100D+01
 Coeff:      0.100D+01
 Gap=     0.454 Goal=   None    Shift=    0.000
 GapD=    0.454 DampG=2.000 DampE=1.000 DampFc=2.0000 IDamp=-1.
 RMSDP=1.09D-02 MaxDP=6.04D-01              OVMax= 5.39D-02

 Cycle   2  Pass 1  IDiag  1:
 RMSU=  1.08D-02    CP:  1.00D+00
 E= -911.220058929900     Delta-E=       -0.023880343397 Rises=F Damp=F
 DIIS: error= 3.10D-03 at cycle   2 NSaved=   2.
 NSaved= 2 IEnMin= 2 EnMin= -911.220058929900     IErMin= 2 ErrMin= 3.10D-03
 ErrMax= 3.10D-03  0.00D+00 EMaxC= 1.00D-01 BMatC= 3.62D-03 BMatP= 1.65D-02
 IDIUse=3 WtCom= 9.69D-01 WtEn= 3.10D-02
 Coeff-Com:  0.190D+00 0.810D+00
 Coeff-En:   0.000D+00 0.100D+01
 Coeff:      0.184D+00 0.816D+00
 Gap=     0.274 Goal=   None    Shift=    0.000
[...]
 95,-0.6264869,-1.1606074,-0.2008015,0.0340313,-0.3829135,-0.7019596,0.
 0858029,0.0599107,0.049286,-0.7709078,0.08625,-0.0404184,-0.0086254,-0
 .0251904,0.0758704,0.0002724,-0.012989,-0.001091,0.1282363,0.0718919,0
 .0073606,-0.0502922,0.0103399,-0.0025122,0.0693848,-0.0445788,0.067201
 2,0.082164,0.0037883,0.0002292,-0.0851414,0.0007884,0.0865618,0.021548
 ,-0.0844988,0.022081,0.0723096,0.0285429,-0.0660653,-0.0477852,-0.0676
 013,0.0123152,0.0106239,-0.0411901,0.0103351,0.1083626,0.1127181,0.011
 5334,-0.0077611,-0.000852,0.078079,0.0261264,-0.0065373,0.0293437,0.11
 54773,0.1431478,-0.0209978,0.064649,0.0269275,0.2590542,0.0871906,-0.0
 094492,0.0341914,0.1312293,0.2721233,0.0066866,-0.0493974,0.0278463,0.
 2095356,0.0894245,-0.0042869,0.047807,0.3627013\Polar=110.9703979,5.76
 31502,99.4386779,21.774828,-9.9364806,95.3119036\Quadrupole=-1.418053,
 -1.8458831,3.2639361,1.8360823,3.7235143,1.5838896\PG=C01 [X(C6H7N1O3S
 1)]\NImag=0\\0.08789507,-0.11323352,0.62132010,0.01674651,-0.07524961,
 0.06654392,-0.10656477,0.09605755,-0.01719646,0.68250116,0.10267159,-0
 .58472868,0.06920364,0.13181666,1.04338404,-0.01923353,0.06713365,-0.0
 9141374,-0.05052147,-0.13124373,0.50303989,0.00432883,-0.00406595,-0.0
 0533686,-0.12872901,0.00148134,-0.04621597,0.44326025,0.02562230,-0.01
 175255,0.01812711,0.00159151,-0.07409930,0.00909325,0.11156588,0.64889
 606,-0.00575042,-0.00087677,0.00719788,-0.04601475,0.00900107,-0.09780
 518,0.15405575,-0.13828121,0.30593518,-0.00555149,0.00513088,-0.003735
 63,-0.00676251,0.01959171,-0.01143043,-0.10539624,-0.01229330,-0.02410
 486,0.57956489,-0.00377958,0.00184203,-0.00213997,0.01562697,0.0063613
 0,0.00630636,0.03911376,-0.28134966,0.11690450,0.13747905,0.65303358,-
 0.00167422,0.00251014,0.00110354,-0.00954054,0.01074275,-0.01218966,-0
 .04507297,0.08583754,-0.12803158,0.21988225,-0.13288365,0.33576135,-0.
 00021327,-0.00027404,-0.00030137,0.00579624,0.00173414,-0.00014926,0.0
 0813218,0.07680545,-0.03249086,-0.26229782,-0.02707643,-0.11362189,0.5
 4095302,0.00197472,-0.00083614,0.00020490,-0.00098120,-0.00495132,0.00
 497121,0.02740724,0.02474047,0.01220916,0.03518069,-0.12594772,0.04711
 842,0.07422540,0.67074153,-0.00143497,0.00041515,-0.00196305,0.0009033
 8,0.00577624,0.00504421,-0.01236102,0.04243908,-0.01633153,-0.13973513
 ,0.00829469,-0.15662739,0.22245683,-0.18069385,0.35424988,-0.00023965,
 0.00002966,-0.00017383,0.00111821,-0.00112802,0.00211487,-0.00992730,-
 0.01779101,0.00702595,-0.03780667,-0.00966988,-0.02416233,-0.19903015,
 -0.14242515,-0.02398387,0.59372069,0.00067339,0.00013921,0.00092399,-0
 .00158511,-0.00429008,-0.00008563,-0.01725177,-0.07236539,0.01534539,-
 0.05583219,0.04890045,-0.05124444,-0.08152639,-0.24828298,0.02683099,0
 .08223701,0.61473742,-0.00029847,-0.00010120,-0.00029148,0.00152249,0.
 00088147,0.00016422,0.00625283,0.01534972,-0.01070385,-0.00506384,-0.0
 2371925,0.01377382,-0.05001114,-0.01239363,-0.09139860,0.24992027,-0.1
 4692499,0.36215333,0.00084515,0.00075525,0.00069891,0.00220882,-0.0068
 4159,-0.00021597,-0.03907672,-0.05688678,-0.00702616,-0.03014165,0.029
 02725,-0.02612091,0.04990544,0.00139631,0.02667969,-0.12336076,-0.0097
 4716,-0.03308495,0.57134346,0.00089917,0.00215682,-0.00022897,-0.00412
 089,-0.00376303,0.00169346,-0.00869452,0.04289483,-0.02033143,0.026001
 16,-0.02641283,0.02413440,-0.04356089,-0.04960695,-0.00380550,0.051163
 41,-0.28175605,0.12347564,0.13165817,0.66286542,-0.00024902,0.00034984
 ,-0.00011054,-0.00047436,-0.00066462,0.00682030,-0.02751827,-0.0504799
 8,0.01329526,-0.02552813,0.02669846,-0.03324438,0.04521314,0.02461826,
 0.02577305,-0.05858640,0.08411657,-0.13731877,0.21885850,-0.13492901,0
 .33127562,-0.00148642,-0.00176082,-0.00134682,-0.02088676,-0.00956587,
 -0.00721056,-0.18151810,-0.08829781,-0.03843452,0.04839779,-0.04553283
 ,0.04217888,-0.06053272,-0.02482886,-0.02364239,0.01246215,0.07789734,
 -0.02927436,-0.25884890,-0.02468593,-0.11096896,0.53973227,0.00006312,
 -0.00358341,0.00087611,-0.00657535,0.01187394,-0.00978107,-0.14045733,
 -0.25570292,-0.00765442,0.00167512,-0.05078401,0.02541072,-0.02711987,
 -0.01382176,-0.01429534,0.03227482,0.02814079,0.01171829,0.03700596,-0
 .12622787,0.04898510,0.06595741,0.67660587,0.00006164,0.00101634,-0.00
 086727,-0.01078860,-0.01239188,-0.00066368,-0.01827613,0.02343608,-0.0
 8307029,0.02328535,-0.00312522,0.02435709,-0.02173178,-0.01230913,-0.0
 1558757,-0.01036179,0.03993780,-0.01578377,-0.13631240,0.00982252,-0.1
 5568851,0.22284312,-0.17800060,0.35385823,0.00765785,-0.00163504,0.014
 48394,-0.07317601,0.00911943,-0.00666096,0.00687770,-0.00712622,-0.021
 07964,-0.00145826,-0.00165339,-0.00167081,-0.00020745,0.00067580,0.001
 58889,-0.00060534,-0.00112243,-0.00032557,-0.00238866,0.00155581,0.000
 42780,0.00137546,0.00161140,-0.00031618,0.52735211,0.00974322,-0.01927
 852,-0.02771644,0.00325115,-0.07964915,-0.01957033,0.00400013,0.003803
 13,-0.00451596,-0.00231874,-0.00067419,-0.00078188,0.00000902,0.000672
 22,-0.00000642,-0.00042949,-0.00018922,-0.00010322,-0.00056623,0.00062
 266,-0.00000505,-0.00015400,0.00021964,0.00031722,0.13140120,0.2361093
 4,0.00502617,0.00451498,0.00199633,0.02689436,-0.07607977,-0.14350372,
 0.00330729,-0.00757016,-0.01263340,-0.00159348,-0.00172246,-0.00137186
 ,0.00001059,0.00044654,0.00066209,-0.00057901,-0.00063542,-0.00010758,
 -0.00128379,0.00069338,0.00019672,0.00082738,0.00174066,-0.00195209,0.
 08853463,0.01032203,0.45850395,0.00325139,0.00332069,-0.00155257,-0.02
 539653,-0.01694711,0.01462503,0.00040073,0.00183951,-0.00112671,0.0005
 8791,-0.00045294,0.00049375,-0.00030953,-0.00017556,-0.00035002,0.0002
 2568,0.00056230,0.00009391,0.00102606,-0.00004735,0.00022166,0.0007586
 1,-0.00050636,0.00002015,-0.15668201,-0.08528797,0.05350673,0.60251140
 ,0.00130802,0.00714627,0.00024634,0.00361782,-0.00164964,-0.00145614,-
 0.00073549,0.00102157,0.00035911,0.00070741,-0.00046065,0.00008359,-0.
 00027041,-0.00003073,-0.00006371,0.00011928,0.00026047,-0.00004056,0.0
 0060726,0.00015874,0.00008676,0.00055013,-0.00056798,0.00005173,-0.078
 70487,-0.13842602,0.06251776,-0.12383620,0.30342059,-0.00133721,0.0001
 8344,0.00218987,0.01857493,0.03019034,-0.01369517,-0.00139838,-0.00262
 152,0.00061258,0.00063592,-0.00039370,0.00063290,-0.00040798,-0.000163
 90,-0.00023837,0.00001856,0.00042303,-0.00005374,0.00048303,-0.0004839
 8,-0.00002322,-0.00081654,0.00058185,-0.00138064,0.06123477,0.06600297
 ,-0.10129759,-0.07925817,-0.10365792,0.12239934,0.01365937,0.01199086,
 0.00033609,-0.34190075,-0.23556185,0.10909341,-0.00952727,-0.02239380,
 0.01239385,-0.00072779,-0.00140746,0.00023978,0.00040222,-0.00008017,-
 0.00067872,-0.00047411,-0.00020068,0.00009951,-0.00090574,-0.00243126,
 -0.00074576,-0.00533053,0.00565674,-0.00409264,-0.00984999,-0.01537632
 ,0.00524394,-0.00252336,-0.00003869,0.00715537,0.35995350,-0.03005542,
 -0.01259915,0.01343926,-0.22857813,-0.29423470,0.10027603,-0.00111770,
 0.00116068,0.00627128,-0.00097359,-0.00327665,0.00012924,0.00052153,0.
 00186132,-0.00110117,-0.00000894,-0.00005127,0.00004288,0.00009632,0.0
 0005644,-0.00047844,-0.00204547,0.00114271,-0.00108010,0.00497167,0.00
 661530,-0.00311593,-0.00103223,0.00255432,-0.00206128,0.25964161,0.295
 96630,0.00806237,0.00123791,0.01480734,0.10360813,0.09638869,-0.132683
 81,-0.01115740,-0.00547046,0.01009384,-0.00101026,0.00121435,0.0001263
 0,0.00042100,-0.00119308,0.00021857,-0.00056557,-0.00055457,0.00013402
 ,-0.00037335,-0.00076551,-0.00145928,-0.00049536,0.00290124,0.00035492
 ,0.02666551,0.02031927,-0.00053425,0.00909735,-0.00223438,-0.00688103,
 -0.13165845,-0.11395518,0.11489666,-0.00027122,-0.00019493,0.00008484,
 0.00106585,0.00248636,-0.00011314,0.00697010,0.00434269,0.00116922,-0.
 17661401,-0.14660588,-0.02337308,-0.00940168,-0.01891192,-0.00053347,-
 0.00108416,0.00020197,-0.00556940,-0.00054124,0.00085786,-0.00000670,0
 .00191120,0.00110908,-0.00340728,-0.00002730,0.00016405,0.00015802,-0.
 00027247,-0.00009893,0.00012121,-0.00160366,-0.00090406,-0.00003742,0.
 18049950,0.00041844,0.00064788,0.00012482,-0.00234043,-0.00378303,-0.0
 0004321,-0.01677945,-0.01540161,-0.00304953,-0.14504512,-0.21963653,-0
 .01260091,0.00419296,0.00786056,0.00123950,0.00011414,0.00179192,0.002
 77276,0.00078605,0.00012021,-0.00003765,0.00133249,-0.00221657,0.00472
 674,-0.00000175,-0.00008403,-0.00000947,0.00020499,0.00013388,-0.00006
 117,0.00008861,0.00181522,-0.00125113,0.15697899,0.22932861,-0.0000525
 4,-0.00072716,0.00040225,0.00208116,0.00191372,-0.00191878,0.01043039,
 0.01032410,0.00482056,-0.02386179,-0.01245339,-0.04846776,-0.01044823,
 -0.01356546,0.00359392,-0.00586472,0.00246188,0.00309630,-0.00005094,0
 .00015970,-0.00136276,-0.00331983,0.00457373,0.00283901,-0.00064673,-0
 .00044235,-0.00042447,-0.00001582,-0.00019313,0.00020288,-0.00007295,-
 0.00069282,-0.00029911,0.02893760,0.01016954,0.04046235,-0.00061266,0.
 00049528,-0.00025455,0.00112667,0.00105253,-0.00008946,-0.00189964,-0.
 00094482,-0.00573763,-0.00063293,0.02292472,-0.01258111,-0.06399132,0.
 04210846,-0.03391253,0.00797731,-0.01781318,0.01047287,-0.00045405,-0.
 00448379,-0.00312515,-0.00133780,-0.00041804,0.00003081,-0.00020358,-0
 .00019009,-0.00017549,0.00003185,0.00001984,0.00001610,-0.00030241,-0.
 00031298,0.00005969,-0.00032787,0.00056458,0.00226445,0.06104970,0.000
 01528,0.00001541,-0.00005846,-0.00053192,0.00013050,-0.00019101,-0.000
 89494,0.00244213,0.00167818,-0.00126864,0.00217434,-0.00033120,0.04223
 365,-0.26706817,0.12498070,0.00674252,-0.01474588,0.01206889,-0.004786
 60,-0.00119868,0.00069720,-0.00043135,0.00009021,-0.00081181,0.0000775
 8,0.00002951,0.00007298,-0.00000743,0.00000138,0.00000882,0.00012676,0
 .00002552,0.00003169,0.00099062,-0.00009617,-0.00113171,-0.04353000,0.
 27891946,-0.00036464,0.00031896,-0.00045795,0.00040008,0.00074374,0.00
 062652,-0.00548240,0.00142230,0.00339679,-0.00197722,0.01521177,-0.004
 32569,-0.03411387,0.12509413,-0.11343030,-0.00005241,-0.00364291,0.004
 93601,-0.00306011,0.00086134,0.00520902,0.00014404,-0.00080568,-0.0006
 8858,-0.00012523,-0.00017091,-0.00008269,0.00007087,0.00004354,-0.0000
 7516,-0.00016530,-0.00024026,-0.00002594,0.00194845,-0.00149359,-0.002
 37157,0.04043702,-0.13595485,0.11023815,-0.00008664,0.00012354,-0.0001
 0214,-0.00025495,0.00006835,0.00054238,0.00041399,-0.00043534,0.000810
 52,0.00055715,-0.00462746,-0.00246104,-0.01086367,0.00415180,-0.011332
 66,-0.24866928,0.01824636,-0.13937752,-0.00014120,-0.00164251,-0.00216
 023,0.00315184,-0.00019702,-0.00281479,0.00011986,0.00005279,0.0000660
 4,-0.00000551,-0.00000690,-0.00006184,-0.00014259,0.00000368,-0.000100
 46,-0.00059373,0.00035484,-0.00042544,-0.00047742,0.00067002,0.0019494
 7,0.25780816,0.00010596,0.00019913,0.00004879,0.00003005,-0.00053289,-
 0.00021858,-0.00032159,-0.00152371,0.00013114,-0.00468592,-0.00261444,
 0.00134276,-0.02034550,0.00693409,-0.01398458,0.01820943,-0.05993674,0
 .01978840,0.02289888,0.00260162,0.01523941,-0.00018581,-0.00370030,0.0
 0464471,-0.00012098,-0.00003650,-0.00006252,0.00004967,0.00005117,0.00
 004674,0.00010316,0.00024245,-0.00007897,-0.00085649,0.00023378,-0.000
 74098,0.00122918,0.00020838,-0.00102860,-0.01765328,0.05751141,-0.0000
 4995,-0.00014426,0.00005047,0.00036548,-0.00011388,-0.00067819,0.00087
 950,0.00019925,-0.00019355,-0.00247491,0.00143819,0.00534283,-0.000894
 94,0.00162971,0.00301305,-0.13943127,0.01981387,-0.13716334,-0.0124261
 0,-0.00046387,-0.00333235,-0.00283260,0.00454564,0.00399866,-0.0001849
 5,-0.00012884,-0.00015406,0.00004386,0.00001549,-0.00001917,0.00003942
 ,0.00005162,0.00003668,0.00011921,0.00003464,-0.00011459,0.00171768,-0
 .00138797,-0.00235072,0.15355319,-0.02411771,0.13431804,-0.00012743,0.
 00041448,-0.00015519,0.00068100,-0.00119866,0.00070214,-0.00149752,0.0
 0004399,-0.00573408,-0.00053017,0.00100416,0.00004060,0.00267643,0.000
 58883,-0.00341958,0.00779065,0.00641225,0.00004884,-0.17025264,-0.1438
 6402,-0.02394879,-0.01149453,-0.02043877,-0.00111004,-0.00023698,-0.00
 006832,-0.00022185,0.00011409,0.00009209,-0.00014138,-0.00068203,-0.00
 017382,-0.00011590,-0.00026242,0.00011795,0.00043727,0.00024705,0.0003
 7673,-0.00002658,-0.00064601,0.00044786,0.00202843,0.17458519,-0.00006
 575,-0.00004431,-0.00005844,0.00025332,0.00039886,0.00026196,0.0001730
 5,0.00223091,0.00217569,0.00103525,-0.00023237,0.00026150,0.00087931,-
 0.00247012,0.00474542,-0.01824547,-0.01474761,-0.00402539,-0.14403205,
 -0.22641986,-0.01358910,0.00394344,0.00653187,0.00133308,-0.00001998,-
 0.00002452,0.00003124,0.00001362,-0.00000972,0.00000812,0.00012541,0.0
 0001058,-0.00003828,0.00011159,-0.00011401,-0.00031102,-0.00089954,-0.
 00078725,-0.00021425,0.00098998,0.00028263,-0.00118468,0.15530547,0.23
 544386,0.00001492,0.00021919,-0.00010783,-0.00012261,-0.00052699,0.000
 77601,-0.00534718,0.00229346,0.00299568,0.00003542,0.00022927,-0.00125
 371,-0.00354904,0.00458461,0.00352964,0.01028616,0.01175639,0.00513427
 ,-0.02402280,-0.01374226,-0.04797160,-0.01125150,-0.01420692,0.0022491
 0,-0.00010057,-0.00003944,-0.00007170,0.00012195,0.00005224,-0.0000328
 6,-0.00060136,-0.00024919,-0.00028488,0.00043201,-0.00034612,-0.000617
 83,0.00050463,0.00056363,0.00008391,0.00178416,-0.00154500,-0.00234339
 ,0.02965053,0.01202121,0.04032699,-0.00064020,0.00238488,-0.00061021,-
 0.00014944,-0.00473139,0.00197215,0.00799844,-0.01585874,0.00963878,-0
 .00136452,-0.00442925,-0.00302107,-0.00112867,-0.00024818,0.00001021,-
 0.00202177,-0.00122537,-0.00547357,0.00078936,0.02157712,-0.01124844,-
 0.06626955,0.05045106,-0.03715449,0.00015782,0.00063655,0.00016100,-0.
 00046070,-0.00016762,0.00002494,-0.00014504,0.00074973,-0.00027447,0.0
 0052436,-0.00096948,0.00045717,-0.00020754,0.00022322,0.00042945,-0.00
 015255,0.00108890,-0.00044304,-0.00035187,0.00045002,0.00220189,0.0633
 1527,0.00156038,0.00102485,0.00044395,0.00070605,-0.00324035,0.0004206
 6,0.00548530,-0.01582270,0.01088078,-0.00446384,-0.00104505,0.00029917
 ,-0.00015846,0.00027963,-0.00071814,-0.00142967,0.00211130,0.00124667,
 -0.00133701,0.00419971,-0.00084596,0.04832807,-0.26789441,0.12234416,-
 0.00064680,-0.00029301,-0.00017968,0.00037512,0.00042562,0.00050108,0.
 00024512,0.00062140,-0.00027758,0.00034070,-0.00061461,0.00063359,0.00
 021647,-0.00011974,-0.00019819,-0.00011932,0.00009935,-0.00019335,0.00
 093511,-0.00003365,-0.00101230,-0.05007723,0.28061819,-0.00051677,-0.0
 0013241,-0.00100210,0.00084111,-0.00189294,-0.00143948,0.00106058,-0.0
 0220433,0.00433019,-0.00302933,0.00039791,0.00478179,-0.00007760,-0.00
 082102,-0.00093643,-0.00549794,0.00169282,0.00361015,-0.00180333,0.013
 71301,-0.00223857,-0.03632451,0.12304225,-0.11157508,-0.00117911,-0.00
 048993,-0.00040504,0.00043505,0.00057269,0.00042841,0.00041775,0.00048
 318,0.00023543,-0.00006801,-0.00017600,0.00043104,0.00042298,-0.000234
 75,-0.00065146,0.00005788,0.00058173,-0.00036995,0.00203352,-0.0014276
 5,-0.00238064,0.04309984,-0.13286916,0.10757069,-0.00211076,0.00170376
 ,-0.00015622,0.01110860,0.00539050,0.00835091,-0.00092821,0.00004552,0
 .00235213,0.00023644,0.00019762,0.00041981,0.00025744,-0.00008075,-0.0
 0019879,0.00005322,-0.00003460,0.00015085,0.00015475,-0.00015225,-0.00
 021039,0.00006425,-0.00019891,0.00003789,-0.27502579,-0.05039751,-0.17
 851810,-0.02449632,-0.00190161,-0.00402495,-0.00075364,-0.00080664,-0.
 00131067,-0.00003341,0.00003746,0.00009042,0.00004146,-0.00001269,0.00
 002398,-0.00001567,0.00001554,0.00003363,0.00002217,0.00002041,0.00003
 718,-0.00006741,0.00005461,0.00012003,0.29369652,0.00197794,-0.0023800
 4,0.00263882,-0.00775327,-0.00380355,-0.02644175,0.00094984,0.00045035
 ,-0.00023463,0.00010046,0.00016584,0.00004764,-0.00043075,0.00008273,-
 0.00004439,0.00023726,0.00025373,-0.00002732,0.00011912,-0.00025723,0.
 00020265,-0.00047910,-0.00019151,0.00001528,-0.01617273,-0.01751519,0.
 00404821,-0.02895171,-0.00910132,-0.00924929,0.00008381,-0.00181341,0.
 00219005,0.00007170,0.00002288,-0.00005680,-0.00001246,-0.00000948,0.0
 0001227,0.00001235,-0.00000453,-0.00001087,0.00000339,0.00000255,-0.00
 000564,-0.00003411,-0.00003515,-0.00004732,0.05116552,0.03614456,0.001
 84828,0.00037536,0.00267234,-0.02887493,-0.00279861,-0.02104355,0.0022
 2821,-0.00220727,-0.00455148,-0.00008242,-0.00069424,-0.00005989,-0.00
 032858,0.00018238,0.00039658,-0.00006791,-0.00012478,-0.00011771,-0.00
 051211,0.00027357,0.00021541,0.00033583,0.00063163,-0.00031761,-0.1840
 4832,-0.03606270,-0.19369015,0.03050751,0.00965700,0.01059452,0.002688
 05,0.00162948,0.00381376,0.00003823,0.00004033,-0.00026117,-0.00004861
 ,0.00000881,-0.00003833,0.00004760,-0.00002511,-0.00005546,-0.00007596
 ,0.00001012,-0.00001681,0.00005158,-0.00016515,-0.00026262,0.17337523,
 0.02600861,0.20292615,0.00026684,-0.00124255,-0.00142844,-0.00178583,0
 .00056187,0.00443985,0.00011779,0.00017096,0.00005344,-0.00006012,-0.0
 0013840,0.00004490,-0.00014669,0.00002253,-0.00005586,-0.00012870,0.00
 010827,-0.00008273,-0.00016149,-0.00002931,0.00004950,-0.00014828,0.00
 010696,0.00008718,-0.02367943,0.00553056,-0.00136442,-0.39876127,0.198
 73889,-0.00081837,0.00085379,0.00002445,-0.00081474,0.00006215,-0.0000
 5526,0.00006053,-0.00002682,0.00000719,-0.00003560,-0.00000179,-0.0000
 0904,-0.00004264,-0.00003498,-0.00003810,-0.00007381,0.00017402,-0.000
 01459,0.00000785,-0.00220365,-0.00088727,0.00291832,0.42566448,0.00010
 075,0.00071110,-0.00082584,-0.00048479,-0.00342291,-0.00112512,0.00014
 220,0.00037772,-0.00001236,-0.00002040,-0.00004345,-0.00007579,0.00016
 128,-0.00015665,-0.00000869,0.00000009,0.00002992,-0.00000917,-0.00015
 314,-0.00003392,0.00003555,-0.00004103,0.00008571,0.00007308,-0.042208
 69,0.00809855,0.00498765,0.25087896,-0.16492795,0.02074637,-0.00057186
 ,-0.00009707,0.00153592,-0.00008339,-0.00000836,0.00007857,-0.00000615
 ,-0.00001149,0.00004119,0.00000812,-0.00001490,0.00001701,0.00000129,-
 0.00001784,-0.00004614,0.00017989,-0.00028137,-0.00018806,-0.00504597,
 -0.00201123,0.00326056,-0.20285715,0.16172414,-0.00079816,-0.00104354,
 -0.00074997,0.00834259,0.00087076,0.00056380,-0.00004798,0.00031305,0.
 00064291,-0.00021151,0.00043636,-0.00030770,0.00002498,0.00008076,0.00
 003224,-0.00003876,-0.00008999,-0.00006329,-0.00042721,-0.00007649,-0.
 00003540,-0.00041129,-0.00026318,-0.00008195,0.02340253,-0.00692801,-0
 .00513048,-0.02693453,0.03395958,-0.01336353,0.00030802,0.00065139,-0.
 00254921,0.00009972,-0.00003956,-0.00001026,-0.00000172,-0.00000916,0.
 00000798,0.00002488,-0.00002163,0.00001504,0.00000803,0.00000047,-0.00
 001433,0.00017829,-0.00031057,-0.00012634,-0.00057293,0.00095448,-0.00
 020399,-0.00294494,-0.02848473,0.02137449\\-0.00000175,-0.00000114,-0.
 00000338,-0.00000492,0.00000330,0.00001978,0.00001558,0.00000746,0.000
 00775,-0.00000118,-0.00000543,-0.00000935,-0.00000016,-0.00000050,0.00
 000192,0.00000148,-0.00000056,-0.00000422,0.00000240,-0.00000179,0.000
 00721,-0.00000496,-0.00000026,-0.00000825,0.00001895,0.00003022,-0.000
 02389,-0.00002197,-0.00002519,0.00001962,-0.00000537,0.00000205,-0.000
 00936,0.00000070,-0.00000020,-0.00000028,0.00000057,-0.00000122,0.0000
 0023,0.00000063,-0.00000139,-0.00000008,0.00000057,-0.00000056,0.00000
 200,-0.00000050,-0.00000148,0.00000185,-0.00000029,-0.00000551,-0.0000
 0228,0.00000021,0.00000221,0.00000075\\\@


 THE WHOLE OF SCIENCE IS NOTHING MORE THAN A REFINEMENT OF EVERYDAY THINKING.
                                                              -- A. EINSTEIN
 Job cpu time:       0 days  0 hours 53 minutes 54.0 seconds.
 Elapsed time:       0 days  0 hours  2 minutes 17.5 seconds.
 File lengths (MBytes):  RWF=    166 Int=      0 D2E=      0 Chk=      8 Scr=      1
 Normal termination of Gaussian 16 at Sun Oct 13 23:13:35 2019.
real 444.94
user 10391.47
sys 41.57
Machine:
brown-a491
brown-a491
brown-a491
brown-a491
brown-a491
brown-a491
brown-a491
brown-a491
brown-a491
brown-a491
brown-a491
brown-a491
brown-a491
brown-a491
brown-a491
brown-a491
brown-a491
brown-a491
brown-a491
brown-a491
brown-a491
brown-a491
brown-a491
brown-a491
