Title Card Required                                                     
Freq      RM062X                                                      6-311++G(d,p)       
Number of atoms                            I               19
Info1-9                                    I   N=           9
          48          48        1002           0           0         100
           6          18        -502
Full Title                                 C   N=           2
Title Card Required     
Route                                      C   N=           6
#P opt freq m062x/6-311++g(d,p) geom=connectivity temperatur
e=0.001     
Charge                                     I                1
Multiplicity                               I                1
Number of electrons                        I               90
Number of alpha electrons                  I               45
Number of beta electrons                   I               45
Number of basis functions                  I              306
Number of independent functions            I              305
Number of point charges in /Mol/           I                0
Number of translation vectors              I                0
Atomic numbers                             I   N=          19
           8          16           6           6           6           6
           6           6           7           8           8           1
           1           1           1           1           1           1
           1
Nuclear charges                            R   N=          19
  8.00000000E+00  1.60000000E+01  6.00000000E+00  6.00000000E+00  6.00000000E+00
  6.00000000E+00  6.00000000E+00  6.00000000E+00  7.00000000E+00  8.00000000E+00
  8.00000000E+00  1.00000000E+00  1.00000000E+00  1.00000000E+00  1.00000000E+00
  1.00000000E+00  1.00000000E+00  1.00000000E+00  1.00000000E+00
Current cartesian coordinates              R   N=          57
 -2.96875285E+00 -7.33558602E-01 -2.81748325E+00 -2.25097765E+00  8.52483719E-01
 -4.02194771E-01  9.83215528E-01  3.09767684E-01 -2.51864721E-01  2.41012408E+00
  2.27542688E+00  7.70735575E-01  4.99578903E+00  1.89971813E+00  9.85812534E-01
  6.06759568E+00 -3.74402416E-01  2.05505396E-01  4.58678160E+00 -2.30411881E+00
 -8.07826798E-01  1.99732296E+00 -1.98775702E+00 -1.05664760E+00 -3.54069279E+00
 -5.46824609E-01  2.10743118E+00 -3.33922640E+00 -3.15653483E+00  1.96336003E+00
 -3.06892671E+00  3.42723474E+00 -4.00294796E-01  1.53481245E+00  4.03770651E+00
  1.33957192E+00  6.17109821E+00  3.38944129E+00  1.74909551E+00  8.08971199E+00
 -6.44312796E-01  3.76839707E-01  5.45141246E+00 -4.05302509E+00 -1.42249394E+00
  8.12999756E-01 -3.44756128E+00 -1.86323844E+00 -5.38760679E+00 -8.10422693E-03
  2.31877358E+00 -2.35288662E+00 -3.63475106E+00  3.42758178E+00 -4.74877511E+00
 -6.60297655E-01 -3.28197420E+00
Number of symbols in /Mol/                 I                0
Force Field                                I                0
Atom Types                                 C   N=          19
                                                            
                                                            
                                                            
                                                
Int Atom Types                             I   N=          19
           0           0           0           0           0           0
           0           0           0           0           0           0
           0           0           0           0           0           0
           0
MM charges                                 R   N=          19
  0.00000000E+00  0.00000000E+00  0.00000000E+00  0.00000000E+00  0.00000000E+00
  0.00000000E+00  0.00000000E+00  0.00000000E+00  0.00000000E+00  0.00000000E+00
  0.00000000E+00  0.00000000E+00  0.00000000E+00  0.00000000E+00  0.00000000E+00
  0.00000000E+00  0.00000000E+00  0.00000000E+00  0.00000000E+00
Integer atomic weights                     I   N=          19
          16          32          12          12          12          12
          12          12          14          16          16           1
           1           1           1           1           1           1
           1
Real atomic weights                        R   N=          19
  1.59949146E+01  3.19720718E+01  1.20000000E+01  1.20000000E+01  1.20000000E+01
  1.20000000E+01  1.20000000E+01  1.20000000E+01  1.40030740E+01  1.59949146E+01
  1.59949146E+01  1.00782504E+00  1.00782504E+00  1.00782504E+00  1.00782504E+00
  1.00782504E+00  1.00782504E+00  1.00782504E+00  1.00782504E+00
Atom fragment info                         I   N=          19
           0           0           0           0           0           0
           0           0           0           0           0           0
           0           0           0           0           0           0
           0
Atom residue num                           I   N=          19
           0           0           0           0           0           0
           0           0           0           0           0           0
           0           0           0           0           0           0
           0
Nuclear spins                              I   N=          19
           0           0           0           0           0           0
           0           0           2           0           0           1
           1           1           1           1           1           1
           1
Nuclear ZEff                               R   N=          19
 -5.60000000E+00 -1.36000000E+01 -3.60000000E+00 -3.60000000E+00 -3.60000000E+00
 -3.60000000E+00 -3.60000000E+00 -3.60000000E+00 -4.55000000E+00 -5.60000000E+00
 -5.60000000E+00 -1.00000000E+00 -1.00000000E+00 -1.00000000E+00 -1.00000000E+00
 -1.00000000E+00 -1.00000000E+00 -1.00000000E+00 -1.00000000E+00
Nuclear ZNuc                               R   N=          19
  8.00000000E+00  1.60000000E+01  6.00000000E+00  6.00000000E+00  6.00000000E+00
  6.00000000E+00  6.00000000E+00  6.00000000E+00  7.00000000E+00  8.00000000E+00
  8.00000000E+00  1.00000000E+00  1.00000000E+00  1.00000000E+00  1.00000000E+00
  1.00000000E+00  1.00000000E+00  1.00000000E+00  1.00000000E+00
Nuclear QMom                               R   N=          19
  0.00000000E+00  0.00000000E+00  0.00000000E+00  0.00000000E+00  0.00000000E+00
  0.00000000E+00  0.00000000E+00  0.00000000E+00  2.04400000E+00  0.00000000E+00
  0.00000000E+00  0.00000000E+00  0.00000000E+00  0.00000000E+00  0.00000000E+00
  0.00000000E+00  0.00000000E+00  0.00000000E+00  0.00000000E+00
Nuclear GFac                               R   N=          19
  0.00000000E+00  0.00000000E+00  0.00000000E+00  0.00000000E+00  0.00000000E+00
  0.00000000E+00  0.00000000E+00  0.00000000E+00  4.03761000E-01  0.00000000E+00
  0.00000000E+00  2.79284600E+00  2.79284600E+00  2.79284600E+00  2.79284600E+00
  2.79284600E+00  2.79284600E+00  2.79284600E+00  2.79284600E+00
MicOpt                                     I   N=          19
          -1          -1          -1          -1          -1          -1
          -1          -1          -1          -1          -1          -1
          -1          -1          -1          -1          -1          -1
          -1
Number of residues                         I                0
Number of secondary structures             I                0
Redundant internal dimensions              I   N=           4
          89          19          29          41
Redundant internal coordinate indices      I   N=         356
           1           2           0           0           1          19
           0           0           2           3           0           0
           2           9           0           0           2          11
           0           0           3           4           0           0
           3           8           0           0           4           5
           0           0           4          12           0           0
           5           6           0           0           5          13
           0           0           6           7           0           0
           6          14           0           0           7           8
           0           0           7          15           0           0
           8          16           0           0           9          10
           0           0           9          17           0           0
          10          18           0           0           2           1
          19           0           1           2           3           0
           1           2           9           0           1           2
          11           0           3           2           9           0
           3           2          11           0           9           2
          11           0           2           3           4           0
           2           3           8           0           4           3
           8           0           3           4           5           0
           3           4          12           0           5           4
          12           0           4           5           6           0
           4           5          13           0           6           5
          13           0           5           6           7           0
           5           6          14           0           7           6
          14           0           6           7           8           0
           6           7          15           0           8           7
          15           0           3           8           7           0
           3           8          16           0           7           8
          16           0           2           9          10           0
           2           9          17           0          10           9
          17           0           9          10          18           0
          19           1           2           3          19           1
           2           9          19           1           2          11
           1           2           3           4           1           2
           3           8           9           2           3           4
           9           2           3           8          11           2
           3           4          11           2           3           8
           1           2           9          10           1           2
           9          17           3           2           9          10
           3           2           9          17          11           2
           9          10          11           2           9          17
           2           3           4           5           2           3
           4          12           8           3           4           5
           8           3           4          12           2           3
           8           7           2           3           8          16
           4           3           8           7           4           3
           8          16           3           4           5           6
           3           4           5          13          12           4
           5           6          12           4           5          13
           4           5           6           7           4           5
           6          14          13           5           6           7
          13           5           6          14           5           6
           7           8           5           6           7          15
          14           6           7           8          14           6
           7          15           6           7           8           3
           6           7           8          16          15           7
           8           3          15           7           8          16
           2           9          10          18          17           9
          10          18
Redundant internal coordinates             R   N=          89
  2.97730582E+00  1.84108616E+00  3.28285628E+00  3.14954780E+00  2.70155272E+00
  2.63544976E+00  2.63717825E+00  2.62165566E+00  2.04826139E+00  2.63235122E+00
  2.04529403E+00  2.63504419E+00  2.04723262E+00  2.62055197E+00  2.04550126E+00
  2.04554117E+00  2.62143713E+00  1.93545255E+00  1.82907142E+00  2.00044974E+00
  1.75848640E+00  1.88705077E+00  2.02115121E+00  1.86866634E+00  2.04407663E+00
  1.87432865E+00  2.01292911E+00  2.10469603E+00  2.16518191E+00  2.04759848E+00
  2.11542294E+00  2.11998353E+00  2.09562611E+00  2.08631467E+00  2.10121481E+00
  2.11512820E+00  2.08433540E+00  2.08369809E+00  2.09833283E+00  2.09920151E+00
  2.08560676E+00  2.04449316E+00  2.11697863E+00  2.12162567E+00  1.94661899E+00
  1.93275217E+00  1.93524814E+00  1.83146957E+00 -3.11855303E+00  1.20785310E+00
 -8.95266052E-01  2.60416462E+00 -5.65809424E-01 -1.70818009E+00  1.40503117E+00
  3.96047330E-01 -2.77392672E+00  7.09847606E-01 -1.45428538E+00 -1.17176242E+00
  2.94728991E+00  2.90236194E+00  7.38228960E-01  3.11431418E+00 -4.73997469E-02
  2.21097272E-03  3.12368235E+00 -3.10946546E+00  4.61579490E-02  1.16382018E-03
 -3.12639808E+00 -4.71338138E-03  3.12862799E+00 -3.12612880E+00  7.21256358E-03
  3.99488772E-03  3.13815648E+00 -3.12927529E+00  4.88630213E-03 -4.77639172E-04
  3.13095959E+00 -3.13464190E+00 -3.20467467E-03 -2.02552667E-03  3.12549647E+00
 -3.13354179E+00 -6.01979645E-03  2.08061123E+00 -2.03984987E+00
ZRed-IntVec                                I   N=          89
           0           0           0           0           0           0
           0           0           0           0           0           0
           0           0           0           0           0           0
           0           0           0           0           0           0
           0           0           0           0           0           0
           0           0           0           0           0           0
           0           0           0           0           0           0
           0           0           0           0           0           0
           0           0           0           0           0           0
           0           0           0           0           0           0
           0           0           0           0           0           0
           0           0           0           0           0           0
           0           0           0           0           0           0
           0           0           0           0           0           0
           0           0           0           0           0
ZRed-FPVec                                 R   N=          89
  0.00000000E+00  0.00000000E+00  0.00000000E+00  0.00000000E+00  0.00000000E+00
  0.00000000E+00  0.00000000E+00  0.00000000E+00  0.00000000E+00  0.00000000E+00
  0.00000000E+00  0.00000000E+00  0.00000000E+00  0.00000000E+00  0.00000000E+00
  0.00000000E+00  0.00000000E+00  0.00000000E+00  0.00000000E+00  0.00000000E+00
  0.00000000E+00  0.00000000E+00  0.00000000E+00  0.00000000E+00  0.00000000E+00
  0.00000000E+00  0.00000000E+00  0.00000000E+00  0.00000000E+00  0.00000000E+00
  0.00000000E+00  0.00000000E+00  0.00000000E+00  0.00000000E+00  0.00000000E+00
  0.00000000E+00  0.00000000E+00  0.00000000E+00  0.00000000E+00  0.00000000E+00
  0.00000000E+00  0.00000000E+00  0.00000000E+00  0.00000000E+00  0.00000000E+00
  0.00000000E+00  0.00000000E+00  0.00000000E+00  0.00000000E+00  0.00000000E+00
  0.00000000E+00  0.00000000E+00  0.00000000E+00  0.00000000E+00  0.00000000E+00
  0.00000000E+00  0.00000000E+00  0.00000000E+00  0.00000000E+00  0.00000000E+00
  0.00000000E+00  0.00000000E+00  0.00000000E+00  0.00000000E+00  0.00000000E+00
  0.00000000E+00  0.00000000E+00  0.00000000E+00  0.00000000E+00  0.00000000E+00
  0.00000000E+00  0.00000000E+00  0.00000000E+00  0.00000000E+00  0.00000000E+00
  0.00000000E+00  0.00000000E+00  0.00000000E+00  0.00000000E+00  0.00000000E+00
  0.00000000E+00  0.00000000E+00  0.00000000E+00  0.00000000E+00  0.00000000E+00
  0.00000000E+00  0.00000000E+00  0.00000000E+00  0.00000000E+00
ZRed-Constraint1                           R   N=          89
  2.97730582E+00  1.84108616E+00  3.28285628E+00  3.14954780E+00  2.70155272E+00
  2.63544976E+00  2.63717825E+00  2.62165566E+00  2.04826139E+00  2.63235122E+00
  2.04529403E+00  2.63504419E+00  2.04723262E+00  2.62055197E+00  2.04550126E+00
  2.04554117E+00  2.62143713E+00  1.93545255E+00  1.82907142E+00  2.00044974E+00
  1.75848640E+00  1.88705077E+00  2.02115121E+00  1.86866634E+00  2.04407663E+00
  1.87432865E+00  2.01292911E+00  2.10469603E+00  2.16518191E+00  2.04759848E+00
  2.11542294E+00  2.11998353E+00  2.09562611E+00  2.08631467E+00  2.10121481E+00
  2.11512820E+00  2.08433540E+00  2.08369809E+00  2.09833283E+00  2.09920151E+00
  2.08560676E+00  2.04449316E+00  2.11697863E+00  2.12162567E+00  1.94661899E+00
  1.93275217E+00  1.93524814E+00  1.83146957E+00 -3.11855303E+00  1.20785310E+00
 -8.95266052E-01  2.60416462E+00 -5.65809424E-01 -1.70818009E+00  1.40503117E+00
  3.96047330E-01 -2.77392672E+00  7.09847606E-01 -1.45428538E+00 -1.17176242E+00
  2.94728991E+00  2.90236194E+00  7.38228960E-01  3.11431418E+00 -4.73997469E-02
  2.21097272E-03  3.12368235E+00 -3.10946546E+00  4.61579490E-02  1.16382018E-03
 -3.12639808E+00 -4.71338138E-03  3.12862799E+00 -3.12612880E+00  7.21256358E-03
  3.99488772E-03  3.13815648E+00 -3.12927529E+00  4.88630213E-03 -4.77639172E-04
  3.13095959E+00 -3.13464190E+00 -3.20467467E-03 -2.02552667E-03  3.12549647E+00
 -3.13354179E+00 -6.01979645E-03  2.08061123E+00 -2.03984987E+00
ZRed-Constraint2                           R   N=          89
  3.03167909E+00  1.81413708E+00  3.34577355E+00  3.32332358E+00  3.03132330E+00
  2.66639778E+00  2.66636727E+00  2.65866216E+00  2.05979635E+00  2.65813915E+00
  2.05983063E+00  2.65789756E+00  2.05987264E+00  2.65824062E+00  2.05984737E+00
  2.05988509E+00  2.55641975E+00  1.90858538E+00  1.81425732E+00  2.09439511E+00
  1.93690508E+00  1.89436600E+00  1.89400257E+00  1.90977235E+00  1.93437002E+00
  1.89345111E+00  2.10063850E+00  2.09681124E+00  2.08571746E+00  2.09798201E+00
  2.09498885E+00  2.09021444E+00  2.09474595E+00  2.09438996E+00  2.09404939E+00
  2.09490884E+00  2.09421284E+00  2.09406363E+00  2.09435449E+00  2.09441159E+00
  2.09441922E+00  2.09861747E+00  2.09498644E+00  2.08958139E+00  1.87697036E+00
  2.37915327E+00  2.02706168E+00  1.91058792E+00  6.54357641E-01 -1.44487996E+00
  2.78383940E+00  2.62214119E+00 -5.25949836E-01 -1.57097930E+00  1.56411498E+00
  5.16371739E-01 -2.63171928E+00  1.11166981E+00 -2.02980876E+00 -1.00434211E+00
  2.13736462E+00 -3.11669838E+00  2.50083492E-02 -3.13776395E+00  3.87919427E-03
  1.02858819E-02 -3.13125628E+00  3.13828182E+00 -3.18582526E-03 -9.75361532E-03
  3.13196405E+00 -5.04626356E-03  3.13645686E+00  3.13649604E+00 -5.18614303E-03
 -8.05483594E-04  3.14083485E+00  3.14087668E+00 -6.68290638E-04  1.34030318E-03
 -3.14029883E+00 -3.14030003E+00  1.24614361E-03  3.97609264E-03 -3.13774118E+00
 -3.13757008E+00  3.89795360E-03  4.33780087E-01 -2.70790034E+00
SymInf integers                            I   N=          26
           1           1           1           1           1           0
           0           0           0           0           0           0
           0           0           0           0           0           0
           0           0           0           0           0           0
           0           0
RotTr to input orientation                 R   N=          12
  6.96204306E-01 -1.16710661E-01  7.08292444E-01 -6.00828638E-01 -6.34676854E-01
  4.85994073E-01  3.92816131E-01 -7.63913550E-01 -5.11987866E-01 -1.16167696E+00
  1.71096691E+00 -2.41506618E-01
Number of contracted shells                I              113
Number of primitive shells                 I              210
Pure/Cartesian d shells                    I                0
Pure/Cartesian f shells                    I                0
Highest angular momentum                   I                2
Largest degree of contraction              I                6
Shell types                                I   N=         113
           0          -1          -1          -1          -1          -2
           0           0           0           0           0           0
          -1           1           1           1           1           1
          -2           0          -1          -1          -1          -1
          -2           0          -1          -1          -1          -1
          -2           0          -1          -1          -1          -1
          -2           0          -1          -1          -1          -1
          -2           0          -1          -1          -1          -1
          -2           0          -1          -1          -1          -1
          -2           0          -1          -1          -1          -1
          -2           0          -1          -1          -1          -1
          -2           0          -1          -1          -1          -1
          -2           0           0           0           0           1
           0           0           0           0           1           0
           0           0           0           1           0           0
           0           0           1           0           0           0
           0           1           0           0           0           0
           1           0           0           0           0           1
           0           0           0           0           1
Number of primitives per shell             I   N=         113
           6           3           1           1           1           1
           6           3           1           1           1           1
           1           4           2           1           1           1
           1           6           3           1           1           1
           1           6           3           1           1           1
           1           6           3           1           1           1
           1           6           3           1           1           1
           1           6           3           1           1           1
           1           6           3           1           1           1
           1           6           3           1           1           1
           1           6           3           1           1           1
           1           6           3           1           1           1
           1           3           1           1           1           1
           3           1           1           1           1           3
           1           1           1           1           3           1
           1           1           1           3           1           1
           1           1           3           1           1           1
           1           3           1           1           1           1
           3           1           1           1           1
Shell to atom map                          I   N=         113
           1           1           1           1           1           1
           2           2           2           2           2           2
           2           2           2           2           2           2
           2           3           3           3           3           3
           3           4           4           4           4           4
           4           5           5           5           5           5
           5           6           6           6           6           6
           6           7           7           7           7           7
           7           8           8           8           8           8
           8           9           9           9           9           9
           9          10          10          10          10          10
          10          11          11          11          11          11
          11          12          12          12          12          12
          13          13          13          13          13          14
          14          14          14          14          15          15
          15          15          15          16          16          16
          16          16          17          17          17          17
          17          18          18          18          18          18
          19          19          19          19          19
Primitive exponents                        R   N=         210
  8.58850000E+03  1.29723000E+03  2.99296000E+02  8.73771000E+01  2.56789000E+01
  3.74004000E+00  4.21175000E+01  9.62837000E+00  2.85332000E+00  9.05661000E-01
  2.55611000E-01  8.45000000E-02  1.29200000E+00  9.34134000E+04  1.39617000E+04
  3.16991000E+03  9.02456000E+02  2.97158000E+02  1.08702000E+02  1.08702000E+02
  4.31553000E+01  1.81079000E+01  5.56009000E+00  2.13183000E+00  4.20403000E-01
  1.36045000E-01  4.05000000E-02  4.95040000E+02  1.17221000E+02  3.77749000E+01
  1.40584000E+01  5.56574000E+00  2.26297000E+00  8.07994000E-01  2.77460000E-01
  7.71410000E-02  6.50000000E-01  4.56324000E+03  6.82024000E+02  1.54973000E+02
  4.44553000E+01  1.30290000E+01  1.82773000E+00  2.09642000E+01  4.80331000E+00
  1.45933000E+00  4.83456000E-01  1.45585000E-01  4.38000000E-02  6.26000000E-01
  4.56324000E+03  6.82024000E+02  1.54973000E+02  4.44553000E+01  1.30290000E+01
  1.82773000E+00  2.09642000E+01  4.80331000E+00  1.45933000E+00  4.83456000E-01
  1.45585000E-01  4.38000000E-02  6.26000000E-01  4.56324000E+03  6.82024000E+02
  1.54973000E+02  4.44553000E+01  1.30290000E+01  1.82773000E+00  2.09642000E+01
  4.80331000E+00  1.45933000E+00  4.83456000E-01  1.45585000E-01  4.38000000E-02
  6.26000000E-01  4.56324000E+03  6.82024000E+02  1.54973000E+02  4.44553000E+01
  1.30290000E+01  1.82773000E+00  2.09642000E+01  4.80331000E+00  1.45933000E+00
  4.83456000E-01  1.45585000E-01  4.38000000E-02  6.26000000E-01  4.56324000E+03
  6.82024000E+02  1.54973000E+02  4.44553000E+01  1.30290000E+01  1.82773000E+00
  2.09642000E+01  4.80331000E+00  1.45933000E+00  4.83456000E-01  1.45585000E-01
  4.38000000E-02  6.26000000E-01  4.56324000E+03  6.82024000E+02  1.54973000E+02
  4.44553000E+01  1.30290000E+01  1.82773000E+00  2.09642000E+01  4.80331000E+00
  1.45933000E+00  4.83456000E-01  1.45585000E-01  4.38000000E-02  6.26000000E-01
  6.29348000E+03  9.49044000E+02  2.18776000E+02  6.36916000E+01  1.88282000E+01
  2.72023000E+00  3.06331000E+01  7.02614000E+00  2.11205000E+00  6.84009000E-01
  2.00878000E-01  6.39000000E-02  9.13000000E-01  8.58850000E+03  1.29723000E+03
  2.99296000E+02  8.73771000E+01  2.56789000E+01  3.74004000E+00  4.21175000E+01
  9.62837000E+00  2.85332000E+00  9.05661000E-01  2.55611000E-01  8.45000000E-02
  1.29200000E+00  8.58850000E+03  1.29723000E+03  2.99296000E+02  8.73771000E+01
  2.56789000E+01  3.74004000E+00  4.21175000E+01  9.62837000E+00  2.85332000E+00
  9.05661000E-01  2.55611000E-01  8.45000000E-02  1.29200000E+00  3.38650000E+01
  5.09479000E+00  1.15879000E+00  3.25840000E-01  1.02741000E-01  3.60000000E-02
  7.50000000E-01  3.38650000E+01  5.09479000E+00  1.15879000E+00  3.25840000E-01
  1.02741000E-01  3.60000000E-02  7.50000000E-01  3.38650000E+01  5.09479000E+00
  1.15879000E+00  3.25840000E-01  1.02741000E-01  3.60000000E-02  7.50000000E-01
  3.38650000E+01  5.09479000E+00  1.15879000E+00  3.25840000E-01  1.02741000E-01
  3.60000000E-02  7.50000000E-01  3.38650000E+01  5.09479000E+00  1.15879000E+00
  3.25840000E-01  1.02741000E-01  3.60000000E-02  7.50000000E-01  3.38650000E+01
  5.09479000E+00  1.15879000E+00  3.25840000E-01  1.02741000E-01  3.60000000E-02
  7.50000000E-01  3.38650000E+01  5.09479000E+00  1.15879000E+00  3.25840000E-01
  1.02741000E-01  3.60000000E-02  7.50000000E-01  3.38650000E+01  5.09479000E+00
  1.15879000E+00  3.25840000E-01  1.02741000E-01  3.60000000E-02  7.50000000E-01
Contraction coefficients                   R   N=         210
  1.89515008E-03  1.43859006E-02  7.07320031E-02  2.40001011E-01  5.94797026E-01
  2.80802012E-01  1.13889012E-01  9.20811101E-01 -3.27447036E-03  1.00000000E+00
  1.00000000E+00  1.00000000E+00  1.00000000E+00  7.42999957E-04  5.79299966E-03
  2.99539983E-02  1.19027993E-01  3.68431979E-01  5.77298966E-01  1.43186060E-01
  6.24465262E-01  2.83366119E-01  1.00000000E+00  1.00000000E+00  1.00000000E+00
  1.00000000E+00  1.00000000E+00  8.30900251E-03  6.40240194E-02  2.77614084E-01
  7.45076225E-01  6.13711672E-01  4.43817763E-01  1.00000000E+00  1.00000000E+00
  1.00000000E+00  1.00000000E+00  1.96665025E-03  1.52306019E-02  7.61269097E-02
  2.60801033E-01  6.16462078E-01  2.21006028E-01  1.14660081E-01  9.19999648E-01
 -3.03068213E-03  1.00000000E+00  1.00000000E+00  1.00000000E+00  1.00000000E+00
  1.96665025E-03  1.52306019E-02  7.61269097E-02  2.60801033E-01  6.16462078E-01
  2.21006028E-01  1.14660081E-01  9.19999648E-01 -3.03068213E-03  1.00000000E+00
  1.00000000E+00  1.00000000E+00  1.00000000E+00  1.96665025E-03  1.52306019E-02
  7.61269097E-02  2.60801033E-01  6.16462078E-01  2.21006028E-01  1.14660081E-01
  9.19999648E-01 -3.03068213E-03  1.00000000E+00  1.00000000E+00  1.00000000E+00
  1.00000000E+00  1.96665025E-03  1.52306019E-02  7.61269097E-02  2.60801033E-01
  6.16462078E-01  2.21006028E-01  1.14660081E-01  9.19999648E-01 -3.03068213E-03
  1.00000000E+00  1.00000000E+00  1.00000000E+00  1.00000000E+00  1.96665025E-03
  1.52306019E-02  7.61269097E-02  2.60801033E-01  6.16462078E-01  2.21006028E-01
  1.14660081E-01  9.19999648E-01 -3.03068213E-03  1.00000000E+00  1.00000000E+00
  1.00000000E+00  1.00000000E+00  1.96665025E-03  1.52306019E-02  7.61269097E-02
  2.60801033E-01  6.16462078E-01  2.21006028E-01  1.14660081E-01  9.19999648E-01
 -3.03068213E-03  1.00000000E+00  1.00000000E+00  1.00000000E+00  1.00000000E+00
  1.96978815E-03  1.49612859E-02  7.35005308E-02  2.48936766E-01  6.02459433E-01
  2.56201759E-01  1.11906080E-01  9.21666655E-01 -2.56919183E-03  1.00000000E+00
  1.00000000E+00  1.00000000E+00  1.00000000E+00  1.89515008E-03  1.43859006E-02