 Entering Gaussian System, Link 0=/apps/cent7/gaussian/g16-A.03/g16-haswell/g16/g16
 Initial command:
 /apps/cent7/gaussian/g16-A.03/g16-haswell/g16/l1.exe "/scratch/brown/finej/gaussian/Gau-91044.inp" -scrdir="/scratch/brown/finej/gaussian/"
 Entering Link 1 = /apps/cent7/gaussian/g16-A.03/g16-haswell/g16/l1.exe PID=     91045.
  
 Copyright (c) 1988,1990,1992,1993,1995,1998,2003,2009,2016,
            Gaussian, Inc.  All Rights Reserved.
  
 This is part of the Gaussian(R) 16 program.  It is based on
 the Gaussian(R) 09 system (copyright 2009, Gaussian, Inc.),
 the Gaussian(R) 03 system (copyright 2003, Gaussian, Inc.),
 the Gaussian(R) 98 system (copyright 1998, Gaussian, Inc.),
 the Gaussian(R) 94 system (copyright 1995, Gaussian, Inc.),
 the Gaussian 92(TM) system (copyright 1992, Gaussian, Inc.),
 the Gaussian 90(TM) system (copyright 1990, Gaussian, Inc.),
 the Gaussian 88(TM) system (copyright 1988, Gaussian, Inc.),
 the Gaussian 86(TM) system (copyright 1986, Carnegie Mellon
 University), and the Gaussian 82(TM) system (copyright 1983,
 Carnegie Mellon University). Gaussian is a federally registered
 trademark of Gaussian, Inc.
  
 This software contains proprietary and confidential information,
 including trade secrets, belonging to Gaussian, Inc.
  
 This software is provided under written license and may be
 used, copied, transmitted, or stored only in accord with that
 written license.
  
 The following legend is applicable only to US Government
 contracts under FAR:
  
                    RESTRICTED RIGHTS LEGEND
  
 Use, reproduction and disclosure by the US Government is
 subject to restrictions as set forth in subparagraphs (a)
 and (c) of the Commercial Computer Software - Restricted
 Rights clause in FAR 52.227-19.
  
 Gaussian, Inc.
 340 Quinnipiac St., Bldg. 40, Wallingford CT 06492
  
  
 ---------------------------------------------------------------
 Warning -- This program may not be used in any manner that
 competes with the business of Gaussian, Inc. or will provide
 assistance to any competitor of Gaussian, Inc.  The licensee
 of this program is prohibited from giving any competitor of
 Gaussian, Inc. access to this program.  By using this program,
 the user acknowledges that Gaussian, Inc. is engaged in the
 business of creating and licensing software in the field of
 computational chemistry and represents and warrants to the
 licensee that it is not a competitor of Gaussian, Inc. and that
 it will not use this program in any manner prohibited above.
 ---------------------------------------------------------------
  

 Cite this work as:
 Gaussian 16, Revision A.03,
 M. J. Frisch, G. W. Trucks, H. B. Schlegel, G. E. Scuseria, 
 M. A. Robb, J. R. Cheeseman, G. Scalmani, V. Barone, 
 G. A. Petersson, H. Nakatsuji, X. Li, M. Caricato, A. V. Marenich, 
 J. Bloino, B. G. Janesko, R. Gomperts, B. Mennucci, H. P. Hratchian, 
 J. V. Ortiz, A. F. Izmaylov, J. L. Sonnenberg, D. Williams-Young, 
 F. Ding, F. Lipparini, F. Egidi, J. Goings, B. Peng, A. Petrone, 
 T. Henderson, D. Ranasinghe, V. G. Zakrzewski, J. Gao, N. Rega, 
 G. Zheng, W. Liang, M. Hada, M. Ehara, K. Toyota, R. Fukuda, 
 J. Hasegawa, M. Ishida, T. Nakajima, Y. Honda, O. Kitao, H. Nakai, 
 T. Vreven, K. Throssell, J. A. Montgomery, Jr., J. E. Peralta, 
 F. Ogliaro, M. J. Bearpark, J. J. Heyd, E. N. Brothers, K. N. Kudin, 
 V. N. Staroverov, T. A. Keith, R. Kobayashi, J. Normand, 
 K. Raghavachari, A. P. Rendell, J. C. Burant, S. S. Iyengar, 
 J. Tomasi, M. Cossi, J. M. Millam, M. Klene, C. Adamo, R. Cammi, 
 J. W. Ochterski, R. L. Martin, K. Morokuma, O. Farkas, 
 J. B. Foresman, and D. J. Fox, Gaussian, Inc., Wallingford CT, 2016.
 
 ******************************************
 Gaussian 16:  ES64L-G16RevA.03 25-Dec-2016
                13-Oct-2019 
 ******************************************
 %chk=29_p.chk
 %nprocshared=24
 Will use up to   24 processors via shared memory.
 %mem=80GB
 -------------------------------------------------------------------
 #P opt freq m062x/6-311++g(d,p) geom=connectivity temperature=0.001
 -------------------------------------------------------------------
 1/18=20,19=15,26=3,38=1,57=2,112=-1000/1,3;
 2/9=110,12=2,17=6,18=5,40=1/2;
 3/5=4,6=6,7=1111,11=2,25=1,30=1,71=1,74=-55/1,2,3;
 4//1;
 5/5=2,38=5/2;
 6/7=2,8=2,9=2,10=2,28=1/1;
 7//1,2,3,16;
 1/18=20,19=15,26=3/3(2);
 2/9=110/2;
 99//99;
 2/9=110/2;
 3/5=4,6=6,7=1111,11=2,25=1,30=1,71=1,74=-55/1,2,3;
 4/5=5,16=3,69=1/1;
 5/5=2,38=5/2;
 7//1,2,3,16;
 1/18=20,19=15,26=3/3(-5);
 2/9=110/2;
 6/7=2,8=2,9=2,10=2,19=2,28=1/1;
 99/9=1/99;
 Leave Link    1 at Sun Oct 13 23:09:55 2019, MaxMem= 10737418240 cpu:               0.9 elap:               0.0
 (Enter /apps/cent7/gaussian/g16-A.03/g16-haswell/g16/l101.exe)
 -------------------
 Title Card Required
 -------------------
 Symbolic Z-matrix:
 Charge =  1 Multiplicity = 1
 O                    -2.3639    2.5186   -0.8329 
 S                    -1.914     0.9836   -0.7099 
 C                    -0.4772    0.8242    0.3123 
 C                    -0.263    -0.3511    1.0631 
 C                     0.8775   -0.4725    1.8779 
 C                     1.8119    0.577     1.9415 
 C                     1.6073    1.7481    1.1899 
 C                     0.467     1.8708    0.3754 
 N                    -1.5562    0.375    -2.3206 
 O                    -0.5022    1.0767   -2.7968 
 O                    -3.1387    0.1404   -0.108 
 H                    -0.9819   -1.1689    1.0133 
 H                     1.0372   -1.38      2.4602 
 H                     2.695     0.4827    2.5735 
 H                     2.3323    2.5606    1.2386 
 H                     0.3147    2.7789   -0.208 
 H                    -1.9328   -0.3335   -2.934 
 H                     0.0123    1.4193   -2.0622 
 H                    -1.70049   3.21027  -0.88832 
 
 ITRead=  0  0  0  0  0  0  0  0  0  0  0  0  0  0  0  0  0  0  0
 MicOpt= -1 -1 -1 -1 -1 -1 -1 -1 -1 -1 -1 -1 -1 -1 -1 -1 -1 -1 -1
 NAtoms=     19 NQM=       19 NQMF=       0 NMMI=      0 NMMIF=      0
                NMic=       0 NMicF=      0.
                    Isotopes and Nuclear Properties:
 (Nuclear quadrupole moments (NQMom) in fm**2, nuclear magnetic moments (NMagM)
  in nuclear magnetons)

  Atom         1           2           3           4           5           6           7           8           9          10
 IAtWgt=          16          32          12          12          12          12          12          12          14          16
 AtmWgt=  15.9949146  31.9720718  12.0000000  12.0000000  12.0000000  12.0000000  12.0000000  12.0000000  14.0030740  15.9949146
 NucSpn=           0           0           0           0           0           0           0           0           2           0
 AtZEff=  -0.0000000  -0.0000000  -0.0000000  -0.0000000  -0.0000000  -0.0000000  -0.0000000  -0.0000000  -0.0000000  -0.0000000
 NQMom=    0.0000000   0.0000000   0.0000000   0.0000000   0.0000000   0.0000000   0.0000000   0.0000000   2.0440000   0.0000000
 NMagM=    0.0000000   0.0000000   0.0000000   0.0000000   0.0000000   0.0000000   0.0000000   0.0000000   0.4037610   0.0000000
 AtZNuc=   8.0000000  16.0000000   6.0000000   6.0000000   6.0000000   6.0000000   6.0000000   6.0000000   7.0000000   8.0000000

  Atom        11          12          13          14          15          16          17          18          19
 IAtWgt=          16           1           1           1           1           1           1           1           1
 AtmWgt=  15.9949146   1.0078250   1.0078250   1.0078250   1.0078250   1.0078250   1.0078250   1.0078250   1.0078250
 NucSpn=           0           1           1           1           1           1           1           1           1
 AtZEff=  -0.0000000  -0.0000000  -0.0000000  -0.0000000  -0.0000000  -0.0000000  -0.0000000  -0.0000000  -0.0000000
 NQMom=    0.0000000   0.0000000   0.0000000   0.0000000   0.0000000   0.0000000   0.0000000   0.0000000   0.0000000
 NMagM=    0.0000000   2.7928460   2.7928460   2.7928460   2.7928460   2.7928460   2.7928460   2.7928460   2.7928460
 AtZNuc=   8.0000000   1.0000000   1.0000000   1.0000000   1.0000000   1.0000000   1.0000000   1.0000000   1.0000000
 Leave Link  101 at Sun Oct 13 23:09:55 2019, MaxMem= 10737418240 cpu:               8.3 elap:               0.4
 (Enter /apps/cent7/gaussian/g16-A.03/g16-haswell/g16/l103.exe)

 GradGradGradGradGradGradGradGradGradGradGradGradGradGradGradGradGradGrad
 Berny optimization.
 Initialization pass.
                           ----------------------------
                           !    Initial Parameters    !
                           ! (Angstroms and Degrees)  !
 --------------------------                            --------------------------
 ! Name  Definition              Value          Derivative Info.                !
 --------------------------------------------------------------------------------
 ! R1    R(1,2)                  1.6043         estimate D2E/DX2                !
 ! R2    R(1,19)                 0.96           estimate D2E/DX2                !
 ! R3    R(2,3)                  1.7705         estimate D2E/DX2                !
 ! R4    R(2,9)                  1.7586         estimate D2E/DX2                !
 ! R5    R(2,11)                 1.6041         estimate D2E/DX2                !
 ! R6    R(3,4)                  1.411          estimate D2E/DX2                !
 ! R7    R(3,8)                  1.411          estimate D2E/DX2                !
 ! R8    R(4,5)                  1.4069         estimate D2E/DX2                !
 ! R9    R(4,12)                 1.09           estimate D2E/DX2                !
 ! R10   R(5,6)                  1.4066         estimate D2E/DX2                !
 ! R11   R(5,13)                 1.09           estimate D2E/DX2                !
 ! R12   R(6,7)                  1.4065         estimate D2E/DX2                !
 ! R13   R(6,14)                 1.09           estimate D2E/DX2                !
 ! R14   R(7,8)                  1.4067         estimate D2E/DX2                !
 ! R15   R(7,15)                 1.09           estimate D2E/DX2                !
 ! R16   R(8,16)                 1.09           estimate D2E/DX2                !
 ! R17   R(9,10)                 1.3528         estimate D2E/DX2                !
 ! R18   R(9,17)                 1.01           estimate D2E/DX2                !
 ! R19   R(10,18)                0.9601         estimate D2E/DX2                !
 ! A1    A(2,1,19)             120.0            estimate D2E/DX2                !
 ! A2    A(1,2,3)              110.9765         estimate D2E/DX2                !
 ! A3    A(1,2,9)              108.5392         estimate D2E/DX2                !
 ! A4    A(1,2,11)             108.5184         estimate D2E/DX2                !
 ! A5    A(3,2,9)              109.4219         estimate D2E/DX2                !
 ! A6    A(3,2,11)             110.8312         estimate D2E/DX2                !
 ! A7    A(9,2,11)             108.4868         estimate D2E/DX2                !
 ! A8    A(2,3,4)              120.3577         estimate D2E/DX2                !
 ! A9    A(2,3,8)              120.1384         estimate D2E/DX2                !
 ! A10   A(4,3,8)              119.5028         estimate D2E/DX2                !
 ! A11   A(3,4,5)              120.2055         estimate D2E/DX2                !
 ! A12   A(3,4,12)             120.034          estimate D2E/DX2                !
 ! A13   A(5,4,12)             119.7605         estimate D2E/DX2                !
 ! A14   A(4,5,6)              120.0201         estimate D2E/DX2                !
 ! A15   A(4,5,13)             119.9997         estimate D2E/DX2                !
 ! A16   A(6,5,13)             119.9802         estimate D2E/DX2                !
 ! A17   A(5,6,7)              120.0294         estimate D2E/DX2                !
 ! A18   A(5,6,14)             119.9896         estimate D2E/DX2                !
 ! A19   A(7,6,14)             119.981          estimate D2E/DX2                !
 ! A20   A(6,7,8)              119.9977         estimate D2E/DX2                !
 ! A21   A(6,7,15)             120.0009         estimate D2E/DX2                !
 ! A22   A(8,7,15)             120.0014         estimate D2E/DX2                !
 ! A23   A(3,8,7)              120.2419         estimate D2E/DX2                !
 ! A24   A(3,8,16)             120.0339         estimate D2E/DX2                !
 ! A25   A(7,8,16)             119.7242         estimate D2E/DX2                !
 ! A26   A(2,9,10)             107.5425         estimate D2E/DX2                !
 ! A27   A(2,9,17)             136.3154         estimate D2E/DX2                !
 ! A28   A(10,9,17)            116.1421         estimate D2E/DX2                !
 ! A29   A(9,10,18)            109.4686         estimate D2E/DX2                !
 ! D1    D(19,1,2,3)            37.4919         estimate D2E/DX2                !
 ! D2    D(19,1,2,9)           -82.7855         estimate D2E/DX2                !
 ! D3    D(19,1,2,11)          159.5022         estimate D2E/DX2                !
 ! D4    D(1,2,3,4)            150.2376         estimate D2E/DX2                !
 ! D5    D(1,2,3,8)            -30.1347         estimate D2E/DX2                !
 ! D6    D(9,2,3,4)            -90.0105         estimate D2E/DX2                !
 ! D7    D(9,2,3,8)             89.6172         estimate D2E/DX2                !
 ! D8    D(11,2,3,4)            29.5859         estimate D2E/DX2                !
 ! D9    D(11,2,3,8)          -150.7864         estimate D2E/DX2                !
 ! D10   D(1,2,9,10)            63.694          estimate D2E/DX2                !
 ! D11   D(1,2,9,17)          -116.2995         estimate D2E/DX2                !
 ! D12   D(3,2,9,10)           -57.5446         estimate D2E/DX2                !
 ! D13   D(3,2,9,17)           122.462          estimate D2E/DX2                !
 ! D14   D(11,2,9,10)         -178.5737         estimate D2E/DX2                !
 ! D15   D(11,2,9,17)            1.4329         estimate D2E/DX2                !
 ! D16   D(2,3,4,5)           -179.7806         estimate D2E/DX2                !
 ! D17   D(2,3,4,12)             0.2223         estimate D2E/DX2                !
 ! D18   D(8,3,4,5)              0.5893         estimate D2E/DX2                !
 ! D19   D(8,3,4,12)          -179.4078         estimate D2E/DX2                !
 ! D20   D(2,3,8,7)            179.8103         estimate D2E/DX2                !
 ! D21   D(2,3,8,16)            -0.1825         estimate D2E/DX2                !
 ! D22   D(4,3,8,7)             -0.5588         estimate D2E/DX2                !
 ! D23   D(4,3,8,16)           179.4483         estimate D2E/DX2                !
 ! D24   D(3,4,5,6)             -0.2891         estimate D2E/DX2                !
 ! D25   D(3,4,5,13)           179.7057         estimate D2E/DX2                !
 ! D26   D(12,4,5,6)           179.708          estimate D2E/DX2                !
 ! D27   D(12,4,5,13)           -0.2971         estimate D2E/DX2                !
 ! D28   D(4,5,6,7)             -0.0462         estimate D2E/DX2                !
 ! D29   D(4,5,6,14)           179.9566         estimate D2E/DX2                !
 ! D30   D(13,5,6,7)           179.959          estimate D2E/DX2                !
 ! D31   D(13,5,6,14)           -0.0383         estimate D2E/DX2                !
 ! D32   D(5,6,7,8)              0.0768         estimate D2E/DX2                !
 ! D33   D(5,6,7,15)          -179.9259         estimate D2E/DX2                !
 ! D34   D(14,6,7,8)          -179.9259         estimate D2E/DX2                !
 ! D35   D(14,6,7,15)            0.0714         estimate D2E/DX2                !
 ! D36   D(6,7,8,3)              0.2278         estimate D2E/DX2                !
 ! D37   D(6,7,8,16)          -179.7793         estimate D2E/DX2                !
 ! D38   D(15,7,8,3)          -179.7695         estimate D2E/DX2                !
 ! D39   D(15,7,8,16)            0.2233         estimate D2E/DX2                !
 ! D40   D(2,9,10,18)           24.8538         estimate D2E/DX2                !
 ! D41   D(17,9,10,18)        -155.1513         estimate D2E/DX2                !
 --------------------------------------------------------------------------------
 Trust Radius=3.00D-01 FncErr=1.00D-07 GrdErr=1.00D-06 EigMax=2.50D+02 EigMin=1.00D-04
 Number of steps in this run=     99 maximum allowed number of steps=    114.
 GradGradGradGradGradGradGradGradGradGradGradGradGradGradGradGradGradGrad

 Leave Link  103 at Sun Oct 13 23:09:55 2019, MaxMem= 10737418240 cpu:               0.3 elap:               0.0
 (Enter /apps/cent7/gaussian/g16-A.03/g16-haswell/g16/l202.exe)
                          Input orientation:                          
 ---------------------------------------------------------------------
 Center     Atomic      Atomic             Coordinates (Angstroms)
 Number     Number       Type             X           Y           Z
 ---------------------------------------------------------------------
      1          8           0       -2.363900    2.518600   -0.832900
      2         16           0       -1.914000    0.983600   -0.709900
      3          6           0       -0.477200    0.824200    0.312300
      4          6           0       -0.263000   -0.351100    1.063100
      5          6           0        0.877500   -0.472500    1.877900
      6          6           0        1.811900    0.577000    1.941500
      7          6           0        1.607300    1.748100    1.189900
      8          6           0        0.467000    1.870800    0.375400
      9          7           0       -1.556200    0.375000   -2.320600
     10          8           0       -0.502200    1.076700   -2.796800
     11          8           0       -3.138700    0.140400   -0.108000
     12          1           0       -0.981900   -1.168900    1.013300
     13          1           0        1.037200   -1.380000    2.460200
     14          1           0        2.695000    0.482700    2.573500
     15          1           0        2.332300    2.560600    1.238600
     16          1           0        0.314700    2.778900   -0.208000
     17          1           0       -1.932800   -0.333500   -2.934000
     18          1           0        0.012300    1.419300   -2.062200
     19          1           0       -1.700485    3.210271   -0.888324
 ---------------------------------------------------------------------
                    Distance matrix (angstroms):
                    1          2          3          4          5
     1  O    0.000000
     2  S    1.604295   0.000000
     3  C    2.782465   1.770507   0.000000
     4  C    4.030357   2.766000   1.410997   0.000000
     5  C    5.177045   4.075464   2.442897   1.406903   0.000000
     6  C    5.376282   4.591032   2.820528   2.436835   1.406627
     7  C    4.522811   4.073482   2.443136   2.814381   2.436599
     8  C    3.145414   2.762999   1.410981   2.437759   2.813729
     9  N    2.731419   1.758627   2.880657   3.694457   4.926312
    10  O    3.066253   2.521309   3.119436   4.122458   5.114334
    11  O    2.604156   1.604107   2.779895   3.143676   4.522091
    12  H    4.349257   2.910582   2.172227   1.089997   2.165612
    13  H    6.132787   4.934138   3.430070   2.168189   1.090015
    14  H    6.429690   5.681065   3.910563   3.424368   2.167850
    15  H    5.132950   4.930988   3.430220   3.904405   3.424156
    16  H    2.762816   2.905531   2.172250   3.427292   3.903758
    17  H    3.568605   2.584904   3.741324   4.331899   5.574181
    18  H    2.892398   2.393571   2.496398   3.602444   4.455543
    19  H    0.960000   2.243989   2.937900   4.307874   5.278333
                    6          7          8          9         10
     6  C    0.000000
     7  C    1.406499   0.000000
     8  C    2.436256   1.406680   0.000000
     9  N    5.436028   4.921051   3.687706   0.000000
    10  O    5.296815   4.560104   3.410689   1.352799   0.000000
    11  O    5.375826   5.176269   4.028527   2.730374   3.880391
    12  H    3.422724   3.904361   3.427244   3.718647   4.448561
    13  H    2.167731   3.423987   3.903744   5.715050   6.003430
    14  H    1.090038   2.167643   3.423806   6.483557   6.278140
    15  H    2.167845   1.090024   2.168013   5.706591   5.149835
    16  H    3.422035   2.165061   1.090044   3.707031   3.204169
    17  H    6.214683   5.819959   4.644363   1.009980   2.013481
    18  H    4.469636   3.637071   2.520416   1.901979   0.960064
    19  H    5.222918   4.171139   2.844147   3.179779   3.103272
                   11         12         13         14         15
    11  O    0.000000
    12  H    2.761044   0.000000
    13  H    5.132778   2.492960   0.000000
    14  H    6.429593   4.322222   2.496155   0.000000
    15  H    6.132091   4.994382   4.324109   2.496233   0.000000
    16  H    4.347143   4.331036   4.993771   4.321470   2.492191
    17  H    3.108867   4.145272   6.246075   7.239839   6.631552
    18  H    3.922153   4.140762   5.416512   5.437262   4.192880
    19  H    3.478718   4.828010   6.306990   6.224480   4.605348
                   16         17         18         19
    16  H    0.000000
    17  H    4.708436   0.000000
    18  H    2.319055   2.759666   0.000000
    19  H    2.170229   4.098423   2.742115   0.000000
 Stoichiometry    C6H8NO3S(1+)
 Framework group  C1[X(C6H8NO3S)]
 Deg. of freedom    51
 Full point group                 C1      NOp   1
 Largest Abelian subgroup         C1      NOp   1
 Largest concise Abelian subgroup C1      NOp   1
                         Standard orientation:                         
 ---------------------------------------------------------------------
 Center     Atomic      Atomic             Coordinates (Angstroms)
 Number     Number       Type             X           Y           Z
 ---------------------------------------------------------------------
      1          8           0       -1.823852   -0.450699   -1.526011
      2         16           0       -1.256377    0.355200   -0.260205
      3          6           0        0.498130    0.162807   -0.120976
      4          6           0        1.284702    1.186062    0.449256
      5          6           0        2.679179    1.031731    0.554111
      6          6           0        3.293141   -0.147783    0.095421
      7          6           0        2.513422   -1.174147   -0.467477
      8          6           0        1.119162   -1.020623   -0.573391
      9          7           0       -2.029918   -0.267035    1.191424
     10          8           0       -1.660685   -1.561351    1.327361
     11          8           0       -1.649513    1.901848   -0.422943
     12          1           0        0.812807    2.099835    0.810405
     13          1           0        3.284145    1.826358    0.990823
     14          1           0        4.373671   -0.266535    0.176257
     15          1           0        2.989539   -2.088484   -0.821672
     16          1           0        0.518758   -1.820388   -1.007082
     17          1           0       -2.647916    0.096478    1.902758
     18          1           0       -0.822669   -1.703603    0.881026
     19          1           0       -1.450881   -1.304290   -1.758120
 ---------------------------------------------------------------------
 Rotational constants (GHZ):           1.6912991           0.6811592           0.6208016
 Leave Link  202 at Sun Oct 13 23:09:55 2019, MaxMem= 10737418240 cpu:               0.4 elap:               0.0
 (Enter /apps/cent7/gaussian/g16-A.03/g16-haswell/g16/l301.exe)
 Standard basis: 6-311++G(d,p) (5D, 7F)
 Ernie: Thresh=  0.10000D-02 Tol=  0.10000D-05 Strict=F.
 There are   317 symmetry adapted cartesian basis functions of A   symmetry.
 There are   306 symmetry adapted basis functions of A   symmetry.
   306 basis functions,   482 primitive gaussians,   317 cartesian basis functions
    45 alpha electrons       45 beta electrons
       nuclear repulsion energy       743.9699642776 Hartrees.
 IExCor= 4336 DFT=T Ex+Corr=M062X ExCW=0 ScaHFX=  0.540000
 ScaDFX=  1.000000  1.000000  1.000000  1.000000 ScalE2=  1.000000  1.000000
 IRadAn=      5 IRanWt=     -1 IRanGd=            0 ICorTp=0 IEmpDi=  4
 NAtoms=   19 NActive=   19 NUniq=   19 SFac= 1.00D+00 NAtFMM=   60 NAOKFM=F Big=F
 Integral buffers will be    131072 words long.
 Raffenetti 2 integral format.
 Two-electron integral symmetry is turned on.
 Leave Link  301 at Sun Oct 13 23:09:56 2019, MaxMem= 10737418240 cpu:               2.2 elap:               0.1
 (Enter /apps/cent7/gaussian/g16-A.03/g16-haswell/g16/l302.exe)
 NPDir=0 NMtPBC=     1 NCelOv=     1 NCel=       1 NClECP=     1 NCelD=      1
         NCelK=      1 NCelE2=     1 NClLst=     1 CellRange=     0.0.
 One-electron integrals computed using PRISM.
 One-electron integral symmetry used in STVInt
 NBasis=   306 RedAO= T EigKep=  2.09D-06  NBF=   306
 NBsUse=   305 1.00D-06 EigRej=  8.66D-07 NBFU=   305
 Precomputing XC quadrature grid using
 IXCGrd= 4 IRadAn=           5 IRanWt=          -1 IRanGd=           0 AccXCQ= 0.00D+00.
 Generated NRdTot=       0 NPtTot=           0 NUsed=           0 NTot=          32
 NSgBfM=   317   317   317   317   317 MxSgAt=    19 MxSgA2=    19.
 Leave Link  302 at Sun Oct 13 23:09:56 2019, MaxMem= 10737418240 cpu:               5.0 elap:               0.2
 (Enter /apps/cent7/gaussian/g16-A.03/g16-haswell/g16/l303.exe)
 DipDrv:  MaxL=1.
 Leave Link  303 at Sun Oct 13 23:09:56 2019, MaxMem= 10737418240 cpu:               1.0 elap:               0.1
 (Enter /apps/cent7/gaussian/g16-A.03/g16-haswell/g16/l401.exe)
 ExpMin= 3.60D-02 ExpMax= 9.34D+04 ExpMxC= 3.17D+03 IAcc=3 IRadAn=         5 AccDes= 0.00D+00
 Harris functional with IExCor= 1009 and IRadAn=       5 diagonalized for initial guess.
 HarFok:  IExCor= 1009 AccDes= 0.00D+00 IRadAn=         5 IDoV= 1 UseB2=F ITyADJ=14
 ICtDFT=  3500011 ScaDFX=  1.000000  1.000000  1.000000  1.000000
 FoFCou: FMM=F IPFlag=           0 FMFlag=      100000 FMFlg1=           0
         NFxFlg=           0 DoJE=T BraDBF=F KetDBF=T FulRan=T
         wScrn=  0.000000 ICntrl=       500 IOpCl=  0 I1Cent=   200000004 NGrid=           0
         NMat0=    1 NMatS0=      1 NMatT0=    0 NMatD0=    1 NMtDS0=    0 NMtDT0=    0
 Petite list used in FoFCou.
 Harris En= -911.243464319968    
 JPrj=0 DoOrth=F DoCkMO=F.
 Leave Link  401 at Sun Oct 13 23:09:56 2019, MaxMem= 10737418240 cpu:              11.6 elap:               0.5
 (Enter /apps/cent7/gaussian/g16-A.03/g16-haswell/g16/l502.exe)
 Integral symmetry usage will be decided dynamically.
 Closed shell SCF:
 Using DIIS extrapolation, IDIIS=  1040.
 NGot= 10737418240 LenX= 10737206572 LenY= 10737105642
 Requested convergence on RMS density matrix=1.00D-08 within 128 cycles.
 Requested convergence on MAX density matrix=1.00D-06.
 Requested convergence on             energy=1.00D-06.
 No special actions if energy rises.
 Fock matrices will be formed incrementally for  20 cycles.

 Cycle   1  Pass 1  IDiag  1:
 FoFJK:  IHMeth= 1 ICntrl=       0 DoSepK=F KAlg= 0 I1Cent=           0 FoldK=F
 IRaf= 930000000 NMat=       1 IRICut=       1 DoRegI=T DoRafI=F ISym2E= 0 IDoP0=0 IntGTp=1.
 FoFCou: FMM=F IPFlag=           0 FMFlag=      100000 FMFlg1=           0
         NFxFlg=           0 DoJE=F BraDBF=F KetDBF=F FulRan=T
         wScrn=  0.000000 ICntrl=         0 IOpCl=  0 I1Cent=           0 NGrid=           0
         NMat0=    1 NMatS0=      1 NMatT0=    0 NMatD0=    1 NMtDS0=    0 NMtDT0=    0
 Symmetry not used in FoFCou.
 E= -910.981664186309    
 DIIS: error= 2.60D-02 at cycle   1 NSaved=   1.
 NSaved= 1 IEnMin= 1 EnMin= -910.981664186309     IErMin= 1 ErrMin= 2.60D-02
 ErrMax= 2.60D-02  0.00D+00 EMaxC= 1.00D-01 BMatC= 7.09D-01 BMatP= 7.09D-01
 IDIUse=3 WtCom= 7.40D-01 WtEn= 2.60D-01
 Coeff-Com:  0.100D+01
 Coeff-En:   0.100D+01
 Coeff:      0.100D+01
 Gap=     0.374 Goal=   None    Shift=    0.000
 GapD=    0.374 DampG=1.000 DampE=0.500 DampFc=0.5000 IDamp=-1.
 Damping current iteration by 5.00D-01
 RMSDP=4.11D-01 MaxDP=4.34D+01              OVMax= 3.41D-01

 Cycle   2  Pass 1  IDiag  1:
 RMSU=  5.74D-02    CP:  2.49D+00
 E= -911.004096690518     Delta-E=       -0.022432504209 Rises=F Damp=T
 DIIS: error= 1.44D-02 at cycle   2 NSaved=   2.
 NSaved= 2 IEnMin= 2 EnMin= -911.004096690518     IErMin= 2 ErrMin= 1.44D-02
 ErrMax= 1.44D-02  0.00D+00 EMaxC= 1.00D-01 BMatC= 1.54D-01 BMatP= 7.09D-01
 IDIUse=3 WtCom= 8.56D-01 WtEn= 1.44D-01
 Coeff-Com:  0.247D+00 0.753D+00
 Coeff-En:   0.481D+00 0.519D+00
 Coeff:      0.281D+00 0.719D+00
 Gap=     0.245 Goal=   None    Shift=    0.000
 RMSDP=1.02D-01 MaxDP=1.07D+01 DE=-2.24D-02 OVMax= 3.12D-01

 Cycle   3  Pass 1  IDiag  1:
 RMSU=  1.68D-02    CP:  1.79D+00  3.46D-01
 E= -911.425054082337     Delta-E=       -0.420957391819 Rises=F Damp=F
 DIIS: error= 1.40D-02 at cycle   3 NSaved=   3.
 NSaved= 3 IEnMin= 3 EnMin= -911.425054082337     IErMin= 3 ErrMin= 1.40D-02
 ErrMax= 1.40D-02  0.00D+00 EMaxC= 1.00D-01 BMatC= 8.11D-02 BMatP= 1.54D-01
 IDIUse=3 WtCom= 8.60D-01 WtEn= 1.40D-01
 Coeff-Com:  0.386D-01 0.410D+00 0.552D+00
 Coeff-En:   0.000D+00 0.000D+00 0.100D+01
 Coeff:      0.332D-01 0.353D+00 0.614D+00
 Gap=     0.268 Goal=   None    Shift=    0.000
 RMSDP=3.20D-02 MaxDP=2.70D+00 DE=-4.21D-01 OVMax= 7.99D-02

 Cycle   4  Pass 1  IDiag  1:
 RMSU=  8.17D-03    CP:  1.96D+00  6.44D-01  2.29D-01
 E= -911.479312538169     Delta-E=       -0.054258455832 Rises=F Damp=F
 DIIS: error= 4.54D-03 at cycle   4 NSaved=   4.
 NSaved= 4 IEnMin= 4 EnMin= -911.479312538169     IErMin= 4 ErrMin= 4.54D-03
 ErrMax= 4.54D-03  0.00D+00 EMaxC= 1.00D-01 BMatC= 1.66D-02 BMatP= 8.11D-02
 IDIUse=3 WtCom= 9.55D-01 WtEn= 4.54D-02
 Coeff-Com: -0.234D-01 0.810D-01 0.340D+00 0.602D+00
 Coeff-En:   0.000D+00 0.000D+00 0.158D+00 0.842D+00
 Coeff:     -0.223D-01 0.774D-01 0.332D+00 0.613D+00
 Gap=     0.256 Goal=   None    Shift=    0.000
 RMSDP=7.72D-03 MaxDP=6.21D-01 DE=-5.43D-02 OVMax= 3.27D-02

 Cycle   5  Pass 1  IDiag  1:
 RMSU=  1.39D-03    CP:  1.95D+00  5.68D-01  5.60D-01  6.78D-01
 E= -911.491844328134     Delta-E=       -0.012531789965 Rises=F Damp=F
 DIIS: error= 9.64D-04 at cycle   5 NSaved=   5.
 NSaved= 5 IEnMin= 5 EnMin= -911.491844328134     IErMin= 5 ErrMin= 9.64D-04
 ErrMax= 9.64D-04  0.00D+00 EMaxC= 1.00D-01 BMatC= 4.98D-04 BMatP= 1.66D-02
 IDIUse=3 WtCom= 9.90D-01 WtEn= 9.64D-03
 Coeff-Com: -0.102D-01 0.719D-02 0.720D-01 0.220D+00 0.711D+00
 Coeff-En:   0.000D+00 0.000D+00 0.000D+00 0.000D+00 0.100D+01
 Coeff:     -0.101D-01 0.712D-02 0.713D-01 0.218D+00 0.714D+00
 Gap=     0.255 Goal=   None    Shift=    0.000
 RMSDP=1.92D-03 MaxDP=1.33D-01 DE=-1.25D-02 OVMax= 7.96D-03

 Cycle   6  Pass 1  IDiag  1:
 RMSU=  4.49D-04    CP:  1.94D+00  5.79D-01  4.89D-01  7.55D-01  8.62D-01
 E= -911.492214999282     Delta-E=       -0.000370671148 Rises=F Damp=F
 DIIS: error= 8.63D-04 at cycle   6 NSaved=   6.
 NSaved= 6 IEnMin= 6 EnMin= -911.492214999282     IErMin= 6 ErrMin= 8.63D-04
 ErrMax= 8.63D-04  0.00D+00 EMaxC= 1.00D-01 BMatC= 1.19D-04 BMatP= 4.98D-04
 IDIUse=3 WtCom= 9.91D-01 WtEn= 8.63D-03
 Coeff-Com: -0.232D-02-0.430D-02-0.417D-02 0.367D-01 0.385D+00 0.589D+00
 Coeff-En:   0.000D+00 0.000D+00 0.000D+00 0.000D+00 0.109D+00 0.891D+00
 Coeff:     -0.230D-02-0.426D-02-0.414D-02 0.364D-01 0.382D+00 0.592D+00
 Gap=     0.256 Goal=   None    Shift=    0.000
 RMSDP=5.48D-04 MaxDP=3.92D-02 DE=-3.71D-04 OVMax= 4.05D-03

 Cycle   7  Pass 1  IDiag  1:
 RMSU=  1.74D-04    CP:  1.94D+00  5.74D-01  5.03D-01  7.38D-01  9.56D-01
                    CP:  6.69D-01
 E= -911.492340629469     Delta-E=       -0.000125630187 Rises=F Damp=F
 DIIS: error= 2.05D-04 at cycle   7 NSaved=   7.
 NSaved= 7 IEnMin= 7 EnMin= -911.492340629469     IErMin= 7 ErrMin= 2.05D-04
 ErrMax= 2.05D-04  0.00D+00 EMaxC= 1.00D-01 BMatC= 6.75D-06 BMatP= 1.19D-04
 IDIUse=3 WtCom= 9.98D-01 WtEn= 2.05D-03
 Coeff-Com:  0.678D-03-0.278D-02-0.114D-01-0.181D-01 0.406D-01 0.203D+00
 Coeff-Com:  0.788D+00
 Coeff-En:   0.000D+00 0.000D+00 0.000D+00 0.000D+00 0.000D+00 0.000D+00
 Coeff-En:   0.100D+01
 Coeff:      0.677D-03-0.278D-02-0.114D-01-0.181D-01 0.405D-01 0.203D+00
 Coeff:      0.788D+00
 Gap=     0.256 Goal=   None    Shift=    0.000
 RMSDP=2.03D-04 MaxDP=1.63D-02 DE=-1.26D-04 OVMax= 1.02D-03

 Cycle   8  Pass 1  IDiag  1:
 RMSU=  5.87D-05    CP:  1.94D+00  5.72D-01  5.07D-01  7.36D-01  9.87D-01
                    CP:  7.08D-01  1.01D+00
 E= -911.492350517872     Delta-E=       -0.000009888403 Rises=F Damp=F
 DIIS: error= 3.81D-05 at cycle   8 NSaved=   8.
 NSaved= 8 IEnMin= 8 EnMin= -911.492350517872     IErMin= 8 ErrMin= 3.81D-05
 ErrMax= 3.81D-05  0.00D+00 EMaxC= 1.00D-01 BMatC= 9.43D-07 BMatP= 6.75D-06
 IDIUse=1 WtCom= 1.00D+00 WtEn= 0.00D+00
 Coeff-Com:  0.569D-03-0.647D-03-0.436D-02-0.123D-01-0.349D-01 0.805D-02
 Coeff-Com:  0.299D+00 0.745D+00
 Coeff:      0.569D-03-0.647D-03-0.436D-02-0.123D-01-0.349D-01 0.805D-02
 Coeff:      0.299D+00 0.745D+00
 Gap=     0.256 Goal=   None    Shift=    0.000
 RMSDP=1.40D-04 MaxDP=1.21D-02 DE=-9.89D-06 OVMax= 4.71D-04

 Cycle   9  Pass 1  IDiag  1:
 RMSU=  2.28D-05    CP:  1.94D+00  5.71D-01  5.09D-01  7.34D-01  1.01D+00
                    CP:  7.17D-01  1.09D+00  1.03D+00
 E= -911.492351903146     Delta-E=       -0.000001385274 Rises=F Damp=F
 DIIS: error= 1.62D-05 at cycle   9 NSaved=   9.
 NSaved= 9 IEnMin= 9 EnMin= -911.492351903146     IErMin= 9 ErrMin= 1.62D-05
 ErrMax= 1.62D-05  0.00D+00 EMaxC= 1.00D-01 BMatC= 1.21D-07 BMatP= 9.43D-07
 IDIUse=1 WtCom= 1.00D+00 WtEn= 0.00D+00
 Coeff-Com:  0.157D-03 0.269D-04-0.548D-03-0.242D-02-0.181D-01-0.169D-01
 Coeff-Com:  0.251D-01 0.252D+00 0.760D+00
 Coeff:      0.157D-03 0.269D-04-0.548D-03-0.242D-02-0.181D-01-0.169D-01
 Coeff:      0.251D-01 0.252D+00 0.760D+00
 Gap=     0.256 Goal=   None    Shift=    0.000
 RMSDP=8.23D-05 MaxDP=8.42D-03 DE=-1.39D-06 OVMax= 2.35D-04

 Cycle  10  Pass 1  IDiag  1:
 RMSU=  8.51D-06    CP:  1.94D+00  5.71D-01  5.09D-01  7.34D-01  1.01D+00
                    CP:  7.26D-01  1.14D+00  1.11D+00  9.08D-01
 E= -911.492352086905     Delta-E=       -0.000000183759 Rises=F Damp=F
 DIIS: error= 5.58D-06 at cycle  10 NSaved=  10.
 NSaved=10 IEnMin=10 EnMin= -911.492352086905     IErMin=10 ErrMin= 5.58D-06
 ErrMax= 5.58D-06  0.00D+00 EMaxC= 1.00D-01 BMatC= 1.84D-08 BMatP= 1.21D-07
 IDIUse=1 WtCom= 1.00D+00 WtEn= 0.00D+00
 Coeff-Com: -0.211D-04 0.798D-04 0.451D-03 0.121D-02-0.114D-02-0.732D-02
 Coeff-Com: -0.365D-01-0.467D-01 0.257D+00 0.833D+00
 Coeff:     -0.211D-04 0.798D-04 0.451D-03 0.121D-02-0.114D-02-0.732D-02
 Coeff:     -0.365D-01-0.467D-01 0.257D+00 0.833D+00
 Gap=     0.256 Goal=   None    Shift=    0.000
 RMSDP=1.24D-05 MaxDP=6.60D-04 DE=-1.84D-07 OVMax= 1.34D-04

 Cycle  11  Pass 1  IDiag  1:
 RMSU=  3.07D-06    CP:  1.94D+00  5.71D-01  5.09D-01  7.34D-01  1.01D+00
                    CP:  7.29D-01  1.14D+00  1.15D+00  1.09D+00  1.01D+00
 E= -911.492352120054     Delta-E=       -0.000000033149 Rises=F Damp=F
 DIIS: error= 1.82D-06 at cycle  11 NSaved=  11.
 NSaved=11 IEnMin=11 EnMin= -911.492352120054     IErMin=11 ErrMin= 1.82D-06
 ErrMax= 1.82D-06  0.00D+00 EMaxC= 1.00D-01 BMatC= 1.78D-09 BMatP= 1.84D-08
 IDIUse=1 WtCom= 1.00D+00 WtEn= 0.00D+00
 Coeff-Com: -0.862D-05 0.745D-05 0.149D-03 0.449D-03 0.120D-02-0.708D-03
 Coeff-Com: -0.910D-02-0.347D-01-0.740D-02 0.227D+00 0.823D+00
 Coeff:     -0.862D-05 0.745D-05 0.149D-03 0.449D-03 0.120D-02-0.708D-03
 Coeff:     -0.910D-02-0.347D-01-0.740D-02 0.227D+00 0.823D+00
 Gap=     0.256 Goal=   None    Shift=    0.000
 RMSDP=5.28D-06 MaxDP=4.88D-04 DE=-3.31D-08 OVMax= 5.22D-05

 Cycle  12  Pass 1  IDiag  1:
 RMSU=  9.16D-07    CP:  1.94D+00  5.71D-01  5.09D-01  7.34D-01  1.01D+00
                    CP:  7.30D-01  1.15D+00  1.16D+00  1.11D+00  1.14D+00
                    CP:  1.13D+00
 E= -911.492352123651     Delta-E=       -0.000000003597 Rises=F Damp=F
 DIIS: error= 7.33D-07 at cycle  12 NSaved=  12.
 NSaved=12 IEnMin=12 EnMin= -911.492352123651     IErMin=12 ErrMin= 7.33D-07
 ErrMax= 7.33D-07  0.00D+00 EMaxC= 1.00D-01 BMatC= 5.27D-10 BMatP= 1.78D-09
 IDIUse=1 WtCom= 1.00D+00 WtEn= 0.00D+00
 Coeff-Com:  0.671D-07-0.753D-05 0.127D-04 0.342D-04 0.764D-03 0.639D-03
 Coeff-Com:  0.147D-02-0.965D-02-0.408D-01-0.109D-01 0.395D+00 0.663D+00
 Coeff:      0.671D-07-0.753D-05 0.127D-04 0.342D-04 0.764D-03 0.639D-03
 Coeff:      0.147D-02-0.965D-02-0.408D-01-0.109D-01 0.395D+00 0.663D+00
 Gap=     0.256 Goal=   None    Shift=    0.000
 RMSDP=1.09D-06 MaxDP=4.71D-05 DE=-3.60D-09 OVMax= 2.24D-05

 Cycle  13  Pass 1  IDiag  1:
 RMSU=  6.06D-07    CP:  1.94D+00  5.71D-01  5.09D-01  7.34D-01  1.01D+00
                    CP:  7.30D-01  1.15D+00  1.16D+00  1.14D+00  1.13D+00
                    CP:  1.25D+00  1.06D+00
 E= -911.492352124653     Delta-E=       -0.000000001002 Rises=F Damp=F
 DIIS: error= 4.53D-07 at cycle  13 NSaved=  13.
 NSaved=13 IEnMin=13 EnMin= -911.492352124653     IErMin=13 ErrMin= 4.53D-07
 ErrMax= 4.53D-07  0.00D+00 EMaxC= 1.00D-01 BMatC= 5.49D-11 BMatP= 5.27D-10
 IDIUse=1 WtCom= 1.00D+00 WtEn= 0.00D+00
 Coeff-Com:  0.830D-06-0.230D-05-0.198D-04-0.696D-04-0.118D-03 0.133D-03
 Coeff-Com:  0.193D-02 0.613D-02-0.226D-02-0.530D-01-0.140D+00 0.103D+00
 Coeff-Com:  0.108D+01
 Coeff:      0.830D-06-0.230D-05-0.198D-04-0.696D-04-0.118D-03 0.133D-03
 Coeff:      0.193D-02 0.613D-02-0.226D-02-0.530D-01-0.140D+00 0.103D+00
 Coeff:      0.108D+01
 Gap=     0.256 Goal=   None    Shift=    0.000
 RMSDP=1.43D-06 MaxDP=1.40D-04 DE=-1.00D-09 OVMax= 1.88D-05

 Cycle  14  Pass 1  IDiag  1:
 RMSU=  1.64D-07    CP:  1.94D+00  5.71D-01  5.09D-01  7.34D-01  1.01D+00
                    CP:  7.30D-01  1.15D+00  1.16D+00  1.16D+00  1.14D+00
                    CP:  1.36D+00  1.41D+00  1.07D+00
 E= -911.492352124901     Delta-E=       -0.000000000247 Rises=F Damp=F
 DIIS: error= 2.75D-07 at cycle  14 NSaved=  14.
 NSaved=14 IEnMin=14 EnMin= -911.492352124901     IErMin=14 ErrMin= 2.75D-07
 ErrMax= 2.75D-07  0.00D+00 EMaxC= 1.00D-01 BMatC= 1.31D-11 BMatP= 5.49D-11
 IDIUse=1 WtCom= 1.00D+00 WtEn= 0.00D+00
 Coeff-Com:  0.354D-06-0.122D-06-0.102D-04-0.310D-04-0.154D-03-0.496D-04
 Coeff-Com:  0.559D-03 0.361D-02 0.459D-02-0.200D-01-0.110D+00-0.362D-01
 Coeff-Com:  0.468D+00 0.689D+00
 Coeff:      0.354D-06-0.122D-06-0.102D-04-0.310D-04-0.154D-03-0.496D-04
 Coeff:      0.559D-03 0.361D-02 0.459D-02-0.200D-01-0.110D+00-0.362D-01
 Coeff:      0.468D+00 0.689D+00
 Gap=     0.256 Goal=   None    Shift=    0.000
 RMSDP=4.02D-07 MaxDP=3.59D-05 DE=-2.47D-10 OVMax= 4.89D-06

 Cycle  15  Pass 1  IDiag  1:
 RMSU=  5.24D-08    CP:  1.94D+00  5.71D-01  5.09D-01  7.34D-01  1.01D+00
                    CP:  7.31D-01  1.15D+00  1.17D+00  1.16D+00  1.13D+00
                    CP:  1.38D+00  1.46D+00  1.27D+00  9.24D-01
 E= -911.492352124915     Delta-E=       -0.000000000015 Rises=F Damp=F
 DIIS: error= 8.75D-08 at cycle  15 NSaved=  15.
 NSaved=15 IEnMin=15 EnMin= -911.492352124915     IErMin=15 ErrMin= 8.75D-08
 ErrMax= 8.75D-08  0.00D+00 EMaxC= 1.00D-01 BMatC= 2.29D-12 BMatP= 1.31D-11
 IDIUse=1 WtCom= 1.00D+00 WtEn= 0.00D+00
 Coeff-Com: -0.535D-07 0.521D-06-0.256D-06 0.276D-05-0.392D-04-0.404D-04
 Coeff-Com: -0.172D-03 0.846D-04 0.235D-02 0.342D-02-0.157D-01-0.374D-01
 Coeff-Com: -0.555D-01 0.290D+00 0.812D+00
 Coeff:     -0.535D-07 0.521D-06-0.256D-06 0.276D-05-0.392D-04-0.404D-04
 Coeff:     -0.172D-03 0.846D-04 0.235D-02 0.342D-02-0.157D-01-0.374D-01
 Coeff:     -0.555D-01 0.290D+00 0.812D+00
 Gap=     0.256 Goal=   None    Shift=    0.000
 RMSDP=3.23D-07 MaxDP=3.29D-05 DE=-1.46D-11 OVMax= 2.05D-06

 Cycle  16  Pass 1  IDiag  1:
 RMSU=  2.30D-08    CP:  1.94D+00  5.71D-01  5.09D-01  7.34D-01  1.01D+00
                    CP:  7.31D-01  1.15D+00  1.17D+00  1.16D+00  1.13D+00
                    CP:  1.38D+00  1.50D+00  1.32D+00  1.05D+00  1.03D+00
 E= -911.492352124920     Delta-E=       -0.000000000004 Rises=F Damp=F
 DIIS: error= 1.50D-08 at cycle  16 NSaved=  16.
 NSaved=16 IEnMin=16 EnMin= -911.492352124920     IErMin=16 ErrMin= 1.50D-08
 ErrMax= 1.50D-08  0.00D+00 EMaxC= 1.00D-01 BMatC= 1.10D-13 BMatP= 2.29D-12
 IDIUse=1 WtCom= 1.00D+00 WtEn= 0.00D+00
 Coeff-Com: -0.404D-07 0.151D-06 0.609D-06 0.270D-05 0.705D-06-0.580D-05
 Coeff-Com: -0.879D-04-0.224D-03 0.363D-03 0.225D-02 0.306D-02-0.728D-02
 Coeff-Com: -0.470D-01 0.296D-01 0.224D+00 0.796D+00
 Coeff:     -0.404D-07 0.151D-06 0.609D-06 0.270D-05 0.705D-06-0.580D-05
 Coeff:     -0.879D-04-0.224D-03 0.363D-03 0.225D-02 0.306D-02-0.728D-02
 Coeff:     -0.470D-01 0.296D-01 0.224D+00 0.796D+00
 Gap=     0.256 Goal=   None    Shift=    0.000
 RMSDP=3.90D-08 MaxDP=3.84D-06 DE=-4.32D-12 OVMax= 3.36D-07

 Cycle  17  Pass 1  IDiag  1:
 RMSU=  5.31D-09    CP:  1.94D+00  5.71D-01  5.09D-01  7.34D-01  1.01D+00
                    CP:  7.31D-01  1.15D+00  1.17D+00  1.16D+00  1.13D+00
                    CP:  1.39D+00  1.51D+00  1.32D+00  1.07D+00  1.13D+00
                    CP:  9.81D-01
 E= -911.492352124939     Delta-E=       -0.000000000019 Rises=F Damp=F
 DIIS: error= 9.28D-09 at cycle  17 NSaved=  17.
 NSaved=17 IEnMin=17 EnMin= -911.492352124939     IErMin=17 ErrMin= 9.28D-09
 ErrMax= 9.28D-09  0.00D+00 EMaxC= 1.00D-01 BMatC= 3.07D-14 BMatP= 1.10D-13
 IDIUse=1 WtCom= 1.00D+00 WtEn= 0.00D+00
 Coeff-Com: -0.171D-07 0.133D-07 0.417D-06 0.819D-06 0.572D-05 0.211D-05
 Coeff-Com: -0.211D-04-0.123D-03-0.151D-03 0.567D-03 0.368D-02 0.201D-02
 Coeff-Com: -0.145D-01-0.277D-01-0.126D-01 0.350D+00 0.699D+00
 Coeff:     -0.171D-07 0.133D-07 0.417D-06 0.819D-06 0.572D-05 0.211D-05
 Coeff:     -0.211D-04-0.123D-03-0.151D-03 0.567D-03 0.368D-02 0.201D-02
 Coeff:     -0.145D-01-0.277D-01-0.126D-01 0.350D+00 0.699D+00
 Gap=     0.256 Goal=   None    Shift=    0.000
 RMSDP=2.35D-08 MaxDP=2.33D-06 DE=-1.93D-11 OVMax= 8.94D-08

 Cycle  18  Pass 1  IDiag  1:
 RMSU=  2.21D-09    CP:  1.94D+00  5.71D-01  5.09D-01  7.34D-01  1.01D+00
                    CP:  7.31D-01  1.15D+00  1.17D+00  1.16D+00  1.13D+00
                    CP:  1.39D+00  1.51D+00  1.32D+00  1.08D+00  1.15D+00
                    CP:  1.08D+00  1.16D+00
 E= -911.492352124930     Delta-E=        0.000000000009 Rises=F Damp=F
 DIIS: error= 3.43D-09 at cycle  18 NSaved=  18.
 NSaved=18 IEnMin=17 EnMin= -911.492352124939     IErMin=18 ErrMin= 3.43D-09
 ErrMax= 3.43D-09  0.00D+00 EMaxC= 1.00D-01 BMatC= 3.03D-15 BMatP= 3.07D-14
 IDIUse=1 WtCom= 1.00D+00 WtEn= 0.00D+00
 Coeff-Com:  0.940D-09-0.132D-07 0.694D-07-0.117D-06 0.158D-05 0.130D-05
 Coeff-Com:  0.467D-05-0.624D-05-0.678D-04-0.962D-04 0.666D-03 0.151D-02
 Coeff-Com:  0.160D-02-0.118D-01-0.317D-01 0.669D-02 0.241D+00 0.793D+00
 Coeff:      0.940D-09-0.132D-07 0.694D-07-0.117D-06 0.158D-05 0.130D-05
 Coeff:      0.467D-05-0.624D-05-0.678D-04-0.962D-04 0.666D-03 0.151D-02
 Coeff:      0.160D-02-0.118D-01-0.317D-01 0.669D-02 0.241D+00 0.793D+00
 Gap=     0.256 Goal=   None    Shift=    0.000
 RMSDP=5.20D-09 MaxDP=4.62D-07 DE= 9.32D-12 OVMax= 3.50D-08

 SCF Done:  E(RM062X) =  -911.492352125     A.U. after   18 cycles
            NFock= 18  Conv=0.52D-08     -V/T= 2.0033
 KE= 9.085343755248D+02 PE=-3.616804548953D+03 EE= 1.052807857026D+03
 Leave Link  502 at Sun Oct 13 23:10:19 2019, MaxMem= 10737418240 cpu:             541.6 elap:              22.7
 (Enter /apps/cent7/gaussian/g16-A.03/g16-haswell/g16/l601.exe)
 Copying SCF densities to generalized density rwf, IOpCl= 0 IROHF=0.

 **********************************************************************

            Population analysis using the SCF density.

 **********************************************************************

 Orbital symmetries:
       Occupied  (A) (A) (A) (A) (A) (A) (A) (A) (A) (A) (A) (A)
                 (A) (A) (A) (A) (A) (A) (A) (A) (A) (A) (A) (A)
                 (A) (A) (A) (A) (A) (A) (A) (A) (A) (A) (A) (A)
                 (A) (A) (A) (A) (A) (A) (A) (A) (A)
       Virtual   (A) (A) (A) (A) (A) (A) (A) (A) (A) (A) (A) (A)
                 (A) (A) (A) (A) (A) (A) (A) (A) (A) (A) (A) (A)
                 (A) (A) (A) (A) (A) (A) (A) (A) (A) (A) (A) (A)
                 (A) (A) (A) (A) (A) (A) (A) (A) (A) (A) (A) (A)
                 (A) (A) (A) (A) (A) (A) (A) (A) (A) (A) (A) (A)
                 (A) (A) (A) (A) (A) (A) (A) (A) (A) (A) (A) (A)
                 (A) (A) (A) (A) (A) (A) (A) (A) (A) (A) (A) (A)
                 (A) (A) (A) (A) (A) (A) (A) (A) (A) (A) (A) (A)
                 (A) (A) (A) (A) (A) (A) (A) (A) (A) (A) (A) (A)
                 (A) (A) (A) (A) (A) (A) (A) (A) (A) (A) (A) (A)
                 (A) (A) (A) (A) (A) (A) (A) (A) (A) (A) (A) (A)
                 (A) (A) (A) (A) (A) (A) (A) (A) (A) (A) (A) (A)
                 (A) (A) (A) (A) (A) (A) (A) (A) (A) (A) (A) (A)
                 (A) (A) (A) (A) (A) (A) (A) (A) (A) (A) (A) (A)
                 (A) (A) (A) (A) (A) (A) (A) (A) (A) (A) (A) (A)
                 (A) (A) (A) (A) (A) (A) (A) (A) (A) (A) (A) (A)
                 (A) (A) (A) (A) (A) (A) (A) (A) (A) (A) (A) (A)
                 (A) (A) (A) (A) (A) (A) (A) (A) (A) (A) (A) (A)
                 (A) (A) (A) (A) (A) (A) (A) (A) (A) (A) (A) (A)
                 (A) (A) (A) (A) (A) (A) (A) (A) (A) (A) (A) (A)
                 (A) (A) (A) (A) (A) (A) (A) (A) (A) (A) (A) (A)
                 (A) (A) (A) (A) (A) (A) (A) (A)
 The electronic state is 1-A.
 Alpha  occ. eigenvalues --  -90.36058 -19.91424 -19.85985 -19.83320 -15.03157
 Alpha  occ. eigenvalues --  -10.80217 -10.76801 -10.75752 -10.73985 -10.73906
 Alpha  occ. eigenvalues --  -10.73611  -8.69954  -6.62189  -6.62054  -6.61915
 Alpha  occ. eigenvalues --   -1.46359  -1.42675  -1.31283  -1.17132  -1.13728
 Alpha  occ. eigenvalues --   -1.07808  -1.03892  -1.01067  -0.91609  -0.89092
 Alpha  occ. eigenvalues --   -0.88662  -0.82878  -0.81946  -0.76632  -0.75316
 Alpha  occ. eigenvalues --   -0.73032  -0.71123  -0.71081  -0.68304  -0.67834
 Alpha  occ. eigenvalues --   -0.67469  -0.64842  -0.63496  -0.61038  -0.59780
 Alpha  occ. eigenvalues --   -0.57790  -0.56548  -0.51567  -0.50082  -0.48970
 Alpha virt. eigenvalues --   -0.23393  -0.20322  -0.17473  -0.15439  -0.14575
 Alpha virt. eigenvalues --   -0.12491  -0.10861  -0.10541  -0.09117  -0.08914
 Alpha virt. eigenvalues --   -0.08562  -0.07773  -0.07270  -0.05793  -0.05485
 Alpha virt. eigenvalues --   -0.05029  -0.04274  -0.03504  -0.02887  -0.02244
 Alpha virt. eigenvalues --   -0.01624  -0.00928  -0.00648  -0.00451   0.00246
 Alpha virt. eigenvalues --    0.00492   0.01331   0.01528   0.01901   0.02453
 Alpha virt. eigenvalues --    0.02475   0.02990   0.03886   0.04508   0.04950
 Alpha virt. eigenvalues --    0.05202   0.05858   0.06526   0.06978   0.07190
 Alpha virt. eigenvalues --    0.08268   0.08528   0.09036   0.10217   0.10383
 Alpha virt. eigenvalues --    0.10864   0.11500   0.11864   0.13228   0.13472
 Alpha virt. eigenvalues --    0.14057   0.14410   0.14904   0.15465   0.16192
 Alpha virt. eigenvalues --    0.17379   0.17522   0.17872   0.18994   0.19376
 Alpha virt. eigenvalues --    0.20200   0.20599   0.21579   0.21932   0.22514
 Alpha virt. eigenvalues --    0.23433   0.23739   0.24649   0.25603   0.26690
 Alpha virt. eigenvalues --    0.27747   0.28847   0.30232   0.34908   0.35299
 Alpha virt. eigenvalues --    0.36136   0.38933   0.40258   0.41569   0.41750
 Alpha virt. eigenvalues --    0.42417   0.42987   0.43658   0.44879   0.45729
 Alpha virt. eigenvalues --    0.47270   0.48328   0.50086   0.51667   0.53448
 Alpha virt. eigenvalues --    0.54135   0.55783   0.57050   0.58058   0.60176
 Alpha virt. eigenvalues --    0.60835   0.62007   0.65832   0.66985   0.67144
 Alpha virt. eigenvalues --    0.68712   0.69474   0.71944   0.72536   0.73292
 Alpha virt. eigenvalues --    0.73681   0.74252   0.76063   0.76968   0.77107
 Alpha virt. eigenvalues --    0.77718   0.79105   0.84590   0.87078   0.87668
 Alpha virt. eigenvalues --    0.88664   0.89939   0.93035   0.93243   0.94709
 Alpha virt. eigenvalues --    0.95866   0.97479   0.97888   0.99938   1.00613
 Alpha virt. eigenvalues --    1.02726   1.07180   1.08012   1.08187   1.09375
 Alpha virt. eigenvalues --    1.12630   1.14835   1.15886   1.22006   1.23702
 Alpha virt. eigenvalues --    1.27511   1.30265   1.34164   1.36021   1.36905
 Alpha virt. eigenvalues --    1.40189   1.40753   1.43226   1.43916   1.45280
 Alpha virt. eigenvalues --    1.45691   1.48284   1.51021   1.51410   1.53402
 Alpha virt. eigenvalues --    1.56672   1.59025   1.60634   1.61206   1.63287
 Alpha virt. eigenvalues --    1.65561   1.68231   1.69219   1.70991   1.72151
 Alpha virt. eigenvalues --    1.74811   1.75879   1.78410   1.79797   1.80556
 Alpha virt. eigenvalues --    1.82451   1.83029   1.85604   1.85958   1.88042
 Alpha virt. eigenvalues --    1.90222   1.91220   1.92461   1.95347   2.02620
 Alpha virt. eigenvalues --    2.10924   2.14192   2.14599   2.15783   2.19738
 Alpha virt. eigenvalues --    2.24340   2.30393   2.30765   2.32883   2.33812
 Alpha virt. eigenvalues --    2.39651   2.43961   2.46981   2.50690   2.53272
 Alpha virt. eigenvalues --    2.54653   2.56525   2.57802   2.58734   2.60487
 Alpha virt. eigenvalues --    2.60882   2.64657   2.65732   2.67021   2.69159
 Alpha virt. eigenvalues --    2.70759   2.74733   2.75141   2.76607   2.78182
 Alpha virt. eigenvalues --    2.78682   2.82160   2.83402   2.84749   2.88001
 Alpha virt. eigenvalues --    2.94298   2.94554   2.95514   3.00973   3.02471
 Alpha virt. eigenvalues --    3.04389   3.17801   3.18671   3.21922   3.22593
 Alpha virt. eigenvalues --    3.24912   3.31224   3.33448   3.37234   3.41708
 Alpha virt. eigenvalues --    3.62824   3.66409   3.69964   3.76589   3.84337
 Alpha virt. eigenvalues --    3.90269   3.98532   3.99115   4.10091   4.40947
 Alpha virt. eigenvalues --    4.63967   4.89883   4.93820   4.95045   4.99337
 Alpha virt. eigenvalues --    5.01232   5.06426   5.35642   5.36948   5.68823
 Alpha virt. eigenvalues --    7.96256  17.29560  17.35532  17.41203  23.45140
 Alpha virt. eigenvalues --   23.78609  23.82084  23.89926  23.92998  24.01943
 Alpha virt. eigenvalues --   35.34815  49.75175  49.79564  49.81820 189.21427
          Condensed to atoms (all electrons):
               1          2          3          4          5          6
     1  O    8.527978  -0.413191   0.663709   1.369890   0.039799   0.008166
     2  S   -0.413191  22.421709  -8.449807  -3.324130   0.063986  -0.261028
     3  C    0.663709  -8.449807  55.346084  -6.147559  -3.877143  -2.179598
     4  C    1.369890  -3.324130  -6.147559  69.557644  -2.576399  -0.302800
     5  C    0.039799   0.063986  -3.877143  -2.576399   8.989485   0.669088
     6  C    0.008166  -0.261028  -2.179598  -0.302800   0.669088   7.706813
     7  C   -0.097777   1.014352  -7.072308  -0.835211  -0.306418   0.686226
     8  C   -1.888438   6.034227 -20.351257 -50.332711   2.756549  -0.564119
     9  N   -0.102262  -1.181560  -1.861069  -0.860746   0.228589   0.082335
    10  O    0.067363   0.106423   0.150026   0.078814   0.007529  -0.003065
    11  O   -0.184408   0.524744  -0.056984  -1.416451  -0.067779  -0.049705
    12  H    0.001923  -0.024493  -0.164528   0.753345  -0.051247  -0.005912
    13  H   -0.000519   0.010975   0.028291  -0.102291   0.408737  -0.065817
    14  H    0.000133  -0.012951   0.049039   0.008037  -0.071828   0.481753
    15  H   -0.001416   0.013059   0.102285   0.181955  -0.040813  -0.087454
    16  H   -0.005012   0.026439  -0.215584  -0.260349   0.089413  -0.018714
    17  H   -0.013979  -0.044717  -0.012500  -0.235388   0.011051   0.002293
    18  H   -0.061945  -0.122941  -0.192532  -0.186560   0.016024   0.022189
    19  H    0.072810  -0.074980   0.355631   0.108301  -0.042615   0.002431
               7          8          9         10         11         12
     1  O   -0.097777  -1.888438  -0.102262   0.067363  -0.184408   0.001923
     2  S    1.014352   6.034227  -1.181560   0.106423   0.524744  -0.024493
     3  C   -7.072308 -20.351257  -1.861069   0.150026  -0.056984  -0.164528
     4  C   -0.835211 -50.332711  -0.860746   0.078814  -1.416451   0.753345
     5  C   -0.306418   2.756549   0.228589   0.007529  -0.067779  -0.051247
     6  C    0.686226  -0.564119   0.082335  -0.003065  -0.049705  -0.005912
     7  C    9.262443   3.136638   0.143951  -0.006543   0.074562   0.000531
     8  C    3.136638  64.447434   1.740860  -0.137669   0.942843  -0.207863
     9  N    0.143951   1.740860   9.161238  -0.204005  -0.249689  -0.026829
    10  O   -0.006543  -0.137669  -0.204005   7.812146   0.002035   0.001834
    11  O    0.074562   0.942843  -0.249689   0.002035   8.579784   0.013096
    12  H    0.000531  -0.207863  -0.026829   0.001834   0.013096   0.420841
    13  H    0.003042   0.047466  -0.002496   0.000377   0.001498  -0.007864
    14  H   -0.077903  -0.041642   0.000605  -0.000139  -0.000471   0.000247
    15  H    0.418513  -0.254345  -0.005239   0.000277   0.001140   0.000850
    16  H   -0.172923   0.829759   0.016293  -0.009795  -0.004069   0.000454
    17  H    0.003217   0.207180   0.332305  -0.040072  -0.001487  -0.001808
    18  H    0.036672   0.390392   0.109949   0.209261  -0.001431  -0.000731
    19  H    0.002259  -0.216775  -0.067075  -0.005052   0.016211   0.000104
              13         14         15         16         17         18
     1  O   -0.000519   0.000133  -0.001416  -0.005012  -0.013979  -0.061945
     2  S    0.010975  -0.012951   0.013059   0.026439  -0.044717  -0.122941
     3  C    0.028291   0.049039   0.102285  -0.215584  -0.012500  -0.192532
     4  C   -0.102291   0.008037   0.181955  -0.260349  -0.235388  -0.186560
     5  C    0.408737  -0.071828  -0.040813   0.089413   0.011051   0.016024
     6  C   -0.065817   0.481753  -0.087454  -0.018714   0.002293   0.022189
     7  C    0.003042  -0.077903   0.418513  -0.172923   0.003217   0.036672
     8  C    0.047466  -0.041642  -0.254345   0.829759   0.207180   0.390392
     9  N   -0.002496   0.000605  -0.005239   0.016293   0.332305   0.109949
    10  O    0.000377  -0.000139   0.000277  -0.009795  -0.040072   0.209261
    11  O    0.001498  -0.000471   0.001140  -0.004069  -0.001487  -0.001431
    12  H   -0.007864   0.000247   0.000850   0.000454  -0.001808  -0.000731
    13  H    0.404551  -0.008240   0.000987   0.000634  -0.000087  -0.000103
    14  H   -0.008240   0.424854  -0.008936  -0.000685   0.000048   0.000462
    15  H    0.000987  -0.008936   0.423970  -0.021343  -0.000297  -0.001986
    16  H    0.000634  -0.000685  -0.021343   0.591367  -0.000075  -0.003264
    17  H   -0.000087   0.000048  -0.000297  -0.000075   0.305483   0.013434
    18  H   -0.000103   0.000462  -0.001986  -0.003264   0.013434   0.489490
    19  H    0.000049   0.000262   0.003104  -0.019523  -0.003873  -0.001385
              19
     1  O    0.072810
     2  S   -0.074980
     3  C    0.355631
     4  C    0.108301
     5  C   -0.042615
     6  C    0.002431
     7  C    0.002259
     8  C   -0.216775
     9  N   -0.067075
    10  O   -0.005052
    11  O    0.016211
    12  H    0.000104
    13  H    0.000049
    14  H    0.000262
    15  H    0.003104
    16  H   -0.019523
    17  H   -0.003873
    18  H   -0.001385
    19  H    0.513460
 Mulliken charges:
               1
     1  O    0.017175
     2  S   -0.306115
     3  C   -0.114197
     4  C    0.522610
     5  C   -0.246008
     6  C   -0.123081
     7  C   -0.213324
     8  C   -0.538530
     9  N   -0.255157
    10  O   -0.029743
    11  O   -0.123439
    12  H    0.298049
    13  H    0.280809
    14  H    0.257354
    15  H    0.275689
    16  H    0.176977
    17  H    0.479268
    18  H    0.285006
    19  H    0.356656
 Sum of Mulliken charges =   1.00000
 Mulliken charges with hydrogens summed into heavy atoms:
               1
     1  O    0.373830
     2  S   -0.306115
     3  C   -0.114197
     4  C    0.820660
     5  C    0.034801
     6  C    0.134273
     7  C    0.062365
     8  C   -0.361552
     9  N    0.224111
    10  O    0.255263
    11  O   -0.123439
 Electronic spatial extent (au):  <R**2>=           1924.8448
 Charge=              1.0000 electrons
 Dipole moment (field-independent basis, Debye):
    X=              3.1711    Y=             -3.1079    Z=              0.3869  Tot=              4.4570
 Quadrupole moment (field-independent basis, Debye-Ang):
   XX=            -42.2208   YY=            -62.5696   ZZ=            -63.9044
   XY=              2.8931   XZ=             -2.5228   YZ=             11.2586
 Traceless Quadrupole moment (field-independent basis, Debye-Ang):
   XX=             14.0108   YY=             -6.3380   ZZ=             -7.6728
   XY=              2.8931   XZ=             -2.5228   YZ=             11.2586
 Octapole moment (field-independent basis, Debye-Ang**2):
  XXX=             43.2879  YYY=            -14.9950  ZZZ=              1.1013  XYY=             14.4326
  XXY=             -2.6475  XXZ=             23.0988  XZZ=            -26.7089  YZZ=             -4.7217
  YYZ=             -6.0765  XYZ=             -1.5137
 Hexadecapole moment (field-independent basis, Debye-Ang**3):
 XXXX=          -1229.6046 YYYY=           -479.2537 ZZZZ=           -301.6004 XXXY=             -9.4410
 XXXZ=            -32.9544 YYYX=             16.3753 YYYZ=             35.5208 ZZZX=            -20.0500
 ZZZY=             19.6788 XXYY=           -327.6389 XXZZ=           -284.9884 YYZZ=           -126.8285
 XXYZ=             47.8089 YYXZ=             15.7882 ZZXY=              7.1666
 N-N= 7.439699642776D+02 E-N=-3.616804549003D+03  KE= 9.085343755248D+02
 No NMR shielding tensors so no spin-rotation constants.
 Leave Link  601 at Sun Oct 13 23:10:19 2019, MaxMem= 10737418240 cpu:               2.9 elap:               0.2
 (Enter /apps/cent7/gaussian/g16-A.03/g16-haswell/g16/l701.exe)
 ... and contract with generalized density number  0.
 Compute integral first derivatives.
 Leave Link  701 at Sun Oct 13 23:10:20 2019, MaxMem= 10737418240 cpu:               3.1 elap:               0.2
 (Enter /apps/cent7/gaussian/g16-A.03/g16-haswell/g16/l702.exe)
 L702 exits ... SP integral derivatives will be done elsewhere.
 Leave Link  702 at Sun Oct 13 23:10:20 2019, MaxMem= 10737418240 cpu:               0.4 elap:               0.0
 (Enter /apps/cent7/gaussian/g16-A.03/g16-haswell/g16/l703.exe)
 Integral derivatives from FoFJK, PRISM(SPDF).
 Compute integral first derivatives, UseDBF=F ICtDFT=           0.
 Calling FoFJK, ICntrl=      2127 FMM=F ISym2X=0 I1Cent= 0 IOpClX= 0 NMat=1 NMatS=1 NMatT=0.
 FoFJK:  IHMeth= 1 ICntrl=    2127 DoSepK=F KAlg= 0 I1Cent=           0 FoldK=F
 IRaf=         0 NMat=       1 IRICut=       1 DoRegI=T DoRafI=F ISym2E= 0 IDoP0=0 IntGTp=1.
 FoFCou: FMM=F IPFlag=           0 FMFlag=      100000 FMFlg1=         800
         NFxFlg=           0 DoJE=F BraDBF=F KetDBF=F FulRan=T
         wScrn=  0.000000 ICntrl=      2127 IOpCl=  0 I1Cent=           0 NGrid=           0
         NMat0=    1 NMatS0=      1 NMatT0=    0 NMatD0=    1 NMtDS0=    0 NMtDT0=    0
 Symmetry not used in FoFCou.
 Leave Link  703 at Sun Oct 13 23:10:23 2019, MaxMem= 10737418240 cpu:              72.9 elap:               3.1
 (Enter /apps/cent7/gaussian/g16-A.03/g16-haswell/g16/l716.exe)
 Dipole        = 1.24759203D+00-1.22275228D+00 1.52208392D-01
 ***** Axes restored to original set *****
 -------------------------------------------------------------------
 Center     Atomic                   Forces (Hartrees/Bohr)
 Number     Number              X              Y              Z
 -------------------------------------------------------------------
      1        8           0.001580540   -0.029133030    0.000940312
      2       16          -0.127395941   -0.107442917    0.003351609
      3        6           0.027469158    0.010861834    0.007824338
      4        6          -0.005597753   -0.007141893   -0.001837513
      5        6          -0.003978941    0.012313236   -0.009553109
      6        6          -0.009711256    0.001341728   -0.006560916
      7        6          -0.008346614   -0.005829058   -0.003162369
      8        6           0.002061528   -0.000381559    0.001054760
      9        7           0.001455364    0.037650935    0.089478834
     10        8           0.017586830    0.020654027   -0.035730255
     11        8           0.099244940    0.068693236   -0.048536022
     12        1           0.001314362    0.003679962    0.000484766
     13        1          -0.003121881    0.003773155   -0.003583344
     14        1          -0.003836595    0.000736232   -0.002894835
     15        1          -0.004597016   -0.003102513   -0.001302606
     16        1           0.003616003    0.000398808    0.003816060
     17        1          -0.013670605   -0.005594753    0.006879727
     18        1           0.014775976   -0.009389491    0.001044017
     19        1           0.011151901    0.007912062   -0.001713455
 -------------------------------------------------------------------
 Cartesian Forces:  Max     0.127395941 RMS     0.032291311
 Leave Link  716 at Sun Oct 13 23:10:23 2019, MaxMem= 10737418240 cpu:               0.6 elap:               0.1
 (Enter /apps/cent7/gaussian/g16-A.03/g16-haswell/g16/l103.exe)

 GradGradGradGradGradGradGradGradGradGradGradGradGradGradGradGradGradGrad
 Berny optimization.
 FormGI is forming the generalized inverse of G from B-inverse, IUseBI=4.
 Internal  Forces:  Max     0.130091151 RMS     0.019318468
 Search for a local minimum.
 Step number   1 out of a maximum of   99
 All quantities printed in internal units (Hartrees-Bohrs-Radians)
 RMS Force = .19318D-01 SwitMx=.10000D-02 MixMth= 1
 Mixed Optimization -- RFO/linear search
 Second derivative matrix not updated -- first step.
 ITU=  0
     Eigenvalues ---    0.00521   0.00751   0.00760   0.01470   0.01919
     Eigenvalues ---    0.01950   0.01968   0.01974   0.01988   0.01999
     Eigenvalues ---    0.02001   0.02001   0.02002   0.02562   0.07635
     Eigenvalues ---    0.09000   0.11665   0.16000   0.16000   0.16000
     Eigenvalues ---    0.16000   0.16000   0.16000   0.16000   0.16000
     Eigenvalues ---    0.19712   0.21686   0.22000   0.22000   0.22000
     Eigenvalues ---    0.23479   0.24999   0.28585   0.29667   0.34808
     Eigenvalues ---    0.34808   0.34810   0.34811   0.34813   0.40462
     Eigenvalues ---    0.40494   0.43975   0.44225   0.44511   0.44545
     Eigenvalues ---    0.45976   0.50396   0.50432   0.54430   0.55460
     Eigenvalues ---    0.55473
 RFO step:  Lambda=-7.81069629D-02 EMin= 5.20610167D-03
 Linear search not attempted -- first point.
 Maximum step size (   0.300) exceeded in Quadratic search.
    -- Step size scaled by   0.714
 Iteration  1 RMS(Cart)=  0.06780338 RMS(Int)=  0.00334226
 Iteration  2 RMS(Cart)=  0.00428880 RMS(Int)=  0.00020655
 Iteration  3 RMS(Cart)=  0.00001458 RMS(Int)=  0.00020622
 Iteration  4 RMS(Cart)=  0.00000000 RMS(Int)=  0.00020622
 ITry= 1 IFail=0 DXMaxC= 3.02D-01 DCOld= 1.00D+10 DXMaxT= 3.00D-01 DXLimC= 3.00D+00 Rises=F
 Variable       Old X    -DE/DX   Delta X   Delta X   Delta X     New X
                                 (Linear)    (Quad)   (Total)
    R1        3.03168  -0.02382   0.00000  -0.02922  -0.02922   3.00246
    R2        1.81414   0.01350   0.00000   0.01524   0.01524   1.82938
    R3        3.34577  -0.01441   0.00000  -0.02827  -0.02827   3.31750
    R4        3.32332  -0.06738   0.00000  -0.12839  -0.12839   3.19494
    R5        3.03132  -0.13009   0.00000  -0.15951  -0.15951   2.87182
    R6        2.66640  -0.01706   0.00000  -0.02345  -0.02342   2.64297
    R7        2.66637  -0.00948   0.00000  -0.01288  -0.01285   2.65352
    R8        2.65866  -0.02173   0.00000  -0.02976  -0.02977   2.62889
    R9        2.05980  -0.00365   0.00000  -0.00612  -0.00612   2.05368
   R10        2.65814  -0.00991   0.00000  -0.01374  -0.01378   2.64436
   R11        2.05983  -0.00551   0.00000  -0.00924  -0.00924   2.05059
   R12        2.65790  -0.01169   0.00000  -0.01607  -0.01610   2.64179
   R13        2.05987  -0.00485   0.00000  -0.00813  -0.00813   2.05175
   R14        2.65824  -0.02196   0.00000  -0.02987  -0.02987   2.62837
   R15        2.05985  -0.00543   0.00000  -0.00909  -0.00909   2.05075
   R16        2.05989  -0.00222   0.00000  -0.00371  -0.00371   2.05617
   R17        2.55642   0.04327   0.00000   0.04964   0.04964   2.60606
   R18        1.90859   0.00484   0.00000   0.00643   0.00643   1.91502
   R19        1.81426   0.00537   0.00000   0.00606   0.00606   1.82031
    A1        2.09440  -0.00456   0.00000  -0.01368  -0.01368   2.08071
    A2        1.93691  -0.00595   0.00000  -0.02561  -0.02614   1.91076
    A3        1.89437  -0.00245   0.00000  -0.01659  -0.01727   1.87709
    A4        1.89400   0.00305   0.00000   0.01531   0.01556   1.90956
    A5        1.90977  -0.00460   0.00000  -0.01698  -0.01757   1.89220
    A6        1.93437   0.00578   0.00000   0.02397   0.02414   1.95851
    A7        1.89345   0.00429   0.00000   0.02033   0.02044   1.91389
    A8        2.10064  -0.02028   0.00000  -0.04472  -0.04475   2.05588
    A9        2.09681   0.00415   0.00000   0.00846   0.00843   2.10524
   A10        2.08572   0.01613   0.00000   0.03627   0.03633   2.12205
   A11        2.09798  -0.01152   0.00000  -0.02693  -0.02691   2.07108
   A12        2.09499   0.00483   0.00000   0.01068   0.01066   2.10565
   A13        2.09021   0.00669   0.00000   0.01625   0.01623   2.10645
   A14        2.09475   0.00181   0.00000   0.00436   0.00433   2.09907
   A15        2.09439  -0.00349   0.00000  -0.00994  -0.00992   2.08447
   A16        2.09405   0.00168   0.00000   0.00557   0.00559   2.09964
   A17        2.09491   0.00446   0.00000   0.01065   0.01058   2.10549
   A18        2.09421  -0.00188   0.00000  -0.00427  -0.00424   2.08997
   A19        2.09406  -0.00258   0.00000  -0.00638  -0.00634   2.08772
   A20        2.09435  -0.00194   0.00000  -0.00409  -0.00412   2.09023
   A21        2.09441   0.00275   0.00000   0.00738   0.00740   2.10181
   A22        2.09442  -0.00081   0.00000  -0.00329  -0.00328   2.09114
   A23        2.09862  -0.00895   0.00000  -0.02024  -0.02021   2.07841
   A24        2.09499   0.00923   0.00000   0.02437   0.02435   2.11934
   A25        2.08958  -0.00028   0.00000  -0.00413  -0.00415   2.08543
   A26        1.87697   0.05601   0.00000   0.13418   0.13407   2.01104
   A27        2.37915  -0.04272   0.00000  -0.11122  -0.11132   2.26784
   A28        2.02706  -0.01329   0.00000  -0.02296  -0.02309   2.00397
   A29        1.91059   0.00863   0.00000   0.02589   0.02589   1.93647
    D1        0.65436  -0.00488   0.00000  -0.01978  -0.01952   0.63484
    D2       -1.44488   0.00600   0.00000   0.02746   0.02721  -1.41767
    D3        2.78384   0.00056   0.00000   0.00394   0.00393   2.78777
    D4        2.62214   0.00464   0.00000   0.02331   0.02306   2.64520
    D5       -0.52595   0.00477   0.00000   0.02413   0.02387  -0.50208
    D6       -1.57098  -0.00508   0.00000  -0.02420  -0.02399  -1.59497
    D7        1.56411  -0.00495   0.00000  -0.02338  -0.02318   1.54094
    D8        0.51637   0.00089   0.00000   0.00502   0.00507   0.52145
    D9       -2.63172   0.00102   0.00000   0.00585   0.00589  -2.62583
   D10        1.11167  -0.00496   0.00000  -0.01982  -0.01941   1.09226
   D11       -2.02981  -0.00134   0.00000   0.01041   0.01030  -2.01951
   D12       -1.00434   0.00660   0.00000   0.03197   0.03209  -0.97225
   D13        2.13736   0.01022   0.00000   0.06220   0.06180   2.19916
   D14       -3.11670  -0.00031   0.00000   0.00051   0.00075  -3.11595
   D15        0.02501   0.00331   0.00000   0.03074   0.03046   0.05547
   D16       -3.13776   0.00003   0.00000   0.00015   0.00015  -3.13761
   D17        0.00388  -0.00057   0.00000  -0.00428  -0.00428  -0.00040
   D18        0.01029  -0.00006   0.00000  -0.00057  -0.00057   0.00972
   D19       -3.13126  -0.00066   0.00000  -0.00500  -0.00499  -3.13625
   D20        3.13828   0.00019   0.00000   0.00111   0.00109   3.13937
   D21       -0.00319   0.00062   0.00000   0.00428   0.00429   0.00111
   D22       -0.00975   0.00019   0.00000   0.00163   0.00163  -0.00812
   D23        3.13196   0.00061   0.00000   0.00480   0.00484   3.13680
   D24       -0.00505  -0.00003   0.00000  -0.00044  -0.00045  -0.00550
   D25        3.13646  -0.00032   0.00000  -0.00244  -0.00243   3.13402
   D26        3.13650   0.00057   0.00000   0.00398   0.00398   3.14047
   D27       -0.00519   0.00028   0.00000   0.00198   0.00199  -0.00319
   D28       -0.00081   0.00010   0.00000   0.00065   0.00065  -0.00015
   D29        3.14083  -0.00009   0.00000  -0.00061  -0.00060   3.14024
   D30        3.14088   0.00039   0.00000   0.00265   0.00266  -3.13965
   D31       -0.00067   0.00020   0.00000   0.00139   0.00140   0.00074
   D32        0.00134   0.00005   0.00000   0.00045   0.00047   0.00181
   D33       -3.14030  -0.00029   0.00000  -0.00197  -0.00195   3.14093
   D34       -3.14030   0.00024   0.00000   0.00171   0.00172  -3.13858
   D35        0.00125  -0.00010   0.00000  -0.00071  -0.00070   0.00054
   D36        0.00398  -0.00026   0.00000  -0.00175  -0.00174   0.00224
   D37       -3.13774  -0.00068   0.00000  -0.00491  -0.00488   3.14057
   D38       -3.13757   0.00007   0.00000   0.00067   0.00067  -3.13690
   D39        0.00390  -0.00035   0.00000  -0.00249  -0.00247   0.00143
   D40        0.43378   0.01508   0.00000   0.11209   0.11301   0.54679
   D41       -2.70790   0.01229   0.00000   0.08882   0.08790  -2.62000
         Item               Value     Threshold  Converged?
 Maximum Force            0.130091     0.000450     NO 
 RMS     Force            0.019318     0.000300     NO 
 Maximum Displacement     0.301615     0.001800     NO 
 RMS     Displacement     0.068165     0.001200     NO 
 Predicted change in Energy=-4.054188D-02
 Lowest energy point so far.  Saving SCF results.
 GradGradGradGradGradGradGradGradGradGradGradGradGradGradGradGradGradGrad

 Leave Link  103 at Sun Oct 13 23:10:23 2019, MaxMem= 10737418240 cpu:               1.9 elap:               0.1
 (Enter /apps/cent7/gaussian/g16-A.03/g16-haswell/g16/l202.exe)
                          Input orientation:                          
 ---------------------------------------------------------------------
 Center     Atomic      Atomic             Coordinates (Angstroms)
 Number     Number       Type             X           Y           Z
 ---------------------------------------------------------------------
      1          8           0       -2.348389    2.481428   -0.795373
      2         16           0       -1.914981    0.957514   -0.676062
      3          6           0       -0.475411    0.834678    0.321183
      4          6           0       -0.278651   -0.349209    1.039364
      5          6           0        0.853754   -0.464111    1.839213
      6          6           0        1.775283    0.586413    1.912206
      7          6           0        1.573130    1.763183    1.185097
      8          6           0        0.444659    1.893655    0.382560
      9          7           0       -1.535812    0.412115   -2.230795
     10          8           0       -0.475033    1.052747   -2.835915
     11          8           0       -3.071868    0.145673   -0.117480
     12          1           0       -0.998258   -1.161181    0.976779
     13          1           0        1.015151   -1.374435    2.407335
     14          1           0        2.655557    0.488174    2.540132
     15          1           0        2.289708    2.575984    1.244720
     16          1           0        0.291286    2.811883   -0.180691
     17          1           0       -1.982804   -0.298989   -2.797781
     18          1           0        0.171908    1.340085   -2.182622
     19          1           0       -1.664415    3.164564   -0.846894
 ---------------------------------------------------------------------
                    Distance matrix (angstroms):
                    1          2          3          4          5
     1  O    0.000000
     2  S    1.588833   0.000000
     3  C    2.732495   1.755547   0.000000
     4  C    3.957598   2.706989   1.398602   0.000000
     5  C    5.086351   4.001690   2.399572   1.391151   0.000000
     6  C    5.284575   4.522708   2.767420   2.419894   1.399337
     7  C    4.451566   4.034840   2.409355   2.812922   2.430269
     8  C    3.087737   2.750444   1.404183   2.446428   2.801474
     9  N    2.646275   1.690687   2.795640   3.585249   4.800288
    10  O    3.116793   2.597591   3.164620   4.125753   5.091499
    11  O    2.537462   1.519700   2.721900   3.063537   4.428430
    12  H    4.269892   2.839213   2.164862   1.086761   2.158622
    13  H    6.036424   4.850876   3.384374   2.143911   1.085127
    14  H    6.335466   5.608387   3.853150   3.400454   2.155140
    15  H    5.067826   4.897780   3.395726   3.898127   3.414317
    16  H    2.730369   2.924327   2.179230   3.435967   3.889540
    17  H    3.445869   2.466798   3.644910   4.198851   5.438295
    18  H    3.094999   2.602150   2.635052   3.665776   4.460403
    19  H    0.968064   2.227787   2.864700   4.221956   5.169490
                    6          7          8          9         10
     6  C    0.000000
     7  C    1.397977   0.000000
     8  C    2.412313   1.390875   0.000000
     9  N    5.306429   4.812403   3.598173   0.000000
    10  O    5.275040   4.568175   3.451310   1.379068   0.000000
    11  O    5.273400   5.088128   3.958718   2.626130   3.867327
    12  H    3.409052   3.899659   3.430325   3.612860   4.439806
    13  H    2.160527   3.413188   3.886590   5.586719   5.966870
    14  H    1.085737   2.152538   3.393901   6.350992   6.246697
    15  H    2.160685   1.085211   2.147812   5.603225   5.159033
    16  H    3.396348   2.146689   1.088080   3.646930   3.275975
    17  H    6.090249   5.723682   4.562328   1.013383   2.025344
    18  H    4.461664   3.672052   2.638370   1.944159   0.963269
    19  H    5.107936   4.071185   2.752265   3.083455   3.135379
                   11         12         13         14         15
    11  O    0.000000
    12  H    2.684236   0.000000
    13  H    5.038764   2.479070   0.000000
    14  H    6.323259   4.302884   2.485533   0.000000
    15  H    6.042226   4.984868   4.310681   2.484127   0.000000
    16  H    4.292258   4.334501   4.974647   4.288622   2.465996
    17  H    2.927080   3.994999   6.102259   7.115289   6.546880
    18  H    4.026601   4.196121   5.398832   5.403580   4.214166
    19  H    3.409791   4.741478   6.194561   6.107141   4.511803
                   16         17         18         19
    16  H    0.000000
    17  H    4.658129   0.000000
    18  H    2.487603   2.776286   0.000000
    19  H    2.095943   3.987923   2.912898   0.000000
 Stoichiometry    C6H8NO3S(1+)
 Framework group  C1[X(C6H8NO3S)]
 Deg. of freedom    51
 Full point group                 C1      NOp   1
 RotChk:  IX=0 Diff= 2.27D-02
 Largest Abelian subgroup         C1      NOp   1
 Largest concise Abelian subgroup C1      NOp   1
                         Standard orientation:                         
 ---------------------------------------------------------------------
 Center     Atomic      Atomic             Coordinates (Angstroms)
 Number     Number       Type             X           Y           Z
 ---------------------------------------------------------------------
      1          8           0       -1.781839   -0.400899   -1.525403
      2         16           0       -1.237451    0.387420   -0.257890
      3          6           0        0.498343    0.159324   -0.127744
      4          6           0        1.245851    1.174276    0.478220
      5          6           0        2.623540    1.014469    0.586546
      6          6           0        3.239372   -0.144915    0.102062
      7          6           0        2.482564   -1.156848   -0.495912
      8          6           0        1.104379   -1.010623   -0.613206
      9          7           0       -1.968319   -0.282402    1.111633
     10          8           0       -1.673440   -1.609095    1.345645
     11          8           0       -1.617061    1.854346   -0.374128
     12          1           0        0.760335    2.071392    0.853064
     13          1           0        3.216476    1.797331    1.048126
     14          1           0        4.315388   -0.260259    0.189874
     15          1           0        2.963782   -2.054294   -0.871017
     16          1           0        0.519811   -1.800601   -1.080255
     17          1           0       -2.609512    0.134518    1.776460
     18          1           0       -0.787045   -1.824694    1.036279
     19          1           0       -1.387344   -1.254218   -1.756421
 ---------------------------------------------------------------------
 Rotational constants (GHZ):           1.7049575           0.7017059           0.6389152
 Leave Link  202 at Sun Oct 13 23:10:23 2019, MaxMem= 10737418240 cpu:               0.2 elap:               0.0
 (Enter /apps/cent7/gaussian/g16-A.03/g16-haswell/g16/l301.exe)
 Standard basis: 6-311++G(d,p) (5D, 7F)
 Ernie: Thresh=  0.10000D-02 Tol=  0.10000D-05 Strict=F.
 There are   317 symmetry adapted cartesian basis functions of A   symmetry.
 There are   306 symmetry adapted basis functions of A   symmetry.
   306 basis functions,   482 primitive gaussians,   317 cartesian basis functions
    45 alpha electrons       45 beta electrons
       nuclear repulsion energy       752.9414952404 Hartrees.
 IExCor= 4336 DFT=T Ex+Corr=M062X ExCW=0 ScaHFX=  0.540000
 ScaDFX=  1.000000  1.000000  1.000000  1.000000 ScalE2=  1.000000  1.000000
 IRadAn=      5 IRanWt=     -1 IRanGd=            0 ICorTp=0 IEmpDi=  4
 NAtoms=   19 NActive=   19 NUniq=   19 SFac= 1.00D+00 NAtFMM=   60 NAOKFM=F Big=F
 Integral buffers will be    131072 words long.
 Raffenetti 2 integral format.
 Two-electron integral symmetry is turned on.
 Leave Link  301 at Sun Oct 13 23:10:23 2019, MaxMem= 10737418240 cpu:               1.2 elap:               0.1
 (Enter /apps/cent7/gaussian/g16-A.03/g16-haswell/g16/l302.exe)
 NPDir=0 NMtPBC=     1 NCelOv=     1 NCel=       1 NClECP=     1 NCelD=      1
         NCelK=      1 NCelE2=     1 NClLst=     1 CellRange=     0.0.
 One-electron integrals computed using PRISM.
 One-electron integral symmetry used in STVInt
 NBasis=   306 RedAO= T EigKep=  1.91D-06  NBF=   306
 NBsUse=   305 1.00D-06 EigRej=  8.28D-07 NBFU=   305
 Precomputing XC quadrature grid using
 IXCGrd= 4 IRadAn=           5 IRanWt=          -1 IRanGd=           0 AccXCQ= 0.00D+00.
 Generated NRdTot=       0 NPtTot=           0 NUsed=           0 NTot=          32
 NSgBfM=   317   317   317   317   317 MxSgAt=    19 MxSgA2=    19.
 Leave Link  302 at Sun Oct 13 23:10:23 2019, MaxMem= 10737418240 cpu:               4.6 elap:               0.2
 (Enter /apps/cent7/gaussian/g16-A.03/g16-haswell/g16/l303.exe)
 DipDrv:  MaxL=1.
 Leave Link  303 at Sun Oct 13 23:10:23 2019, MaxMem= 10737418240 cpu:               0.8 elap:               0.1
 (Enter /apps/cent7/gaussian/g16-A.03/g16-haswell/g16/l401.exe)
 Initial guess from the checkpoint file:  "29_p.chk"
 B after Tr=     0.000000   -0.000000   -0.000000
         Rot=    0.999949   -0.009949    0.001599   -0.000157 Ang=  -1.15 deg.
 Guess basis will be translated and rotated to current coordinates.
 JPrj=2 DoOrth=T DoCkMO=T.
 Generating alternative initial guess.
 ExpMin= 3.60D-02 ExpMax= 9.34D+04 ExpMxC= 3.17D+03 IAcc=3 IRadAn=         5 AccDes= 0.00D+00
 Harris functional with IExCor= 1009 and IRadAn=       5 diagonalized for initial guess.
 HarFok:  IExCor= 1009 AccDes= 0.00D+00 IRadAn=         5 IDoV= 1 UseB2=F ITyADJ=14
 ICtDFT=  3500011 ScaDFX=  1.000000  1.000000  1.000000  1.000000
 FoFCou: FMM=F IPFlag=           0 FMFlag=      100000 FMFlg1=           0
         NFxFlg=           0 DoJE=T BraDBF=F KetDBF=T FulRan=T
[...]
 4966,0.36897641,0.00022875,0.00073624,-0.00019682,0.00942937,0.0003686
 2,0.00313030,0.00898293,0.06928048,-0.03892047,-0.25537045,-0.02714829
 ,-0.11165728,0.54266528,0.00165077,0.00007956,0.00016702,0.00057499,-0
 .00453357,0.00877680,0.02302042,0.01890136,0.00998964,0.03130047,-0.11
 914654,0.05251111,0.10702785,0.62276970,-0.00244447,0.00142905,-0.0021
 3782,0.00226911,0.00640484,0.00478231,-0.01316237,0.03926031,-0.024982
 02,-0.14615407,0.01424291,-0.17101273,0.20517557,-0.22288101,0.4082946
 4,0.00000140,-0.00013668,0.00000136,0.00007294,-0.00143180,0.00184891,
 -0.01242666,-0.02046326,0.00848551,-0.04101817,-0.00569840,-0.02651594
 ,-0.21446305,-0.14696216,-0.01188919,0.59826860,0.00055765,-0.00071703
 ,0.00071025,-0.00059692,-0.00402906,0.00114421,-0.02068792,-0.06065225
 ,0.01755965,-0.04584272,0.04417440,-0.05202030,-0.09103299,-0.23214286
 ,0.04120855,0.11124119,0.57089600,-0.00019829,0.00007840,-0.00003479,0
 .00102188,0.00118122,-0.00075327,0.00865821,0.01840871,-0.01194525,-0.
 00342471,-0.02760129,0.01876099,-0.04573095,0.00331340,-0.09651243,0.2
 3489492,-0.17919586,0.40901738,0.00070250,0.00027099,0.00045571,0.0036
 1813,-0.00727549,0.00241499,-0.04655356,-0.04662703,-0.00807627,-0.022
 00704,0.02572036,-0.02549247,0.04351357,-0.00527465,0.02913342,-0.1200
 1877,-0.02794004,-0.02133343,0.58804363,0.00075799,0.00122177,-0.00009
 832,-0.00988926,-0.00313917,-0.00116550,-0.00039532,0.03622327,-0.0182
 9484,0.01890832,-0.02247607,0.02191415,-0.04074817,-0.04103424,0.00041
 300,0.02835413,-0.26105881,0.13592963,0.16341975,0.61061908,-0.0006696
 3,0.00030942,-0.00071975,0.00436577,0.00005827,0.01051309,-0.03653179,
 -0.04878762,0.01229974,-0.02192807,0.02738293,-0.03534922,0.04972049,0
 .02371590,0.02437403,-0.05483134,0.09773447,-0.15773379,0.20460883,-0.
 17033530,0.37148514,-0.00149842,-0.00047946,-0.00077107,-0.03458644,-0
 .00775067,-0.01466700,-0.17254412,-0.09688739,-0.02039906,0.03702401,-
 0.04399479,0.04283479,-0.05702999,-0.01935628,-0.02295426,0.02052424,0
 .07222666,-0.03231933,-0.25566934,-0.02512127,-0.11247151,0.52933135,0
 .00061028,-0.00371333,0.00181529,-0.00744461,0.01135309,-0.01534832,-0
 .13738715,-0.23242720,0.01498955,-0.00467859,-0.04360412,0.02777600,-0
 .02540302,-0.01066868,-0.01376108,0.03263635,0.02366304,0.01048728,0.0
 3297644,-0.11975924,0.05572653,0.09201192,0.62447819,-0.00024001,0.001
 73078,0.00011277,-0.01608949,-0.01535840,-0.00588961,0.00184372,0.0391
 3320,-0.07451891,0.02025037,0.00250387,0.01974839,-0.01803804,-0.00894
 464,-0.01191007,-0.00892735,0.03558302,-0.02261719,-0.14690758,0.01683
 213,-0.17059014,0.20622250,-0.22453728,0.40067939,0.00724472,-0.001279
 06,0.01018336,-0.07592246,-0.00472153,-0.01145162,0.00685681,-0.001982
 14,-0.02188500,-0.00130073,-0.00446137,-0.00083426,-0.00182315,0.00081
 242,0.00099400,-0.00014999,-0.00069214,-0.00029365,-0.00237296,0.00248
 973,-0.00017418,0.00347989,0.00180567,0.00043399,0.52355790,0.00829511
 ,-0.01747622,-0.02734338,-0.00869086,-0.06076727,-0.01515034,0.0031152
 6,0.00320368,-0.00433890,-0.00116567,-0.00138933,-0.00084908,-0.000498
 51,0.00054284,0.00004888,-0.00009975,-0.00011873,-0.00008932,-0.000675
 53,0.00084337,-0.00018525,0.00054914,0.00030468,0.00075605,0.17498133,
 0.23041284,0.00725803,-0.00022385,-0.00124584,0.02776248,-0.06271788,-
 0.18623561,0.00221825,-0.00463770,-0.01141406,-0.00007450,-0.00390441,
 -0.00044155,-0.00189846,0.00040143,0.00064880,-0.00004857,-0.00032953,
 -0.00015819,-0.00152663,0.00134220,-0.00021650,0.00272875,0.00214325,-
 0.00176427,0.09201612,0.00600758,0.49327323,0.00281895,0.00193390,-0.0
 0114695,-0.03049764,-0.01373136,0.02151231,0.00042179,0.00179638,-0.00
 094319,0.00046656,-0.00011691,0.00013518,-0.00010687,-0.00000726,-0.00
 025333,0.00019372,0.00052360,0.00005724,0.00104160,-0.00014961,0.00022
 320,0.00031535,-0.00081279,-0.00023660,-0.16164793,-0.10779090,0.04774
 144,0.57212985,0.00136235,0.00517500,0.00053321,0.00233077,-0.00441084
 ,0.00359357,-0.00039839,0.00146870,-0.00045138,0.00042023,-0.00024104,
 0.00012201,-0.00015515,-0.00003729,-0.00014042,0.00003531,0.00028687,-
 0.00005436,0.00054329,0.00020959,0.00003003,0.00023650,-0.00070430,0.0
 0015755,-0.09030192,-0.15545233,0.05288528,-0.10567431,0.34653293,-0.0
 0088651,0.00036566,0.00267122,0.02093435,0.03188441,-0.01394122,-0.001
 63787,-0.00318159,0.00159398,0.00051459,0.00009373,0.00030245,-0.00001
 669,-0.00008852,-0.00007383,0.00001534,0.00015807,0.00004695,0.0003879
 0,-0.00031093,-0.00007049,-0.00098859,0.00004300,-0.00234043,0.0662289
 5,0.06638528,-0.09413326,-0.15925408,-0.04788987,0.11984473,0.01418203
 ,0.00589774,0.00198153,-0.44822480,-0.26302495,0.11342801,-0.00558910,
 -0.01958312,0.01243502,-0.00034330,-0.00168884,0.00149019,0.00027448,-
 0.00021199,-0.00061760,-0.00031612,-0.00063250,0.00047596,-0.00152116,
 -0.00212357,-0.00075858,-0.00277570,0.00705636,-0.00409932,-0.00804137
 ,-0.01263530,0.00235222,-0.00128032,-0.00081049,0.00546706,0.45893342,
 -0.02539258,-0.01567931,0.00912756,-0.26338501,-0.26622948,0.08771722,
 -0.00076151,0.00199667,0.00491937,-0.00053754,-0.00237182,0.00105419,0
 .00054073,0.00116917,-0.00099523,0.00001212,-0.00047989,0.00031392,-0.
 00029152,0.00049487,-0.00099138,-0.00048528,0.00173163,0.00032384,0.00
 408728,0.00618936,-0.00461498,-0.00258833,0.00250581,-0.00202899,0.292
 02769,0.26806769,0.00359302,-0.00185896,0.01130160,0.11199080,0.082110
 34,-0.12014684,-0.01323693,-0.00701374,0.00893761,0.00008647,0.0002709
 1,0.00054573,-0.00028381,-0.00150773,0.00018053,-0.00043096,-0.0004219
 7,0.00014880,-0.00064735,-0.00096862,-0.00142530,-0.00093914,0.0042924
 6,0.00006172,0.02931096,0.02087509,0.00257265,0.00853754,-0.00340584,-
 0.00627754,-0.13505853,-0.09398609,0.10365939,-0.00032920,-0.00028009,
 0.00009404,0.00113852,0.00232570,0.00004161,0.00623656,0.00404352,0.00
 060705,-0.19729539,-0.15023758,-0.01254418,-0.00977163,-0.01768750,0.0
 0067318,-0.00103476,-0.00049418,-0.00540712,-0.00068461,0.00100258,-0.
 00020354,0.00194176,0.00075389,-0.00291328,0.00004359,0.00003539,0.000
 30218,-0.00021841,-0.00007291,0.00006760,-0.00156936,-0.00036694,-0.00
 035214,0.20193542,0.00027001,0.00034810,0.00000051,-0.00215607,-0.0037
 1943,0.00024918,-0.01553156,-0.01299174,-0.00126905,-0.14925108,-0.200
 50768,0.00162658,0.00407008,0.00827441,0.00110712,-0.00043433,0.001988
 89,0.00352885,0.00057453,0.00017421,-0.00065412,0.00117280,-0.00090847
 ,0.00507555,-0.00023088,-0.00015287,-0.00027393,0.00023210,0.00007731,
 -0.00004455,0.00030715,0.00141298,-0.00109465,0.16030055,0.20685708,0.
 00024104,-0.00090222,0.00041980,0.00249431,0.00274798,-0.00215977,0.01
 240582,0.01131894,0.00334874,-0.01244439,0.00216543,-0.04786001,-0.012
 59362,-0.01346250,0.00549636,-0.00590234,0.00295706,0.00212573,0.00000
 998,-0.00008641,-0.00143151,-0.00298024,0.00459002,0.00122358,-0.00065
 768,-0.00033034,-0.00050985,-0.00005467,-0.00015653,0.00010336,-0.0002
 2861,-0.00081573,-0.00013590,0.01731149,-0.00621815,0.04156234,-0.0006
 4304,0.00034034,-0.00032190,0.00100089,0.00097620,-0.00069641,-0.00141
 905,-0.00122521,-0.00513179,0.00022656,0.02083716,-0.01521517,-0.05781
 640,0.02175333,-0.02468153,0.00702046,-0.01846450,0.01304611,-0.001075
 00,-0.00488627,-0.00289910,-0.00128590,-0.00023423,0.00014390,-0.00035
 929,-0.00017538,-0.00023259,0.00001477,-0.00000478,0.00004244,-0.00019
 219,-0.00016639,0.00009243,-0.00027820,0.00103177,0.00208220,0.0551223
 8,-0.00024781,0.00018356,-0.00018809,-0.00023661,0.00031226,0.00013836
 ,-0.00133388,0.00280197,0.00179859,-0.00141819,0.00299659,-0.00064877,
 0.02217113,-0.24952378,0.14245846,0.00399421,-0.01209451,0.01256746,-0
 .00473730,-0.00019951,0.00166308,-0.00041249,-0.00015969,-0.00099572,0
 .00002690,-0.00002683,0.00001969,0.00000429,0.00001184,-0.00002653,-0.
 00001683,-0.00004042,-0.00000707,0.00113205,-0.00051601,-0.00155461,-0
 .02059596,0.25722218,-0.00044293,0.00027751,-0.00038812,-0.00006856,0.
 00068548,0.00045204,-0.00470919,0.00164585,0.00288906,-0.00128632,0.01
 461386,-0.00612087,-0.02506232,0.14236581,-0.14356169,-0.00067672,-0.0
 0269938,0.00534400,-0.00308790,0.00150460,0.00472974,0.00033539,-0.000
 88751,-0.00053743,-0.00006292,-0.00007643,-0.00000520,0.00006860,0.000
 04976,-0.00000028,-0.00009594,-0.00013904,-0.00002211,0.00188089,-0.00
 173320,-0.00203750,0.03105944,-0.15383858,0.14183598,-0.00005380,0.000
 06663,-0.00005229,-0.00068054,0.00013626,0.00030724,0.00060723,-0.0005
 7236,0.00090150,-0.00002380,-0.00461664,-0.00252712,-0.01048300,0.0033
 2662,-0.01279899,-0.24205734,0.01854506,-0.14337945,0.00321685,-0.0016
 9639,-0.00050143,0.00297196,-0.00157652,-0.00234902,0.00024860,0.00009
 338,0.00020335,-0.00002531,-0.00000654,-0.00002452,-0.00002144,0.00003
 576,-0.00008107,-0.00064279,0.00042804,-0.00034018,-0.00042995,0.00107
 123,0.00171174,0.24805010,0.00011426,0.00004150,0.00004693,0.00014221,
 -0.00055828,-0.00033071,-0.00044712,-0.00130185,0.00024345,-0.00546625
 ,-0.00146486,0.00202497,-0.01909682,0.00699640,-0.01359803,0.01850915,
 -0.05984757,0.02175486,0.02081301,0.00242025,0.01579150,-0.00080806,-0
 .00259966,0.00564589,-0.00019811,-0.00007433,-0.00014277,0.00006247,0.
 00004606,0.00006451,0.00012014,0.00019045,-0.00002864,-0.00070956,0.00
 012393,-0.00088912,0.00130941,-0.00021432,-0.00138773,-0.01628023,0.05
 634693,0.00013073,-0.00018179,0.00014811,0.00007034,-0.00019881,-0.001
 01763,0.00106039,0.00028262,0.00015506,-0.00206010,0.00267348,0.004936
 28,0.00076157,0.00157738,0.00523090,-0.14341642,0.02177891,-0.15337847
 ,-0.01398573,0.00049608,-0.00417628,-0.00277585,0.00504167,0.00297752,
 -0.00015415,-0.00009853,-0.00016596,0.00003087,0.00000360,0.00000494,0
 .00011831,0.00008452,0.00012514,0.00035989,-0.00014833,-0.00020466,0.0
 0157797,-0.00157653,-0.00196419,0.15698659,-0.02789752,0.14980435,-0.0
 0006998,0.00027439,-0.00007201,0.00014418,-0.00117925,0.00011527,-0.00
 056407,-0.00041242,-0.00513805,-0.00026343,0.00091070,0.00023914,0.002
 56814,-0.00006395,-0.00336708,0.00747471,0.00477258,-0.00053376,-0.193
 57516,-0.15012675,-0.01453129,-0.01244162,-0.01765497,-0.00040612,-0.0
 0014505,-0.00000766,-0.00018528,0.00009491,0.00009653,-0.00008179,-0.0
 0047727,0.00001838,-0.00005163,-0.00021388,0.00014964,0.00035490,0.000
 18252,0.00036696,0.00006699,-0.00060718,0.00081571,0.00173604,0.198333
 90,0.00000181,-0.00012260,0.00000032,0.00004929,0.00083900,0.00020307,
 -0.00002310,0.00257570,0.00272882,0.00113399,-0.00047648,0.00024581,-0
 .00024464,-0.00152649,0.00520393,-0.01789058,-0.01242724,-0.00230553,-
 0.15062320,-0.20843432,-0.00185157,0.00499915,0.00700182,0.00139913,0.
 00004412,-0.00002877,0.00012452,-0.00002162,-0.00005958,0.00007281,0.0
 0035702,-0.00004225,-0.00000130,0.00013416,-0.00017943,-0.00032417,-0.
 00079603,-0.00063878,-0.00029065,0.00104482,-0.00009005,-0.00152495,0.
 16099984,0.21398879,0.00001881,0.00020565,-0.00017634,-0.00077780,-0.0
 0035040,0.00093405,-0.00483908,0.00259386,0.00232794,0.00006542,0.0001
 1976,-0.00125689,-0.00321674,0.00533955,0.00222767,0.01281611,0.013144
 07,0.00498242,-0.01438601,-0.00188936,-0.04860150,-0.01380074,-0.01382
 006,0.00264465,-0.00001469,-0.00000554,-0.00001441,0.00010402,0.000013
 09,-0.00004215,-0.00063139,-0.00028909,-0.00043427,0.00035622,-0.00035
 116,-0.00044938,0.00075174,0.00045260,-0.00005920,0.00158008,-0.001704
 70,-0.00182769,0.01991853,-0.00190914,0.04183147,-0.00191375,0.0011238
 1,-0.00092149,0.00044433,-0.00358233,0.00242067,0.00481178,-0.01735107
 ,0.01190474,-0.00212783,-0.00414307,-0.00256469,-0.00107176,0.00003722
 ,0.00001346,-0.00201311,-0.00154490,-0.00557872,0.00333329,0.02046024,
 -0.01357487,-0.05734200,0.02768974,-0.02875408,0.00009775,0.00040264,0
 .00014276,-0.00047196,0.00001169,0.00011900,-0.00003871,0.00053279,-0.
 00017984,0.00064005,-0.00100294,0.00030622,-0.00016193,0.00026083,0.00
 039168,-0.00006965,0.00113092,-0.00037811,-0.00044159,0.00087141,0.002
 11959,0.05603718,0.00162573,-0.00010939,0.00045212,0.00022473,-0.00258
 881,0.00022077,0.00358980,-0.01273795,0.01035477,-0.00461890,0.0002286
 8,0.00013170,0.00052927,0.00031000,-0.00058961,-0.00183515,0.00222437,
 0.00191785,-0.00126344,0.00412705,-0.00005361,0.02571819,-0.25363786,0
 .14085245,-0.00088829,-0.00051833,-0.00028556,0.00065175,0.00049022,0.
 00098615,0.00024556,0.00035880,-0.00012185,0.00013609,-0.00025437,0.00
 083502,0.00023610,-0.00018975,-0.00024620,-0.00000229,-0.00003469,-0.0
 0028599,0.00106119,-0.00039598,-0.00152173,-0.02546653,0.26248128,-0.0
 0054175,-0.00016297,-0.00053882,0.00102657,-0.00106181,-0.00084829,0.0
 0021224,-0.00268965,0.00338539,-0.00236345,0.00053116,0.00410857,-0.00
 032385,-0.00099498,-0.00100108,-0.00548090,0.00243815,0.00293005,-0.00
 089675,0.01452022,-0.00328088,-0.02767831,0.14104062,-0.13690384,-0.00
 125389,-0.00057180,-0.00040226,0.00049751,0.00044174,0.00020362,0.0003
 3627,0.00017568,0.00011751,-0.00033460,0.00010530,0.00077662,0.0003831
 7,-0.00027773,-0.00053425,0.00029391,0.00046574,-0.00059258,0.00200548
 ,-0.00175397,-0.00213372,0.03433286,-0.15176050,0.13517988,-0.00202544
 ,0.00212073,0.00073197,0.01237315,0.00673602,0.01187902,-0.00086498,-0
 .00063666,0.00304874,0.00034558,0.00070860,0.00023604,0.00037138,-0.00
 011420,-0.00004522,-0.00002405,-0.00007416,0.00012692,0.00021203,-0.00
 023744,-0.00007969,-0.00033618,-0.00042428,-0.00003764,-0.26685389,-0.
 05832318,-0.18130446,-0.02202837,-0.00314950,-0.00249050,-0.00135564,-
 0.00065323,-0.00154932,-0.00002261,0.00010642,0.00006431,0.00008716,-0
 .00000439,0.00000539,-0.00003418,0.00002873,0.00002340,0.00002043,-0.0
 0000024,0.00002386,-0.00005081,0.00009798,0.00012993,0.28202167,0.0010
 6702,-0.00240180,0.00087849,-0.00087811,-0.00481843,-0.02650624,0.0008
 2853,0.00183182,0.00184141,-0.00011252,0.00036896,-0.00033097,0.000011
 05,0.00012843,-0.00013672,0.00020381,0.00017039,-0.00005315,0.00025128
 ,-0.00029062,0.00025484,-0.00063830,-0.00063673,0.00006167,-0.03250054
 ,-0.01649224,0.00271332,-0.02612218,-0.00965900,-0.00990004,-0.0001893
 4,-0.00184050,0.00204926,0.00002536,0.00005331,0.00007339,-0.00001222,
 0.00001195,0.00003065,-0.00002244,0.00001190,0.00000532,0.00002704,-0.
 00001542,0.00000798,-0.00007674,0.00001617,0.00003530,0.05789396,0.035
 75217,0.00102390,0.00139106,0.00196245,-0.02697424,-0.00393619,-0.0244
 8820,0.00165571,-0.00074046,-0.00380667,0.00008562,-0.00108899,0.00007
 378,-0.00056157,0.00014934,0.00015721,0.00005038,-0.00000832,-0.000072
 59,-0.00046647,0.00039967,0.00007340,0.00068608,0.00054362,-0.00017519
 ,-0.17719104,-0.03744294,-0.19252053,0.02653617,0.00878696,0.01114665,
 0.00230410,0.00078999,0.00410520,0.00004689,-0.00001063,-0.00025077,-0
 .00008599,0.00001560,0.00000729,0.00006920,-0.00004876,-0.00005931,-0.
 00005339,0.00002173,0.00000912,0.00001852,-0.00022769,-0.00025699,0.17
 061451,0.02961039,0.20321445,0.00034542,-0.00133958,-0.00182869,-0.000
 62692,0.00037666,0.00581761,-0.00015072,0.00019552,-0.00007490,-0.0000
 4450,-0.00046255,0.00007447,-0.00023025,-0.00003672,-0.00011841,-0.000
 06657,0.00011401,-0.00010713,-0.00021110,0.00002495,-0.00005637,-0.000
 04249,0.00030765,0.00002629,-0.02345407,0.00488122,0.00234998,-0.36120
 125,0.19540224,0.07130214,0.00117921,0.00012008,-0.00141205,0.00006309
 ,-0.00006922,0.00006920,-0.00004190,-0.00000264,-0.00002452,0.00001604
 ,-0.00001381,-0.00003344,-0.00003557,-0.00002386,-0.00009570,0.0003049
 4,-0.00007042,-0.00004228,-0.00231254,-0.00007892,0.00199274,0.3868943
 0,0.00027212,0.00121621,-0.00046191,-0.00306214,-0.00348626,-0.0017076
 5,0.00028103,0.00032919,-0.00022339,0.00005599,-0.00011611,0.00014820,
 -0.00005003,-0.00015385,-0.00004286,0.00006171,0.00014444,-0.00006850,
 0.00008030,-0.00013382,0.00011749,-0.00016342,0.00018308,0.00005032,-0
 .04487042,0.00913633,0.01244633,0.25221897,-0.18596760,-0.03698073,-0.
 00077037,-0.00042060,0.00239533,-0.00006630,0.00002945,0.00005052,-0.0
 0000641,0.00000506,0.00002254,-0.00000463,-0.00000214,0.00002107,-0.00
 000901,-0.00000446,-0.00003075,0.00018034,-0.00028691,-0.00023092,-0.0
 0430963,-0.00140310,0.00288052,-0.19964767,0.18110556,-0.00101507,-0.0
 0027154,-0.00058657,0.00983676,-0.00088627,-0.00246122,0.00005023,0.00
 052450,0.00060842,-0.00004619,0.00018910,-0.00017212,-0.00003826,-0.00
 003185,-0.00003868,-0.00004451,0.00005318,-0.00011864,-0.00029791,-0.0
 0017459,0.00004262,-0.00039976,-0.00011470,-0.00004393,0.01504883,-0.0
 0684948,-0.00543274,0.05629357,-0.01480652,-0.01845668,-0.00002364,0.0
 0092691,-0.00221097,0.00007834,-0.00001599,-0.00000108,-0.00001039,0.0
 0002364,-0.00000765,-0.00000310,-0.00002465,-0.00000260,-0.00002429,-0
 .00003098,-0.00001495,0.00017156,-0.00052312,-0.00024685,-0.00185729,0
 .00057313,0.00091676,-0.07782745,0.02139008,0.02832034,-0.31929505,0.1
 1129309,-0.21177921,0.00038049,0.00701361,-0.00284028,0.00215939,-0.00
 164437,-0.00011687,0.00021724,0.00026641,-0.00000531,0.00013263,0.0002
 1062,0.00022779,0.00003250,0.00002221,0.00002531,0.00000711,-0.0000436
 3,0.00029309,-0.00003636,-0.00023215,0.00007774,0.00054163,-0.00229072
 ,0.00019494,-0.00001944,0.00013506,0.00030119,-0.00282265,-0.00274650,
 0.00061155,0.00006185,0.00003301,-0.00013773,0.00004812,-0.00002149,-0
 .00000278,0.00001818,-0.00002607,-0.00005234,0.00001602,-0.00001234,0.
 00000776,0.00003378,0.00002860,-0.00030214,0.00047729,0.00032327,0.000
 24890,-0.00038512,-0.00019041,0.00010858,0.31843241,0.08159457,-0.0561
 7553,0.05258855,0.03759902,-0.02352546,0.02178380,-0.00182030,-0.00450
 772,-0.00062405,0.00168735,0.00038285,-0.00004325,-0.00035784,-0.00040
 457,0.00036792,-0.00009587,0.00001954,-0.00011355,0.00005825,0.0001923
 4,0.00007441,-0.00081696,0.00010376,-0.00026938,-0.00212105,0.00186416
 ,-0.00095297,-0.00040818,-0.00027236,0.00039814,-0.00432437,0.00298683
 ,-0.00157691,0.00002575,-0.00010969,0.00000141,0.00008308,0.00005817,0
 .00010266,0.00003024,0.00001035,-0.00005221,-0.00003896,0.00003652,-0.
 00000462,0.00046594,0.00051748,-0.00024958,0.00023445,-0.00078726,-0.0
 0108491,0.00032307,-0.00017446,0.00004915,-0.11211820,0.07978505,-0.21
 463112,0.07295408,-0.14954732,0.00067908,0.00147222,0.00381766,-0.0015
 7062,-0.00109065,0.00088836,0.00059403,0.00033843,0.00110076,-0.000249
 03,-0.00039616,-0.00016208,0.00005170,0.00020579,-0.00003171,0.0000936
 4,-0.00002781,0.00007762,0.00033734,-0.00002031,-0.00015700,-0.0002431
 2,-0.00074156,-0.00183444,0.00015118,0.00028814,-0.00058202,0.00112495
 ,-0.00157267,-0.00110296,-0.00006454,0.00012068,-0.00001612,0.00009548
 ,-0.00002384,-0.00001961,0.00000357,0.00001481,0.00000709,0.00000834,-
 0.00000787,0.00005319,0.00001076,-0.00013497,0.00003791,0.00048005,-0.
 00120802,-0.00003605,-0.00001148,0.00022432,-0.00009344,0.21313979,-0.
 07039462,0.14760016\\0.00000246,-0.00001924,-0.00000066,-0.00000420,0.
 00001551,0.00000357,-0.00001055,0.00000497,-0.00000637,0.00000878,-0.0
 0000565,0.00001113,-0.00000642,-0.00000240,-0.00000623,0.00000382,0.00
 000849,-0.00000211,0.00000516,-0.00000072,0.00000251,-0.00000551,-0.00
 000611,-0.00000357,0.00000769,-0.00000478,-0.00000696,-0.00000767,-0.0
 0000003,0.00000457,0.00000784,0.00000409,0.00000215,-0.00000088,0.0000
 0168,-0.00000084,0.00000344,0.00000039,-0.00000011,0.00000163,-0.00000
 136,-0.00000161,0.,0.00000075,-0.00000278,-0.00000069,0.00000236,0.000
 00140,-0.00000197,0.00000097,0.00000276,-0.00000148,-0.00000081,-0.000
 00023,-0.00000145,0.00000189,0.00000337\\\@


 THOSE WITH THE GOLD MAKE THE RULES.

             -- PETER'S GOLDEN RULE
 Job cpu time:       0 days  0 hours 58 minutes 28.6 seconds.
 Elapsed time:       0 days  0 hours  2 minutes 27.2 seconds.
 File lengths (MBytes):  RWF=    178 Int=      0 D2E=      0 Chk=      9 Scr=      1
 Normal termination of Gaussian 16 at Sun Oct 13 23:25:36 2019.
real 941.11
user 22014.92
sys 56.21
Machine:
brown-a520
brown-a520
brown-a520
brown-a520
brown-a520
brown-a520
brown-a520
brown-a520
brown-a520
brown-a520
brown-a520
brown-a520
brown-a520
brown-a520
brown-a520
brown-a520
brown-a520
brown-a520
brown-a520
brown-a520
brown-a520
brown-a520
brown-a520
brown-a520
