 Entering Gaussian System, Link 0=/apps/cent7/gaussian/g16-A.03/g16-haswell/g16/g16
 Initial command:
 /apps/cent7/gaussian/g16-A.03/g16-haswell/g16/l1.exe "/scratch/brown/finej/gaussian/Gau-35087.inp" -scrdir="/scratch/brown/finej/gaussian/"
 Entering Link 1 = /apps/cent7/gaussian/g16-A.03/g16-haswell/g16/l1.exe PID=     35088.
  
 Copyright (c) 1988,1990,1992,1993,1995,1998,2003,2009,2016,
            Gaussian, Inc.  All Rights Reserved.
  
 This is part of the Gaussian(R) 16 program.  It is based on
 the Gaussian(R) 09 system (copyright 2009, Gaussian, Inc.),
 the Gaussian(R) 03 system (copyright 2003, Gaussian, Inc.),
 the Gaussian(R) 98 system (copyright 1998, Gaussian, Inc.),
 the Gaussian(R) 94 system (copyright 1995, Gaussian, Inc.),
 the Gaussian 92(TM) system (copyright 1992, Gaussian, Inc.),
 the Gaussian 90(TM) system (copyright 1990, Gaussian, Inc.),
 the Gaussian 88(TM) system (copyright 1988, Gaussian, Inc.),
 the Gaussian 86(TM) system (copyright 1986, Carnegie Mellon
 University), and the Gaussian 82(TM) system (copyright 1983,
 Carnegie Mellon University). Gaussian is a federally registered
 trademark of Gaussian, Inc.
  
 This software contains proprietary and confidential information,
 including trade secrets, belonging to Gaussian, Inc.
  
 This software is provided under written license and may be
 used, copied, transmitted, or stored only in accord with that
 written license.
  
 The following legend is applicable only to US Government
 contracts under FAR:
  
                    RESTRICTED RIGHTS LEGEND
  
 Use, reproduction and disclosure by the US Government is
 subject to restrictions as set forth in subparagraphs (a)
 and (c) of the Commercial Computer Software - Restricted
 Rights clause in FAR 52.227-19.
  
 Gaussian, Inc.
 340 Quinnipiac St., Bldg. 40, Wallingford CT 06492
  
  
 ---------------------------------------------------------------
 Warning -- This program may not be used in any manner that
 competes with the business of Gaussian, Inc. or will provide
 assistance to any competitor of Gaussian, Inc.  The licensee
 of this program is prohibited from giving any competitor of
 Gaussian, Inc. access to this program.  By using this program,
 the user acknowledges that Gaussian, Inc. is engaged in the
 business of creating and licensing software in the field of
 computational chemistry and represents and warrants to the
 licensee that it is not a competitor of Gaussian, Inc. and that
 it will not use this program in any manner prohibited above.
 ---------------------------------------------------------------
  

 Cite this work as:
 Gaussian 16, Revision A.03,
 M. J. Frisch, G. W. Trucks, H. B. Schlegel, G. E. Scuseria, 
 M. A. Robb, J. R. Cheeseman, G. Scalmani, V. Barone, 
 G. A. Petersson, H. Nakatsuji, X. Li, M. Caricato, A. V. Marenich, 
 J. Bloino, B. G. Janesko, R. Gomperts, B. Mennucci, H. P. Hratchian, 
 J. V. Ortiz, A. F. Izmaylov, J. L. Sonnenberg, D. Williams-Young, 
 F. Ding, F. Lipparini, F. Egidi, J. Goings, B. Peng, A. Petrone, 
 T. Henderson, D. Ranasinghe, V. G. Zakrzewski, J. Gao, N. Rega, 
 G. Zheng, W. Liang, M. Hada, M. Ehara, K. Toyota, R. Fukuda, 
 J. Hasegawa, M. Ishida, T. Nakajima, Y. Honda, O. Kitao, H. Nakai, 
 T. Vreven, K. Throssell, J. A. Montgomery, Jr., J. E. Peralta, 
 F. Ogliaro, M. J. Bearpark, J. J. Heyd, E. N. Brothers, K. N. Kudin, 
 V. N. Staroverov, T. A. Keith, R. Kobayashi, J. Normand, 
 K. Raghavachari, A. P. Rendell, J. C. Burant, S. S. Iyengar, 
 J. Tomasi, M. Cossi, J. M. Millam, M. Klene, C. Adamo, R. Cammi, 
 J. W. Ochterski, R. L. Martin, K. Morokuma, O. Farkas, 
 J. B. Foresman, and D. J. Fox, Gaussian, Inc., Wallingford CT, 2016.
 
 ******************************************
 Gaussian 16:  ES64L-G16RevA.03 25-Dec-2016
                13-Oct-2019 
 ******************************************
 %chk=2_p.chk
 %nprocshared=24
 Will use up to   24 processors via shared memory.
 %mem=80GB
 -------------------------------------------------------------------
 #P opt freq m062x/6-311++g(d,p) geom=connectivity temperature=0.001
 -------------------------------------------------------------------
 1/18=20,19=15,26=3,38=1,57=2,112=-1000/1,3;
 2/9=110,12=2,17=6,18=5,40=1/2;
 3/5=4,6=6,7=1111,11=2,25=1,30=1,71=1,74=-55/1,2,3;
 4//1;
 5/5=2,38=5/2;
 6/7=2,8=2,9=2,10=2,28=1/1;
 7//1,2,3,16;
 1/18=20,19=15,26=3/3(2);
 2/9=110/2;
 99//99;
 2/9=110/2;
 3/5=4,6=6,7=1111,11=2,25=1,30=1,71=1,74=-55/1,2,3;
 4/5=5,16=3,69=1/1;
 5/5=2,38=5/2;
 7//1,2,3,16;
 1/18=20,19=15,26=3/3(-5);
 2/9=110/2;
 6/7=2,8=2,9=2,10=2,19=2,28=1/1;
 99/9=1/99;
 Leave Link    1 at Sun Oct 13 23:10:10 2019, MaxMem= 10737418240 cpu:               1.7 elap:               0.1
 (Enter /apps/cent7/gaussian/g16-A.03/g16-haswell/g16/l101.exe)
 -------------------
 Title Card Required
 -------------------
 Symbolic Z-matrix:
 Charge =  1 Multiplicity = 1
 O                     1.2297   -0.118    -0.0218 
 N                    -0.0286    0.0421   -0.007 
 C                    -0.6307    1.1748   -0.0132 
 C                    -1.9705    1.3227    0.0019 
 O                    -2.8586    0.3182    0.0307 
 C                    -3.2781   -0.0096    1.3699 
 N                    -2.3119    2.5611   -0.0253 
 C                    -1.2233    3.2866   -0.0347 
 C                    -1.0742    4.6849   -0.023 
 C                     0.2311    5.221    -0.0064 
 C                     1.3565    4.365    -0.0046 
 C                     1.1911    2.9621   -0.0148 
 C                    -0.1183    2.4411   -0.0282 
 H                     1.5576   -0.1597    0.8795 
 H                    -3.314    -1.093     1.4844 
 H                    -2.5695    0.4081    2.0851 
 H                    -4.2681    0.4081    1.553 
 H                    -1.948     5.3365   -0.0266 
 H                     0.3708    6.3019    0.005 
 H                     2.3601    4.7902    0.0046 
 H                     2.0544    2.2967   -0.0123 
 H                    -0.59672  -0.78065   0.01094 
 
 ITRead=  0  0  0  0  0  0  0  0  0  0  0  0  0  0  0  0  0  0  0  0
 ITRead=  0  0
 MicOpt= -1 -1 -1 -1 -1 -1 -1 -1 -1 -1 -1 -1 -1 -1 -1 -1 -1 -1 -1 -1
 MicOpt= -1 -1
 NAtoms=     22 NQM=       22 NQMF=       0 NMMI=      0 NMMIF=      0
                NMic=       0 NMicF=      0.
                    Isotopes and Nuclear Properties:
 (Nuclear quadrupole moments (NQMom) in fm**2, nuclear magnetic moments (NMagM)
  in nuclear magnetons)

  Atom         1           2           3           4           5           6           7           8           9          10
 IAtWgt=          16          14          12          12          16          12          14          12          12          12
 AtmWgt=  15.9949146  14.0030740  12.0000000  12.0000000  15.9949146  12.0000000  14.0030740  12.0000000  12.0000000  12.0000000
 NucSpn=           0           2           0           0           0           0           2           0           0           0
 AtZEff=  -0.0000000  -0.0000000  -0.0000000  -0.0000000  -0.0000000  -0.0000000  -0.0000000  -0.0000000  -0.0000000  -0.0000000
 NQMom=    0.0000000   2.0440000   0.0000000   0.0000000   0.0000000   0.0000000   2.0440000   0.0000000   0.0000000   0.0000000
 NMagM=    0.0000000   0.4037610   0.0000000   0.0000000   0.0000000   0.0000000   0.4037610   0.0000000   0.0000000   0.0000000
 AtZNuc=   8.0000000   7.0000000   6.0000000   6.0000000   8.0000000   6.0000000   7.0000000   6.0000000   6.0000000   6.0000000

  Atom        11          12          13          14          15          16          17          18          19          20
 IAtWgt=          12          12          12           1           1           1           1           1           1           1
 AtmWgt=  12.0000000  12.0000000  12.0000000   1.0078250   1.0078250   1.0078250   1.0078250   1.0078250   1.0078250   1.0078250
 NucSpn=           0           0           0           1           1           1           1           1           1           1
 AtZEff=  -0.0000000  -0.0000000  -0.0000000  -0.0000000  -0.0000000  -0.0000000  -0.0000000  -0.0000000  -0.0000000  -0.0000000
 NQMom=    0.0000000   0.0000000   0.0000000   0.0000000   0.0000000   0.0000000   0.0000000   0.0000000   0.0000000   0.0000000
 NMagM=    0.0000000   0.0000000   0.0000000   2.7928460   2.7928460   2.7928460   2.7928460   2.7928460   2.7928460   2.7928460
 AtZNuc=   6.0000000   6.0000000   6.0000000   1.0000000   1.0000000   1.0000000   1.0000000   1.0000000   1.0000000   1.0000000

  Atom        21          22
 IAtWgt=           1           1
 AtmWgt=   1.0078250   1.0078250
 NucSpn=           1           1
 AtZEff=  -0.0000000  -0.0000000
 NQMom=    0.0000000   0.0000000
 NMagM=    2.7928460   2.7928460
 AtZNuc=   1.0000000   1.0000000
 Leave Link  101 at Sun Oct 13 23:10:10 2019, MaxMem= 10737418240 cpu:               8.3 elap:               0.4
 (Enter /apps/cent7/gaussian/g16-A.03/g16-haswell/g16/l103.exe)

 GradGradGradGradGradGradGradGradGradGradGradGradGradGradGradGradGradGrad
 Berny optimization.
 Initialization pass.
                           ----------------------------
                           !    Initial Parameters    !
                           ! (Angstroms and Degrees)  !
 --------------------------                            --------------------------
 ! Name  Definition              Value          Derivative Info.                !
 --------------------------------------------------------------------------------
 ! R1    R(1,2)                  1.2685         estimate D2E/DX2                !
 ! R2    R(1,14)                 0.96           estimate D2E/DX2                !
 ! R3    R(2,3)                  1.2828         estimate D2E/DX2                !
 ! R4    R(2,22)                 1.0            estimate D2E/DX2                !
 ! R5    R(3,4)                  1.348          estimate D2E/DX2                !
 ! R6    R(3,13)                 1.3661         estimate D2E/DX2                !
 ! R7    R(4,5)                  1.3411         estimate D2E/DX2                !
 ! R8    R(4,7)                  1.2849         estimate D2E/DX2                !
 ! R9    R(5,6)                  1.4411         estimate D2E/DX2                !
 ! R10   R(6,15)                 1.09           estimate D2E/DX2                !
 ! R11   R(6,16)                 1.09           estimate D2E/DX2                !
 ! R12   R(6,17)                 1.09           estimate D2E/DX2                !
 ! R13   R(7,8)                  1.3082         estimate D2E/DX2                !
 ! R14   R(8,9)                  1.4063         estimate D2E/DX2                !
 ! R15   R(8,13)                 1.3914         estimate D2E/DX2                !
 ! R16   R(9,10)                 1.4112         estimate D2E/DX2                !
 ! R17   R(9,18)                 1.09           estimate D2E/DX2                !
 ! R18   R(10,11)                1.414          estimate D2E/DX2                !
 ! R19   R(10,19)                1.0899         estimate D2E/DX2                !
 ! R20   R(11,12)                1.4127         estimate D2E/DX2                !
 ! R21   R(11,20)                1.09           estimate D2E/DX2                !
 ! R22   R(12,13)                1.4093         estimate D2E/DX2                !
 ! R23   R(12,21)                1.09           estimate D2E/DX2                !
 ! A1    A(2,1,14)             109.4714         estimate D2E/DX2                !
 ! A2    A(1,2,3)              125.2373         estimate D2E/DX2                !
 ! A3    A(1,2,22)             117.3814         estimate D2E/DX2                !
 ! A4    A(3,2,22)             117.3814         estimate D2E/DX2                !
 ! A5    A(2,3,4)              124.2861         estimate D2E/DX2                !
 ! A6    A(2,3,13)             129.9767         estimate D2E/DX2                !
 ! A7    A(4,3,13)             105.7364         estimate D2E/DX2                !
 ! A8    A(3,4,5)              125.1862         estimate D2E/DX2                !
 ! A9    A(3,4,7)              111.6906         estimate D2E/DX2                !
 ! A10   A(5,4,7)              123.1211         estimate D2E/DX2                !
 ! A11   A(4,5,6)              112.525          estimate D2E/DX2                !
 ! A12   A(5,6,15)             109.4677         estimate D2E/DX2                !
 ! A13   A(5,6,16)             109.4713         estimate D2E/DX2                !
 ! A14   A(5,6,17)             109.4703         estimate D2E/DX2                !
 ! A15   A(15,6,16)            109.4734         estimate D2E/DX2                !
 ! A16   A(15,6,17)            109.4706         estimate D2E/DX2                !
 ! A17   A(16,6,17)            109.474          estimate D2E/DX2                !
 ! A18   A(4,7,8)              108.2736         estimate D2E/DX2                !
 ! A19   A(7,8,9)              129.7606         estimate D2E/DX2                !
 ! A20   A(7,8,13)             108.894          estimate D2E/DX2                !
 ! A21   A(9,8,13)             121.3311         estimate D2E/DX2                !
 ! A22   A(8,9,10)             118.418          estimate D2E/DX2                !
 ! A23   A(8,9,18)             120.6226         estimate D2E/DX2                !
 ! A24   A(10,9,18)            120.9594         estimate D2E/DX2                !
 ! A25   A(9,10,11)            120.4129         estimate D2E/DX2                !
 ! A26   A(9,10,19)            119.6968         estimate D2E/DX2                !
 ! A27   A(11,10,19)           119.8903         estimate D2E/DX2                !
 ! A28   A(10,11,12)           120.5317         estimate D2E/DX2                !
 ! A29   A(10,11,20)           119.7811         estimate D2E/DX2                !
 ! A30   A(12,11,20)           119.6872         estimate D2E/DX2                !
 ! A31   A(11,12,13)           118.4235         estimate D2E/DX2                !
 ! A32   A(11,12,21)           120.8976         estimate D2E/DX2                !
 ! A33   A(13,12,21)           120.6789         estimate D2E/DX2                !
 ! A34   A(3,13,8)             105.3932         estimate D2E/DX2                !
 ! A35   A(3,13,12)            133.7136         estimate D2E/DX2                !
 ! A36   A(8,13,12)            120.8821         estimate D2E/DX2                !
 ! D1    D(14,1,2,3)            90.8101         estimate D2E/DX2                !
 ! D2    D(14,1,2,22)          -89.1899         estimate D2E/DX2                !
 ! D3    D(1,2,3,4)            179.9515         estimate D2E/DX2                !
 ! D4    D(1,2,3,13)            -0.4253         estimate D2E/DX2                !
 ! D5    D(22,2,3,4)            -0.0485         estimate D2E/DX2                !
 ! D6    D(22,2,3,13)          179.5747         estimate D2E/DX2                !
 ! D7    D(2,3,4,5)              0.2803         estimate D2E/DX2                !
 ! D8    D(2,3,4,7)           -179.2119         estimate D2E/DX2                !
 ! D9    D(13,3,4,5)          -179.4197         estimate D2E/DX2                !
 ! D10   D(13,3,4,7)             1.0881         estimate D2E/DX2                !
 ! D11   D(2,3,13,8)           179.7295         estimate D2E/DX2                !
 ! D12   D(2,3,13,12)           -1.5215         estimate D2E/DX2                !
 ! D13   D(4,3,13,8)            -0.594          estimate D2E/DX2                !
 ! D14   D(4,3,13,12)          178.155          estimate D2E/DX2                !
 ! D15   D(3,4,5,6)             94.1032         estimate D2E/DX2                !
 ! D16   D(7,4,5,6)            -86.4602         estimate D2E/DX2                !
 ! D17   D(3,4,7,8)             -1.1405         estimate D2E/DX2                !
 ! D18   D(5,4,7,8)            179.3551         estimate D2E/DX2                !
 ! D19   D(4,5,6,15)          -137.3784         estimate D2E/DX2                !
 ! D20   D(4,5,6,16)           -17.3779         estimate D2E/DX2                !
 ! D21   D(4,5,6,17)           102.625          estimate D2E/DX2                !
 ! D22   D(4,7,8,9)           -177.8958         estimate D2E/DX2                !
 ! D23   D(4,7,8,13)             0.7177         estimate D2E/DX2                !
 ! D24   D(7,8,9,10)           178.5594         estimate D2E/DX2                !
 ! D25   D(7,8,9,18)            -1.4343         estimate D2E/DX2                !
 ! D26   D(13,8,9,10)            0.0952         estimate D2E/DX2                !
 ! D27   D(13,8,9,18)         -179.8985         estimate D2E/DX2                !
 ! D28   D(7,8,13,3)            -0.0521         estimate D2E/DX2                !
 ! D29   D(7,8,13,12)         -178.9985         estimate D2E/DX2                !
 ! D30   D(9,8,13,3)           178.7001         estimate D2E/DX2                !
 ! D31   D(9,8,13,12)           -0.2463         estimate D2E/DX2                !
 ! D32   D(8,9,10,11)            0.1337         estimate D2E/DX2                !
 ! D33   D(8,9,10,19)         -179.8718         estimate D2E/DX2                !
 ! D34   D(18,9,10,11)        -179.8726         estimate D2E/DX2                !
 ! D35   D(18,9,10,19)           0.1219         estimate D2E/DX2                !
 ! D36   D(9,10,11,12)          -0.2154         estimate D2E/DX2                !
 ! D37   D(9,10,11,20)         179.7767         estimate D2E/DX2                !
 ! D38   D(19,10,11,12)        179.7902         estimate D2E/DX2                !
 ! D39   D(19,10,11,20)         -0.2177         estimate D2E/DX2                !
 ! D40   D(10,11,12,13)          0.0669         estimate D2E/DX2                !
 ! D41   D(10,11,12,21)       -179.928          estimate D2E/DX2                !
 ! D42   D(20,11,12,13)       -179.9253         estimate D2E/DX2                !
 ! D43   D(20,11,12,21)          0.0799         estimate D2E/DX2                !
 ! D44   D(11,12,13,3)        -178.433          estimate D2E/DX2                !
 ! D45   D(11,12,13,8)           0.1616         estimate D2E/DX2                !
 ! D46   D(21,12,13,3)           1.5618         estimate D2E/DX2                !
 ! D47   D(21,12,13,8)        -179.8435         estimate D2E/DX2                !
 --------------------------------------------------------------------------------
 Trust Radius=3.00D-01 FncErr=1.00D-07 GrdErr=1.00D-06 EigMax=2.50D+02 EigMin=1.00D-04
 Number of steps in this run=    116 maximum allowed number of steps=    132.
 GradGradGradGradGradGradGradGradGradGradGradGradGradGradGradGradGradGrad

 Leave Link  103 at Sun Oct 13 23:10:10 2019, MaxMem= 10737418240 cpu:               0.3 elap:               0.0
 (Enter /apps/cent7/gaussian/g16-A.03/g16-haswell/g16/l202.exe)
                          Input orientation:                          
 ---------------------------------------------------------------------
 Center     Atomic      Atomic             Coordinates (Angstroms)
 Number     Number       Type             X           Y           Z
 ---------------------------------------------------------------------
      1          8           0        1.229700   -0.118000   -0.021800
      2          7           0       -0.028600    0.042100   -0.007000
      3          6           0       -0.630700    1.174800   -0.013200
      4          6           0       -1.970500    1.322700    0.001900
      5          8           0       -2.858600    0.318200    0.030700
      6          6           0       -3.278100   -0.009600    1.369900
      7          7           0       -2.311900    2.561100   -0.025300
      8          6           0       -1.223300    3.286600   -0.034700
      9          6           0       -1.074200    4.684900   -0.023000
     10          6           0        0.231100    5.221000   -0.006400
     11          6           0        1.356500    4.365000   -0.004600
     12          6           0        1.191100    2.962100   -0.014800
     13          6           0       -0.118300    2.441100   -0.028200
     14          1           0        1.557600   -0.159700    0.879500
     15          1           0       -3.314000   -1.093000    1.484400
     16          1           0       -2.569500    0.408100    2.085100
     17          1           0       -4.268100    0.408100    1.553000
     18          1           0       -1.948000    5.336500   -0.026600
     19          1           0        0.370800    6.301900    0.005000
     20          1           0        2.360100    4.790200    0.004600
     21          1           0        2.054400    2.296700   -0.012300
     22          1           0       -0.596722   -0.780649    0.010939
 ---------------------------------------------------------------------
                    Distance matrix (angstroms):
                    1          2          3          4          5
     1  O    0.000000
     2  N    1.268531   0.000000
     3  C    2.265501   1.282799   0.000000
     4  C    3.509624   2.326154   1.348023   0.000000
     5  O    4.111839   2.843686   2.387306   1.341108   0.000000
     6  C    4.718987   3.529558   3.213175   2.314361   1.441142
     7  N    4.440779   3.399876   2.179084   1.284885   2.309246
     8  C    4.196269   3.457579   2.193476   2.101559   3.389673
     9  C    5.326895   4.759110   3.538021   3.479707   4.717524
    10  C    5.431608   5.185407   4.136965   4.477036   5.795263
    11  C    4.484826   4.539380   3.758512   4.508277   5.843364
    12  C    3.080350   3.164511   2.552136   3.561408   4.836564
    13  C    2.892428   2.400770   1.366124   2.163878   3.466903
    14  H    0.959999   1.828288   2.714122   3.926217   4.522353
    15  H    4.885128   3.782404   3.819139   3.136623   2.076564
    16  H    4.376040   3.311648   2.957979   2.352662   2.076589
    17  H    5.743046   4.532209   4.033794   2.919139   2.076576
    18  H    6.312636   5.631621   4.365227   4.013964   5.100570
    19  H    6.477156   6.272540   5.224030   5.502193   6.799585
    20  H    5.036758   5.315118   4.692155   5.547762   6.872721
    21  H    2.551665   3.069550   2.910055   4.141099   5.296591
    22  H    1.943191   1.000000   1.955893   2.512255   2.514747
                    6          7          8          9         10
     6  C    0.000000
     7  N    3.080361   0.000000
     8  C    4.130380   1.308239   0.000000
     9  C    5.369886   2.458136   1.406275   0.000000
    10  C    6.447314   3.679983   2.420327   1.411201   0.000000
    11  C    6.519654   4.087988   2.796287   2.451729   1.413953
    12  C    5.542756   3.525893   2.436190   2.845996   2.454445
    13  C    4.236148   2.196882   1.391380   2.438936   2.801856
    14  H    4.862820   4.816061   4.521742   5.586683   5.612161
    15  H    1.090025   4.078706   5.085232   6.377546   7.393025
    16  H    1.089999   3.025815   3.819891   4.997102   5.948255
    17  H    1.089999   3.309556   4.480777   5.565590   6.770416
    18  H    5.683323   2.799155   2.174246   1.090010   2.182252
    19  H    7.417038   4.603410   3.410977   2.168755   1.089950
    20  H    7.529371   5.176617   3.886272   3.436025   2.172176
    21  H    5.972023   4.374317   3.423992   3.935956   3.446156
    22  H    3.103399   3.756386   4.115483   5.486471   6.058497
                   11         12         13         14         15
    11  C    0.000000
    12  C    1.412653   0.000000
    13  C    2.424249   1.409308   0.000000
    14  H    4.614649   3.267986   3.224395   0.000000
    15  H    7.336243   6.243986   4.999032   4.996943   0.000000
    16  H    5.952930   5.007455   3.821977   4.336914   1.780006
    17  H    7.051191   6.227662   4.884068   5.891925   1.779976
    18  H    3.444418   3.935970   3.425076   6.581676   6.744446
    19  H    2.173310   3.439120   3.891799   6.627633   8.393505
    20  H    1.089997   2.169997   3.414940   5.090282   8.306459
    21  H    2.182885   1.089977   2.177551   2.660079   6.523028
    22  H    5.503910   4.147908   3.257313   2.404387   3.106808
                   16         17         18         19         20
    16  H    0.000000
    17  H    1.779992   0.000000
    18  H    5.397654   5.671607   0.000000
    19  H    6.907174   7.658497   2.511937   0.000000
    20  H    6.916085   8.095269   4.342711   2.498510   0.000000
    21  H    5.417227   6.781665   5.025912   4.344702   2.512226
    22  H    3.099536   4.155731   6.264733   7.148331   6.306916
                   21         22
    21  H    0.000000
    22  H    4.061904   0.000000
 Stoichiometry    C9H9N2O2(1+)
 Framework group  C1[X(C9H9N2O2)]
 Deg. of freedom    60
 Full point group                 C1      NOp   1
 Largest Abelian subgroup         C1      NOp   1
 Largest concise Abelian subgroup C1      NOp   1
                         Standard orientation:                         
 ---------------------------------------------------------------------
 Center     Atomic      Atomic             Coordinates (Angstroms)
 Number     Number       Type             X           Y           Z
 ---------------------------------------------------------------------
      1          8           0        0.812972    2.813424   -0.060654
      2          7           0        1.322500    1.658470   -0.185674
      3          6           0        0.665547    0.556696   -0.194581
      4          6           0        1.227221   -0.661264   -0.329721
      5          8           0        2.540470   -0.895671   -0.467573
      6          6           0        3.186297   -1.175636    0.789971
      7          7           0        0.344420   -1.594822   -0.322073
      8          6           0       -0.831704   -1.045878   -0.158117
      9          6           0       -2.097353   -1.648138   -0.043976
     10          6           0       -3.220191   -0.818005    0.159986
     11          6           0       -3.067244    0.585172    0.243454
     12          6           0       -1.789163    1.175854    0.128585
     13          6           0       -0.676721    0.334144   -0.071776
     14          1           0        0.782877    3.050987    0.869000
     15          1           0        4.140177   -0.649920    0.833451
     16          1           0        2.549014   -0.840423    1.608263
     17          1           0        3.358222   -2.248284    0.879235
     18          1           0       -2.205262   -2.730673   -0.111757
     19          1           0       -4.210796   -1.262926    0.253454
     20          1           0       -3.942038    1.216905    0.397531
     21          1           0       -1.664252    2.256721    0.193192
     22          1           0        2.315947    1.602389   -0.285271
 ---------------------------------------------------------------------
 Rotational constants (GHZ):           1.3652836           0.6909890           0.4772768
 Leave Link  202 at Sun Oct 13 23:10:10 2019, MaxMem= 10737418240 cpu:               0.5 elap:               0.0
 (Enter /apps/cent7/gaussian/g16-A.03/g16-haswell/g16/l301.exe)
 Standard basis: 6-311++G(d,p) (5D, 7F)
 Ernie: Thresh=  0.10000D-02 Tol=  0.10000D-05 Strict=F.
 There are   362 symmetry adapted cartesian basis functions of A   symmetry.
 There are   349 symmetry adapted basis functions of A   symmetry.
   349 basis functions,   549 primitive gaussians,   362 cartesian basis functions
    46 alpha electrons       46 beta electrons
       nuclear repulsion energy       783.9889774418 Hartrees.
 IExCor= 4336 DFT=T Ex+Corr=M062X ExCW=0 ScaHFX=  0.540000
 ScaDFX=  1.000000  1.000000  1.000000  1.000000 ScalE2=  1.000000  1.000000
 IRadAn=      5 IRanWt=     -1 IRanGd=            0 ICorTp=0 IEmpDi=  4
 NAtoms=   22 NActive=   22 NUniq=   22 SFac= 1.00D+00 NAtFMM=   60 NAOKFM=F Big=F
 Integral buffers will be    131072 words long.
 Raffenetti 2 integral format.
 Two-electron integral symmetry is turned on.
 Leave Link  301 at Sun Oct 13 23:10:11 2019, MaxMem= 10737418240 cpu:               1.7 elap:               0.1
 (Enter /apps/cent7/gaussian/g16-A.03/g16-haswell/g16/l302.exe)
 NPDir=0 NMtPBC=     1 NCelOv=     1 NCel=       1 NClECP=     1 NCelD=      1
         NCelK=      1 NCelE2=     1 NClLst=     1 CellRange=     0.0.
 One-electron integrals computed using PRISM.
 One-electron integral symmetry used in STVInt
 NBasis=   349 RedAO= T EigKep=  2.00D-06  NBF=   349
 NBsUse=   347 1.00D-06 EigRej=  6.06D-07 NBFU=   347
 Precomputing XC quadrature grid using
 IXCGrd= 4 IRadAn=           5 IRanWt=          -1 IRanGd=           0 AccXCQ= 0.00D+00.
 Generated NRdTot=       0 NPtTot=           0 NUsed=           0 NTot=          32
 NSgBfM=   362   362   362   362   362 MxSgAt=    22 MxSgA2=    22.
 Leave Link  302 at Sun Oct 13 23:10:11 2019, MaxMem= 10737418240 cpu:               5.5 elap:               0.3
 (Enter /apps/cent7/gaussian/g16-A.03/g16-haswell/g16/l303.exe)
 DipDrv:  MaxL=1.
 Leave Link  303 at Sun Oct 13 23:10:11 2019, MaxMem= 10737418240 cpu:               1.7 elap:               0.1
 (Enter /apps/cent7/gaussian/g16-A.03/g16-haswell/g16/l401.exe)
 ExpMin= 3.60D-02 ExpMax= 8.59D+03 ExpMxC= 1.30D+03 IAcc=3 IRadAn=         5 AccDes= 0.00D+00
 Harris functional with IExCor= 1009 and IRadAn=       5 diagonalized for initial guess.
 HarFok:  IExCor= 1009 AccDes= 0.00D+00 IRadAn=         5 IDoV= 1 UseB2=F ITyADJ=14
 ICtDFT=  3500011 ScaDFX=  1.000000  1.000000  1.000000  1.000000
 FoFCou: FMM=F IPFlag=           0 FMFlag=      100000 FMFlg1=           0
         NFxFlg=           0 DoJE=T BraDBF=F KetDBF=T FulRan=T
         wScrn=  0.000000 ICntrl=       500 IOpCl=  0 I1Cent=   200000004 NGrid=           0
         NMat0=    1 NMatS0=      1 NMatT0=    0 NMatD0=    1 NMtDS0=    0 NMtDT0=    0
 Petite list used in FoFCou.
 Harris En= -607.573059705766    
 JPrj=0 DoOrth=F DoCkMO=F.
 Leave Link  401 at Sun Oct 13 23:10:12 2019, MaxMem= 10737418240 cpu:              14.0 elap:               0.6
 (Enter /apps/cent7/gaussian/g16-A.03/g16-haswell/g16/l502.exe)
 Integral symmetry usage will be decided dynamically.
 Closed shell SCF:
 Using DIIS extrapolation, IDIIS=  1040.
 NGot= 10737418240 LenX= 10737143966 LenY= 10737012481
 Requested convergence on RMS density matrix=1.00D-08 within 128 cycles.
 Requested convergence on MAX density matrix=1.00D-06.
 Requested convergence on             energy=1.00D-06.
 No special actions if energy rises.
 Fock matrices will be formed incrementally for  20 cycles.

 Cycle   1  Pass 1  IDiag  1:
 FoFJK:  IHMeth= 1 ICntrl=       0 DoSepK=F KAlg= 0 I1Cent=           0 FoldK=F
 IRaf= 910000000 NMat=       1 IRICut=       1 DoRegI=T DoRafI=F ISym2E= 0 IDoP0=0 IntGTp=1.
 FoFCou: FMM=F IPFlag=           0 FMFlag=      100000 FMFlg1=           0
         NFxFlg=           0 DoJE=F BraDBF=F KetDBF=F FulRan=T
         wScrn=  0.000000 ICntrl=         0 IOpCl=  0 I1Cent=           0 NGrid=           0
         NMat0=    1 NMatS0=      1 NMatT0=    0 NMatD0=    1 NMtDS0=    0 NMtDT0=    0
 Symmetry not used in FoFCou.
 E= -607.504843075407    
 DIIS: error= 2.59D-02 at cycle   1 NSaved=   1.
 NSaved= 1 IEnMin= 1 EnMin= -607.504843075407     IErMin= 1 ErrMin= 2.59D-02
 ErrMax= 2.59D-02  0.00D+00 EMaxC= 1.00D-01 BMatC= 4.10D-01 BMatP= 4.10D-01
 IDIUse=3 WtCom= 7.41D-01 WtEn= 2.59D-01
 Coeff-Com:  0.100D+01
 Coeff-En:   0.100D+01
 Coeff:      0.100D+01
 Gap=    -0.015 Goal=   None    Shift=    0.000
 GapD=   -0.015 DampG=0.250 DampE=0.500 DampFc=0.2500 IDamp=-1.
 Damping current iteration by 2.50D-01
 RMSDP=5.74D-02 MaxDP=4.71D+00              OVMax= 4.72D-01

 Cycle   2  Pass 1  IDiag  1:
 RMSU=  1.05D-02    CP:  1.17D+00
 E= -607.615500420368     Delta-E=       -0.110657344961 Rises=F Damp=T
 DIIS: error= 1.01D-02 at cycle   2 NSaved=   2.
 NSaved= 2 IEnMin= 2 EnMin= -607.615500420368     IErMin= 2 ErrMin= 1.01D-02
 ErrMax= 1.01D-02  0.00D+00 EMaxC= 1.00D-01 BMatC= 1.35D-01 BMatP= 4.10D-01
 IDIUse=3 WtCom= 8.99D-01 WtEn= 1.01D-01
 Coeff-Com: -0.777D+00 0.178D+01
 Coeff-En:   0.000D+00 0.100D+01
 Coeff:     -0.699D+00 0.170D+01
 Gap=     0.130 Goal=   None    Shift=    0.000
 RMSDP=7.65D-03 MaxDP=5.14D-01 DE=-1.11D-01 OVMax= 5.14D-01

 Cycle   3  Pass 1  IDiag  1:
 RMSU=  5.78D-03    CP:  1.22D+00  1.42D+00
 E= -607.780434657288     Delta-E=       -0.164934236920 Rises=F Damp=F
 DIIS: error= 1.85D-02 at cycle   3 NSaved=   3.
 NSaved= 3 IEnMin= 3 EnMin= -607.780434657288     IErMin= 2 ErrMin= 1.01D-02
 ErrMax= 1.85D-02  0.00D+00 EMaxC= 1.00D-01 BMatC= 5.51D-02 BMatP= 1.35D-01
 IDIUse=3 WtCom= 8.15D-01 WtEn= 1.85D-01
 Coeff-Com: -0.534D+00 0.957D+00 0.577D+00
 Coeff-En:   0.000D+00 0.000D+00 0.100D+01
 Coeff:     -0.436D+00 0.780D+00 0.655D+00
 Gap=     0.140 Goal=   None    Shift=    0.000
 RMSDP=5.52D-03 MaxDP=4.06D-01 DE=-1.65D-01 OVMax= 1.56D-01

 Cycle   4  Pass 1  IDiag  1:
 RMSU=  5.14D-03    CP:  1.19D+00  1.48D+00  7.66D-01
 E= -607.826378234593     Delta-E=       -0.045943577305 Rises=F Damp=F
 DIIS: error= 7.48D-03 at cycle   4 NSaved=   4.
 NSaved= 4 IEnMin= 4 EnMin= -607.826378234593     IErMin= 4 ErrMin= 7.48D-03
 ErrMax= 7.48D-03  0.00D+00 EMaxC= 1.00D-01 BMatC= 1.27D-02 BMatP= 5.51D-02
 IDIUse=3 WtCom= 9.25D-01 WtEn= 7.48D-02
 Coeff-Com: -0.130D+00 0.220D+00 0.353D+00 0.557D+00
 Coeff-En:   0.000D+00 0.000D+00 0.197D+00 0.803D+00
 Coeff:     -0.120D+00 0.203D+00 0.341D+00 0.576D+00
 Gap=     0.151 Goal=   None    Shift=    0.000
 RMSDP=2.60D-03 MaxDP=1.85D-01 DE=-4.59D-02 OVMax= 5.94D-02

 Cycle   5  Pass 1  IDiag  1:
 RMSU=  9.74D-04    CP:  1.17D+00  1.48D+00  8.01D-01  5.82D-01
 E= -607.839429326919     Delta-E=       -0.013051092325 Rises=F Damp=F
 DIIS: error= 2.32D-03 at cycle   5 NSaved=   5.
 NSaved= 5 IEnMin= 5 EnMin= -607.839429326919     IErMin= 5 ErrMin= 2.32D-03
 ErrMax= 2.32D-03  0.00D+00 EMaxC= 1.00D-01 BMatC= 9.89D-04 BMatP= 1.27D-02
 IDIUse=3 WtCom= 9.77D-01 WtEn= 2.32D-02
 Coeff-Com: -0.751D-02 0.772D-02 0.105D+00 0.309D+00 0.586D+00
 Coeff-En:   0.000D+00 0.000D+00 0.000D+00 0.000D+00 0.100D+01
 Coeff:     -0.734D-02 0.754D-02 0.103D+00 0.301D+00 0.596D+00
 Gap=     0.155 Goal=   None    Shift=    0.000
 RMSDP=5.40D-04 MaxDP=4.41D-02 DE=-1.31D-02 OVMax= 1.20D-02

 Cycle   6  Pass 1  IDiag  1:
 RMSU=  3.12D-04    CP:  1.18D+00  1.49D+00  8.14D-01  6.40D-01  8.90D-01
 E= -607.840411139145     Delta-E=       -0.000981812226 Rises=F Damp=F
 DIIS: error= 3.15D-04 at cycle   6 NSaved=   6.
 NSaved= 6 IEnMin= 6 EnMin= -607.840411139145     IErMin= 6 ErrMin= 3.15D-04
 ErrMax= 3.15D-04  0.00D+00 EMaxC= 1.00D-01 BMatC= 3.80D-05 BMatP= 9.89D-04
 IDIUse=3 WtCom= 9.97D-01 WtEn= 3.15D-03
 Coeff-Com:  0.145D-01-0.237D-01-0.199D-01 0.583D-02 0.152D+00 0.871D+00
 Coeff-En:   0.000D+00 0.000D+00 0.000D+00 0.000D+00 0.000D+00 0.100D+01
 Coeff:      0.145D-01-0.236D-01-0.198D-01 0.581D-02 0.152D+00 0.871D+00
 Gap=     0.156 Goal=   None    Shift=    0.000
 RMSDP=1.83D-04 MaxDP=1.01D-02 DE=-9.82D-04 OVMax= 6.96D-03

 Cycle   7  Pass 1  IDiag  1:
 RMSU=  1.36D-04    CP:  1.18D+00  1.48D+00  8.13D-01  6.28D-01  8.97D-01
                    CP:  1.08D+00
 E= -607.840475409408     Delta-E=       -0.000064270263 Rises=F Damp=F
 DIIS: error= 2.02D-04 at cycle   7 NSaved=   7.
 NSaved= 7 IEnMin= 7 EnMin= -607.840475409408     IErMin= 7 ErrMin= 2.02D-04
 ErrMax= 2.02D-04  0.00D+00 EMaxC= 1.00D-01 BMatC= 1.29D-05 BMatP= 3.80D-05
 IDIUse=3 WtCom= 9.98D-01 WtEn= 2.02D-03
 Coeff-Com:  0.917D-02-0.140D-01-0.235D-01-0.399D-01-0.209D-01 0.409D+00
 Coeff-Com:  0.680D+00
 Coeff-En:   0.000D+00 0.000D+00 0.000D+00 0.000D+00 0.000D+00 0.000D+00
 Coeff-En:   0.100D+01
 Coeff:      0.915D-02-0.140D-01-0.234D-01-0.398D-01-0.208D-01 0.408D+00
 Coeff:      0.681D+00
 Gap=     0.157 Goal=   None    Shift=    0.000
 RMSDP=6.45D-05 MaxDP=2.91D-03 DE=-6.43D-05 OVMax= 1.77D-03

 Cycle   8  Pass 1  IDiag  1:
 RMSU=  4.69D-05    CP:  1.18D+00  1.48D+00  8.15D-01  6.32D-01  9.06D-01
                    CP:  1.18D+00  9.81D-01
 E= -607.840488570388     Delta-E=       -0.000013160980 Rises=F Damp=F
 DIIS: error= 7.86D-05 at cycle   8 NSaved=   8.
 NSaved= 8 IEnMin= 8 EnMin= -607.840488570388     IErMin= 8 ErrMin= 7.86D-05
 ErrMax= 7.86D-05  0.00D+00 EMaxC= 1.00D-01 BMatC= 1.51D-06 BMatP= 1.29D-05
 IDIUse=1 WtCom= 1.00D+00 WtEn= 0.00D+00
 Coeff-Com:  0.198D-02-0.268D-02-0.658D-02-0.165D-01-0.289D-01 0.775D-01
 Coeff-Com:  0.319D+00 0.656D+00
 Coeff:      0.198D-02-0.268D-02-0.658D-02-0.165D-01-0.289D-01 0.775D-01
 Coeff:      0.319D+00 0.656D+00
 Gap=     0.157 Goal=   None    Shift=    0.000
 RMSDP=2.18D-05 MaxDP=1.63D-03 DE=-1.32D-05 OVMax= 7.32D-04

 Cycle   9  Pass 1  IDiag  1:
 RMSU=  1.35D-05    CP:  1.18D+00  1.48D+00  8.15D-01  6.32D-01  9.10D-01
                    CP:  1.19D+00  9.83D-01  8.28D-01
 E= -607.840490142230     Delta-E=       -0.000001571841 Rises=F Damp=F
 DIIS: error= 1.97D-05 at cycle   9 NSaved=   9.
 NSaved= 9 IEnMin= 9 EnMin= -607.840490142230     IErMin= 9 ErrMin= 1.97D-05
 ErrMax= 1.97D-05  0.00D+00 EMaxC= 1.00D-01 BMatC= 2.52D-07 BMatP= 1.51D-06
 IDIUse=1 WtCom= 1.00D+00 WtEn= 0.00D+00
 Coeff-Com:  0.323D-03-0.313D-03-0.130D-02-0.449D-02-0.133D-01 0.187D-02
 Coeff-Com:  0.100D+00 0.354D+00 0.563D+00
 Coeff:      0.323D-03-0.313D-03-0.130D-02-0.449D-02-0.133D-01 0.187D-02
 Coeff:      0.100D+00 0.354D+00 0.563D+00
 Gap=     0.156 Goal=   None    Shift=    0.000
 RMSDP=8.75D-06 MaxDP=5.95D-04 DE=-1.57D-06 OVMax= 1.51D-04

 Cycle  10  Pass 1  IDiag  1:
 RMSU=  7.11D-06    CP:  1.18D+00  1.48D+00  8.15D-01  6.32D-01  9.11D-01
                    CP:  1.19D+00  1.00D+00  8.81D-01  1.02D+00
 E= -607.840490391211     Delta-E=       -0.000000248981 Rises=F Damp=F
 DIIS: error= 8.65D-06 at cycle  10 NSaved=  10.
 NSaved=10 IEnMin=10 EnMin= -607.840490391211     IErMin=10 ErrMin= 8.65D-06
 ErrMax= 8.65D-06  0.00D+00 EMaxC= 1.00D-01 BMatC= 1.26D-08 BMatP= 2.52D-07
 IDIUse=1 WtCom= 1.00D+00 WtEn= 0.00D+00
 Coeff-Com: -0.237D-03 0.347D-03 0.686D-03 0.165D-02 0.461D-03-0.140D-01
 Coeff-Com: -0.241D-01 0.171D-01 0.108D+00 0.910D+00
 Coeff:     -0.237D-03 0.347D-03 0.686D-03 0.165D-02 0.461D-03-0.140D-01
 Coeff:     -0.241D-01 0.171D-01 0.108D+00 0.910D+00
 Gap=     0.156 Goal=   None    Shift=    0.000
 RMSDP=4.43D-06 MaxDP=4.11D-04 DE=-2.49D-07 OVMax= 1.42D-04

 Cycle  11  Pass 1  IDiag  1:
 RMSU=  2.24D-06    CP:  1.18D+00  1.48D+00  8.15D-01  6.32D-01  9.11D-01
                    CP:  1.19D+00  1.00D+00  9.05D-01  1.12D+00  1.07D+00
 E= -607.840490425275     Delta-E=       -0.000000034064 Rises=F Damp=F
 DIIS: error= 4.50D-06 at cycle  11 NSaved=  11.
 NSaved=11 IEnMin=11 EnMin= -607.840490425275     IErMin=11 ErrMin= 4.50D-06
 ErrMax= 4.50D-06  0.00D+00 EMaxC= 1.00D-01 BMatC= 4.92D-09 BMatP= 1.26D-08
 IDIUse=1 WtCom= 1.00D+00 WtEn= 0.00D+00
 Coeff-Com: -0.110D-03 0.148D-03 0.278D-03 0.919D-03 0.132D-02-0.541D-02
 Coeff-Com: -0.171D-01-0.202D-01-0.536D-01 0.378D+00 0.716D+00
 Coeff:     -0.110D-03 0.148D-03 0.278D-03 0.919D-03 0.132D-02-0.541D-02
 Coeff:     -0.171D-01-0.202D-01-0.536D-01 0.378D+00 0.716D+00
 Gap=     0.156 Goal=   None    Shift=    0.000
 RMSDP=1.38D-06 MaxDP=1.10D-04 DE=-3.41D-08 OVMax= 4.71D-05

 Cycle  12  Pass 1  IDiag  1:
 RMSU=  7.06D-07    CP:  1.18D+00  1.48D+00  8.15D-01  6.32D-01  9.10D-01
                    CP:  1.19D+00  1.01D+00  9.09D-01  1.13D+00  1.16D+00
                    CP:  1.13D+00
 E= -607.840490432972     Delta-E=       -0.000000007697 Rises=F Damp=F
 DIIS: error= 1.55D-06 at cycle  12 NSaved=  12.
 NSaved=12 IEnMin=12 EnMin= -607.840490432972     IErMin=12 ErrMin= 1.55D-06
 ErrMax= 1.55D-06  0.00D+00 EMaxC= 1.00D-01 BMatC= 7.43D-10 BMatP= 4.92D-09
 IDIUse=1 WtCom= 1.00D+00 WtEn= 0.00D+00
 Coeff-Com:  0.164D-05-0.786D-05-0.106D-03-0.152D-03 0.320D-03 0.167D-02
 Coeff-Com:  0.233D-02-0.451D-02-0.625D-01-0.839D-01 0.191D+00 0.956D+00
 Coeff:      0.164D-05-0.786D-05-0.106D-03-0.152D-03 0.320D-03 0.167D-02
 Coeff:      0.233D-02-0.451D-02-0.625D-01-0.839D-01 0.191D+00 0.956D+00
 Gap=     0.156 Goal=   None    Shift=    0.000
 RMSDP=8.49D-07 MaxDP=4.86D-05 DE=-7.70D-09 OVMax= 3.83D-05

 Cycle  13  Pass 1  IDiag  1:
 RMSU=  3.86D-07    CP:  1.18D+00  1.48D+00  8.15D-01  6.32D-01  9.11D-01
                    CP:  1.19D+00  1.01D+00  9.12D-01  1.14D+00  1.21D+00
                    CP:  1.30D+00  1.22D+00
 E= -607.840490434986     Delta-E=       -0.000000002014 Rises=F Damp=F
 DIIS: error= 8.22D-07 at cycle  13 NSaved=  13.
 NSaved=13 IEnMin=13 EnMin= -607.840490434986     IErMin=13 ErrMin= 8.22D-07
 ErrMax= 8.22D-07  0.00D+00 EMaxC= 1.00D-01 BMatC= 9.80D-11 BMatP= 7.43D-10
 IDIUse=1 WtCom= 1.00D+00 WtEn= 0.00D+00
 Coeff-Com:  0.734D-05-0.120D-04-0.723D-04-0.154D-03 0.100D-04 0.112D-02
 Coeff-Com:  0.298D-02 0.161D-02-0.185D-01-0.659D-01-0.272D-01 0.305D+00
 Coeff-Com:  0.801D+00
 Coeff:      0.734D-05-0.120D-04-0.723D-04-0.154D-03 0.100D-04 0.112D-02
 Coeff:      0.298D-02 0.161D-02-0.185D-01-0.659D-01-0.272D-01 0.305D+00
 Coeff:      0.801D+00
 Gap=     0.156 Goal=   None    Shift=    0.000
 RMSDP=2.83D-07 MaxDP=1.73D-05 DE=-2.01D-09 OVMax= 1.49D-05

 Cycle  14  Pass 1  IDiag  1:
 RMSU=  1.10D-07    CP:  1.18D+00  1.48D+00  8.15D-01  6.32D-01  9.11D-01
                    CP:  1.19D+00  1.01D+00  9.11D-01  1.14D+00  1.22D+00
                    CP:  1.36D+00  1.36D+00  1.01D+00
 E= -607.840490435262     Delta-E=       -0.000000000276 Rises=F Damp=F
 DIIS: error= 1.80D-07 at cycle  14 NSaved=  14.
 NSaved=14 IEnMin=14 EnMin= -607.840490435262     IErMin=14 ErrMin= 1.80D-07
 ErrMax= 1.80D-07  0.00D+00 EMaxC= 1.00D-01 BMatC= 1.70D-11 BMatP= 9.80D-11
 IDIUse=1 WtCom= 1.00D+00 WtEn= 0.00D+00
 Coeff-Com:  0.272D-05-0.391D-05-0.142D-04-0.419D-04-0.434D-04 0.724D-04
 Coeff-Com:  0.802D-03 0.158D-02 0.333D-02-0.976D-02-0.474D-01-0.700D-01
 Coeff-Com:  0.296D+00 0.826D+00
 Coeff:      0.272D-05-0.391D-05-0.142D-04-0.419D-04-0.434D-04 0.724D-04
 Coeff:      0.802D-03 0.158D-02 0.333D-02-0.976D-02-0.474D-01-0.700D-01
 Coeff:      0.296D+00 0.826D+00
 Gap=     0.156 Goal=   None    Shift=    0.000
 RMSDP=1.41D-07 MaxDP=7.46D-06 DE=-2.76D-10 OVMax= 9.89D-06

 Cycle  15  Pass 1  IDiag  1:
 RMSU=  5.54D-08    CP:  1.18D+00  1.48D+00  8.15D-01  6.32D-01  9.11D-01
                    CP:  1.19D+00  1.01D+00  9.11D-01  1.14D+00  1.22D+00
                    CP:  1.38D+00  1.42D+00  1.16D+00  1.30D+00
 E= -607.840490435325     Delta-E=       -0.000000000063 Rises=F Damp=F
 DIIS: error= 1.15D-07 at cycle  15 NSaved=  15.
 NSaved=15 IEnMin=15 EnMin= -607.840490435325     IErMin=15 ErrMin= 1.15D-07
 ErrMax= 1.15D-07  0.00D+00 EMaxC= 1.00D-01 BMatC= 3.79D-12 BMatP= 1.70D-11
 IDIUse=1 WtCom= 1.00D+00 WtEn= 0.00D+00
 Coeff-Com:  0.995D-06-0.118D-05 0.623D-05 0.811D-05-0.494D-05-0.166D-03
 Coeff-Com: -0.181D-03 0.240D-03 0.377D-02 0.584D-02-0.111D-01-0.737D-01
 Coeff-Com: -0.440D-01 0.303D+00 0.816D+00
 Coeff:      0.995D-06-0.118D-05 0.623D-05 0.811D-05-0.494D-05-0.166D-03
 Coeff:     -0.181D-03 0.240D-03 0.377D-02 0.584D-02-0.111D-01-0.737D-01
 Coeff:     -0.440D-01 0.303D+00 0.816D+00
 Gap=     0.156 Goal=   None    Shift=    0.000
 RMSDP=7.14D-08 MaxDP=5.02D-06 DE=-6.28D-11 OVMax= 4.80D-06

 Cycle  16  Pass 1  IDiag  1:
 RMSU=  2.56D-08    CP:  1.18D+00  1.48D+00  8.15D-01  6.32D-01  9.11D-01
                    CP:  1.19D+00  1.01D+00  9.11D-01  1.14D+00  1.22D+00
                    CP:  1.39D+00  1.44D+00  1.21D+00  1.50D+00  1.16D+00
 E= -607.840490435348     Delta-E=       -0.000000000023 Rises=F Damp=F
 DIIS: error= 6.09D-08 at cycle  16 NSaved=  16.
 NSaved=16 IEnMin=16 EnMin= -607.840490435348     IErMin=16 ErrMin= 6.09D-08
 ErrMax= 6.09D-08  0.00D+00 EMaxC= 1.00D-01 BMatC= 8.62D-13 BMatP= 3.79D-12
 IDIUse=1 WtCom= 1.00D+00 WtEn= 0.00D+00
 Coeff-Com:  0.667D-06-0.831D-06 0.660D-05 0.140D-04 0.140D-04-0.101D-03
 Coeff-Com: -0.279D-03-0.278D-03 0.617D-03 0.499D-02 0.860D-02-0.119D-01
 Coeff-Com: -0.873D-01-0.261D-01 0.198D+00 0.914D+00
 Coeff:      0.667D-06-0.831D-06 0.660D-05 0.140D-04 0.140D-04-0.101D-03
 Coeff:     -0.279D-03-0.278D-03 0.617D-03 0.499D-02 0.860D-02-0.119D-01
 Coeff:     -0.873D-01-0.261D-01 0.198D+00 0.914D+00
 Gap=     0.156 Goal=   None    Shift=    0.000
 RMSDP=2.37D-08 MaxDP=1.19D-06 DE=-2.34D-11 OVMax= 3.35D-06

 Cycle  17  Pass 1  IDiag  1:
 RMSU=  1.41D-08    CP:  1.18D+00  1.48D+00  8.15D-01  6.32D-01  9.11D-01
                    CP:  1.19D+00  1.01D+00  9.11D-01  1.14D+00  1.22D+00
                    CP:  1.39D+00  1.44D+00  1.21D+00  1.61D+00  1.34D+00
                    CP:  1.26D+00
 E= -607.840490435350     Delta-E=       -0.000000000002 Rises=F Damp=F
 DIIS: error= 3.80D-08 at cycle  17 NSaved=  17.
 NSaved=17 IEnMin=17 EnMin= -607.840490435350     IErMin=17 ErrMin= 3.80D-08
 ErrMax= 3.80D-08  0.00D+00 EMaxC= 1.00D-01 BMatC= 4.88D-13 BMatP= 8.62D-13
 IDIUse=1 WtCom= 1.00D+00 WtEn= 0.00D+00
 Coeff-Com:  0.722D-06-0.999D-06 0.119D-05 0.281D-05 0.709D-05 0.750D-05
 Coeff-Com: -0.386D-04-0.143D-03-0.820D-03-0.258D-03 0.618D-02 0.151D-01
 Coeff-Com: -0.143D-01-0.611D-01-0.310D+00 0.412D+00 0.954D+00
 Coeff:      0.722D-06-0.999D-06 0.119D-05 0.281D-05 0.709D-05 0.750D-05
 Coeff:     -0.386D-04-0.143D-03-0.820D-03-0.258D-03 0.618D-02 0.151D-01
 Coeff:     -0.143D-01-0.611D-01-0.310D+00 0.412D+00 0.954D+00
 Gap=     0.156 Goal=   None    Shift=    0.000
 RMSDP=2.11D-08 MaxDP=1.06D-06 DE=-1.59D-12 OVMax= 2.28D-06

 Cycle  18  Pass 1  IDiag  1:
 RMSU=  7.17D-09    CP:  1.18D+00  1.48D+00  8.15D-01  6.32D-01  9.11D-01
                    CP:  1.19D+00  1.01D+00  9.11D-01  1.14D+00  1.22D+00
                    CP:  1.39D+00  1.44D+00  1.21D+00  1.67D+00  1.50D+00
                    CP:  1.62D+00  1.25D+00
 E= -607.840490435362     Delta-E=       -0.000000000013 Rises=F Damp=F
 DIIS: error= 1.34D-08 at cycle  18 NSaved=  18.
 NSaved=18 IEnMin=18 EnMin= -607.840490435362     IErMin=18 ErrMin= 1.34D-08
 ErrMax= 1.34D-08  0.00D+00 EMaxC= 1.00D-01 BMatC= 6.86D-14 BMatP= 4.88D-13
 IDIUse=1 WtCom= 1.00D+00 WtEn= 0.00D+00
 Coeff-Com:  0.313D-06-0.447D-06-0.305D-06-0.863D-06 0.482D-06 0.171D-04
 Coeff-Com:  0.313D-04-0.520D-05-0.440D-03-0.971D-03 0.811D-03 0.692D-02
 Coeff-Com:  0.117D-01-0.745D-02-0.195D+00 0.198D-02 0.294D+00 0.889D+00
 Coeff:      0.313D-06-0.447D-06-0.305D-06-0.863D-06 0.482D-06 0.171D-04
 Coeff:      0.313D-04-0.520D-05-0.440D-03-0.971D-03 0.811D-03 0.692D-02
 Coeff:      0.117D-01-0.745D-02-0.195D+00 0.198D-02 0.294D+00 0.889D+00
 Gap=     0.156 Goal=   None    Shift=    0.000
 RMSDP=8.72D-09 MaxDP=6.14D-07 DE=-1.27D-11 OVMax= 1.04D-06

 SCF Done:  E(RM062X) =  -607.840490435     A.U. after   18 cycles
            NFock= 18  Conv=0.87D-08     -V/T= 2.0020
 KE= 6.066136774521D+02 PE=-2.970806813926D+03 EE= 9.723636685969D+02
 Leave Link  502 at Sun Oct 13 23:10:43 2019, MaxMem= 10737418240 cpu:             749.8 elap:              31.4
 (Enter /apps/cent7/gaussian/g16-A.03/g16-haswell/g16/l601.exe)
 Copying SCF densities to generalized density rwf, IOpCl= 0 IROHF=0.

 **********************************************************************

            Population analysis using the SCF density.

 **********************************************************************

 Orbital symmetries:
       Occupied  (A) (A) (A) (A) (A) (A) (A) (A) (A) (A) (A) (A)
                 (A) (A) (A) (A) (A) (A) (A) (A) (A) (A) (A) (A)
                 (A) (A) (A) (A) (A) (A) (A) (A) (A) (A) (A) (A)
                 (A) (A) (A) (A) (A) (A) (A) (A) (A) (A)
       Virtual   (A) (A) (A) (A) (A) (A) (A) (A) (A) (A) (A) (A)
                 (A) (A) (A) (A) (A) (A) (A) (A) (A) (A) (A) (A)
                 (A) (A) (A) (A) (A) (A) (A) (A) (A) (A) (A) (A)
                 (A) (A) (A) (A) (A) (A) (A) (A) (A) (A) (A) (A)
                 (A) (A) (A) (A) (A) (A) (A) (A) (A) (A) (A) (A)
                 (A) (A) (A) (A) (A) (A) (A) (A) (A) (A) (A) (A)
                 (A) (A) (A) (A) (A) (A) (A) (A) (A) (A) (A) (A)
                 (A) (A) (A) (A) (A) (A) (A) (A) (A) (A) (A) (A)
                 (A) (A) (A) (A) (A) (A) (A) (A) (A) (A) (A) (A)
                 (A) (A) (A) (A) (A) (A) (A) (A) (A) (A) (A) (A)
                 (A) (A) (A) (A) (A) (A) (A) (A) (A) (A) (A) (A)
                 (A) (A) (A) (A) (A) (A) (A) (A) (A) (A) (A) (A)
                 (A) (A) (A) (A) (A) (A) (A) (A) (A) (A) (A) (A)
                 (A) (A) (A) (A) (A) (A) (A) (A) (A) (A) (A) (A)
                 (A) (A) (A) (A) (A) (A) (A) (A) (A) (A) (A) (A)
                 (A) (A) (A) (A) (A) (A) (A) (A) (A) (A) (A) (A)
                 (A) (A) (A) (A) (A) (A) (A) (A) (A) (A) (A) (A)
                 (A) (A) (A) (A) (A) (A) (A) (A) (A) (A) (A) (A)
                 (A) (A) (A) (A) (A) (A) (A) (A) (A) (A) (A) (A)
                 (A) (A) (A) (A) (A) (A) (A) (A) (A) (A) (A) (A)
                 (A) (A) (A) (A) (A) (A) (A) (A) (A) (A) (A) (A)
                 (A) (A) (A) (A) (A) (A) (A) (A) (A) (A) (A) (A)
                 (A) (A) (A) (A) (A) (A) (A) (A) (A) (A) (A) (A)
                 (A) (A) (A) (A) (A) (A) (A) (A) (A) (A) (A) (A)
                 (A) (A) (A) (A) (A) (A) (A) (A) (A) (A) (A) (A)
                 (A)
 The electronic state is 1-A.
 Alpha  occ. eigenvalues --  -19.89236 -19.81103 -15.08789 -14.92072 -10.81642
 Alpha  occ. eigenvalues --  -10.80641 -10.74130 -10.73890 -10.73329 -10.72489
 Alpha  occ. eigenvalues --  -10.71843 -10.71666 -10.71158  -1.51896  -1.37420
 Alpha  occ. eigenvalues --   -1.29248  -1.23060  -1.11719  -1.06438  -1.00723
 Alpha  occ. eigenvalues --   -0.99543  -0.94859  -0.92681  -0.92192  -0.86325
 Alpha  occ. eigenvalues --   -0.84395  -0.80146  -0.79425  -0.75467  -0.74099
 Alpha  occ. eigenvalues --   -0.72694  -0.69484  -0.67455  -0.66931  -0.66327
 Alpha  occ. eigenvalues --   -0.66288  -0.62913  -0.60179  -0.59333  -0.58867
 Alpha  occ. eigenvalues --   -0.58267  -0.55645  -0.52447  -0.51407  -0.48285
 Alpha  occ. eigenvalues --   -0.44260
 Alpha virt. eigenvalues --   -0.28613  -0.15725  -0.15024  -0.11746  -0.10201
 Alpha virt. eigenvalues --   -0.10026  -0.09714  -0.08685  -0.07817  -0.07191
 Alpha virt. eigenvalues --   -0.06229  -0.05664  -0.05001  -0.04863  -0.04292
 Alpha virt. eigenvalues --   -0.03849  -0.03147  -0.02964  -0.02647  -0.01670
 Alpha virt. eigenvalues --   -0.01264  -0.00606   0.00241   0.00479   0.01166
 Alpha virt. eigenvalues --    0.01987   0.02197   0.02657   0.02838   0.03109
 Alpha virt. eigenvalues --    0.03460   0.03631   0.04122   0.04180   0.04583
 Alpha virt. eigenvalues --    0.05013   0.05186   0.05814   0.06401   0.07059
 Alpha virt. eigenvalues --    0.07473   0.08100   0.08378   0.08940   0.09196
 Alpha virt. eigenvalues --    0.09584   0.09997   0.10303   0.10880   0.11199
 Alpha virt. eigenvalues --    0.11936   0.12418   0.12567   0.12982   0.14234
 Alpha virt. eigenvalues --    0.14659   0.15314   0.15572   0.16000   0.16370
 Alpha virt. eigenvalues --    0.16722   0.17358   0.18190   0.18833   0.19234
 Alpha virt. eigenvalues --    0.20251   0.20435   0.20666   0.22321   0.22694
 Alpha virt. eigenvalues --    0.23405   0.23742   0.24863   0.25047   0.25746
 Alpha virt. eigenvalues --    0.26322   0.27151   0.28442   0.29930   0.30755
 Alpha virt. eigenvalues --    0.32996   0.33826   0.36120   0.38259   0.38903
 Alpha virt. eigenvalues --    0.39149   0.40374   0.42558   0.43056   0.43604
 Alpha virt. eigenvalues --    0.44603   0.44714   0.46537   0.47163   0.47854
 Alpha virt. eigenvalues --    0.48120   0.48843   0.50274   0.52045   0.52798
 Alpha virt. eigenvalues --    0.53284   0.54350   0.55207   0.57033   0.57901
 Alpha virt. eigenvalues --    0.58393   0.59821   0.61094   0.61908   0.62285
 Alpha virt. eigenvalues --    0.64102   0.65308   0.66588   0.67763   0.69209
 Alpha virt. eigenvalues --    0.70486   0.71294   0.73286   0.73960   0.74455
 Alpha virt. eigenvalues --    0.75138   0.77005   0.78537   0.79261   0.80013
 Alpha virt. eigenvalues --    0.80313   0.81245   0.82922   0.84507   0.86435
 Alpha virt. eigenvalues --    0.87057   0.87980   0.88727   0.89914   0.91400
 Alpha virt. eigenvalues --    0.92023   0.94255   0.94967   0.95768   0.97309
 Alpha virt. eigenvalues --    0.98466   1.00192   1.00811   1.03415   1.05286
 Alpha virt. eigenvalues --    1.06206   1.07854   1.12256   1.14149   1.16000
 Alpha virt. eigenvalues --    1.18580   1.19392   1.20967   1.22885   1.24267
 Alpha virt. eigenvalues --    1.28529   1.31598   1.33589   1.35750   1.37972
 Alpha virt. eigenvalues --    1.38482   1.41257   1.42917   1.44658   1.45306
 Alpha virt. eigenvalues --    1.46365   1.47324   1.49606   1.50213   1.51979
 Alpha virt. eigenvalues --    1.53317   1.54256   1.55659   1.57697   1.59477
 Alpha virt. eigenvalues --    1.60183   1.61587   1.62683   1.63119   1.64518
 Alpha virt. eigenvalues --    1.66261   1.68599   1.70035   1.71880   1.73485
 Alpha virt. eigenvalues --    1.76732   1.78489   1.79274   1.79823   1.80080
 Alpha virt. eigenvalues --    1.81527   1.83909   1.86529   1.87431   1.87979
 Alpha virt. eigenvalues --    1.89435   1.94161   1.94286   1.95834   1.97989
 Alpha virt. eigenvalues --    2.02693   2.03606   2.06040   2.06822   2.09169
 Alpha virt. eigenvalues --    2.11948   2.14286   2.16755   2.22084   2.31810
 Alpha virt. eigenvalues --    2.34137   2.35643   2.36459   2.37113   2.37527
 Alpha virt. eigenvalues --    2.41425   2.43287   2.44243   2.45070   2.46856
 Alpha virt. eigenvalues --    2.48264   2.49997   2.52404   2.53260   2.55269
 Alpha virt. eigenvalues --    2.58157   2.59686   2.61601   2.61900   2.64268
 Alpha virt. eigenvalues --    2.65017   2.66009   2.66770   2.71097   2.72035
 Alpha virt. eigenvalues --    2.73965   2.75830   2.76631   2.80877   2.81709
 Alpha virt. eigenvalues --    2.82735   2.87659   2.91012   2.92491   2.95174
 Alpha virt. eigenvalues --    2.98172   2.98864   3.00952   3.04576   3.09297
 Alpha virt. eigenvalues --    3.12900   3.18818   3.21518   3.24470   3.25475
 Alpha virt. eigenvalues --    3.28852   3.30266   3.31102   3.36108   3.40613
 Alpha virt. eigenvalues --    3.43376   3.50143   3.53433   3.55023   3.68443
 Alpha virt. eigenvalues --    3.70001   3.72539   3.78266   3.81567   3.84899
 Alpha virt. eigenvalues --    3.89026   3.91342   3.92087   3.95331   4.03669
 Alpha virt. eigenvalues --    4.07949   4.27564   4.44346   4.49309   4.67156
 Alpha virt. eigenvalues --    4.85403   5.02115   5.10353   5.22133   5.33405
 Alpha virt. eigenvalues --    5.34508   5.74034   5.95034  23.56053  23.79402
 Alpha virt. eigenvalues --   23.85832  23.86628  23.91593  23.97432  23.99123
 Alpha virt. eigenvalues --   24.06882  24.19505  35.55415  35.68054  49.84973
 Alpha virt. eigenvalues --   49.94390
          Condensed to atoms (all electrons):
               1          2          3          4          5          6
     1  O    7.609085  -0.018348   0.306062   0.417784  -0.004942   0.002373
     2  N   -0.018348   7.733612  -1.517801  -0.287047  -0.015309   0.046319
     3  C    0.306062  -1.517801  16.833854  -2.500200  -0.580540   0.026239
     4  C    0.417784  -0.287047  -2.500200  15.072614   0.868681   0.005504
     5  O   -0.004942  -0.015309  -0.580540   0.868681   8.108900   0.097514
     6  C    0.002373   0.046319   0.026239   0.005504   0.097514   5.175834
     7  N    0.004309  -0.016921   0.930857  -0.531383  -0.092221  -0.004478
     8  C   -0.245299   0.489941  -6.890467  -0.617072   0.014312  -0.140454
     9  C    0.007832   0.025031  -2.333644  -0.522058   0.038046  -0.014741
    10  C    0.022512  -0.010144   0.080929  -0.179250   0.002512  -0.005588
    11  C    0.130762   0.013819   0.389514   0.354224  -0.018424   0.011576
    12  C    0.583977  -0.652582   2.455118   0.314854   0.022043   0.044145
    13  C   -1.240221   1.227739  -1.145046  -6.121659  -0.197257  -0.058543
    14  H    0.322349  -0.001635  -0.056478  -0.090635  -0.001541  -0.002287
    15  H    0.001730  -0.013244   0.013058  -0.018492  -0.060681   0.411680
    16  H   -0.002252   0.036143   0.072485  -0.030374  -0.076202   0.352161
    17  H   -0.000222  -0.001236  -0.046319   0.033526  -0.019756   0.422802
    18  H   -0.000488   0.000829  -0.027991  -0.005346   0.000517  -0.000098
    19  H    0.000231   0.000021   0.012019  -0.013341   0.000081  -0.000183
    20  H   -0.001268   0.000744  -0.022243   0.000508  -0.000202   0.000046
    21  H    0.020913   0.004810   0.050107   0.021562   0.001724  -0.000180
    22  H    0.027530   0.316784  -0.133519   0.245066   0.025293   0.004281
               7          8          9         10         11         12
     1  O    0.004309  -0.245299   0.007832   0.022512   0.130762   0.583977
     2  N   -0.016921   0.489941   0.025031  -0.010144   0.013819  -0.652582
     3  C    0.930857  -6.890467  -2.333644   0.080929   0.389514   2.455118
     4  C   -0.531383  -0.617072  -0.522058  -0.179250   0.354224   0.314854
     5  O   -0.092221   0.014312   0.038046   0.002512  -0.018424   0.022043
     6  C   -0.004478  -0.140454  -0.014741  -0.005588   0.011576   0.044145
     7  N    6.967497  -0.331928  -0.851223   0.022909  -0.014338  -0.082128
     8  C   -0.331928  21.102673  -2.461754  -1.338466   1.559122  -7.298766
     9  C   -0.851223  -2.461754  12.727421   1.118782  -1.808711   4.398247
    10  C    0.022909  -1.338466   1.118782   6.487990   0.058956  -0.120492
    11  C   -0.014338   1.559122  -1.808711   0.058956   9.035840  -1.985090
    12  C   -0.082128  -7.298766   4.398247  -0.120492  -1.985090  17.179336
    13  C    0.934225   2.461701  -4.306237  -0.393300  -1.552546  -8.763860
    14  H    0.002261   0.025296  -0.001287  -0.002632  -0.005694   0.002269
    15  H    0.001378   0.014567   0.005763   0.001142  -0.001602   0.001607
    16  H    0.016954  -0.060632  -0.029589  -0.003585   0.007886  -0.007376
    17  H   -0.014812   0.022899   0.009428  -0.000399   0.000177  -0.001042
    18  H   -0.005455  -0.101524   0.485355  -0.034131  -0.003280   0.060605
    19  H    0.003436  -0.030077  -0.052339   0.435716  -0.100732  -0.021046
    20  H   -0.001119   0.105213  -0.039886  -0.089585   0.446702  -0.105407
    21  H   -0.004074  -0.061052   0.085984   0.034713  -0.133225   0.559594
    22  H    0.003584  -0.060558  -0.003184   0.003972   0.011884   0.088957
              13         14         15         16         17         18
     1  O   -1.240221   0.322349   0.001730  -0.002252  -0.000222  -0.000488
     2  N    1.227739  -0.001635  -0.013244   0.036143  -0.001236   0.000829
     3  C   -1.145046  -0.056478   0.013058   0.072485  -0.046319  -0.027991
     4  C   -6.121659  -0.090635  -0.018492  -0.030374   0.033526  -0.005346
     5  O   -0.197257  -0.001541  -0.060681  -0.076202  -0.019756   0.000517
     6  C   -0.058543  -0.002287   0.411680   0.352161   0.422802  -0.000098
     7  N    0.934225   0.002261   0.001378   0.016954  -0.014812  -0.005455
     8  C    2.461701   0.025296   0.014567  -0.060632   0.022899  -0.101524
     9  C   -4.306237  -0.001287   0.005763  -0.029589   0.009428   0.485355
    10  C   -0.393300  -0.002632   0.001142  -0.003585  -0.000399  -0.034131
    11  C   -1.552546  -0.005694  -0.001602   0.007886   0.000177  -0.003280
    12  C   -8.763860   0.002269   0.001607  -0.007376  -0.001042   0.060605
    13  C   23.978515   0.112816   0.003354   0.023007  -0.019034  -0.056251
    14  H    0.112816   0.385017   0.000726   0.001356  -0.000400   0.000011
    15  H    0.003354   0.000726   0.490494  -0.045461  -0.019094  -0.000049
    16  H    0.023007   0.001356  -0.045461   0.603762  -0.035840   0.000153
    17  H   -0.019034  -0.000400  -0.019094  -0.035840   0.445057   0.000171
    18  H   -0.056251   0.000011  -0.000049   0.000153   0.000171   0.416073
    19  H    0.094195  -0.000035   0.000022  -0.000056  -0.000031  -0.007069
    20  H    0.049564   0.000508  -0.000019   0.000075   0.000010   0.001152
    21  H   -0.260498  -0.011800  -0.000190  -0.000555   0.000224   0.001046
    22  H   -0.270179  -0.004404  -0.002748   0.000242   0.000061  -0.000041
              19         20         21         22
     1  O    0.000231  -0.001268   0.020913   0.027530
     2  N    0.000021   0.000744   0.004810   0.316784
     3  C    0.012019  -0.022243   0.050107  -0.133519
     4  C   -0.013341   0.000508   0.021562   0.245066
     5  O    0.000081  -0.000202   0.001724   0.025293
     6  C   -0.000183   0.000046  -0.000180   0.004281
     7  N    0.003436  -0.001119  -0.004074   0.003584
     8  C   -0.030077   0.105213  -0.061052  -0.060558
     9  C   -0.052339  -0.039886   0.085984  -0.003184
    10  C    0.435716  -0.089585   0.034713   0.003972
    11  C   -0.100732   0.446702  -0.133225   0.011884
    12  C   -0.021046  -0.105407   0.559594   0.088957
    13  C    0.094195   0.049564  -0.260498  -0.270179
    14  H   -0.000035   0.000508  -0.011800  -0.004404
    15  H    0.000022  -0.000019  -0.000190  -0.002748
    16  H   -0.000056   0.000075  -0.000555   0.000242
    17  H   -0.000031   0.000010   0.000224   0.000061
    18  H   -0.007069   0.001152   0.001046  -0.000041
    19  H    0.418253  -0.010281   0.001189   0.000093
    20  H   -0.010281   0.423513  -0.012674  -0.000389
    21  H    0.001189  -0.012674   0.461036   0.002949
    22  H    0.000093  -0.000389   0.002949   0.366380
 Mulliken charges:
               1
     1  O    0.055592
     2  N   -0.361523
     3  C    0.084006
     4  C   -0.417467
     5  O   -0.112548
     6  C   -0.373922
     7  N    0.062669
     8  C   -0.157677
     9  C   -0.477234
    10  C   -0.092561
    11  C   -0.396818
    12  C   -0.672963
    13  C    1.499515
    14  H    0.326221
    15  H    0.216058
    16  H    0.177700
    17  H    0.223829
    18  H    0.275809
    19  H    0.269933
    20  H    0.255038
    21  H    0.238398
    22  H    0.377947
 Sum of Mulliken charges =   1.00000
 Mulliken charges with hydrogens summed into heavy atoms:
               1
     1  O    0.381812
     2  N    0.016423
     3  C    0.084006
     4  C   -0.417467
     5  O   -0.112548
     6  C    0.243665
     7  N    0.062669
     8  C   -0.157677
     9  C   -0.201425
    10  C    0.177372
    11  C   -0.141780
    12  C   -0.434566
    13  C    1.499515
 Electronic spatial extent (au):  <R**2>=           2264.3615
 Charge=              1.0000 electrons
 Dipole moment (field-independent basis, Debye):
    X=              0.4058    Y=              4.1198    Z=              3.2743  Tot=              5.2781
 Quadrupole moment (field-independent basis, Debye-Ang):
   XX=            -35.6772   YY=            -55.3039   ZZ=            -72.4969
   XY=              7.3319   XZ=              4.8157   YZ=              2.9116
 Traceless Quadrupole moment (field-independent basis, Debye-Ang):
   XX=             18.8155   YY=             -0.8112   ZZ=            -18.0042
   XY=              7.3319   XZ=              4.8157   YZ=              2.9116
 Octapole moment (field-independent basis, Debye-Ang**2):
  XXX=             -2.7179  YYY=             37.9280  ZZZ=              0.8584  XYY=              4.3715
  XXY=             -4.6705  XXZ=             23.7938  XZZ=             16.4986  YZZ=             10.0081
  YYZ=             22.3294  XYZ=             -6.0346
 Hexadecapole moment (field-independent basis, Debye-Ang**3):
 XXXX=          -1399.9852 YYYY=           -769.1208 ZZZZ=           -131.9838 XXXY=             23.4504
 XXXZ=             26.0729 YYYX=             44.1487 YYYZ=             54.7536 ZZZX=              5.8103
 ZZZY=              4.8865 XXYY=           -353.9805 XXZZ=           -351.3195 YYZZ=           -158.0124
 XXYZ=            -19.4687 YYXZ=             19.6546 ZZXY=              4.1726
 N-N= 7.839889774418D+02 E-N=-2.970806814042D+03  KE= 6.066136774521D+02
 No NMR shielding tensors so no spin-rotation constants.
 Leave Link  601 at Sun Oct 13 23:10:43 2019, MaxMem= 10737418240 cpu:               3.6 elap:               0.2
 (Enter /apps/cent7/gaussian/g16-A.03/g16-haswell/g16/l701.exe)
 ... and contract with generalized density number  0.
 Compute integral first derivatives.
 Leave Link  701 at Sun Oct 13 23:10:44 2019, MaxMem= 10737418240 cpu:               3.5 elap:               0.2
 (Enter /apps/cent7/gaussian/g16-A.03/g16-haswell/g16/l702.exe)
 L702 exits ... SP integral derivatives will be done elsewhere.
 Leave Link  702 at Sun Oct 13 23:10:44 2019, MaxMem= 10737418240 cpu:               0.5 elap:               0.0
 (Enter /apps/cent7/gaussian/g16-A.03/g16-haswell/g16/l703.exe)
 Integral derivatives from FoFJK, PRISM(SPDF).
 Compute integral first derivatives, UseDBF=F ICtDFT=           0.
 Calling FoFJK, ICntrl=      2127 FMM=F ISym2X=0 I1Cent= 0 IOpClX= 0 NMat=1 NMatS=1 NMatT=0.
 FoFJK:  IHMeth= 1 ICntrl=    2127 DoSepK=F KAlg= 0 I1Cent=           0 FoldK=F
 IRaf=         0 NMat=       1 IRICut=       1 DoRegI=T DoRafI=F ISym2E= 0 IDoP0=0 IntGTp=1.
 FoFCou: FMM=F IPFlag=           0 FMFlag=      100000 FMFlg1=         800
         NFxFlg=           0 DoJE=F BraDBF=F KetDBF=F FulRan=T
         wScrn=  0.000000 ICntrl=      2127 IOpCl=  0 I1Cent=           0 NGrid=           0
         NMat0=    1 NMatS0=      1 NMatT0=    0 NMatD0=    1 NMtDS0=    0 NMtDT0=    0
 Symmetry not used in FoFCou.
 Leave Link  703 at Sun Oct 13 23:10:48 2019, MaxMem= 10737418240 cpu:             111.3 elap:               4.7
 (Enter /apps/cent7/gaussian/g16-A.03/g16-haswell/g16/l716.exe)
 Dipole        = 1.59644615D-01 1.62084940D+00 1.28820751D+00
 ***** Axes restored to original set *****
 -------------------------------------------------------------------
 Center     Atomic                   Forces (Hartrees/Bohr)
 Number     Number              X              Y              Z
 -------------------------------------------------------------------
      1        8           0.080508379   -0.004894054   -0.012509999
      2        7          -0.076596627    0.001572235    0.009136080
      3        6           0.093218882   -0.040677428   -0.005282625
      4        6          -0.146908904    0.015654776   -0.004497678
      5        8           0.016141991   -0.006680297   -0.000252274
      6        6          -0.006915691   -0.001442766    0.006950939
      7        7          -0.096952010   -0.051166834    0.003320103
      8        6           0.074159120    0.081140984   -0.000507018
      9        6          -0.011757608   -0.022855366   -0.000793252
     10        6           0.018449662   -0.017293471   -0.000226421
     11        6          -0.011660846    0.007158370   -0.000326451
     12        6          -0.006542074   -0.000999396   -0.000024072
     13        6           0.081815174    0.067663535    0.000488301
     14        1           0.007174436   -0.002709994    0.010613063
     15        1           0.000159155    0.000580147   -0.003915433
     16        1          -0.000499435   -0.000148220    0.003177067
     17        1           0.001189142    0.001013572   -0.000972274
     18        1           0.002970320   -0.003903069    0.000082178
     19        1          -0.000231207   -0.004862688   -0.000136427
     20        1          -0.005111452   -0.002383911    0.000035981
     21        1          -0.002234273    0.005244281   -0.000868881
     22        1          -0.010376133   -0.020010406   -0.003490907
 -------------------------------------------------------------------
 Cartesian Forces:  Max     0.146908904 RMS     0.035459964
 Leave Link  716 at Sun Oct 13 23:10:48 2019, MaxMem= 10737418240 cpu:               0.6 elap:               0.1
 (Enter /apps/cent7/gaussian/g16-A.03/g16-haswell/g16/l103.exe)

 GradGradGradGradGradGradGradGradGradGradGradGradGradGradGradGradGradGrad
 Berny optimization.
 FormGI is forming the generalized inverse of G from B-inverse, IUseBI=4.
 Internal  Forces:  Max     0.129098530 RMS     0.021424175
 Search for a local minimum.
 Step number   1 out of a maximum of  116
 All quantities printed in internal units (Hartrees-Bohrs-Radians)
 RMS Force = .21424D-01 SwitMx=.10000D-02 MixMth= 1
 Mixed Optimization -- RFO/linear search
 Second derivative matrix not updated -- first step.
 ITU=  0
     Eigenvalues ---    0.01148   0.01912   0.01922   0.01925   0.01945
     Eigenvalues ---    0.01962   0.01975   0.02213   0.02256   0.02378
     Eigenvalues ---    0.02471   0.02757   0.02824   0.02975   0.03034
     Eigenvalues ---    0.03173   0.03242   0.10288   0.10288   0.16000
     Eigenvalues ---    0.16000   0.16000   0.16000   0.16000   0.16000
     Eigenvalues ---    0.16000   0.16000   0.16000   0.22000   0.22000
     Eigenvalues ---    0.22607   0.24521   0.24983   0.24998   0.24999
     Eigenvalues ---    0.25000   0.25000   0.34810   0.34811   0.34813
     Eigenvalues ---    0.34813   0.34813   0.34815   0.34818   0.38978
     Eigenvalues ---    0.39429   0.40279   0.43455   0.43663   0.43981
     Eigenvalues ---    0.44348   0.47688   0.48449   0.52781   0.55474
     Eigenvalues ---    0.56957   0.62248   0.68087   0.72206   0.76749
 RFO step:  Lambda=-7.70171155D-02 EMin= 1.14755305D-02
 Linear search not attempted -- first point.
 Maximum step size (   0.300) exceeded in Quadratic search.
    -- Step size scaled by   0.840
 Iteration  1 RMS(Cart)=  0.06571391 RMS(Int)=  0.00100423
 Iteration  2 RMS(Cart)=  0.00134115 RMS(Int)=  0.00008158
 Iteration  3 RMS(Cart)=  0.00000160 RMS(Int)=  0.00008157
 Iteration  4 RMS(Cart)=  0.00000000 RMS(Int)=  0.00008157
 ITry= 1 IFail=0 DXMaxC= 2.66D-01 DCOld= 1.00D+10 DXMaxT= 3.00D-01 DXLimC= 3.00D+00 Rises=F
 Variable       Old X    -DE/DX   Delta X   Delta X   Delta X     New X
                                 (Linear)    (Quad)   (Total)
    R1        2.39718   0.08796   0.00000   0.08750   0.08750   2.48468
    R2        1.81414   0.01253   0.00000   0.01666   0.01666   1.83080
    R3        2.42414   0.02335   0.00000   0.02455   0.02455   2.44868
    R4        1.88973   0.02229   0.00000   0.03381   0.03381   1.92354
    R5        2.54739   0.12910   0.00000   0.17347   0.17345   2.72085
    R6        2.58160   0.06773   0.00000   0.09576   0.09565   2.67725
    R7        2.53433  -0.00156   0.00000  -0.00203  -0.00203   2.53230
    R8        2.42808  -0.00320   0.00000  -0.00256  -0.00245   2.42563
    R9        2.72336   0.00664   0.00000   0.01183   0.01183   2.73519
   R10        2.05985  -0.00099   0.00000  -0.00196  -0.00196   2.05789
   R11        2.05980   0.00170   0.00000   0.00337   0.00337   2.06317
   R12        2.05980  -0.00086   0.00000  -0.00169  -0.00169   2.05811
   R13        2.47221   0.11496   0.00000   0.13204   0.13213   2.60434
   R14        2.65748  -0.03183   0.00000  -0.05084  -0.05077   2.60670
   R15        2.62933   0.02721   0.00000   0.04083   0.04076   2.67009
   R16        2.66678   0.00260   0.00000   0.00337   0.00346   2.67024
   R17        2.05982  -0.00471   0.00000  -0.00931  -0.00931   2.05051
   R18        2.67198  -0.02119   0.00000  -0.03597  -0.03595   2.63604
   R19        2.05971  -0.00485   0.00000  -0.00959  -0.00959   2.05012
   R20        2.66953  -0.01287   0.00000  -0.02136  -0.02143   2.64810
   R21        2.05980  -0.00564   0.00000  -0.01114  -0.01114   2.04866
   R22        2.66321  -0.01435   0.00000  -0.02240  -0.02250   2.64071
   R23        2.05976  -0.00497   0.00000  -0.00983  -0.00983   2.04993
    A1        1.91064   0.00608   0.00000   0.02155   0.02155   1.93218
    A2        2.18580  -0.00679   0.00000  -0.01921  -0.01939   2.16641
    A3        2.04869   0.00070   0.00000   0.00006  -0.00012   2.04857
    A4        2.04869   0.00609   0.00000   0.01914   0.01895   2.06764
    A5        2.16920  -0.01086   0.00000  -0.02957  -0.02950   2.13971
    A6        2.26852   0.00452   0.00000   0.00995   0.01002   2.27854
    A7        1.84545   0.00634   0.00000   0.01965   0.01949   1.86494
    A8        2.18491  -0.00835   0.00000  -0.02388  -0.02391   2.16100
    A9        1.94937  -0.00741   0.00000  -0.01418  -0.01412   1.93524
   A10        2.14887   0.01575   0.00000   0.03802   0.03799   2.18686
   A11        1.96393   0.01593   0.00000   0.04094   0.04094   2.00487
   A12        1.91057  -0.00607   0.00000  -0.02199  -0.02202   1.88855
   A13        1.91063   0.00582   0.00000   0.02162   0.02165   1.93228
   A14        1.91062  -0.00207   0.00000  -0.00782  -0.00788   1.90273
   A15        1.91067   0.00123   0.00000   0.00536   0.00543   1.91610
   A16        1.91062   0.00187   0.00000   0.00466   0.00454   1.91516
   A17        1.91068  -0.00079   0.00000  -0.00183  -0.00183   1.90886
   A18        1.88973  -0.00559   0.00000  -0.01375  -0.01352   1.87621
   A19        2.26475  -0.01225   0.00000  -0.03017  -0.03020   2.23455
   A20        1.90056   0.02276   0.00000   0.05348   0.05348   1.95404
   A21        2.11763  -0.01050   0.00000  -0.02323  -0.02320   2.09442
   A22        2.06678  -0.00087   0.00000  -0.00418  -0.00402   2.06277
   A23        2.10526  -0.00096   0.00000  -0.00286  -0.00294   2.10232
   A24        2.11114   0.00183   0.00000   0.00703   0.00695   2.11809
   A25        2.10160   0.00961   0.00000   0.02303   0.02314   2.12474
   A26        2.08910  -0.00441   0.00000  -0.01009  -0.01015   2.07896
   A27        2.09248  -0.00521   0.00000  -0.01294  -0.01299   2.07949
   A28        2.10368  -0.00009   0.00000  -0.00335  -0.00341   2.10026
   A29        2.09057   0.00025   0.00000   0.00240   0.00243   2.09300
   A30        2.08894  -0.00016   0.00000   0.00095   0.00099   2.08992
   A31        2.06688  -0.00517   0.00000  -0.01419  -0.01438   2.05250
   A32        2.11006  -0.00028   0.00000  -0.00306  -0.00297   2.10709
   A33        2.10624   0.00545   0.00000   0.01726   0.01735   2.12359
   A34        1.83946  -0.01608   0.00000  -0.04511  -0.04523   1.79423
   A35        2.33374   0.00907   0.00000   0.02329   0.02345   2.35719
   A36        2.10979   0.00702   0.00000   0.02192   0.02187   2.13166
    D1        1.58493   0.00392   0.00000   0.03045   0.03033   1.61526
    D2       -1.55666  -0.00088   0.00000  -0.00661  -0.00648  -1.56314
    D3        3.14075  -0.00248   0.00000  -0.01935  -0.01939   3.12136
    D4       -0.00742  -0.00148   0.00000  -0.01126  -0.01134  -0.01877
    D5       -0.00085   0.00232   0.00000   0.01771   0.01780   0.01695
    D6        3.13417   0.00332   0.00000   0.02580   0.02584  -3.12318
    D7        0.00489  -0.00012   0.00000  -0.00223  -0.00227   0.00262
    D8       -3.12784   0.00041   0.00000   0.00236   0.00220  -3.12564
    D9       -3.13146  -0.00093   0.00000  -0.00868  -0.00867  -3.14013
   D10        0.01899  -0.00039   0.00000  -0.00410  -0.00420   0.01479
   D11        3.13687  -0.00041   0.00000  -0.00426  -0.00437   3.13250
   D12       -0.02655   0.00028   0.00000   0.00160   0.00147  -0.02509
   D13       -0.01037   0.00040   0.00000   0.00254   0.00257  -0.00780
   D14        3.10939   0.00108   0.00000   0.00840   0.00841   3.11780
   D15        1.64241   0.00487   0.00000   0.03991   0.03993   1.68234
   D16       -1.50902   0.00415   0.00000   0.03452   0.03450  -1.47452
   D17       -0.01990   0.00092   0.00000   0.00510   0.00495  -0.01495
   D18        3.13034   0.00158   0.00000   0.00993   0.00987   3.14021
   D19       -2.39771  -0.00250   0.00000  -0.01721  -0.01705  -2.41475
   D20       -0.30330  -0.00114   0.00000  -0.01087  -0.01093  -0.31423
   D21        1.79114   0.00019   0.00000  -0.00466  -0.00477   1.78638
   D22       -3.10487  -0.00061   0.00000  -0.00639  -0.00642  -3.11129
   D23        0.01253  -0.00023   0.00000  -0.00258  -0.00258   0.00994
   D24        3.11645   0.00085   0.00000   0.00578   0.00567   3.12212
   D25       -0.02503   0.00065   0.00000   0.00430   0.00423  -0.02080
   D26        0.00166   0.00005   0.00000   0.00069   0.00067   0.00233
   D27       -3.13982  -0.00016   0.00000  -0.00078  -0.00077  -3.14059
   D28       -0.00091   0.00024   0.00000   0.00036   0.00023  -0.00068
   D29       -3.12411  -0.00042   0.00000  -0.00475  -0.00482  -3.12893
   D30        3.11891   0.00050   0.00000   0.00354   0.00349   3.12239
   D31       -0.00430  -0.00016   0.00000  -0.00156  -0.00155  -0.00585
   D32        0.00233   0.00006   0.00000   0.00035   0.00034   0.00267
   D33       -3.13936  -0.00013   0.00000  -0.00108  -0.00108  -3.14043
   D34       -3.13937   0.00026   0.00000   0.00183   0.00180  -3.13757
   D35        0.00213   0.00007   0.00000   0.00040   0.00038   0.00251
   D36       -0.00376  -0.00009   0.00000  -0.00063  -0.00062  -0.00438
   D37        3.13770  -0.00019   0.00000  -0.00155  -0.00155   3.13615
   D38        3.13793   0.00010   0.00000   0.00080   0.00080   3.13873
   D39       -0.00380   0.00000   0.00000  -0.00012  -0.00013  -0.00393
   D40        0.00117  -0.00003   0.00000  -0.00022  -0.00023   0.00094
   D41       -3.14034  -0.00050   0.00000  -0.00460  -0.00462   3.13824
   D42       -3.14029   0.00006   0.00000   0.00070   0.00070  -3.13959
   D43        0.00139  -0.00040   0.00000  -0.00368  -0.00369  -0.00229
   D44       -3.11424  -0.00041   0.00000  -0.00467  -0.00481  -3.11905
   D45        0.00282   0.00015   0.00000   0.00129   0.00130   0.00412
   D46        0.02726   0.00006   0.00000  -0.00029  -0.00038   0.02688
   D47       -3.13886   0.00061   0.00000   0.00567   0.00573  -3.13313
         Item               Value     Threshold  Converged?
 Maximum Force            0.129099     0.000450     NO 
 RMS     Force            0.021424     0.000300     NO 
 Maximum Displacement     0.266037     0.001800     NO 
 RMS     Displacement     0.065634     0.001200     NO 
 Predicted change in Energy=-4.122695D-02
 Lowest energy point so far.  Saving SCF results.
 GradGradGradGradGradGradGradGradGradGradGradGradGradGradGradGradGradGrad

 Leave Link  103 at Sun Oct 13 23:10:49 2019, MaxMem= 10737418240 cpu:               1.5 elap:               0.1
 (Enter /apps/cent7/gaussian/g16-A.03/g16-haswell/g16/l202.exe)
                          Input orientation:                          
 ---------------------------------------------------------------------
 Center     Atomic      Atomic             Coordinates (Angstroms)
 Number     Number       Type             X           Y           Z
 ---------------------------------------------------------------------
      1          8           0        1.284198   -0.151367   -0.038510
      2          7           0       -0.018175    0.023198    0.007803
      3          6           0       -0.596726    1.182655    0.006497
      4          6           0       -2.028169    1.335266    0.033626
      5          8           0       -2.887284    0.307351    0.065343
      6          6           0       -3.363048   -0.047854    1.385361
      7          7           0       -2.356595    2.575844    0.007234
      8          6           0       -1.192034    3.312360   -0.018455
      9          6           0       -1.054379    4.684883   -0.018418
     10          6           0        0.251452    5.224730   -0.023654
     11          6           0        1.382792    4.408747   -0.031936
     12          6           0        1.249361    3.013801   -0.030016
     13          6           0       -0.045018    2.487269   -0.020779
     14          1           0        1.652801   -0.218471    0.854931
     15          1           0       -3.377705   -1.134125    1.460846
     16          1           0       -2.710281    0.367341    2.155747
     17          1           0       -4.370919    0.343459    1.516561
     18          1           0       -1.930200    5.325455   -0.015705
     19          1           0        0.377181    6.302296   -0.022599
     20          1           0        2.370967    4.854513   -0.040904
     21          1           0        2.124771    2.373253   -0.039550
     22          1           0       -0.602212   -0.810454    0.013716
 ---------------------------------------------------------------------
                    Distance matrix (angstroms):
                    1          2          3          4          5
     1  O    0.000000
     2  N    1.314836   0.000000
     3  C    2.306408   1.295787   0.000000
     4  C    3.631398   2.400472   1.439811   0.000000
     5  O    4.197912   2.883720   2.452810   1.340035   0.000000
     6  C    4.861585   3.618133   3.326854   2.349917   1.447401
[...]
 624,0.00027607,0.00191298,0.00034452,-0.00013693,-0.00003403,0.0004433
 2,-0.00119833,0.00082216,0.00457799,0.01270491,-0.01151720,-0.00304519
 ,0.00536869,0.01126663,-0.00287907,-0.01489833,-0.00623639,0.00622009,
 0.02072380,0.00362877,-0.06821666,-0.14925873,-0.00941056,0.18155108,0
 .00608161,-0.00257048,-0.00344585,0.01786195,0.01144098,-0.00056836,-0
 .12010500,-0.03961253,0.01993971,-0.02614128,-0.01828284,0.00932968,-0
 .00712816,0.00204840,0.00183508,0.00094937,-0.00118397,-0.00034275,-0.
 05208133,-0.00700201,0.01563945,-0.22189818,0.04125087,0.03965797,0.02
 628234,0.05349050,-0.00885706,-0.05744021,0.00413822,0.01427977,0.0290
 0489,-0.07228197,-0.00218787,-0.28854336,-0.05098731,0.06898232,0.7093
 9598,0.00210152,0.00344038,-0.00216162,0.00485211,-0.07250070,0.009253
 48,-0.05826387,-0.21349738,0.02140222,-0.02932775,-0.00549593,0.008646
 87,0.00396235,0.01157360,-0.00155736,-0.00118860,-0.00047341,0.0003054
 2,-0.01890117,0.01469749,0.00430841,0.07642999,-0.16162231,-0.01521297
 ,0.01700400,-0.02838428,-0.00247271,-0.00844207,-0.00472340,0.00245403
 ,-0.01453834,-0.04696001,0.00709006,-0.08082070,-0.12568070,0.02583379
 ,0.08746480,0.61755174,-0.00390087,0.00017740,-0.00537694,0.00057038,0
 .00186841,0.00795471,0.02067326,0.01886070,-0.05567529,0.00901047,0.00
 530959,0.00317011,0.00167045,-0.00119369,0.00029020,-0.00033023,0.0002
 4010,-0.00051174,0.01606688,0.00091290,0.00330304,0.03856443,-0.005484
 97,-0.06739175,-0.00664571,-0.01243508,0.00612444,0.01485683,-0.000861
 61,-0.00685372,-0.00518438,0.02182861,0.00726996,0.07024873,0.01816981
 ,-0.06817350,-0.16385417,-0.04964911,0.15252304,-0.15075260,0.10611738
 ,-0.13137597,-0.03542638,0.02451091,-0.02337882,-0.00463229,0.00037796
 ,0.00068337,0.00018927,0.00107092,0.00221881,0.00058685,0.00004547,-0.
 00023467,-0.00034387,-0.00007057,0.00004731,-0.00047555,-0.00003823,-0
 .00046311,-0.00044468,0.00034078,0.00015079,-0.00029736,-0.00042792,0.
 00021006,0.00005618,-0.00003291,-0.00007363,0.00038958,-0.00032664,0.0
 0009108,0.00042439,0.00048808,-0.00050538,-0.00048104,-0.00136141,-0.0
 0083303,0.19201910,0.13556387,-0.13419923,0.18137844,-0.00428475,0.001
 43167,-0.00365163,0.00026982,-0.00366041,0.00129951,0.00168625,0.00070
 495,-0.00055395,-0.00094312,-0.00113970,0.00025213,0.00036608,0.000087
 86,-0.00002376,0.00027441,-0.00021076,-0.00003216,0.00041920,-0.000488
 49,-0.00008793,0.00046523,0.00043622,-0.00013589,0.00014020,0.00003043
 ,-0.00001271,-0.00065498,0.00070439,0.00035021,-0.00068377,-0.00106240
 ,-0.00006353,0.00099557,0.00221209,-0.00029770,-0.13079883,0.13396036,
 -0.18422264,0.19585833,-0.26913333,0.02332937,-0.01729517,0.01355021,0
 .00552911,0.00236405,-0.00055338,-0.00094796,-0.00089604,-0.00039595,0
 .00043585,0.00008575,-0.00020900,-0.00019187,-0.00000506,0.00009671,0.
 00078850,-0.00051633,-0.00000806,-0.00012420,0.00033841,-0.00003816,-0
 .00019541,-0.00028650,0.00005238,0.00015600,0.00001056,-0.00004386,-0.
 00004396,-0.00009912,-0.00007365,0.00027884,-0.00003465,-0.00009177,-0
 .00029521,-0.00065778,0.00007420,0.15506496,-0.17870551,0.25584299,-0.
 00016656,0.00016793,0.00002824,0.00011273,-0.00007512,-0.00007796,-0.0
 0036460,-0.00131101,0.00023773,-0.00583707,0.00366336,0.00131579,-0.02
 488655,-0.03705733,0.00752537,-0.06896543,-0.06988021,0.00659380,0.000
 84219,0.00019275,-0.00012264,0.00024928,-0.00019786,-0.00002389,-0.000
 12495,-0.00016076,0.00004299,0.00014227,0.00001853,-0.00004730,-0.0001
 0464,0.00008467,0.00003416,0.00003068,-0.00020269,-0.00002339,-0.00031
 638,0.00012295,0.00007554,-0.00000431,-0.00005748,0.00003106,0.0891752
 4,-0.00001327,-0.00000149,0.00000069,-0.00004300,0.00005050,0.00000088
 ,0.00030353,0.00020691,-0.00007038,0.00201753,0.00036125,-0.00052015,0
 .00387635,0.00737883,-0.00126135,-0.08684679,-0.31788847,0.03159107,-0
 .00049471,-0.00005394,0.00013933,-0.00006276,0.00031004,0.00001263,0.0
 0001047,0.00001952,-0.00000488,-0.00002416,-0.00000271,0.00000706,0.00
 001507,-0.00003683,-0.00000182,0.00000095,0.00008881,-0.00000686,-0.00
 012003,-0.00014580,0.00002821,0.00000575,-0.00000687,0.00000373,0.0881
 2719,0.33049637,0.00003161,-0.00004283,-0.00005536,-0.00002785,0.00001
 964,-0.00001989,0.00016756,0.00034172,0.00030385,0.00145593,-0.0009098
 4,-0.00018441,0.00597118,0.00907796,-0.00257685,0.00721404,0.02726595,
 -0.05573284,-0.00008421,-0.00002335,0.00040970,-0.00002642,0.00003944,
 0.00013462,0.00003382,0.00004011,-0.00000248,-0.00004006,-0.00000573,-
 0.00001276,0.00003392,-0.00001823,0.00002039,-0.00003229,0.00004028,-0
 .00007662,0.00007991,-0.00001794,-0.00004360,-0.00000867,0.00001032,0.
 00001367,-0.01390535,-0.03257684,0.05165423,-0.00021169,0.00006713,0.0
 0010958,0.00012733,-0.00018924,0.00003368,-0.00088481,-0.00004217,-0.0
 0092645,0.00252704,0.00742211,0.00065428,-0.02295833,0.01615124,0.0367
 0512,-0.04881222,0.00266009,0.00515934,0.00070239,-0.00223595,0.000554
 80,0.00029828,0.00032680,-0.00058019,-0.00022134,-0.00033458,0.0000824
 5,0.00031489,0.00003226,-0.00010111,-0.00015394,0.00022687,0.00000486,
 -0.00008024,-0.00023249,-0.00000474,0.00005071,0.00029165,0.00015235,0
 .00004578,-0.00005638,0.00003854,0.00250719,-0.00318964,-0.00929373,0.
 06250195,0.00002288,0.00000597,0.00007292,-0.00005899,-0.00002256,0.00
 003166,0.00020252,0.00015779,-0.00050000,-0.00146085,0.00266793,0.0013
 7288,0.00235356,-0.00034871,0.00108575,0.00900910,-0.12810007,-0.12522
 469,0.00116140,-0.00038339,0.00027548,-0.00030678,-0.00012687,-0.00051
 223,0.00001369,-0.00002040,0.00004105,0.00003527,-0.00001577,0.0000209
 4,0.00005086,0.00002028,-0.00002584,0.00002054,0.00000612,-0.00000846,
 0.00017372,-0.00000425,0.00005140,0.00000344,0.00000156,-0.00002528,0.
 00231942,-0.01116918,-0.02529102,-0.01155666,0.12848449,-0.00006228,0.
 00005753,0.00002600,-0.00006759,0.00005354,0.00001946,0.00039509,0.000
 16615,-0.00023857,-0.00054636,-0.00270573,0.00028934,0.00748560,-0.000
 43477,-0.00291243,0.01484597,-0.12238994,-0.25452380,-0.00039815,-0.00
 015208,0.00022611,-0.00029524,0.00033422,0.00003255,0.00006223,0.00007
 210,-0.00004295,-0.00011320,-0.00001431,0.00005474,0.00006770,-0.00013
 264,-0.00003123,0.00005403,0.00019004,-0.00001313,-0.00023811,-0.00027
 477,0.00005056,0.00000102,-0.00001869,0.00000415,-0.00184226,0.0034436
 1,0.00648835,-0.02043058,0.13484902,0.26786423,-0.00010736,-0.00001208
 ,-0.00005618,0.00007665,-0.00020455,-0.00004462,-0.00053734,-0.0000543
 4,0.00102745,0.00185172,0.00766423,-0.00217344,-0.03719715,0.01253702,
 -0.01916415,-0.10580968,0.05468174,-0.09240479,0.00056086,-0.00190739,
 -0.00055439,0.00061128,0.00017754,0.00025021,-0.00024232,-0.00034947,0
 .00006085,0.00035957,0.00003779,-0.00007318,-0.00016479,0.00027563,0.0
 0003932,-0.00008140,-0.00030268,0.00007006,0.00008348,0.00038649,-0.00
 018182,0.00002445,-0.00002286,0.00002589,0.00788734,-0.00357196,0.0083
 5071,0.00392925,-0.00189931,0.00116619,0.12847790,0.00003270,-0.000013
 60,-0.00004316,-0.00008990,-0.00001248,-0.00005634,0.00040763,0.000171
 12,0.00032472,-0.00199657,0.00265691,-0.00069708,0.00167699,-0.0007101
 3,-0.00150648,0.06096016,-0.11191069,0.09837490,0.00092941,-0.00038011
 ,-0.00074416,-0.00001943,-0.00010697,0.00057990,-0.00000799,-0.0000254
 6,-0.00003526,0.00002470,-0.00001859,-0.00003722,0.00005376,0.00002818
 ,-0.00000231,0.00001781,-0.00000326,-0.00000828,0.00015403,-0.00000068
 ,-0.00011764,-0.00001517,0.00000700,0.00000295,0.01440464,-0.00961186,
 0.02200571,-0.00918292,0.00886793,-0.01305335,-0.06731321,0.11107337,0
 .00012227,-0.00004562,0.00002590,0.00007489,0.00004370,0.00003624,-0.0
 0028411,-0.00018431,-0.00059536,-0.00017132,-0.00127963,0.00099021,0.0
 1091284,-0.00629133,0.01158815,-0.10262650,0.09875223,-0.21373690,0.00
 015482,0.00127526,0.00034835,0.00000725,-0.00047428,-0.00028586,0.0000
 4801,0.00010526,-0.00002710,-0.00005395,0.00000055,0.00002431,-0.00000
 611,0.00000087,-0.00002552,-0.00001595,-0.00005817,-0.00000454,0.00020
 906,0.00011784,0.00002446,-0.00001401,0.00002989,-0.00002261,0.0000528
 2,-0.00078975,-0.00043792,-0.01219354,0.01383798,-0.01730334,0.1038590
 1,-0.10509191,0.21934810,0.00000433,0.00001832,0.00003723,-0.00006099,
 -0.00022084,-0.00011300,0.00001140,-0.00037315,0.00020373,0.00038731,0
 .00000107,-0.00010101,-0.00025290,-0.00022995,0.00015751,0.00014221,-0
 .00000846,-0.00004140,0.00015450,0.00069741,-0.00121475,0.00558125,-0.
 00217309,-0.00024793,-0.25644022,0.13121415,0.05011172,-0.01447862,0.0
 1460070,0.00367375,-0.00179748,-0.00303981,0.00247022,-0.00008672,-0.0
 0085706,-0.00026329,0.00131762,-0.00078434,0.00179579,-0.00000548,0.00
 000807,0.00000294,-0.00001680,0.00000719,0.00000382,-0.00000346,-0.000
 01397,0.00001844,-0.00001297,-0.00001052,-0.00001878,0.26568758,-0.000
 08074,0.00007145,0.00003342,-0.00045578,-0.00058765,0.00010864,0.00164
 396,-0.00027293,-0.00034556,-0.00009224,-0.00060799,0.00004806,0.00004
 160,0.00049965,-0.00001629,-0.00004869,-0.00004803,0.00001203,-0.00021
 837,0.00258476,-0.00029674,0.02758874,-0.01116713,-0.00637117,0.130534
 42,-0.14384584,-0.02860535,-0.01402959,0.01293317,0.00310739,-0.003177
 27,-0.00109059,0.00128018,-0.00080243,-0.00074949,0.00019042,-0.001262
 15,-0.00443270,0.00092874,-0.00001612,-0.00000277,-0.00000594,-0.00001
 658,0.00001223,0.00000354,0.00000631,-0.00002638,0.00001752,-0.0000030
 3,-0.00002722,-0.00001712,-0.13953954,0.14573330,0.00005231,-0.0000050
 8,0.00012106,-0.00016020,0.00005570,-0.00051309,0.00012308,0.00016866,
 0.00068093,-0.00012382,0.00004685,0.00005672,0.00014896,0.00005231,0.0
 0026565,-0.00003919,0.00000319,-0.00000858,-0.00113267,-0.00054438,-0.
 00404339,-0.00190570,0.00155531,0.00445793,0.05004650,-0.02888862,-0.0
 4989213,0.00527492,-0.00434465,0.00133143,0.00247959,0.00122693,0.0063
 1248,-0.00031174,0.00014139,-0.00120503,0.00197291,0.00080687,0.007586
 84,0.00002292,-0.00000230,0.00001561,0.00000501,-0.00000254,-0.0000025
 5,-0.00000036,-0.00000524,-0.00001697,0.00000015,0.00001370,-0.0000049
 4,-0.05527181,0.03019259,0.03914718,0.00004499,0.00006029,-0.00002294,
 -0.00005554,0.00006605,0.00005039,0.00017549,0.00002022,-0.00030895,-0
 .00072372,0.00021695,0.00021425,0.00005565,-0.00026788,0.00003671,0.00
 007105,0.00000408,-0.00002848,0.00001828,-0.00173297,-0.00023264,-0.00
 382223,-0.00235395,0.00316262,0.00385769,-0.02721827,0.00224395,-0.059
 90402,-0.00804548,0.00423643,0.00564981,0.02626026,-0.00094004,-0.0036
 6675,0.00364546,0.00291995,-0.00119146,-0.00018294,-0.00005765,0.00001
 069,-0.00002459,-0.00000113,0.00000023,-0.00000396,0.00000065,0.000003
 42,0.00000507,-0.00000615,0.00000350,0.00000799,0.00000497,0.00057848,
 0.00038904,-0.00107817,0.05836869,-0.00012087,-0.00002264,0.00003981,0
 .00003655,0.00052246,-0.00009021,-0.00021729,-0.00105240,0.00005091,-0
 .00027735,0.00010446,0.00006284,-0.00002174,-0.00024286,0.00002622,0.0
 0004367,0.00000209,-0.00001244,0.00034295,-0.00058016,-0.00012025,-0.0
 0160284,0.00066458,0.00080654,0.00182686,-0.00745375,0.00026200,-0.007
 71003,-0.34776200,0.01788823,-0.00298768,-0.00930099,0.00167522,0.0023
 3000,-0.00067155,-0.00017873,0.00048083,0.00173539,-0.00028447,0.00002
 037,-0.00004024,0.00000631,-0.00000171,0.00000049,0.00000066,-0.000002
 38,0.00000381,-0.00000002,-0.00000237,0.00000432,0.00000094,-0.0000524
 4,0.00054168,-0.00019404,0.00825133,0.36343435,-0.00006858,0.00003711,
 -0.00012176,0.00012327,-0.00003446,0.00021490,-0.00032767,0.00003974,-
 0.00100015,0.00023395,-0.00003944,0.00007466,0.00002321,0.00009110,0.0
 0015268,-0.00003060,-0.00000195,-0.00003427,-0.00034556,0.00042835,-0.
 00110548,0.00310526,0.00097116,0.00686653,0.00066490,0.00796801,0.0062
 0351,0.00419086,0.01801464,-0.04758410,0.00071845,-0.00613310,0.007523
 23,0.00297027,-0.00050931,0.00708082,-0.00005166,-0.00016382,-0.001294
 95,-0.00000560,-0.00003359,0.00002052,0.00000078,0.00000083,0.00000264
 ,0.00000566,-0.00000644,0.00000181,-0.00000608,0.00000317,0.00000199,-
 0.00105283,-0.00031990,-0.00315089,-0.00867904,-0.01980629,0.03066402,
 -0.00002646,0.00000856,0.00001324,0.00006618,-0.00013679,0.00000144,0.
 00028864,0.00020921,0.00017495,0.00023897,-0.00009622,-0.00010043,0.00
 005381,0.00002241,-0.00003842,-0.00002285,0.00000795,-0.00001545,0.000
 12492,0.00013051,-0.00020320,-0.00025080,0.00112673,-0.00026167,-0.001
 81087,0.00329885,0.00230501,-0.01627714,-0.01336212,0.00592727,-0.2632
 9474,-0.11932330,0.06736058,0.00522973,0.00292324,-0.00083386,0.001825
 72,0.00106231,0.00137204,0.00001939,0.00000026,0.00000159,0.00000380,-
 0.00000067,0.00000004,0.00000238,-0.00000138,-0.00000181,-0.00000445,-
 0.00000123,0.00000343,-0.00065121,-0.00068691,0.00019410,0.00041983,-0
 .00004854,-0.00122280,0.27397771,0.00015767,-0.00003228,-0.00000673,-0
 .00023723,-0.00001588,0.00007182,-0.00110624,0.00009294,0.00035216,0.0
 0018459,-0.00062475,-0.00001002,-0.00015490,0.00027059,0.00001804,-0.0
 0001815,-0.00003385,0.00000034,-0.00028578,0.00042336,0.00001747,0.000
 60103,-0.00121394,-0.00015069,0.00346076,-0.00135827,-0.00044210,0.016
 38019,0.01201406,-0.00491877,-0.11913545,-0.12746304,0.03696097,-0.026
 71265,-0.01086092,0.00801377,0.00116513,-0.00532554,0.00030271,-0.0000
 4940,0.00000761,-0.00001944,-0.00001155,0.00000221,0.00000317,-0.00000
 086,-0.00000355,-0.00000111,-0.00000151,-0.00000341,0.00000231,0.00072
 692,0.00050318,-0.00020901,-0.00032586,0.00062765,-0.00016916,0.125162
 82,0.13207114,-0.00001426,-0.00001051,0.00005714,-0.00002063,0.0000121
 2,-0.00002958,0.00027467,0.00006555,0.00093379,-0.00012537,0.00005867,
 -0.00012200,-0.00002202,-0.00000884,-0.00008878,-0.00001524,-0.0000043
 3,-0.00007255,-0.00019772,-0.00008921,-0.00054707,-0.00018559,-0.00039
 806,-0.00094140,0.00230322,-0.00037892,0.00675582,0.00418196,0.0031731
 5,0.00168828,0.06756109,0.03689771,-0.05840966,0.00079115,0.00009558,0
 .00254583,0.00123849,0.00027335,0.00673807,0.00003126,0.00001020,0.000
 02132,0.00000089,-0.00000005,0.00000318,0.00001488,0.00000062,-0.00000
 182,-0.00001163,0.00000083,0.00000413,0.00013985,0.00016780,-0.0000656
 1,-0.00119519,-0.00022977,-0.00374212,-0.07352550,-0.03949148,0.049131
 61,0.00024517,0.00139319,-0.00026696,-0.00101924,-0.00090022,0.0004395
 4,0.00054940,0.00058029,-0.00113930,-0.00082949,0.00079481,0.00023430,
 0.00010671,-0.00018740,-0.00004740,-0.00003203,-0.00000840,-0.00001778
 ,-0.00133184,-0.00036083,0.00022436,0.00002439,-0.00385670,0.00240691,
 0.00033979,0.00011015,-0.00036634,0.00101253,-0.00101650,0.00201916,0.
 00675659,-0.00303570,0.00028003,-0.25617388,0.12911936,0.05372235,-0.0
 1548811,0.01515297,0.00422327,0.00039043,0.00003428,-0.00007374,0.0000
 0843,-0.00000848,0.00000155,0.00001215,0.00001216,-0.00001011,0.000010
 73,0.00000327,0.00001539,-0.00006370,0.00007696,-0.00024994,0.00009588
 ,-0.00023901,-0.00030620,0.00009069,0.00012220,-0.00122595,0.26514421,
 0.00065419,-0.00127625,0.00013146,-0.00109424,-0.00070862,0.00026010,0
 .00088546,0.00131800,-0.00035853,-0.00026951,0.00069330,0.00007402,0.0
 0005641,-0.00031706,-0.00000270,0.00000695,0.00000848,-0.00001116,-0.0
 0098032,-0.00014051,0.00019919,-0.00258424,-0.00078554,0.00112912,-0.0
 0097319,-0.00099566,0.00025695,-0.00024691,-0.00567106,0.00071732,0.02
 521193,-0.00778537,-0.00623697,0.12970927,-0.14286564,-0.03107697,-0.0
 1394158,0.01232312,0.00320639,0.00013265,-0.00034031,0.00003584,0.0000
 0604,-0.00000668,0.00000117,0.00000575,0.00000767,-0.00000738,0.000006
 52,0.00000541,0.00000648,0.00005312,0.00007258,-0.00005660,0.00124079,
 -0.00045994,-0.00035378,-0.00030461,0.00093124,-0.00013996,-0.13769683
 ,0.14613601,-0.00068437,-0.00044442,-0.00084202,0.00084946,0.00039869,
 0.00021954,-0.00124053,-0.00022421,-0.00310625,0.00036875,-0.00023957,
 0.00007501,-0.00008600,0.00003967,-0.00007637,-0.00001434,-0.00000267,
 -0.00009537,0.00030700,0.00012469,-0.00047079,0.00201961,0.00147585,0.
 00704779,-0.00029404,-0.00004891,-0.00085863,0.00191417,0.00103042,0.0
 0725628,-0.00128684,0.00173847,0.00740907,0.05416373,-0.03135190,-0.05
 475032,0.00555803,-0.00476245,0.00139141,0.00007266,0.00028379,0.00017
 173,-0.00000125,0.00000382,0.00001045,0.00001516,0.00001537,0.00001873
 ,-0.00001583,-0.00002029,0.00002213,-0.00023171,-0.00007825,-0.0008563
 7,-0.00037501,0.00003517,-0.00096554,-0.00113975,-0.00029121,-0.003837
 32,-0.06006580,0.03228514,0.04128829,-0.02485438,-0.02107945,0.0052890
 6,-0.14373068,-0.14621466,0.02555099,0.01693991,0.01415345,-0.00457844
 ,0.00331373,0.00572137,-0.00148182,0.00013743,-0.00324821,-0.00029373,
 -0.00138446,-0.00081668,0.00041889,-0.00080365,-0.00267185,0.00056727,
 0.00334409,0.00106446,-0.00070016,-0.00033212,0.00019998,-0.00009730,0
 .00044795,-0.00000850,-0.00010535,-0.00072387,0.00103281,-0.00012569,-
 0.00165587,-0.00138505,0.00053313,-0.00203918,0.00498004,0.00170744,-0
 .00129255,-0.00269647,0.00041348,-0.00017211,0.00001541,0.00007384,0.0
 0030328,-0.00008568,-0.00008442,0.00028073,-0.00003614,-0.00008048,0.0
 0000589,0.00014841,-0.00004685,0.00001004,-0.00004833,0.00006002,-0.00
 000325,0.00007827,0.00000164,0.00015118,0.00012235,0.00016692,0.152057
 88,0.00669276,0.01396969,-0.00134469,-0.14875784,-0.34275115,0.0243519
 7,-0.01238044,-0.02926561,0.00189440,0.00140729,-0.00085613,-0.0001156
 4,-0.00132200,-0.00093382,0.00026387,0.00072910,0.00050643,-0.00012049
 ,0.00000533,0.00024574,-0.00007710,0.00008679,-0.00218865,0.00037276,0
 .00132847,0.00098588,-0.00046672,-0.00026402,0.00005351,0.00007692,-0.
 00081328,0.00069613,0.00018728,-0.00141154,-0.00133866,0.00042572,0.00
 444183,0.00571328,-0.00156069,0.00002349,0.00156705,-0.00015909,-0.000
 13518,-0.00000335,0.00003610,-0.00016694,-0.00000241,0.00000103,-0.000
 12219,0.00001023,0.00005879,-0.00002380,-0.00009329,-0.00001104,-0.000
 01162,-0.00005477,0.00001711,0.00000892,-0.00000857,-0.00000448,-0.000
 08958,-0.00014319,0.00003280,0.15077447,0.35389166,0.01026945,0.009969
 93,-0.00334473,0.02303962,0.01176569,-0.02629593,-0.00327994,0.0050040
 8,-0.00041994,-0.00268049,-0.00247763,-0.00394197,-0.00008093,0.001582
 33,-0.00086733,0.00031624,0.00020355,-0.00020133,0.00031024,0.00107215
 ,0.00134527,-0.00123267,0.00059879,0.00105247,-0.00078425,-0.00066589,
 -0.00062849,0.00005729,0.00001471,0.00018435,0.00027714,-0.00079451,-0
 .00127583,0.00143445,0.00115294,-0.00049017,0.00111865,-0.00356182,0.0
 0882045,-0.00170134,0.00000488,0.00070627,0.00009985,0.00000275,0.0001
 0420,0.,-0.00005588,0.00000822,-0.00016373,0.00010759,0.00003013,-0.00
 005852,-0.00003401,-0.00021626,0.00005550,0.00006139,0.00019195,-0.000
 01081,-0.00003306,-0.00002125,0.00020268,-0.00005914,0.00094857,-0.027
 18843,-0.02385882,0.02431137\\0.00000106,0.00000012,-0.00000243,0.0000
 0143,-0.00004542,0.00000943,0.00002438,0.00010819,-0.00002271,-0.00003
 024,-0.00005848,-0.00000131,0.00000356,0.00002729,0.00000315,0.0000033
 1,0.00000467,-0.00000204,0.00004237,0.00007028,-0.00001148,-0.00004034
 ,-0.00009040,0.00001587,0.00004524,0.00006400,-0.00001294,-0.00008595,
 -0.00000020,0.00001275,0.00004399,-0.00008245,-0.00000894,0.00004341,0
 .00008267,-0.00001804,-0.00005219,-0.00007655,0.00003505,-0.00000076,-
 0.00000090,0.00000109,-0.00000134,0.00000171,-0.00000187,-0.00000166,0
 .00000159,0.00000363,0.00000281,0.00000277,-0.00000083,-0.00000313,-0.
 00000757,0.00000108,0.00001215,-0.00000016,0.00000058,-0.00000441,0.00
 000784,0.00000078,-0.00000630,-0.00001006,0.00000313,0.00000260,0.0000
 0107,-0.00000397\\\@


 MUD THROWN IS GROUND LOST -- FROM A TEA BAG
 Job cpu time:       0 days  1 hours 28 minutes  0.4 seconds.
 Elapsed time:       0 days  0 hours  3 minutes 44.4 seconds.
 File lengths (MBytes):  RWF=    249 Int=      0 D2E=      0 Chk=     11 Scr=      1
 Normal termination of Gaussian 16 at Sun Oct 13 23:21:34 2019.
real 684.11
user 15971.01
sys 62.69
Machine:
brown-a054
brown-a054
brown-a054
brown-a054
brown-a054
brown-a054
brown-a054
brown-a054
brown-a054
brown-a054
brown-a054
brown-a054
brown-a054
brown-a054
brown-a054
brown-a054
brown-a054
brown-a054
brown-a054
brown-a054
brown-a054
brown-a054
brown-a054
brown-a054
