Title Card Required                                                     
Freq      RM062X                                                      6-311++G(d,p)       
Number of atoms                            I               12
Info1-9                                    I   N=           9
          34          34        1002           0           0         100
           6          18        -502
Full Title                                 C   N=           2
Title Card Required     
Route                                      C   N=           6
#P opt freq m062x/6-311++g(d,p) geom=connectivity temperatur
e=0.001     
Charge                                     I                0
Multiplicity                               I                1
Number of electrons                        I               50
Number of alpha electrons                  I               25
Number of beta electrons                   I               25
Number of basis functions                  I              189
Number of independent functions            I              189
Number of point charges in /Mol/           I                0
Number of translation vectors              I                0
Atomic numbers                             I   N=          12
           8           7           6           6           6           6
           6           1           1           1           1           1
Nuclear charges                            R   N=          12
  8.00000000E+00  7.00000000E+00  6.00000000E+00  6.00000000E+00  6.00000000E+00
  6.00000000E+00  6.00000000E+00  1.00000000E+00  1.00000000E+00  1.00000000E+00
  1.00000000E+00  1.00000000E+00
Current cartesian coordinates              R   N=          36
 -4.52809208E-05  4.24925220E+00 -5.91645679E-31  1.65931686E-16  1.85052019E+00
 -9.86076132E-32  2.21634527E+00  5.38324295E-01 -6.16297582E-32  2.24844585E+00
 -2.06814036E+00  2.95822839E-31  3.56765282E-05 -3.42603327E+00  4.43734259E-31
 -2.24842634E+00 -2.06815993E+00  2.95822839E-31 -2.21635809E+00  5.38279464E-01
 -4.93038066E-32  3.87138459E+00  1.73233755E+00 -2.21867130E-31  4.06165787E+00
 -3.01424961E+00  3.94430453E-31  2.74726481E-05 -5.46938651E+00  4.93038066E-31
 -4.06160256E+00 -3.01433318E+00  2.95822839E-31 -3.87135931E+00  1.73235161E+00
 -2.21867130E-31
Number of symbols in /Mol/                 I                0
Force Field                                I                0
Atom Types                                 C   N=          12
                                                            
                                                            
                        
Int Atom Types                             I   N=          12
           0           0           0           0           0           0
           0           0           0           0           0           0
MM charges                                 R   N=          12
  0.00000000E+00  0.00000000E+00  0.00000000E+00  0.00000000E+00  0.00000000E+00
  0.00000000E+00  0.00000000E+00  0.00000000E+00  0.00000000E+00  0.00000000E+00
  0.00000000E+00  0.00000000E+00
Integer atomic weights                     I   N=          12
          16          14          12          12          12          12
          12           1           1           1           1           1
Real atomic weights                        R   N=          12
  1.59949146E+01  1.40030740E+01  1.20000000E+01  1.20000000E+01  1.20000000E+01
  1.20000000E+01  1.20000000E+01  1.00782504E+00  1.00782504E+00  1.00782504E+00
  1.00782504E+00  1.00782504E+00
Atom fragment info                         I   N=          12
           0           0           0           0           0           0
           0           0           0           0           0           0
Atom residue num                           I   N=          12
           0           0           0           0           0           0
           0           0           0           0           0           0
Nuclear spins                              I   N=          12
           0           2           0           0           0           0
           0           1           1           1           1           1
Nuclear ZEff                               R   N=          12
 -5.60000000E+00 -4.55000000E+00 -3.60000000E+00 -3.60000000E+00 -3.60000000E+00
 -3.60000000E+00 -3.60000000E+00 -1.00000000E+00 -1.00000000E+00 -1.00000000E+00
 -1.00000000E+00 -1.00000000E+00
Nuclear ZNuc                               R   N=          12
  8.00000000E+00  7.00000000E+00  6.00000000E+00  6.00000000E+00  6.00000000E+00
  6.00000000E+00  6.00000000E+00  1.00000000E+00  1.00000000E+00  1.00000000E+00
  1.00000000E+00  1.00000000E+00
Nuclear QMom                               R   N=          12
  0.00000000E+00  2.04400000E+00  0.00000000E+00  0.00000000E+00  0.00000000E+00
  0.00000000E+00  0.00000000E+00  0.00000000E+00  0.00000000E+00  0.00000000E+00
  0.00000000E+00  0.00000000E+00
Nuclear GFac                               R   N=          12
  0.00000000E+00  4.03761000E-01  0.00000000E+00  0.00000000E+00  0.00000000E+00
  0.00000000E+00  0.00000000E+00  2.79284600E+00  2.79284600E+00  2.79284600E+00
  2.79284600E+00  2.79284600E+00
MicOpt                                     I   N=          12
          -1          -1          -1          -1          -1          -1
          -1          -1          -1          -1          -1          -1
Number of residues                         I                0
Number of secondary structures             I                0
Redundant internal dimensions              I   N=           4
          54          12          18          24
Redundant internal coordinate indices      I   N=         216
           1           2           0           0           2           3
           0           0           2           7           0           0
           3           4           0           0           3           8
           0           0           4           5           0           0
           4           9           0           0           5           6
           0           0           5          10           0           0
           6           7           0           0           6          11
           0           0           7          12           0           0
           1           2           3           0           1           2
           7           0           3           2           7           0
           2           3           4           0           2           3
           8           0           4           3           8           0
           3           4           5           0           3           4
           9           0           5           4           9           0
           4           5           6           0           4           5
          10           0           6           5          10           0
           5           6           7           0           5           6
          11           0           7           6          11           0
           2           7           6           0           2           7
          12           0           6           7          12           0
           1           2           3           4           1           2
           3           8           7           2           3           4
           7           2           3           8           1           2
           7           6           1           2           7          12
           3           2           7           6           3           2
           7          12           2           3           4           5
           2           3           4           9           8           3
           4           5           8           3           4           9
           3           4           5           6           3           4
           5          10           9           4           5           6
           9           4           5          10           4           5
           6           7           4           5           6          11
          10           5           6           7          10           5
           6          11           5           6           7           2
           5           6           7          12          11           6
           7           2          11           6           7          12
Redundant internal coordinates             R   N=          54
  2.39873202E+00  2.57566388E+00  2.57569775E+00  2.60666232E+00  2.04078975E+00
  2.62663691E+00  2.04520428E+00  2.62667117E+00  2.04335324E+00  2.60663666E+00
  2.04520215E+00  2.04079331E+00  2.10537151E+00  2.10534619E+00  2.07246761E+00
  2.11766776E+00  1.98206491E+00  2.18345263E+00  2.10178883E+00  2.06403584E+00
  2.11736064E+00  2.05499396E+00  2.11410798E+00  2.11408337E+00  2.10178453E+00
  2.11734137E+00  2.06405940E+00  2.11766792E+00  1.98201814E+00  2.18349925E+00
  3.14159265E+00  0.00000000E+00 -0.00000000E+00  3.14159265E+00  3.14159265E+00
 -0.00000000E+00  0.00000000E+00  3.14159265E+00  0.00000000E+00  3.14159265E+00
  3.14159265E+00 -0.00000000E+00 -0.00000000E+00  3.14159265E+00  3.14159265E+00
  0.00000000E+00  0.00000000E+00  3.14159265E+00  3.14159265E+00 -0.00000000E+00
 -0.00000000E+00  3.14159265E+00  3.14159265E+00  0.00000000E+00
ZRed-IntVec                                I   N=          54
           0           0           0           0           0           0
           0           0           0           0           0           0
           0           0           0           0           0           0
           0           0           0           0           0           0
           0           0           0           0           0           0
           0           0           0           0           0           0
           0           0           0           0           0           0
           0           0           0           0           0           0
           0           0           0           0           0           0
ZRed-FPVec                                 R   N=          54
  0.00000000E+00  0.00000000E+00  0.00000000E+00  0.00000000E+00  0.00000000E+00
  0.00000000E+00  0.00000000E+00  0.00000000E+00  0.00000000E+00  0.00000000E+00
  0.00000000E+00  0.00000000E+00  0.00000000E+00  0.00000000E+00  0.00000000E+00
  0.00000000E+00  0.00000000E+00  0.00000000E+00  0.00000000E+00  0.00000000E+00
  0.00000000E+00  0.00000000E+00  0.00000000E+00  0.00000000E+00  0.00000000E+00
  0.00000000E+00  0.00000000E+00  0.00000000E+00  0.00000000E+00  0.00000000E+00
  0.00000000E+00  0.00000000E+00  0.00000000E+00  0.00000000E+00  0.00000000E+00
  0.00000000E+00  0.00000000E+00  0.00000000E+00  0.00000000E+00  0.00000000E+00
  0.00000000E+00  0.00000000E+00  0.00000000E+00  0.00000000E+00  0.00000000E+00
  0.00000000E+00  0.00000000E+00  0.00000000E+00  0.00000000E+00  0.00000000E+00
  0.00000000E+00  0.00000000E+00  0.00000000E+00  0.00000000E+00
ZRed-Constraint1                           R   N=          54
  2.39873202E+00  2.57566388E+00  2.57569775E+00  2.60666232E+00  2.04078975E+00
  2.62663691E+00  2.04520428E+00  2.62667117E+00  2.04335324E+00  2.60663666E+00
  2.04520215E+00  2.04079331E+00  2.10537151E+00  2.10534619E+00  2.07246761E+00
  2.11766776E+00  1.98206491E+00  2.18345263E+00  2.10178883E+00  2.06403584E+00
  2.11736064E+00  2.05499396E+00  2.11410798E+00  2.11408337E+00  2.10178453E+00
  2.11734137E+00  2.06405940E+00  2.11766792E+00  1.98201814E+00  2.18349925E+00
  3.14159265E+00  0.00000000E+00 -0.00000000E+00  3.14159265E+00  3.14159265E+00
 -0.00000000E+00  0.00000000E+00  3.14159265E+00  0.00000000E+00  3.14159265E+00
  3.14159265E+00 -0.00000000E+00 -0.00000000E+00  3.14159265E+00  3.14159265E+00
  0.00000000E+00  0.00000000E+00  3.14159265E+00  3.14159265E+00 -0.00000000E+00
 -0.00000000E+00  3.14159265E+00  3.14159265E+00 -0.00000000E+00
ZRed-Constraint2                           R   N=          54
  2.46883386E+00  2.57499042E+00  2.57600865E+00  2.65971576E+00  2.05979562E+00
  2.65735941E+00  2.05978520E+00  2.65732963E+00  2.05988304E+00  2.65925771E+00
  2.05974198E+00  2.05983779E+00  2.07830893E+00  2.07789765E+00  2.12697872E+00
  2.09641920E+00  2.06526805E+00  2.12149806E+00  2.07738001E+00  2.10381328E+00
  2.10199202E+00  2.09180665E+00  2.09558653E+00  2.09579212E+00  2.07754189E+00
  2.10210549E+00  2.10353793E+00  2.09624415E+00  2.06587643E+00  2.12106473E+00
  3.14159265E+00  0.00000000E+00  0.00000000E+00  3.14159265E+00  3.14159265E+00
  0.00000000E+00  0.00000000E+00  3.14159265E+00  0.00000000E+00  3.14159265E+00
  3.14159265E+00  0.00000000E+00  0.00000000E+00  3.14159265E+00  3.14159265E+00
  0.00000000E+00  0.00000000E+00  3.14159265E+00  3.14159265E+00  0.00000000E+00
  0.00000000E+00  3.14159265E+00  3.14159265E+00  0.00000000E+00
SymInf integers                            I   N=          26
           1           2           1           1           1           1
           1          -1           0           0           0           0
           0           0           0           0           0           0
           0           0           0           0           0           0
           0           0
RotTr to input orientation                 R   N=          12
  8.94648200E-03 -9.99959979E-01 -1.24888092E-21 -9.99959979E-01 -8.94648200E-03
  1.22464680E-16 -1.22459790E-16 -1.09437922E-18 -1.00000000E+00  5.64667356E-01
  2.21398685E+00  6.18055274E-19
Number of contracted shells                I               67
Number of primitive shells                 I              126
Pure/Cartesian d shells                    I                0
Pure/Cartesian f shells                    I                0
Highest angular momentum                   I                2
Largest degree of contraction              I                6
Shell types                                I   N=          67
           0          -1          -1          -1          -1          -2
           0          -1          -1          -1          -1          -2
           0          -1          -1          -1          -1          -2
           0          -1          -1          -1          -1          -2
           0          -1          -1          -1          -1          -2
           0          -1          -1          -1          -1          -2
           0          -1          -1          -1          -1          -2
           0           0           0           0           1           0
           0           0           0           1           0           0
           0           0           1           0           0           0
           0           1           0           0           0           0
           1
Number of primitives per shell             I   N=          67
           6           3           1           1           1           1
           6           3           1           1           1           1
           6           3           1           1           1           1
           6           3           1           1           1           1
           6           3           1           1           1           1
           6           3           1           1           1           1
           6           3           1           1           1           1
           3           1           1           1           1           3
           1           1           1           1           3           1
           1           1           1           3           1           1
           1           1           3           1           1           1
           1
Shell to atom map                          I   N=          67
           1           1           1           1           1           1
           2           2           2           2           2           2
           3           3           3           3           3           3
           4           4           4           4           4           4
           5           5           5           5           5           5
           6           6           6           6           6           6
           7           7           7           7           7           7
           8           8           8           8           8           9
           9           9           9           9          10          10
          10          10          10          11          11          11
          11          11          12          12          12          12
          12
Primitive exponents                        R   N=         126
  8.58850000E+03  1.29723000E+03  2.99296000E+02  8.73771000E+01  2.56789000E+01
  3.74004000E+00  4.21175000E+01  9.62837000E+00  2.85332000E+00  9.05661000E-01
  2.55611000E-01  8.45000000E-02  1.29200000E+00  6.29348000E+03  9.49044000E+02
  2.18776000E+02  6.36916000E+01  1.88282000E+01  2.72023000E+00  3.06331000E+01
  7.02614000E+00  2.11205000E+00  6.84009000E-01  2.00878000E-01  6.39000000E-02
  9.13000000E-01  4.56324000E+03  6.82024000E+02  1.54973000E+02  4.44553000E+01
  1.30290000E+01  1.82773000E+00  2.09642000E+01  4.80331000E+00  1.45933000E+00
  4.83456000E-01  1.45585000E-01  4.38000000E-02  6.26000000E-01  4.56324000E+03
  6.82024000E+02  1.54973000E+02  4.44553000E+01  1.30290000E+01  1.82773000E+00
  2.09642000E+01  4.80331000E+00  1.45933000E+00  4.83456000E-01  1.45585000E-01
  4.38000000E-02  6.26000000E-01  4.56324000E+03  6.82024000E+02  1.54973000E+02
  4.44553000E+01  1.30290000E+01  1.82773000E+00  2.09642000E+01  4.80331000E+00
  1.45933000E+00  4.83456000E-01  1.45585000E-01  4.38000000E-02  6.26000000E-01
  4.56324000E+03  6.82024000E+02  1.54973000E+02  4.44553000E+01  1.30290000E+01
  1.82773000E+00  2.09642000E+01  4.80331000E+00  1.45933000E+00  4.83456000E-01
  1.45585000E-01  4.38000000E-02  6.26000000E-01  4.56324000E+03  6.82024000E+02
  1.54973000E+02  4.44553000E+01  1.30290000E+01  1.82773000E+00  2.09642000E+01
  4.80331000E+00  1.45933000E+00  4.83456000E-01  1.45585000E-01  4.38000000E-02
  6.26000000E-01  3.38650000E+01  5.09479000E+00  1.15879000E+00  3.25840000E-01
  1.02741000E-01  3.60000000E-02  7.50000000E-01  3.38650000E+01  5.09479000E+00
  1.15879000E+00  3.25840000E-01  1.02741000E-01  3.60000000E-02  7.50000000E-01
  3.38650000E+01  5.09479000E+00  1.15879000E+00  3.25840000E-01  1.02741000E-01
  3.60000000E-02  7.50000000E-01  3.38650000E+01  5.09479000E+00  1.15879000E+00
  3.25840000E-01  1.02741000E-01  3.60000000E-02  7.50000000E-01  3.38650000E+01
  5.09479000E+00  1.15879000E+00  3.25840000E-01  1.02741000E-01  3.60000000E-02
  7.50000000E-01
Contraction coefficients                   R   N=         126
  1.89515008E-03  1.43859006E-02  7.07320031E-02  2.40001011E-01  5.94797026E-01
  2.80802012E-01  1.13889012E-01  9.20811101E-01 -3.27447036E-03  1.00000000E+00
  1.00000000E+00  1.00000000E+00  1.00000000E+00  1.96978815E-03  1.49612859E-02
  7.35005308E-02  2.48936766E-01  6.02459433E-01  2.56201759E-01  1.11906080E-01
  9.21666655E-01 -2.56919183E-03  1.00000000E+00  1.00000000E+00  1.00000000E+00
  1.00000000E+00  1.96665025E-03  1.52306019E-02  7.61269097E-02  2.60801033E-01
  6.16462078E-01  2.21006028E-01  1.14660081E-01  9.19999648E-01 -3.03068213E-03
  1.00000000E+00  1.00000000E+00  1.00000000E+00  1.00000000E+00  1.96665025E-03
  1.52306019E-02  7.61269097E-02  2.60801033E-01  6.16462078E-01  2.21006028E-01
  1.14660081E-01  9.19999648E-01 -3.03068213E-03  1.00000000E+00  1.00000000E+00
  1.00000000E+00  1.00000000E+00  1.96665025E-03  1.52306019E-02  7.61269097E-02
  2.60801033E-01  6.16462078E-01  2.21006028E-01  1.14660081E-01  9.19999648E-01
 -3.03068213E-03  1.00000000E+00  1.00000000E+00  1.00000000E+00  1.00000000E+00
  1.96665025E-03  1.52306019E-02  7.61269097E-02  2.60801033E-01  6.16462078E-01
  2.21006028E-01  1.14660081E-01  9.19999648E-01 -3.03068213E-03  1.00000000E+00
  1.00000000E+00  1.00000000E+00  1.00000000E+00  1.96665025E-03  1.52306019E-02
  7.61269097E-02  2.60801033E-01  6.16462078E-01  2.21006028E-01  1.14660081E-01
  9.19999648E-01 -3.03068213E-03  1.00000000E+00  1.00000000E+00  1.00000000E+00
  1.00000000E+00  2.54938145E-02  1.90373109E-01  8.52161486E-01  1.00000000E+00
  1.00000000E+00  1.00000000E+00  1.00000000E+00  2.54938145E-02  1.90373109E-01
  8.52161486E-01  1.00000000E+00  1.00000000E+00  1.00000000E+00  1.00000000E+00
  2.54938145E-02  1.90373109E-01  8.52161486E-01  1.00000000E+00  1.00000000E+00
  1.00000000E+00  1.00000000E+00  2.54938145E-02  1.90373109E-01  8.52161486E-01
  1.00000000E+00  1.00000000E+00  1.00000000E+00  1.00000000E+00  2.54938145E-02
  1.90373109E-01  8.52161486E-01  1.00000000E+00  1.00000000E+00  1.00000000E+00
  1.00000000E+00
P(S=P) Contraction coefficients            R   N=         126
  0.00000000E+00  0.00000000E+00  0.00000000E+00  0.00000000E+00  0.00000000E+00
  0.00000000E+00  3.65113974E-02  2.37152983E-01  8.19701941E-01  1.00000000E+00
  1.00000000E+00  1.00000000E+00  0.00000000E+00  0.00000000E+00  0.00000000E+00
  0.00000000E+00  0.00000000E+00  0.00000000E+00  0.00000000E+00  3.83119186E-02
  2.37403116E-01  8.17592398E-01  1.00000000E+00  1.00000000E+00  1.00000000E+00
  0.00000000E+00  0.00000000E+00  0.00000000E+00  0.00000000E+00  0.00000000E+00
  0.00000000E+00  0.00000000E+00  4.02486927E-02  2.37593957E-01  8.15853851E-01
  1.00000000E+00  1.00000000E+00  1.00000000E+00  0.00000000E+00  0.00000000E+00
  0.00000000E+00  0.00000000E+00  0.00000000E+00  0.00000000E+00  0.00000000E+00
  4.02486927E-02  2.37593957E-01  8.15853851E-01  1.00000000E+00  1.00000000E+00
  1.00000000E+00  0.00000000E+00  0.00000000E+00  0.00000000E+00  0.00000000E+00
  0.00000000E+00  0.00000000E+00  0.00000000E+00  4.02486927E-02  2.37593957E-01
  8.15853851E-01  1.00000000E+00  1.00000000E+00  1.00000000E+00  0.00000000E+00
  0.00000000E+00  0.00000000E+00  0.00000000E+00  0.00000000E+00  0.00000000E+00
  0.00000000E+00  4.02486927E-02  2.37593957E-01  8.15853851E-01  1.00000000E+00
  1.00000000E+00  1.00000000E+00  0.00000000E+00  0.00000000E+00  0.00000000E+00
  0.00000000E+00  0.00000000E+00  0.00000000E+00  0.00000000E+00  4.02486927E-02
  2.37593957E-01  8.15853851E-01  1.00000000E+00  1.00000000E+00  1.00000000E+00
  0.00000000E+00  0.00000000E+00  0.00000000E+00  0.00000000E+00  0.00000000E+00
  0.00000000E+00  0.00000000E+00  0.00000000E+00  0.00000000E+00  0.00000000E+00
  0.00000000E+00  0.00000000E+00  0.00000000E+00  0.00000000E+00  0.00000000E+00
  0.00000000E+00  0.00000000E+00  0.00000000E+00  0.00000000E+00  0.00000000E+00
  0.00000000E+00  0.00000000E+00  0.00000000E+00  0.00000000E+00  0.00000000E+00
  0.00000000E+00  0.00000000E+00  0.00000000E+00  0.00000000E+00  0.00000000E+00
  0.00000000E+00  0.00000000E+00  0.00000000E+00  0.00000000E+00  0.00000000E+00
  0.00000000E+00
Coordinates of each shell                  R   N=         201
 -4.52809208E-05  4.24925220E+00 -3.94430453E-31 -4.52809208E-05  4.24925220E+00
 -3.94430453E-31 -4.52809208E-05  4.24925220E+00 -3.94430453E-31 -4.52809208E-05
  4.24925220E+00 -3.94430453E-31 -4.52809208E-05  4.24925220E+00 -3.94430453E-31
 -4.52809208E-05  4.24925220E+00 -3.94430453E-31  1.65931686E-16  1.85052019E+00
 -4.93038066E-32  1.65931686E-16  1.85052019E+00 -4.93038066E-32  1.65931686E-16
  1.85052019E+00 -4.93038066E-32  1.65931686E-16  1.85052019E+00 -4.93038066E-32
  1.65931686E-16  1.85052019E+00 -4.93038066E-32  1.65931686E-16  1.85052019E+00
 -4.93038066E-32  2.21634527E+00  5.38324295E-01 -3.69778549E-32  2.21634527E+00
  5.38324295E-01 -3.69778549E-32  2.21634527E+00  5.38324295E-01 -3.69778549E-32
  2.21634527E+00  5.38324295E-01 -3.69778549E-32  2.21634527E+00  5.38324295E-01
 -3.69778549E-32  2.21634527E+00  5.38324295E-01 -3.69778549E-32  2.24844585E+00
 -2.06814036E+00  1.97215226E-31  2.24844585E+00 -2.06814036E+00  1.97215226E-31
  2.24844585E+00 -2.06814036E+00  1.97215226E-31  2.24844585E+00 -2.06814036E+00
  1.97215226E-31  2.24844585E+00 -2.06814036E+00  1.97215226E-31  2.24844585E+00
 -2.06814036E+00  1.97215226E-31  3.56765282E-05 -3.42603327E+00  2.95822839E-31
  3.56765282E-05 -3.42603327E+00  2.95822839E-31  3.56765282E-05 -3.42603327E+00
  2.95822839E-31  3.56765282E-05 -3.42603327E+00  2.95822839E-31  3.56765282E-05
 -3.42603327E+00  2.95822839E-31  3.56765282E-05 -3.42603327E+00  2.95822839E-31
 -2.24842634E+00 -2.06815993E+00  1.97215226E-31 -2.24842634E+00 -2.06815993E+00
  1.97215226E-31 -2.24842634E+00 -2.06815993E+00  1.97215226E-31 -2.24842634E+00
 -2.06815993E+00  1.97215226E-31 -2.24842634E+00 -2.06815993E+00  1.97215226E-31
 -2.24842634E+00 -2.06815993E+00  1.97215226E-31 -2.21635809E+00  5.38279464E-01
 -3.69778549E-32 -2.21635809E+00  5.38279464E-01 -3.69778549E-32 -2.21635809E+00
  5.38279464E-01 -3.69778549E-32 -2.21635809E+00  5.38279464E-01 -3.69778549E-32
 -2.21635809E+00  5.38279464E-01 -3.69778549E-32 -2.21635809E+00  5.38279464E-01
 -3.69778549E-32  3.87138459E+00  1.73233755E+00 -1.47911420E-31  3.87138459E+00
  1.73233755E+00 -1.47911420E-31  3.87138459E+00  1.73233755E+00 -1.47911420E-31
  3.87138459E+00  1.73233755E+00 -1.47911420E-31  3.87138459E+00  1.73233755E+00
 -1.47911420E-31  4.06165787E+00 -3.01424961E+00  2.46519033E-31  4.06165787E+00
 -3.01424961E+00  2.46519033E-31  4.06165787E+00 -3.01424961E+00  2.46519033E-31
  4.06165787E+00 -3.01424961E+00  2.46519033E-31  4.06165787E+00 -3.01424961E+00
  2.46519033E-31  2.74726481E-05 -5.46938651E+00  3.94430453E-31  2.74726481E-05
 -5.46938651E+00  3.94430453E-31  2.74726481E-05 -5.46938651E+00  3.94430453E-31
  2.74726481E-05 -5.46938651E+00  3.94430453E-31  2.74726481E-05 -5.46938651E+00
  3.94430453E-31 -4.06160256E+00 -3.01433318E+00  1.97215226E-31 -4.06160256E+00
 -3.01433318E+00  1.97215226E-31 -4.06160256E+00 -3.01433318E+00  1.97215226E-31
 -4.06160256E+00 -3.01433318E+00  1.97215226E-31 -4.06160256E+00 -3.01433318E+00
  1.97215226E-31 -3.87135931E+00  1.73235161E+00 -1.47911420E-31 -3.87135931E+00
  1.73235161E+00 -1.47911420E-31 -3.87135931E+00  1.73235161E+00 -1.47911420E-31
 -3.87135931E+00  1.73235161E+00 -1.47911420E-31 -3.87135931E+00  1.73235161E+00
 -1.47911420E-31
Num ILSW                                   I              100
ILSW                                       I   N=         100
           0           0           0           0           2           0
           0           0           0           0        4336          -1
           5           0           0           0           2           0
           0           0           0           0           1           0
           1           0           0           0           0           0
           0           0      100000           0          -1           0
           0           0           0           0           0           0
           0           0           0           1           0           0
           0 -2000000000           1           0           0           0
           0           0           4          52           0           0
           0           0          55           0           0           0
           0           0           0          12           0           1
           0           0           0           0           0           0
           0           0           0           0           0           0
           0           0           0           0           0           0
           0           0           0           0           0           0
           0           0           0           0
Num RLSW                                   I               52
RLSW                                       R   N=          52
  1.00000000E+00  1.00000000E+00  1.00000000E+00  1.00000000E+00  5.40000000E-01
  0.00000000E+00  0.00000000E+00  1.00000000E+00  0.00000000E+00  0.00000000E+00
  0.00000000E+00  0.00000000E+00  1.00000000E+00  0.00000000E+00  0.00000000E+00
  0.00000000E+00  0.00000000E+00  1.00000000E+00  0.00000000E+00  0.00000000E+00
  0.00000000E+00  0.00000000E+00  1.00000000E+00  0.00000000E+00  0.00000000E+00
  0.00000000E+00  0.00000000E+00  1.00000000E+00  0.00000000E+00  0.00000000E+00
  0.00000000E+00  0.00000000E+00  1.00000000E+00  0.00000000E+00  0.00000000E+00
  0.00000000E+00  0.00000000E+00  0.00000000E+00  1.00000000E+00  1.00000000E+00
  0.00000000E+00  1.00000000E+00  0.00000000E+00  0.00000000E+00  0.00000000E+00
  0.00000000E+00  0.00000000E+00  0.00000000E+00  0.00000000E+00  0.00000000E+00
  0.00000000E+00  0.00000000E+00
MxBond                                     I                3
NBond                                      I   N=          12
           1           3           3           3           3           3
           3           1           1           1           1           1
IBond                                      I   N=          36
           2           0           0           1           3           7
           2           4           8           3           5           9
           4           6          10           5           7          11
           2           6          12           3           0           0
           4           0           0           5           0           0
           6           0           0           7           0           0
RBond                                      R   N=          36
  1.00000000E+00  0.00000000E+00  0.00000000E+00  1.00000000E+00  2.00000000E+00
  1.00000000E+00  2.00000000E+00  1.00000000E+00  1.00000000E+00  1.00000000E+00
  2.00000000E+00  1.00000000E+00  2.00000000E+00  1.00000000E+00  1.00000000E+00
  1.00000000E+00  2.00000000E+00  1.00000000E+00  1.00000000E+00  2.00000000E+00
  1.00000000E+00  1.00000000E+00  0.00000000E+00  0.00000000E+00  1.00000000E+00
  0.00000000E+00  0.00000000E+00  1.00000000E+00  0.00000000E+00  0.00000000E+00
  1.00000000E+00  0.00000000E+00  0.00000000E+00  1.00000000E+00  0.00000000E+00
  0.00000000E+00
Virial Ratio                               R      2.003618118050356E+00
SCF Energy                                 R     -3.233951150635558E+02