 Entering Gaussian System, Link 0=/apps/cent7/gaussian/g16-A.03/g16-haswell/g16/g16
 Initial command:
 /apps/cent7/gaussian/g16-A.03/g16-haswell/g16/l1.exe "/scratch/brown/finej/gaussian/Gau-231756.inp" -scrdir="/scratch/brown/finej/gaussian/"
 Entering Link 1 = /apps/cent7/gaussian/g16-A.03/g16-haswell/g16/l1.exe PID=    231757.
  
 Copyright (c) 1988,1990,1992,1993,1995,1998,2003,2009,2016,
            Gaussian, Inc.  All Rights Reserved.
  
 This is part of the Gaussian(R) 16 program.  It is based on
 the Gaussian(R) 09 system (copyright 2009, Gaussian, Inc.),
 the Gaussian(R) 03 system (copyright 2003, Gaussian, Inc.),
 the Gaussian(R) 98 system (copyright 1998, Gaussian, Inc.),
 the Gaussian(R) 94 system (copyright 1995, Gaussian, Inc.),
 the Gaussian 92(TM) system (copyright 1992, Gaussian, Inc.),
 the Gaussian 90(TM) system (copyright 1990, Gaussian, Inc.),
 the Gaussian 88(TM) system (copyright 1988, Gaussian, Inc.),
 the Gaussian 86(TM) system (copyright 1986, Carnegie Mellon
 University), and the Gaussian 82(TM) system (copyright 1983,
 Carnegie Mellon University). Gaussian is a federally registered
 trademark of Gaussian, Inc.
  
 This software contains proprietary and confidential information,
 including trade secrets, belonging to Gaussian, Inc.
  
 This software is provided under written license and may be
 used, copied, transmitted, or stored only in accord with that
 written license.
  
 The following legend is applicable only to US Government
 contracts under FAR:
  
                    RESTRICTED RIGHTS LEGEND
  
 Use, reproduction and disclosure by the US Government is
 subject to restrictions as set forth in subparagraphs (a)
 and (c) of the Commercial Computer Software - Restricted
 Rights clause in FAR 52.227-19.
  
 Gaussian, Inc.
 340 Quinnipiac St., Bldg. 40, Wallingford CT 06492
  
  
 ---------------------------------------------------------------
 Warning -- This program may not be used in any manner that
 competes with the business of Gaussian, Inc. or will provide
 assistance to any competitor of Gaussian, Inc.  The licensee
 of this program is prohibited from giving any competitor of
 Gaussian, Inc. access to this program.  By using this program,
 the user acknowledges that Gaussian, Inc. is engaged in the
 business of creating and licensing software in the field of
 computational chemistry and represents and warrants to the
 licensee that it is not a competitor of Gaussian, Inc. and that
 it will not use this program in any manner prohibited above.
 ---------------------------------------------------------------
  

 Cite this work as:
 Gaussian 16, Revision A.03,
 M. J. Frisch, G. W. Trucks, H. B. Schlegel, G. E. Scuseria, 
 M. A. Robb, J. R. Cheeseman, G. Scalmani, V. Barone, 
 G. A. Petersson, H. Nakatsuji, X. Li, M. Caricato, A. V. Marenich, 
 J. Bloino, B. G. Janesko, R. Gomperts, B. Mennucci, H. P. Hratchian, 
 J. V. Ortiz, A. F. Izmaylov, J. L. Sonnenberg, D. Williams-Young, 
 F. Ding, F. Lipparini, F. Egidi, J. Goings, B. Peng, A. Petrone, 
 T. Henderson, D. Ranasinghe, V. G. Zakrzewski, J. Gao, N. Rega, 
 G. Zheng, W. Liang, M. Hada, M. Ehara, K. Toyota, R. Fukuda, 
 J. Hasegawa, M. Ishida, T. Nakajima, Y. Honda, O. Kitao, H. Nakai, 
 T. Vreven, K. Throssell, J. A. Montgomery, Jr., J. E. Peralta, 
 F. Ogliaro, M. J. Bearpark, J. J. Heyd, E. N. Brothers, K. N. Kudin, 
 V. N. Staroverov, T. A. Keith, R. Kobayashi, J. Normand, 
 K. Raghavachari, A. P. Rendell, J. C. Burant, S. S. Iyengar, 
 J. Tomasi, M. Cossi, J. M. Millam, M. Klene, C. Adamo, R. Cammi, 
 J. W. Ochterski, R. L. Martin, K. Morokuma, O. Farkas, 
 J. B. Foresman, and D. J. Fox, Gaussian, Inc., Wallingford CT, 2016.
 
 ******************************************
 Gaussian 16:  ES64L-G16RevA.03 25-Dec-2016
                13-Oct-2019 
 ******************************************
 %chk=30.chk
 %nprocshared=24
 Will use up to   24 processors via shared memory.
 %mem=80GB
 -------------------------------------------------------------------
 #P opt freq m062x/6-311++g(d,p) geom=connectivity temperature=0.001
 -------------------------------------------------------------------
 1/18=20,19=15,26=3,38=1,57=2,112=-1000/1,3;
 2/9=110,12=2,17=6,18=5,40=1/2;
 3/5=4,6=6,7=1111,11=2,25=1,30=1,71=1,74=-55/1,2,3;
 4//1;
 5/5=2,38=5/2;
 6/7=2,8=2,9=2,10=2,28=1/1;
 7//1,2,3,16;
 1/18=20,19=15,26=3/3(2);
 2/9=110/2;
 99//99;
 2/9=110/2;
 3/5=4,6=6,7=1111,11=2,25=1,30=1,71=1,74=-55/1,2,3;
 4/5=5,16=3,69=1/1;
 5/5=2,38=5/2;
 7//1,2,3,16;
 1/18=20,19=15,26=3/3(-5);
 2/9=110/2;
 6/7=2,8=2,9=2,10=2,19=2,28=1/1;
 99/9=1/99;
 Leave Link    1 at Sun Oct 13 23:10:17 2019, MaxMem= 10737418240 cpu:               1.1 elap:               0.1
 (Enter /apps/cent7/gaussian/g16-A.03/g16-haswell/g16/l101.exe)
 -------------------
 Title Card Required
 -------------------
 Symbolic Z-matrix:
 Charge =  0 Multiplicity = 1
 O                     0.6932    3.9776   -2.7631 
 S                    -0.3548    2.763    -2.7494 
 C                    -0.1029    1.73     -4.2457 
 C                     1.3196    1.1179   -4.2811 
 C                     1.5822    0.2322   -5.5267 
 C                     3.0063   -0.3689   -5.5184 
 C                    -0.1226    1.7679   -1.2247 
 C                    -0.3176    2.6013    0.0647 
 C                    -0.1087    1.7531    1.3497 
 C                    -0.2906    2.5828    2.6387 
 O                    -1.8414    3.3653   -2.7719 
 H                    -0.7492    0.854    -4.1913 
 H                    -0.1215    2.3669   -5.1301 
 H                     2.0052    1.9612   -4.3639 
 H                     1.3784    0.4501   -3.4216 
 H                     0.8958   -0.6113   -5.4527 
 H                     1.5379    0.8968   -6.3896 
 H                     3.3359   -0.508    -4.4888 
 H                     2.9975   -1.3312   -6.0302 
 H                     3.6897    0.3086   -6.0302 
 H                    -0.9188    1.0265   -1.1571 
 H                     0.9196    1.4561   -1.1567 
 H                     0.473     3.3517    0.0624 
 H                    -1.3628    2.9108    0.0698 
 H                    -0.9045    1.0082    1.3565 
 H                     0.9342    1.4364    1.3402 
 H                    -0.4105    1.9115    3.489 
 H                     0.5865    3.2114    2.793 
 H                    -1.1761    3.2114    2.5443 
 
 ITRead=  0  0  0  0  0  0  0  0  0  0  0  0  0  0  0  0  0  0  0  0
 ITRead=  0  0  0  0  0  0  0  0  0
 MicOpt= -1 -1 -1 -1 -1 -1 -1 -1 -1 -1 -1 -1 -1 -1 -1 -1 -1 -1 -1 -1
 MicOpt= -1 -1 -1 -1 -1 -1 -1 -1 -1
 NAtoms=     29 NQM=       29 NQMF=       0 NMMI=      0 NMMIF=      0
                NMic=       0 NMicF=      0.
                    Isotopes and Nuclear Properties:
 (Nuclear quadrupole moments (NQMom) in fm**2, nuclear magnetic moments (NMagM)
  in nuclear magnetons)

  Atom         1           2           3           4           5           6           7           8           9          10
 IAtWgt=          16          32          12          12          12          12          12          12          12          12
 AtmWgt=  15.9949146  31.9720718  12.0000000  12.0000000  12.0000000  12.0000000  12.0000000  12.0000000  12.0000000  12.0000000
 NucSpn=           0           0           0           0           0           0           0           0           0           0
 AtZEff=  -0.0000000  -0.0000000  -0.0000000  -0.0000000  -0.0000000  -0.0000000  -0.0000000  -0.0000000  -0.0000000  -0.0000000
 NQMom=    0.0000000   0.0000000   0.0000000   0.0000000   0.0000000   0.0000000   0.0000000   0.0000000   0.0000000   0.0000000
 NMagM=    0.0000000   0.0000000   0.0000000   0.0000000   0.0000000   0.0000000   0.0000000   0.0000000   0.0000000   0.0000000
 AtZNuc=   8.0000000  16.0000000   6.0000000   6.0000000   6.0000000   6.0000000   6.0000000   6.0000000   6.0000000   6.0000000

  Atom        11          12          13          14          15          16          17          18          19          20
 IAtWgt=          16           1           1           1           1           1           1           1           1           1
 AtmWgt=  15.9949146   1.0078250   1.0078250   1.0078250   1.0078250   1.0078250   1.0078250   1.0078250   1.0078250   1.0078250
 NucSpn=           0           1           1           1           1           1           1           1           1           1
 AtZEff=  -0.0000000  -0.0000000  -0.0000000  -0.0000000  -0.0000000  -0.0000000  -0.0000000  -0.0000000  -0.0000000  -0.0000000
 NQMom=    0.0000000   0.0000000   0.0000000   0.0000000   0.0000000   0.0000000   0.0000000   0.0000000   0.0000000   0.0000000
 NMagM=    0.0000000   2.7928460   2.7928460   2.7928460   2.7928460   2.7928460   2.7928460   2.7928460   2.7928460   2.7928460
 AtZNuc=   8.0000000   1.0000000   1.0000000   1.0000000   1.0000000   1.0000000   1.0000000   1.0000000   1.0000000   1.0000000

  Atom        21          22          23          24          25          26          27          28          29
 IAtWgt=           1           1           1           1           1           1           1           1           1
 AtmWgt=   1.0078250   1.0078250   1.0078250   1.0078250   1.0078250   1.0078250   1.0078250   1.0078250   1.0078250
 NucSpn=           1           1           1           1           1           1           1           1           1
 AtZEff=  -0.0000000  -0.0000000  -0.0000000  -0.0000000  -0.0000000  -0.0000000  -0.0000000  -0.0000000  -0.0000000
 NQMom=    0.0000000   0.0000000   0.0000000   0.0000000   0.0000000   0.0000000   0.0000000   0.0000000   0.0000000
 NMagM=    2.7928460   2.7928460   2.7928460   2.7928460   2.7928460   2.7928460   2.7928460   2.7928460   2.7928460
 AtZNuc=   1.0000000   1.0000000   1.0000000   1.0000000   1.0000000   1.0000000   1.0000000   1.0000000   1.0000000
 Leave Link  101 at Sun Oct 13 23:10:18 2019, MaxMem= 10737418240 cpu:               8.6 elap:               0.4
 (Enter /apps/cent7/gaussian/g16-A.03/g16-haswell/g16/l103.exe)

 GradGradGradGradGradGradGradGradGradGradGradGradGradGradGradGradGradGrad
 Berny optimization.
 Initialization pass.
                           ----------------------------
                           !    Initial Parameters    !
                           ! (Angstroms and Degrees)  !
 --------------------------                            --------------------------
 ! Name  Definition              Value          Derivative Info.                !
 --------------------------------------------------------------------------------
 ! R1    R(1,2)                  1.6043         estimate D2E/DX2                !
 ! R2    R(2,3)                  1.8356         estimate D2E/DX2                !
 ! R3    R(2,7)                  1.8354         estimate D2E/DX2                !
 ! R4    R(2,11)                 1.6041         estimate D2E/DX2                !
 ! R5    R(3,4)                  1.549          estimate D2E/DX2                !
 ! R6    R(3,12)                 1.09           estimate D2E/DX2                !
 ! R7    R(3,13)                 1.09           estimate D2E/DX2                !
 ! R8    R(4,5)                  1.5508         estimate D2E/DX2                !
 ! R9    R(4,14)                 1.09           estimate D2E/DX2                !
 ! R10   R(4,15)                 1.09           estimate D2E/DX2                !
 ! R11   R(5,6)                  1.5458         estimate D2E/DX2                !
 ! R12   R(5,16)                 1.09           estimate D2E/DX2                !
 ! R13   R(5,17)                 1.0901         estimate D2E/DX2                !
 ! R14   R(6,18)                 1.09           estimate D2E/DX2                !
 ! R15   R(6,19)                 1.09           estimate D2E/DX2                !
 ! R16   R(6,20)                 1.0899         estimate D2E/DX2                !
 ! R17   R(7,8)                  1.5476         estimate D2E/DX2                !
 ! R18   R(7,21)                 1.09           estimate D2E/DX2                !
 ! R19   R(7,22)                 1.09           estimate D2E/DX2                !
 ! R20   R(8,9)                  1.5538         estimate D2E/DX2                !
 ! R21   R(8,23)                 1.09           estimate D2E/DX2                !
 ! R22   R(8,24)                 1.0901         estimate D2E/DX2                !
 ! R23   R(9,10)                 1.5437         estimate D2E/DX2                !
 ! R24   R(9,25)                 1.0901         estimate D2E/DX2                !
 ! R25   R(9,26)                 1.09           estimate D2E/DX2                !
 ! R26   R(10,27)                1.09           estimate D2E/DX2                !
 ! R27   R(10,28)                1.0901         estimate D2E/DX2                !
 ! R28   R(10,29)                1.09           estimate D2E/DX2                !
 ! A1    A(1,2,3)              109.2356         estimate D2E/DX2                !
 ! A2    A(1,2,7)              109.5675         estimate D2E/DX2                !
 ! A3    A(1,2,11)             108.7235         estimate D2E/DX2                !
 ! A4    A(3,2,7)              110.774          estimate D2E/DX2                !
 ! A5    A(3,2,11)             109.0891         estimate D2E/DX2                !
 ! A6    A(7,2,11)             109.4178         estimate D2E/DX2                !
 ! A7    A(2,3,4)              111.5324         estimate D2E/DX2                !
 ! A8    A(2,3,12)             109.2826         estimate D2E/DX2                !
 ! A9    A(2,3,13)             109.2822         estimate D2E/DX2                !
 ! A10   A(4,3,12)             103.1842         estimate D2E/DX2                !
 ! A11   A(4,3,13)             103.1804         estimate D2E/DX2                !
 ! A12   A(12,3,13)            119.9982         estimate D2E/DX2                !
 ! A13   A(3,4,5)              113.5497         estimate D2E/DX2                !
 ! A14   A(3,4,14)             105.8811         estimate D2E/DX2                !
 ! A15   A(3,4,15)             105.8791         estimate D2E/DX2                !
 ! A16   A(5,4,14)             105.9231         estimate D2E/DX2                !
 ! A17   A(5,4,15)             105.9205         estimate D2E/DX2                !
 ! A18   A(14,4,15)            119.9975         estimate D2E/DX2                !
 ! A19   A(4,5,6)              111.9491         estimate D2E/DX2                !
 ! A20   A(4,5,16)             106.3083         estimate D2E/DX2                !
 ! A21   A(4,5,17)             106.3036         estimate D2E/DX2                !
 ! A22   A(6,5,16)             106.1923         estimate D2E/DX2                !
 ! A23   A(6,5,17)             106.1871         estimate D2E/DX2                !
 ! A24   A(16,5,17)            119.997          estimate D2E/DX2                !
 ! A25   A(5,6,18)             109.4682         estimate D2E/DX2                !
 ! A26   A(5,6,19)             109.4726         estimate D2E/DX2                !
 ! A27   A(5,6,20)             109.4759         estimate D2E/DX2                !
 ! A28   A(18,6,19)            109.4701         estimate D2E/DX2                !
 ! A29   A(18,6,20)            109.4678         estimate D2E/DX2                !
 ! A30   A(19,6,20)            109.4727         estimate D2E/DX2                !
 ! A31   A(2,7,8)              112.5942         estimate D2E/DX2                !
 ! A32   A(2,7,21)             109.1392         estimate D2E/DX2                !
 ! A33   A(2,7,22)             109.1403         estimate D2E/DX2                !
 ! A34   A(8,7,21)             102.8598         estimate D2E/DX2                !
 ! A35   A(8,7,22)             102.8587         estimate D2E/DX2                !
 ! A36   A(21,7,22)            119.9991         estimate D2E/DX2                !
 ! A37   A(7,8,9)              112.217          estimate D2E/DX2                !
 ! A38   A(7,8,23)             106.1154         estimate D2E/DX2                !
 ! A39   A(7,8,24)             106.1174         estimate D2E/DX2                !
 ! A40   A(9,8,23)             106.2622         estimate D2E/DX2                !
 ! A41   A(9,8,24)             106.2621         estimate D2E/DX2                !
 ! A42   A(23,8,24)            119.9997         estimate D2E/DX2                !
 ! A43   A(8,9,10)             112.4149         estimate D2E/DX2                !
 ! A44   A(8,9,25)             106.2628         estimate D2E/DX2                !
 ! A45   A(8,9,26)             106.2628         estimate D2E/DX2                !
 ! A46   A(10,9,25)            106.0249         estimate D2E/DX2                !
 ! A47   A(10,9,26)            106.033          estimate D2E/DX2                !
 ! A48   A(25,9,26)            120.0018         estimate D2E/DX2                !
 ! A49   A(9,10,27)            109.4715         estimate D2E/DX2                !
 ! A50   A(9,10,28)            109.4707         estimate D2E/DX2                !
 ! A51   A(9,10,29)            109.473          estimate D2E/DX2                !
 ! A52   A(27,10,28)           109.4659         estimate D2E/DX2                !
 ! A53   A(27,10,29)           109.4735         estimate D2E/DX2                !
 ! A54   A(28,10,29)           109.4728         estimate D2E/DX2                !
 ! D1    D(1,2,3,4)             61.2947         estimate D2E/DX2                !
 ! D2    D(1,2,3,12)           174.7358         estimate D2E/DX2                !
 ! D3    D(1,2,3,13)           -52.1416         estimate D2E/DX2                !
 ! D4    D(7,2,3,4)            -59.4859         estimate D2E/DX2                !
 ! D5    D(7,2,3,12)            53.9552         estimate D2E/DX2                !
 ! D6    D(7,2,3,13)          -172.9222         estimate D2E/DX2                !
 ! D7    D(11,2,3,4)          -179.986          estimate D2E/DX2                !
 ! D8    D(11,2,3,12)          -66.5448         estimate D2E/DX2                !
 ! D9    D(11,2,3,13)           66.5777         estimate D2E/DX2                !
 ! D10   D(1,2,7,8)             59.0842         estimate D2E/DX2                !
 ! D11   D(1,2,7,21)           172.637          estimate D2E/DX2                !
 ! D12   D(1,2,7,22)           -54.4679         estimate D2E/DX2                !
 ! D13   D(3,2,7,8)            179.6678         estimate D2E/DX2                !
 ! D14   D(3,2,7,21)           -66.7794         estimate D2E/DX2                !
 ! D15   D(3,2,7,22)            66.1158         estimate D2E/DX2                !
 ! D16   D(11,2,7,8)           -60.0278         estimate D2E/DX2                !
 ! D17   D(11,2,7,21)           53.525          estimate D2E/DX2                !
 ! D18   D(11,2,7,22)         -173.5798         estimate D2E/DX2                !
 ! D19   D(2,3,4,5)            179.8764         estimate D2E/DX2                !
 ! D20   D(2,3,4,14)           -64.329          estimate D2E/DX2                !
 ! D21   D(2,3,4,15)            64.0861         estimate D2E/DX2                !
 ! D22   D(12,3,4,5)            62.6799         estimate D2E/DX2                !
 ! D23   D(12,3,4,14)          178.4745         estimate D2E/DX2                !
 ! D24   D(12,3,4,15)          -53.1103         estimate D2E/DX2                !
 ! D25   D(13,3,4,5)           -62.9298         estimate D2E/DX2                !
 ! D26   D(13,3,4,14)           52.8648         estimate D2E/DX2                !
 ! D27   D(13,3,4,15)         -178.72           estimate D2E/DX2                !
 ! D28   D(3,4,5,6)           -179.5014         estimate D2E/DX2                !
 ! D29   D(3,4,5,16)           -63.9598         estimate D2E/DX2                !
 ! D30   D(3,4,5,17)            64.966          estimate D2E/DX2                !
 ! D31   D(14,4,5,6)            64.7288         estimate D2E/DX2                !
 ! D32   D(14,4,5,16)         -179.7296         estimate D2E/DX2                !
 ! D33   D(14,4,5,17)          -50.8038         estimate D2E/DX2                !
 ! D34   D(15,4,5,6)           -63.7355         estimate D2E/DX2                !
 ! D35   D(15,4,5,16)           51.8061         estimate D2E/DX2                !
 ! D36   D(15,4,5,17)         -179.2681         estimate D2E/DX2                !
 ! D37   D(4,5,6,18)            29.7546         estimate D2E/DX2                !
 ! D38   D(4,5,6,19)           149.7521         estimate D2E/DX2                !
 ! D39   D(4,5,6,20)           -90.2423         estimate D2E/DX2                !
 ! D40   D(16,5,6,18)          -85.8576         estimate D2E/DX2                !
 ! D41   D(16,5,6,19)           34.1399         estimate D2E/DX2                !
 ! D42   D(16,5,6,20)          154.1455         estimate D2E/DX2                !
 ! D43   D(17,5,6,18)          145.3581         estimate D2E/DX2                !
 ! D44   D(17,5,6,19)          -94.6444         estimate D2E/DX2                !
 ! D45   D(17,5,6,20)           25.3612         estimate D2E/DX2                !
 ! D46   D(2,7,8,9)           -179.5743         estimate D2E/DX2                !
 ! D47   D(2,7,8,23)           -63.9243         estimate D2E/DX2                !
 ! D48   D(2,7,8,24)            64.7747         estimate D2E/DX2                !
 ! D49   D(21,7,8,9)            63.0864         estimate D2E/DX2                !
 ! D50   D(21,7,8,23)          178.7364         estimate D2E/DX2                !
 ! D51   D(21,7,8,24)          -52.5646         estimate D2E/DX2                !
 ! D52   D(22,7,8,9)           -62.2344         estimate D2E/DX2                !
 ! D53   D(22,7,8,23)           53.4155         estimate D2E/DX2                !
 ! D54   D(22,7,8,24)         -177.8855         estimate D2E/DX2                !
 ! D55   D(7,8,9,10)           179.5232         estimate D2E/DX2                !
 ! D56   D(7,8,9,25)           -64.9211         estimate D2E/DX2                !
 ! D57   D(7,8,9,26)            63.9578         estimate D2E/DX2                !
 ! D58   D(23,8,9,10)           63.9622         estimate D2E/DX2                !
 ! D59   D(23,8,9,25)          179.5179         estimate D2E/DX2                !
 ! D60   D(23,8,9,26)          -51.6032         estimate D2E/DX2                !
 ! D61   D(24,8,9,10)          -64.9134         estimate D2E/DX2                !
 ! D62   D(24,8,9,25)           50.6423         estimate D2E/DX2                !
 ! D63   D(24,8,9,26)          179.5212         estimate D2E/DX2                !
 ! D64   D(8,9,10,27)          164.3998         estimate D2E/DX2                !
 ! D65   D(8,9,10,28)          -75.607          estimate D2E/DX2                !
 ! D66   D(8,9,10,29)           44.3957         estimate D2E/DX2                !
 ! D67   D(25,9,10,27)          48.7005         estimate D2E/DX2                !
 ! D68   D(25,9,10,28)         168.6938         estimate D2E/DX2                !
 ! D69   D(25,9,10,29)         -71.3035         estimate D2E/DX2                !
 ! D70   D(26,9,10,27)         -79.8962         estimate D2E/DX2                !
 ! D71   D(26,9,10,28)          40.0971         estimate D2E/DX2                !
 ! D72   D(26,9,10,29)         160.0998         estimate D2E/DX2                !
 --------------------------------------------------------------------------------
 Trust Radius=3.00D-01 FncErr=1.00D-07 GrdErr=1.00D-06 EigMax=2.50D+02 EigMin=1.00D-04
 Number of steps in this run=    164 maximum allowed number of steps=    174.
 GradGradGradGradGradGradGradGradGradGradGradGradGradGradGradGradGradGrad

 Leave Link  103 at Sun Oct 13 23:10:18 2019, MaxMem= 10737418240 cpu:               0.3 elap:               0.0
 (Enter /apps/cent7/gaussian/g16-A.03/g16-haswell/g16/l202.exe)
                          Input orientation:                          
 ---------------------------------------------------------------------
 Center     Atomic      Atomic             Coordinates (Angstroms)
 Number     Number       Type             X           Y           Z
 ---------------------------------------------------------------------
      1          8           0        0.693200    3.977600   -2.763100
      2         16           0       -0.354800    2.763000   -2.749400
      3          6           0       -0.102900    1.730000   -4.245700
      4          6           0        1.319600    1.117900   -4.281100
      5          6           0        1.582200    0.232200   -5.526700
      6          6           0        3.006300   -0.368900   -5.518400
      7          6           0       -0.122600    1.767900   -1.224700
      8          6           0       -0.317600    2.601300    0.064700
      9          6           0       -0.108700    1.753100    1.349700
     10          6           0       -0.290600    2.582800    2.638700
     11          8           0       -1.841400    3.365300   -2.771900
     12          1           0       -0.749200    0.854000   -4.191300
     13          1           0       -0.121500    2.366900   -5.130100
     14          1           0        2.005200    1.961200   -4.363900
     15          1           0        1.378400    0.450100   -3.421600
     16          1           0        0.895800   -0.611300   -5.452700
     17          1           0        1.537900    0.896800   -6.389600
     18          1           0        3.335900   -0.508000   -4.488800
     19          1           0        2.997500   -1.331200   -6.030200
     20          1           0        3.689700    0.308600   -6.030200
     21          1           0       -0.918800    1.026500   -1.157100
     22          1           0        0.919600    1.456100   -1.156700
     23          1           0        0.473000    3.351700    0.062400
     24          1           0       -1.362800    2.910800    0.069800
     25          1           0       -0.904500    1.008200    1.356500
     26          1           0        0.934200    1.436400    1.340200
     27          1           0       -0.410500    1.911500    3.489000
     28          1           0        0.586500    3.211400    2.793000
     29          1           0       -1.176100    3.211400    2.544300
 ---------------------------------------------------------------------
                    Distance matrix (angstroms):
                    1          2          3          4          5
     1  O    0.000000
     2  S    1.604290   0.000000
     3  C    2.807772   1.835608   0.000000
     4  C    3.297664   2.802869   1.549008   0.000000
     5  C    4.738758   4.227329   2.593054   1.550788   0.000000
     6  C    5.642178   5.364061   3.961347   2.566407   1.545785
     7  C    2.813357   1.835443   3.021302   3.441514   4.875646
     8  C    3.303388   2.818987   4.402818   4.875128   6.362832
     9  C    4.744109   4.228840   5.595451   5.843751   7.242731
    10  C    5.665048   5.391495   6.939558   7.254124   8.700946
    11  O    2.607525   1.604136   2.805116   4.161780   5.396876
    12  H    3.725205   2.424646   1.089972   2.087496   2.757781
    13  H    2.976706   2.424677   1.090023   2.087480   2.759860
    14  H    2.889597   2.969696   2.124032   1.089981   2.126141
    15  H    3.653269   2.967380   2.124037   1.090025   2.126138
    16  H    5.322875   4.500859   2.817079   2.131287   1.090006
    17  H    4.832841   4.507335   2.825377   2.131270   1.090070
    18  H    5.484753   5.229361   4.110120   2.598491   2.168086
    19  H    6.645833   6.226077   4.708276   3.445692   2.168134
    20  H    5.754521   5.757231   4.425905   3.054782   2.168157
    21  H    3.726496   2.422591   3.271094   3.844238   5.096991
    22  H    2.998290   2.422556   3.265340   3.168005   4.586270
    23  H    2.902359   2.989655   4.639105   4.957074   6.496125
    24  H    3.659306   2.997632   4.648137   5.416649   6.867950
    25  H    5.323635   4.498879   5.705103   6.061451   7.359640
    26  H    4.832479   4.488454   5.688942   5.643491   7.001737
    27  H    6.676502   6.296490   7.742942   7.999844   9.384761
    28  H    5.609696   5.639619   7.225864   7.413708   8.892944
    29  H    5.678894   5.375766   7.032098   7.562893   9.034650
                    6          7          8          9         10
     6  C    0.000000
     7  C    5.726412   0.000000
     8  C    7.144327   1.547622   0.000000
     9  C    7.834341   2.574480   1.553804   0.000000
    10  C    9.280106   3.951980   2.574208   1.543700   0.000000
    11  O    6.707288   2.810656   3.309375   4.752791   5.682594
    12  H    4.166588   3.166790   4.620917   5.649894   7.060309
    13  H    4.173549   3.951070   5.203782   6.508819   7.773639
    14  H    2.786474   3.797298   5.041590   6.095663   7.395505
    15  H    2.778019   2.969169   4.433775   5.164744   6.637862
    16  H    2.125390   4.957188   6.498834   7.271317   8.779554
    17  H    2.125367   5.494749   6.928650   7.958725   9.364625
    18  H    1.089982   5.272124   6.614391   7.146043   8.573553
    19  H    1.089972   6.514006   7.975102   8.580461  10.063837
    20  H    1.089945   6.305237   7.646093   8.424805   9.806355
    21  H    6.031127   1.090036   2.081882   2.732811   4.150277
    22  H    5.168111   1.089965   2.081818   2.725372   4.139939
    23  H    7.169784   2.125979   1.090025   2.133316   2.794926
    24  H    7.814950   2.126040   1.090073   2.133350   2.802935
    25  H    8.028388   2.801982   2.133346   1.090055   2.121385
    26  H    7.388714   2.793820   2.133283   1.089968   2.121431
    27  H    9.899899   4.724667   3.494322   2.166282   1.089968
    28  H    9.367676   4.327635   2.938238   2.166346   1.090069
    29  H    9.763101   4.171201   2.694005   2.166345   1.090027
                   11         12         13         14         15
    11  O    0.000000
    12  H    3.084514   0.000000
    13  H    3.084796   1.887914   0.000000
    14  H    4.393437   2.973618   2.296630   0.000000
    15  H    4.391767   2.298316   2.973684   1.887917   0.000000
    16  H    5.521983   2.538555   3.163644   3.005663   2.341974
    17  H    5.531809   3.172567   2.549734   2.335546   3.005662
    18  H    6.689890   4.316433   4.542018   2.807723   2.426660
    19  H    7.489231   4.711095   4.920801   3.821140   3.549550
    20  H    7.110063   4.835581   4.424028   2.888803   3.488112
    21  H    2.988102   3.043828   4.268148   4.439257   3.276786
    22  H    3.725189   3.515141   4.207298   3.423417   2.520378
    23  H    3.659220   5.081953   5.318394   4.886027   4.623558
    24  H    2.917342   4.771153   5.373603   5.648262   5.075342
    25  H    4.845347   5.552115   6.673465   6.488262   5.324786
    26  H    5.322967   5.811241   6.621564   5.827453   4.883118
    27  H    6.584822   7.760157   8.635959   8.216211   7.286443
    28  H    6.073425   7.491454   7.999372   7.402495   6.846396
    29  H    5.359878   7.148978   7.792418   7.707587   7.052816
                   16         17         18         19         20
    16  H    0.000000
    17  H    1.887972   0.000000
    18  H    2.625617   2.969732   0.000000
    19  H    2.295410   2.687673   1.779912   0.000000
    20  H    2.997599   2.259511   1.779866   1.779911   0.000000
    21  H    4.942402   5.781977   5.617596   6.681561   6.745425
    22  H    4.767633   5.298901   4.560601   5.986461   5.721994
    23  H    6.804444   6.984902   6.618678   8.088413   7.531759
    24  H    6.928526   7.361665   7.385581   8.614916   8.337218
    25  H    7.226968   8.122795   7.378847   8.675352   8.726938
    26  H    7.094931   7.772093   6.597431   8.138772   7.949057
    27  H    9.382161  10.119912   9.139737  10.618132  10.487902
    28  H    9.093969   9.517493   8.626572  10.212590   9.793108
    29  H    9.102627   9.619654   9.146397  10.562964  10.277369
                   21         22         23         24         25
    21  H    0.000000
    22  H    1.887928   0.000000
    23  H    2.971673   2.297598   0.000000
    24  H    2.291944   2.971499   1.888017   0.000000
    25  H    2.513707   3.137536   3.010680   2.342119   0.000000
    26  H    3.136580   2.497020   2.348159   3.010645   1.887972
    27  H    4.756873   4.853770   3.820515   3.687330   2.368025
    28  H    4.758467   4.334993   2.736557   3.362432   3.023360
    29  H    4.305851   4.601134   2.983126   2.499673   2.517683
                   26         27         28         29
    26  H    0.000000
    27  H    2.579007   0.000000
    28  H    2.319946   1.779934   0.000000
    29  H    3.008961   1.779984   1.780059   0.000000
 Stoichiometry    C8H18O2S
 Framework group  C1[X(C8H18O2S)]
 Deg. of freedom    81
 Full point group                 C1      NOp   1
 Largest Abelian subgroup         C1      NOp   1
 Largest concise Abelian subgroup C1      NOp   1
                         Standard orientation:                         
 ---------------------------------------------------------------------
 Center     Atomic      Atomic             Coordinates (Angstroms)
 Number     Number       Type             X           Y           Z
 ---------------------------------------------------------------------
      1          8           0       -0.008065    1.300967    1.621483
      2         16           0       -0.001684    1.099439    0.029915
      3          6           0        1.726522    0.866527   -0.543246
      4          6           0        2.370235   -0.392749    0.088643
      5          6           0        3.832479   -0.636071   -0.366966
      6          6           0        4.433886   -1.906997    0.275300
      7          6           0       -1.034724   -0.352505   -0.410014
      8          6           0       -2.501155   -0.203757    0.061777
      9          6           0       -3.365024   -1.441894   -0.305718
     10          6           0       -4.826006   -1.303392    0.173198
     11          8           0       -0.609819    2.414748   -0.658115
     12          1           0        1.724491    0.636657   -1.608701
     13          1           0        2.344743    1.679437   -0.162286
     14          1           0        2.419412   -0.197017    1.159778
     15          1           0        1.795751   -1.240569   -0.284617
     16          1           0        3.791106   -0.827796   -1.439180
     17          1           0        4.415429    0.202248    0.014666
     18          1           0        3.639458   -2.628639    0.465506
     19          1           0        5.167315   -2.344222   -0.402161
     20          1           0        4.918842   -1.644406    1.215431
     21          1           0       -1.132945   -0.405870   -1.494303
     22          1           0       -0.686955   -1.221116    0.149089
     23          1           0       -2.466520   -0.168052    1.150667
     24          1           0       -2.915610    0.634686   -0.498132
     25          1           0       -3.406902   -1.472591   -1.394536
     26          1           0       -2.945252   -2.282024    0.247456
     27          1           0       -5.446302   -2.042098   -0.334323
     28          1           0       -4.872615   -1.467910    1.249772
     29          1           0       -5.190705   -0.302439   -0.057556
 ---------------------------------------------------------------------
 Rotational constants (GHZ):           1.3458535           0.3790700           0.3239277
 Leave Link  202 at Sun Oct 13 23:10:18 2019, MaxMem= 10737418240 cpu:               0.4 elap:               0.0
 (Enter /apps/cent7/gaussian/g16-A.03/g16-haswell/g16/l301.exe)
 Standard basis: 6-311++G(d,p) (5D, 7F)
 Ernie: Thresh=  0.10000D-02 Tol=  0.10000D-05 Strict=F.
 There are   387 symmetry adapted cartesian basis functions of A   symmetry.
 There are   376 symmetry adapted basis functions of A   symmetry.
   376 basis functions,   572 primitive gaussians,   387 cartesian basis functions
    49 alpha electrons       49 beta electrons
       nuclear repulsion energy       756.8984186898 Hartrees.
 IExCor= 4336 DFT=T Ex+Corr=M062X ExCW=0 ScaHFX=  0.540000
 ScaDFX=  1.000000  1.000000  1.000000  1.000000 ScalE2=  1.000000  1.000000
 IRadAn=      5 IRanWt=     -1 IRanGd=            0 ICorTp=0 IEmpDi=  4
 NAtoms=   29 NActive=   29 NUniq=   29 SFac= 1.00D+00 NAtFMM=   60 NAOKFM=F Big=F
 Integral buffers will be    131072 words long.
 Raffenetti 2 integral format.
 Two-electron integral symmetry is turned on.
 Leave Link  301 at Sun Oct 13 23:10:18 2019, MaxMem= 10737418240 cpu:               1.3 elap:               0.1
 (Enter /apps/cent7/gaussian/g16-A.03/g16-haswell/g16/l302.exe)
 NPDir=0 NMtPBC=     1 NCelOv=     1 NCel=       1 NClECP=     1 NCelD=      1
         NCelK=      1 NCelE2=     1 NClLst=     1 CellRange=     0.0.
 One-electron integrals computed using PRISM.
 One-electron integral symmetry used in STVInt
 NBasis=   376 RedAO= T EigKep=  5.32D-06  NBF=   376
 NBsUse=   376 1.00D-06 EigRej= -1.00D+00 NBFU=   376
 Precomputing XC quadrature grid using
 IXCGrd= 4 IRadAn=           5 IRanWt=          -1 IRanGd=           0 AccXCQ= 0.00D+00.
 Generated NRdTot=       0 NPtTot=           0 NUsed=           0 NTot=          32
 NSgBfM=   386   386   386   386   386 MxSgAt=    29 MxSgA2=    29.
 Leave Link  302 at Sun Oct 13 23:10:18 2019, MaxMem= 10737418240 cpu:               7.1 elap:               0.3
 (Enter /apps/cent7/gaussian/g16-A.03/g16-haswell/g16/l303.exe)
 DipDrv:  MaxL=1.
 Leave Link  303 at Sun Oct 13 23:10:18 2019, MaxMem= 10737418240 cpu:               1.8 elap:               0.1
 (Enter /apps/cent7/gaussian/g16-A.03/g16-haswell/g16/l401.exe)
 ExpMin= 3.60D-02 ExpMax= 9.34D+04 ExpMxC= 3.17D+03 IAcc=3 IRadAn=         5 AccDes= 0.00D+00
 Harris functional with IExCor= 1009 and IRadAn=       5 diagonalized for initial guess.
 HarFok:  IExCor= 1009 AccDes= 0.00D+00 IRadAn=         5 IDoV= 1 UseB2=F ITyADJ=14
 ICtDFT=  3500011 ScaDFX=  1.000000  1.000000  1.000000  1.000000
 FoFCou: FMM=F IPFlag=           0 FMFlag=      100000 FMFlg1=           0
         NFxFlg=           0 DoJE=T BraDBF=F KetDBF=T FulRan=T
         wScrn=  0.000000 ICntrl=       500 IOpCl=  0 I1Cent=   200000004 NGrid=           0
         NMat0=    1 NMatS0=      1 NMatT0=    0 NMatD0=    1 NMtDS0=    0 NMtDT0=    0
 Petite list used in FoFCou.
 Harris En= -863.938970541955    
 JPrj=0 DoOrth=F DoCkMO=F.
 Leave Link  401 at Sun Oct 13 23:10:19 2019, MaxMem= 10737418240 cpu:              17.5 elap:               0.8
 (Enter /apps/cent7/gaussian/g16-A.03/g16-haswell/g16/l502.exe)
 Integral symmetry usage will be decided dynamically.
 Closed shell SCF:
 Using DIIS extrapolation, IDIIS=  1040.
 NGot= 10737418240 LenX= 10737105482 LenY= 10736955272
 Requested convergence on RMS density matrix=1.00D-08 within 128 cycles.
 Requested convergence on MAX density matrix=1.00D-06.
 Requested convergence on             energy=1.00D-06.
 No special actions if energy rises.
 Fock matrices will be formed incrementally for  20 cycles.

 Cycle   1  Pass 1  IDiag  1:
 FoFJK:  IHMeth= 1 ICntrl=       0 DoSepK=F KAlg= 0 I1Cent=           0 FoldK=F
 IRaf= 870000000 NMat=       1 IRICut=       1 DoRegI=T DoRafI=F ISym2E= 0 IDoP0=0 IntGTp=1.
 FoFCou: FMM=F IPFlag=           0 FMFlag=      100000 FMFlg1=           0
         NFxFlg=           0 DoJE=F BraDBF=F KetDBF=F FulRan=T
         wScrn=  0.000000 ICntrl=         0 IOpCl=  0 I1Cent=           0 NGrid=           0
         NMat0=    1 NMatS0=      1 NMatT0=    0 NMatD0=    1 NMtDS0=    0 NMtDT0=    0
 Symmetry not used in FoFCou.
 E= -863.474328559597    
 DIIS: error= 5.49D-02 at cycle   1 NSaved=   1.
 NSaved= 1 IEnMin= 1 EnMin= -863.474328559597     IErMin= 1 ErrMin= 5.49D-02
 ErrMax= 5.49D-02  0.00D+00 EMaxC= 1.00D-01 BMatC= 8.21D-01 BMatP= 8.21D-01
 IDIUse=3 WtCom= 4.51D-01 WtEn= 5.49D-01
 Coeff-Com:  0.100D+01
 Coeff-En:   0.100D+01
 Coeff:      0.100D+01
 Gap=     0.217 Goal=   None    Shift=    0.000
 GapD=    0.217 DampG=1.000 DampE=0.500 DampFc=0.5000 IDamp=-1.
 Damping current iteration by 5.00D-01
 RMSDP=3.54D-02 MaxDP=3.55D+00              OVMax= 2.45D-01

 Cycle   2  Pass 1  IDiag  1:
 RMSU=  1.65D-02    CP:  1.35D+00
 E= -863.689566508198     Delta-E=       -0.215237948601 Rises=F Damp=T
 DIIS: error= 2.18D-02 at cycle   2 NSaved=   2.
 NSaved= 2 IEnMin= 2 EnMin= -863.689566508198     IErMin= 2 ErrMin= 2.18D-02
 ErrMax= 2.18D-02  0.00D+00 EMaxC= 1.00D-01 BMatC= 8.42D-02 BMatP= 8.21D-01
 IDIUse=3 WtCom= 7.82D-01 WtEn= 2.18D-01
 Coeff-Com:  0.137D+00 0.863D+00
 Coeff-En:   0.269D+00 0.731D+00
 Coeff:      0.166D+00 0.834D+00
 Gap=     0.333 Goal=   None    Shift=    0.000
 RMSDP=1.40D-02 MaxDP=1.28D+00 DE=-2.15D-01 OVMax= 1.79D-01

 Cycle   3  Pass 1  IDiag  1:
 RMSU=  4.74D-03    CP:  9.60D-01  3.27D-01
 E= -864.059858452341     Delta-E=       -0.370291944143 Rises=F Damp=F
 DIIS: error= 1.98D-02 at cycle   3 NSaved=   3.
 NSaved= 3 IEnMin= 3 EnMin= -864.059858452341     IErMin= 3 ErrMin= 1.98D-02
 ErrMax= 1.98D-02  0.00D+00 EMaxC= 1.00D-01 BMatC= 5.41D-02 BMatP= 8.42D-02
 IDIUse=3 WtCom= 8.02D-01 WtEn= 1.98D-01
 Coeff-Com:  0.676D-02 0.437D+00 0.557D+00
 Coeff-En:   0.000D+00 0.000D+00 0.100D+01
 Coeff:      0.543D-02 0.350D+00 0.644D+00
 Gap=     0.335 Goal=   None    Shift=    0.000
 RMSDP=6.29D-03 MaxDP=5.53D-01 DE=-3.70D-01 OVMax= 6.11D-02

 Cycle   4  Pass 1  IDiag  1:
 RMSU=  2.12D-03    CP:  1.13D+00  6.32D-01  8.24D-01
 E= -864.097662557139     Delta-E=       -0.037804104798 Rises=F Damp=F
 DIIS: error= 7.04D-03 at cycle   4 NSaved=   4.
 NSaved= 4 IEnMin= 4 EnMin= -864.097662557139     IErMin= 4 ErrMin= 7.04D-03
 ErrMax= 7.04D-03  0.00D+00 EMaxC= 1.00D-01 BMatC= 1.10D-02 BMatP= 5.41D-02
 IDIUse=3 WtCom= 9.30D-01 WtEn= 7.04D-02
 Coeff-Com: -0.356D-02 0.311D-01 0.320D+00 0.653D+00
 Coeff-En:   0.000D+00 0.000D+00 0.164D+00 0.836D+00
 Coeff:     -0.331D-02 0.290D-01 0.309D+00 0.666D+00
 Gap=     0.321 Goal=   None    Shift=    0.000
 RMSDP=2.21D-03 MaxDP=1.99D-01 DE=-3.78D-02 OVMax= 2.47D-02

 Cycle   5  Pass 1  IDiag  1:
 RMSU=  2.55D-04    CP:  1.06D+00  5.26D-01  9.12D-01  7.39D-01
 E= -864.106733688498     Delta-E=       -0.009071131359 Rises=F Damp=F
 DIIS: error= 6.90D-04 at cycle   5 NSaved=   5.
 NSaved= 5 IEnMin= 5 EnMin= -864.106733688498     IErMin= 5 ErrMin= 6.90D-04
 ErrMax= 6.90D-04  0.00D+00 EMaxC= 1.00D-01 BMatC= 1.99D-04 BMatP= 1.10D-02
 IDIUse=3 WtCom= 9.93D-01 WtEn= 6.90D-03
 Coeff-Com: -0.119D-02-0.341D-02 0.871D-01 0.245D+00 0.672D+00
 Coeff-En:   0.000D+00 0.000D+00 0.000D+00 0.000D+00 0.100D+01
 Coeff:     -0.118D-02-0.339D-02 0.865D-01 0.244D+00 0.674D+00
 Gap=     0.315 Goal=   None    Shift=    0.000
 RMSDP=1.74D-04 MaxDP=1.11D-02 DE=-9.07D-03 OVMax= 3.37D-03

 Cycle   6  Pass 1  IDiag  1:
 RMSU=  8.88D-05    CP:  1.07D+00  5.27D-01  9.03D-01  7.90D-01  7.40D-01
 E= -864.106908653330     Delta-E=       -0.000174964832 Rises=F Damp=F
 DIIS: error= 1.58D-04 at cycle   6 NSaved=   6.
 NSaved= 6 IEnMin= 6 EnMin= -864.106908653330     IErMin= 6 ErrMin= 1.58D-04
 ErrMax= 1.58D-04  0.00D+00 EMaxC= 1.00D-01 BMatC= 1.64D-05 BMatP= 1.99D-04
 IDIUse=3 WtCom= 9.98D-01 WtEn= 1.58D-03
 Coeff-Com:  0.278D-03-0.442D-02-0.299D-02 0.170D-01 0.235D+00 0.756D+00
 Coeff-En:   0.000D+00 0.000D+00 0.000D+00 0.000D+00 0.000D+00 0.100D+01
 Coeff:      0.278D-03-0.441D-02-0.299D-02 0.170D-01 0.234D+00 0.756D+00
 Gap=     0.316 Goal=   None    Shift=    0.000
 RMSDP=7.40D-05 MaxDP=5.38D-03 DE=-1.75D-04 OVMax= 1.51D-03

 Cycle   7  Pass 1  IDiag  1:
 RMSU=  5.75D-05    CP:  1.07D+00  5.25D-01  9.06D-01  7.92D-01  8.29D-01
                    CP:  9.13D-01
 E= -864.106923077491     Delta-E=       -0.000014424162 Rises=F Damp=F
 DIIS: error= 1.47D-04 at cycle   7 NSaved=   7.
 NSaved= 7 IEnMin= 7 EnMin= -864.106923077491     IErMin= 7 ErrMin= 1.47D-04
 ErrMax= 1.47D-04  0.00D+00 EMaxC= 1.00D-01 BMatC= 5.17D-06 BMatP= 1.64D-05
 IDIUse=3 WtCom= 9.99D-01 WtEn= 1.47D-03
 Coeff-Com:  0.242D-03-0.221D-02-0.104D-01-0.137D-01 0.715D-01 0.426D+00
 Coeff-Com:  0.529D+00
 Coeff-En:   0.000D+00 0.000D+00 0.000D+00 0.000D+00 0.000D+00 0.000D+00
 Coeff-En:   0.100D+01
 Coeff:      0.241D-03-0.221D-02-0.104D-01-0.137D-01 0.714D-01 0.425D+00
 Coeff:      0.530D+00
 Gap=     0.317 Goal=   None    Shift=    0.000
 RMSDP=4.95D-05 MaxDP=4.75D-03 DE=-1.44D-05 OVMax= 8.12D-04

 Cycle   8  Pass 1  IDiag  1:
 RMSU=  1.90D-05    CP:  1.07D+00  5.23D-01  9.05D-01  7.94D-01  8.38D-01
                    CP:  1.05D+00  5.92D-01
 E= -864.106927346227     Delta-E=       -0.000004268735 Rises=F Damp=F
 DIIS: error= 4.92D-05 at cycle   8 NSaved=   8.
 NSaved= 8 IEnMin= 8 EnMin= -864.106927346227     IErMin= 8 ErrMin= 4.92D-05
 ErrMax= 4.92D-05  0.00D+00 EMaxC= 1.00D-01 BMatC= 7.26D-07 BMatP= 5.17D-06
 IDIUse=1 WtCom= 1.00D+00 WtEn= 0.00D+00
 Coeff-Com: -0.937D-06 0.197D-03-0.534D-02-0.132D-01-0.296D-01 0.933D-02
 Coeff-Com:  0.276D+00 0.762D+00
 Coeff:     -0.937D-06 0.197D-03-0.534D-02-0.132D-01-0.296D-01 0.933D-02
 Coeff:      0.276D+00 0.762D+00
 Gap=     0.317 Goal=   None    Shift=    0.000
 RMSDP=1.46D-05 MaxDP=8.81D-04 DE=-4.27D-06 OVMax= 3.92D-04

 Cycle   9  Pass 1  IDiag  1:
 RMSU=  5.63D-06    CP:  1.07D+00  5.23D-01  9.05D-01  7.95D-01  8.55D-01
                    CP:  1.05D+00  7.70D-01  1.02D+00
 E= -864.106928205637     Delta-E=       -0.000000859411 Rises=F Damp=F
 DIIS: error= 1.41D-05 at cycle   9 NSaved=   9.
 NSaved= 9 IEnMin= 9 EnMin= -864.106928205637     IErMin= 9 ErrMin= 1.41D-05
 ErrMax= 1.41D-05  0.00D+00 EMaxC= 1.00D-01 BMatC= 4.42D-08 BMatP= 7.26D-07
 IDIUse=1 WtCom= 1.00D+00 WtEn= 0.00D+00
 Coeff-Com: -0.305D-04 0.283D-03-0.116D-02-0.371D-02-0.179D-01-0.317D-01
 Coeff-Com:  0.509D-01 0.251D+00 0.753D+00
 Coeff:     -0.305D-04 0.283D-03-0.116D-02-0.371D-02-0.179D-01-0.317D-01
 Coeff:      0.509D-01 0.251D+00 0.753D+00
 Gap=     0.317 Goal=   None    Shift=    0.000
 RMSDP=6.48D-06 MaxDP=6.51D-04 DE=-8.59D-07 OVMax= 1.29D-04

 Cycle  10  Pass 1  IDiag  1:
 RMSU=  1.84D-06    CP:  1.07D+00  5.22D-01  9.05D-01  7.96D-01  8.58D-01
                    CP:  1.06D+00  7.67D-01  1.10D+00  1.28D+00
 E= -864.106928274852     Delta-E=       -0.000000069215 Rises=F Damp=F
 DIIS: error= 3.45D-06 at cycle  10 NSaved=  10.
 NSaved=10 IEnMin=10 EnMin= -864.106928274852     IErMin=10 ErrMin= 3.45D-06
 ErrMax= 3.45D-06  0.00D+00 EMaxC= 1.00D-01 BMatC= 4.96D-09 BMatP= 4.42D-08
 IDIUse=1 WtCom= 1.00D+00 WtEn= 0.00D+00
 Coeff-Com: -0.662D-05 0.364D-04 0.586D-03 0.130D-02-0.464D-03-0.879D-02
 Coeff-Com: -0.332D-01-0.724D-01 0.191D+00 0.922D+00
 Coeff:     -0.662D-05 0.364D-04 0.586D-03 0.130D-02-0.464D-03-0.879D-02
 Coeff:     -0.332D-01-0.724D-01 0.191D+00 0.922D+00
 Gap=     0.317 Goal=   None    Shift=    0.000
 RMSDP=2.76D-06 MaxDP=2.87D-04 DE=-6.92D-08 OVMax= 6.66D-05

 Cycle  11  Pass 1  IDiag  1:
 RMSU=  1.10D-06    CP:  1.07D+00  5.22D-01  9.05D-01  7.96D-01  8.59D-01
                    CP:  1.06D+00  7.86D-01  1.15D+00  1.43D+00  1.10D+00
 E= -864.106928284889     Delta-E=       -0.000000010037 Rises=F Damp=F
 DIIS: error= 8.66D-07 at cycle  11 NSaved=  11.
 NSaved=11 IEnMin=11 EnMin= -864.106928284889     IErMin=11 ErrMin= 8.66D-07
 ErrMax= 8.66D-07  0.00D+00 EMaxC= 1.00D-01 BMatC= 3.20D-10 BMatP= 4.96D-09
 IDIUse=1 WtCom= 1.00D+00 WtEn= 0.00D+00
 Coeff-Com:  0.350D-05-0.102D-04 0.192D-03 0.445D-03 0.835D-03-0.168D-04
 Coeff-Com: -0.101D-01-0.292D-01 0.303D-02 0.218D+00 0.817D+00
 Coeff:      0.350D-05-0.102D-04 0.192D-03 0.445D-03 0.835D-03-0.168D-04
 Coeff:     -0.101D-01-0.292D-01 0.303D-02 0.218D+00 0.817D+00
 Gap=     0.317 Goal=   None    Shift=    0.000
 RMSDP=6.36D-07 MaxDP=6.66D-05 DE=-1.00D-08 OVMax= 1.22D-05

 Cycle  12  Pass 1  IDiag  1:
 RMSU=  1.94D-07    CP:  1.07D+00  5.22D-01  9.05D-01  7.96D-01  8.60D-01
                    CP:  1.06D+00  7.85D-01  1.16D+00  1.48D+00  1.22D+00
                    CP:  9.58D-01
 E= -864.106928285303     Delta-E=       -0.000000000414 Rises=F Damp=F
 DIIS: error= 2.86D-07 at cycle  12 NSaved=  12.
 NSaved=12 IEnMin=12 EnMin= -864.106928285303     IErMin=12 ErrMin= 2.86D-07
 ErrMax= 2.86D-07  0.00D+00 EMaxC= 1.00D-01 BMatC= 7.07D-11 BMatP= 3.20D-10
 IDIUse=1 WtCom= 1.00D+00 WtEn= 0.00D+00
 Coeff-Com:  0.262D-05-0.863D-05 0.147D-04 0.279D-04 0.403D-03 0.943D-03
 Coeff-Com: -0.306D-03-0.333D-02-0.196D-01-0.193D-01 0.339D+00 0.702D+00
 Coeff:      0.262D-05-0.863D-05 0.147D-04 0.279D-04 0.403D-03 0.943D-03
 Coeff:     -0.306D-03-0.333D-02-0.196D-01-0.193D-01 0.339D+00 0.702D+00
 Gap=     0.317 Goal=   None    Shift=    0.000
 RMSDP=2.28D-07 MaxDP=1.92D-05 DE=-4.14D-10 OVMax= 4.11D-06

 Cycle  13  Pass 1  IDiag  1:
 RMSU=  6.77D-08    CP:  1.07D+00  5.22D-01  9.05D-01  7.96D-01  8.60D-01
                    CP:  1.06D+00  7.86D-01  1.16D+00  1.49D+00  1.22D+00
                    CP:  1.08D+00  1.05D+00
 E= -864.106928285397     Delta-E=       -0.000000000094 Rises=F Damp=F
 DIIS: error= 6.81D-08 at cycle  13 NSaved=  13.
 NSaved=13 IEnMin=13 EnMin= -864.106928285397     IErMin=13 ErrMin= 6.81D-08
 ErrMax= 6.81D-08  0.00D+00 EMaxC= 1.00D-01 BMatC= 3.92D-12 BMatP= 7.07D-11
 IDIUse=1 WtCom= 1.00D+00 WtEn= 0.00D+00
 Coeff-Com: -0.178D-06-0.109D-06-0.177D-04-0.436D-04-0.131D-04 0.147D-03
 Coeff-Com:  0.116D-02 0.292D-02-0.369D-02-0.324D-01-0.287D-01 0.150D+00
 Coeff-Com:  0.911D+00
 Coeff:     -0.178D-06-0.109D-06-0.177D-04-0.436D-04-0.131D-04 0.147D-03
 Coeff:      0.116D-02 0.292D-02-0.369D-02-0.324D-01-0.287D-01 0.150D+00
 Coeff:      0.911D+00
 Gap=     0.317 Goal=   None    Shift=    0.000
 RMSDP=9.36D-08 MaxDP=7.88D-06 DE=-9.41D-11 OVMax= 1.73D-06

 Cycle  14  Pass 1  IDiag  1:
 RMSU=  3.28D-08    CP:  1.07D+00  5.22D-01  9.05D-01  7.96D-01  8.60D-01
                    CP:  1.06D+00  7.87D-01  1.16D+00  1.49D+00  1.23D+00
                    CP:  1.12D+00  1.18D+00  1.27D+00
 E= -864.106928285415     Delta-E=       -0.000000000018 Rises=F Damp=F
 DIIS: error= 2.57D-08 at cycle  14 NSaved=  14.
 NSaved=14 IEnMin=14 EnMin= -864.106928285415     IErMin=14 ErrMin= 2.57D-08
 ErrMax= 2.57D-08  0.00D+00 EMaxC= 1.00D-01 BMatC= 3.90D-13 BMatP= 3.92D-12
 IDIUse=1 WtCom= 1.00D+00 WtEn= 0.00D+00
 Coeff-Com: -0.420D-06 0.947D-06-0.422D-05-0.764D-05-0.330D-04-0.469D-04
 Coeff-Com:  0.189D-03 0.688D-03 0.991D-03-0.361D-02-0.336D-01-0.358D-01
 Coeff-Com:  0.148D+00 0.923D+00
 Coeff:     -0.420D-06 0.947D-06-0.422D-05-0.764D-05-0.330D-04-0.469D-04
 Coeff:      0.189D-03 0.688D-03 0.991D-03-0.361D-02-0.336D-01-0.358D-01
 Coeff:      0.148D+00 0.923D+00
 Gap=     0.317 Goal=   None    Shift=    0.000
 RMSDP=2.29D-08 MaxDP=2.42D-06 DE=-1.75D-11 OVMax= 4.94D-07

 Cycle  15  Pass 1  IDiag  1:
 RMSU=  6.81D-09    CP:  1.07D+00  5.22D-01  9.05D-01  7.96D-01  8.60D-01
                    CP:  1.06D+00  7.87D-01  1.16D+00  1.49D+00  1.23D+00
                    CP:  1.13D+00  1.23D+00  1.38D+00  1.03D+00
 E= -864.106928285407     Delta-E=        0.000000000007 Rises=F Damp=F
 DIIS: error= 7.81D-09 at cycle  15 NSaved=  15.
 NSaved=15 IEnMin=14 EnMin= -864.106928285415     IErMin=15 ErrMin= 7.81D-09
 ErrMax= 7.81D-09  0.00D+00 EMaxC= 1.00D-01 BMatC= 4.24D-14 BMatP= 3.90D-13
 IDIUse=1 WtCom= 1.00D+00 WtEn= 0.00D+00
 Coeff-Com: -0.144D-06 0.371D-06-0.231D-06 0.520D-06-0.967D-05-0.288D-04
 Coeff-Com: -0.292D-04 0.493D-06 0.604D-03 0.136D-02-0.831D-02-0.232D-01
 Coeff-Com: -0.316D-01 0.270D+00 0.791D+00
 Coeff:     -0.144D-06 0.371D-06-0.231D-06 0.520D-06-0.967D-05-0.288D-04
 Coeff:     -0.292D-04 0.493D-06 0.604D-03 0.136D-02-0.831D-02-0.232D-01
 Coeff:     -0.316D-01 0.270D+00 0.791D+00
 Gap=     0.317 Goal=   None    Shift=    0.000
 RMSDP=7.00D-09 MaxDP=6.85D-07 DE= 7.28D-12 OVMax= 1.21D-07

 SCF Done:  E(RM062X) =  -864.106928285     A.U. after   15 cycles
            NFock= 15  Conv=0.70D-08     -V/T= 2.0035
 KE= 8.610724009893D+02 PE=-3.543926358746D+03 EE= 1.061848610781D+03
 Leave Link  502 at Sun Oct 13 23:10:54 2019, MaxMem= 10737418240 cpu:             846.4 elap:              35.4
 (Enter /apps/cent7/gaussian/g16-A.03/g16-haswell/g16/l601.exe)
 Copying SCF densities to generalized density rwf, IOpCl= 0 IROHF=0.

 **********************************************************************

            Population analysis using the SCF density.

 **********************************************************************

 Orbital symmetries:
       Occupied  (A) (A) (A) (A) (A) (A) (A) (A) (A) (A) (A) (A)
                 (A) (A) (A) (A) (A) (A) (A) (A) (A) (A) (A) (A)
                 (A) (A) (A) (A) (A) (A) (A) (A) (A) (A) (A) (A)
                 (A) (A) (A) (A) (A) (A) (A) (A) (A) (A) (A) (A)
                 (A)
       Virtual   (A) (A) (A) (A) (A) (A) (A) (A) (A) (A) (A) (A)
                 (A) (A) (A) (A) (A) (A) (A) (A) (A) (A) (A) (A)
                 (A) (A) (A) (A) (A) (A) (A) (A) (A) (A) (A) (A)
                 (A) (A) (A) (A) (A) (A) (A) (A) (A) (A) (A) (A)
                 (A) (A) (A) (A) (A) (A) (A) (A) (A) (A) (A) (A)
                 (A) (A) (A) (A) (A) (A) (A) (A) (A) (A) (A) (A)
                 (A) (A) (A) (A) (A) (A) (A) (A) (A) (A) (A) (A)
                 (A) (A) (A) (A) (A) (A) (A) (A) (A) (A) (A) (A)
                 (A) (A) (A) (A) (A) (A) (A) (A) (A) (A) (A) (A)
                 (A) (A) (A) (A) (A) (A) (A) (A) (A) (A) (A) (A)
                 (A) (A) (A) (A) (A) (A) (A) (A) (A) (A) (A) (A)
                 (A) (A) (A) (A) (A) (A) (A) (A) (A) (A) (A) (A)
                 (A) (A) (A) (A) (A) (A) (A) (A) (A) (A) (A) (A)
                 (A) (A) (A) (A) (A) (A) (A) (A) (A) (A) (A) (A)
                 (A) (A) (A) (A) (A) (A) (A) (A) (A) (A) (A) (A)
                 (A) (A) (A) (A) (A) (A) (A) (A) (A) (A) (A) (A)
                 (A) (A) (A) (A) (A) (A) (A) (A) (A) (A) (A) (A)
                 (A) (A) (A) (A) (A) (A) (A) (A) (A) (A) (A) (A)
                 (A) (A) (A) (A) (A) (A) (A) (A) (A) (A) (A) (A)
                 (A) (A) (A) (A) (A) (A) (A) (A) (A) (A) (A) (A)
                 (A) (A) (A) (A) (A) (A) (A) (A) (A) (A) (A) (A)
                 (A) (A) (A) (A) (A) (A) (A) (A) (A) (A) (A) (A)
                 (A) (A) (A) (A) (A) (A) (A) (A) (A) (A) (A) (A)
                 (A) (A) (A) (A) (A) (A) (A) (A) (A) (A) (A) (A)
                 (A) (A) (A) (A) (A) (A) (A) (A) (A) (A) (A) (A)
                 (A) (A) (A) (A) (A) (A) (A) (A) (A) (A) (A) (A)
                 (A) (A) (A) (A) (A) (A) (A) (A) (A) (A) (A) (A)
                 (A) (A) (A)
 The electronic state is 1-A.
 Alpha  occ. eigenvalues --  -90.09824 -19.60583 -19.60332 -10.60436 -10.60432
 Alpha  occ. eigenvalues --  -10.56676 -10.55917 -10.55877 -10.55381 -10.54155
 Alpha  occ. eigenvalues --  -10.53577  -8.44107  -6.36197  -6.36194  -6.36186
 Alpha  occ. eigenvalues --   -1.14724  -1.04502  -0.94228  -0.92964  -0.87960
 Alpha  occ. eigenvalues --   -0.85597  -0.78852  -0.74933  -0.69398  -0.67977
 Alpha  occ. eigenvalues --   -0.66814  -0.60636  -0.60033  -0.56733  -0.54650
 Alpha  occ. eigenvalues --   -0.54195  -0.52557  -0.51138  -0.50298  -0.48745
 Alpha  occ. eigenvalues --   -0.46497  -0.45804  -0.45232  -0.45060  -0.42624
 Alpha  occ. eigenvalues --   -0.42390  -0.41970  -0.41678  -0.39857  -0.39260
 Alpha  occ. eigenvalues --   -0.36541  -0.35566  -0.34452  -0.33331
 Alpha virt. eigenvalues --   -0.01677  -0.00419  -0.00011   0.00489   0.01181
 Alpha virt. eigenvalues --    0.01494   0.02111   0.02654   0.03262   0.03670
 Alpha virt. eigenvalues --    0.03907   0.04313   0.04560   0.05044   0.05633
 Alpha virt. eigenvalues --    0.05725   0.05922   0.06494   0.06625   0.07381
 Alpha virt. eigenvalues --    0.08362   0.08636   0.09118   0.09769   0.10056
 Alpha virt. eigenvalues --    0.10624   0.11329   0.11591   0.12133   0.12333
 Alpha virt. eigenvalues --    0.12549   0.12732   0.13423   0.13561   0.13958
 Alpha virt. eigenvalues --    0.14245   0.14452   0.14706   0.14867   0.15605
 Alpha virt. eigenvalues --    0.15838   0.16129   0.16673   0.16934   0.17070
 Alpha virt. eigenvalues --    0.17380   0.17824   0.18505   0.18568   0.18883
 Alpha virt. eigenvalues --    0.19221   0.19517   0.19593   0.20662   0.20926
 Alpha virt. eigenvalues --    0.21671   0.21957   0.22180   0.22924   0.23031
 Alpha virt. eigenvalues --    0.23893   0.24028   0.24595   0.24745   0.25369
 Alpha virt. eigenvalues --    0.25836   0.26508   0.27058   0.27948   0.28044
 Alpha virt. eigenvalues --    0.28630   0.28996   0.29411   0.30627   0.31144
 Alpha virt. eigenvalues --    0.31632   0.32971   0.33666   0.33792   0.34436
 Alpha virt. eigenvalues --    0.35153   0.35513   0.36272   0.37163   0.38307
 Alpha virt. eigenvalues --    0.39379   0.39628   0.40887   0.42199   0.43710
 Alpha virt. eigenvalues --    0.44735   0.45218   0.45995   0.47141   0.47758
 Alpha virt. eigenvalues --    0.48345   0.48914   0.49236   0.49873   0.50376
 Alpha virt. eigenvalues --    0.51631   0.52373   0.53493   0.56283   0.56911
 Alpha virt. eigenvalues --    0.58977   0.59955   0.60412   0.62891   0.65101
 Alpha virt. eigenvalues --    0.66073   0.67095   0.67623   0.68435   0.68917
 Alpha virt. eigenvalues --    0.70822   0.71095   0.71539   0.71919   0.72050
 Alpha virt. eigenvalues --    0.72762   0.73074   0.73719   0.74316   0.74490
 Alpha virt. eigenvalues --    0.75738   0.76571   0.76911   0.77488   0.77970
 Alpha virt. eigenvalues --    0.79084   0.79800   0.80393   0.80845   0.81298
 Alpha virt. eigenvalues --    0.83787   0.86172   0.86983   0.88441   0.93780
 Alpha virt. eigenvalues --    0.94688   0.95442   0.97623   0.98034   0.99983
 Alpha virt. eigenvalues --    1.01392   1.02824   1.03451   1.05379   1.06806
 Alpha virt. eigenvalues --    1.08341   1.12545   1.19039   1.22136   1.23757
 Alpha virt. eigenvalues --    1.25128   1.26594   1.27757   1.29096   1.30067
 Alpha virt. eigenvalues --    1.30606   1.32028   1.32837   1.33153   1.33693
 Alpha virt. eigenvalues --    1.34810   1.37360   1.42772   1.44363   1.46985
 Alpha virt. eigenvalues --    1.48876   1.49666   1.50926   1.52741   1.53161
 Alpha virt. eigenvalues --    1.57143   1.57807   1.58289   1.58477   1.59101
 Alpha virt. eigenvalues --    1.59724   1.60657   1.61700   1.62930   1.63669
 Alpha virt. eigenvalues --    1.65020   1.65658   1.67089   1.68121   1.68932
 Alpha virt. eigenvalues --    1.70417   1.70589   1.72190   1.72474   1.74182
 Alpha virt. eigenvalues --    1.74709   1.77240   1.78658   1.79137   1.79595
 Alpha virt. eigenvalues --    1.80180   1.81862   1.82896   1.83492   1.84359
 Alpha virt. eigenvalues --    1.85344   1.86189   1.91114   1.94071   1.95506
 Alpha virt. eigenvalues --    1.95789   1.98774   1.99503   2.01548   2.04672
 Alpha virt. eigenvalues --    2.05841   2.08944   2.09523   2.10113   2.11873
 Alpha virt. eigenvalues --    2.12600   2.12801   2.14742   2.16640   2.20385
 Alpha virt. eigenvalues --    2.21757   2.23409   2.25708   2.29955   2.31193
 Alpha virt. eigenvalues --    2.35242   2.36905   2.41341   2.41980   2.43148
 Alpha virt. eigenvalues --    2.43955   2.50872   2.51640   2.52310   2.53620
 Alpha virt. eigenvalues --    2.54944   2.55736   2.55950   2.56502   2.56846
 Alpha virt. eigenvalues --    2.57980   2.60174   2.60222   2.61371   2.61932
 Alpha virt. eigenvalues --    2.62850   2.66433   2.66640   2.67852   2.68165
 Alpha virt. eigenvalues --    2.69175   2.69766   2.70907   2.72948   2.73364
 Alpha virt. eigenvalues --    2.74512   2.75066   2.82927   2.84145   2.85335
 Alpha virt. eigenvalues --    2.86388   2.91384   2.91945   2.93112   2.93873
 Alpha virt. eigenvalues --    2.94305   2.96119   2.96422   2.96885   2.98083
 Alpha virt. eigenvalues --    2.99537   2.99988   3.01693   3.03300   3.05420
 Alpha virt. eigenvalues --    3.07727   3.10772   3.14415   3.17634   3.20655
 Alpha virt. eigenvalues --    3.31870   3.34893   3.40665   3.46914   3.54372
 Alpha virt. eigenvalues --    3.72974   3.77393   3.78345   3.79090   3.81284
 Alpha virt. eigenvalues --    3.84575   3.93277   3.95905   3.97589   3.98407
 Alpha virt. eigenvalues --    4.06273   4.08085   4.11750   4.12410   4.33040
 Alpha virt. eigenvalues --    4.33855   5.17269   5.21253   5.22462   5.25006
 Alpha virt. eigenvalues --    5.29568   5.31367   8.18641  17.56463  17.57570
 Alpha virt. eigenvalues --   17.61590  23.89169  23.91219  23.93298  23.93905
 Alpha virt. eigenvalues --   23.95598  23.96164  24.03582  24.04411  50.00614
 Alpha virt. eigenvalues --   50.04143 189.44498
          Condensed to atoms (all electrons):
               1          2          3          4          5          6
     1  O    8.446374   0.846796  -0.547031   0.083769  -0.040231   0.000101
     2  S    0.846796  20.407606  -3.781856   1.067937  -0.462651  -0.082353
     3  C   -0.547031  -3.781856  12.580342  -3.614961   1.268352  -0.262803
     4  C    0.083769   1.067937  -3.614961   9.286522  -2.085788   0.348076
     5  C   -0.040231  -0.462651   1.268352  -2.085788   7.206492  -0.225556
     6  C    0.000101  -0.082353  -0.262803   0.348076  -0.225556   5.642635
     7  C   -0.325879  -2.157899   0.956862   0.146997   0.051709   0.038679
     8  C   -0.059842  -0.107270  -0.397560   0.094938   0.021537  -0.005707
     9  C    0.019425  -0.055433  -0.120408   0.048521  -0.008763   0.001952
    10  C   -0.010050  -0.088734   0.029924  -0.005347   0.001342   0.000040
    11  O   -0.173170   0.509822  -0.332742  -0.041435   0.001334  -0.003153
    12  H    0.036162   0.374915   0.008094  -0.000253   0.005132  -0.021793
    13  H   -0.050086  -0.331271   0.389097   0.186988  -0.081768   0.035868
    14  H    0.026527   0.202096  -0.157699   0.440816  -0.085601  -0.024270
    15  H   -0.025221  -0.312521   0.264339   0.130533   0.114467   0.040825
    16  H    0.000871   0.023784  -0.036945   0.141901   0.274925  -0.059408
    17  H   -0.002055   0.016775  -0.025624   0.004561   0.381950  -0.061262
    18  H    0.000056   0.009426  -0.024668   0.036389  -0.073700   0.377485
    19  H    0.000170   0.007404   0.005041   0.001138  -0.023728   0.390836
    20  H   -0.000090  -0.004613  -0.007835   0.001283  -0.026217   0.416165
    21  H    0.019989  -0.175626   0.005926   0.082134  -0.040993   0.006282
    22  H   -0.059669   0.013106   0.065217  -0.041211   0.016884  -0.003323
    23  H    0.066225  -0.036381   0.021120   0.005554  -0.008995   0.000344
    24  H   -0.029223   0.049997   0.071902  -0.047260   0.008822  -0.001284
    25  H   -0.001179   0.008142   0.009917  -0.003318   0.000855  -0.000054
    26  H    0.003208   0.012953  -0.004208  -0.000458   0.000914  -0.000015
    27  H    0.000309   0.003511  -0.001018   0.000190  -0.000117  -0.000005
    28  H   -0.000846  -0.001840  -0.000234   0.000200   0.000046   0.000005
    29  H    0.000387  -0.008867  -0.003137   0.001696  -0.000120   0.000035
               7          8          9         10         11         12
     1  O   -0.325879  -0.059842   0.019425  -0.010050  -0.173170   0.036162
     2  S   -2.157899  -0.107270  -0.055433  -0.088734   0.509822   0.374915
     3  C    0.956862  -0.397560  -0.120408   0.029924  -0.332742   0.008094
     4  C    0.146997   0.094938   0.048521  -0.005347  -0.041435  -0.000253
     5  C    0.051709   0.021537  -0.008763   0.001342   0.001334   0.005132
     6  C    0.038679  -0.005707   0.001952   0.000040  -0.003153  -0.021793
     7  C    8.002170  -0.529880   0.016586  -0.119688  -0.329932  -0.210562
     8  C   -0.529880   6.880920  -0.484384   0.211027   0.037045   0.002950
     9  C    0.016586  -0.484384   6.429240  -0.219499  -0.008306  -0.006635
    10  C   -0.119688   0.211027  -0.219499   5.731332  -0.001563  -0.003310
    11  O   -0.329932   0.037045  -0.008306  -0.001563   8.554050   0.039993
    12  H   -0.210562   0.002950  -0.006635  -0.003310   0.039993   0.674169
    13  H    0.177598  -0.016982   0.003525   0.001614  -0.038109  -0.095453
    14  H   -0.132371   0.022906  -0.002701  -0.000865   0.031497   0.057251
    15  H    0.208825  -0.048227  -0.009205   0.003247  -0.015261  -0.075894
    16  H   -0.012284  -0.001047  -0.000030  -0.000046   0.000706   0.020876
    17  H    0.001421   0.001978   0.000169   0.000000   0.000216  -0.016406
    18  H    0.003946   0.000870   0.000898  -0.000033   0.000083  -0.005620
    19  H   -0.003974   0.000303  -0.000175  -0.000010   0.000007   0.005175
    20  H    0.002034  -0.000403   0.000068   0.000014  -0.000222   0.001610
    21  H    0.337555   0.027139   0.068437   0.008644  -0.056510  -0.057548
    22  H    0.208751   0.065286  -0.065683  -0.000425   0.021681   0.030694
    23  H    0.076037   0.221666  -0.003848  -0.000375  -0.035925  -0.005818
    24  H    0.060133   0.314021  -0.174378  -0.009194   0.069414   0.015554
    25  H   -0.011703   0.020558   0.348928  -0.051941   0.000265  -0.000480
    26  H    0.013429  -0.005168   0.364826  -0.083496  -0.000426   0.001097
    27  H    0.004726   0.016210  -0.038824   0.379298  -0.000008   0.000046
    28  H   -0.003815  -0.031761   0.014614   0.396231   0.000208  -0.000096
    29  H   -0.002880  -0.025881   0.009272   0.377264  -0.001048  -0.000246
              13         14         15         16         17         18
     1  O   -0.050086   0.026527  -0.025221   0.000871  -0.002055   0.000056
     2  S   -0.331271   0.202096  -0.312521   0.023784   0.016775   0.009426
     3  C    0.389097  -0.157699   0.264339  -0.036945  -0.025624  -0.024668
     4  C    0.186988   0.440816   0.130533   0.141901   0.004561   0.036389
     5  C   -0.081768  -0.085601   0.114467   0.274925   0.381950  -0.073700
     6  C    0.035868  -0.024270   0.040825  -0.059408  -0.061262   0.377485
     7  C    0.177598  -0.132371   0.208825  -0.012284   0.001421   0.003946
     8  C   -0.016982   0.022906  -0.048227  -0.001047   0.001978   0.000870
     9  C    0.003525  -0.002701  -0.009205  -0.000030   0.000169   0.000898
    10  C    0.001614  -0.000865   0.003247  -0.000046   0.000000  -0.000033
    11  O   -0.038109   0.031497  -0.015261   0.000706   0.000216   0.000083
    12  H   -0.095453   0.057251  -0.075894   0.020876  -0.016406  -0.005620
    13  H    0.573997  -0.069763   0.042965  -0.010580   0.013440   0.003823
    14  H   -0.069763   0.599306  -0.123396   0.025222  -0.033302   0.001615
    15  H    0.042965  -0.123396   0.792490  -0.078509   0.016840  -0.002841
    16  H   -0.010580   0.025222  -0.078509   0.617364  -0.041600   0.002553
    17  H    0.013440  -0.033302   0.016840  -0.041600   0.593966   0.015688
    18  H    0.003823   0.001615  -0.002841   0.002553   0.015688   0.600144
    19  H   -0.002114  -0.001406   0.000118  -0.014740  -0.003040  -0.049160
    20  H    0.000491   0.002265  -0.009910   0.008776  -0.021115  -0.035208
    21  H    0.018567  -0.005151  -0.019665   0.002140  -0.000307   0.004126
    22  H   -0.011058   0.012422   0.005635   0.003820   0.001608  -0.008230
    23  H    0.004501  -0.002134  -0.008819   0.000547  -0.000336   0.001430
    24  H   -0.007263   0.003421   0.006823  -0.000326   0.000005  -0.000803
    25  H    0.000219  -0.000244   0.000622   0.000038  -0.000002   0.000004
    26  H   -0.000348   0.000008   0.001167  -0.000196  -0.000052  -0.000156
    27  H   -0.000008   0.000052  -0.000424   0.000010  -0.000001   0.000013
    28  H    0.000018  -0.000062   0.000327  -0.000005   0.000004  -0.000014
    29  H    0.000140  -0.000075   0.000025  -0.000008   0.000001   0.000009
              19         20         21         22         23         24
     1  O    0.000170  -0.000090   0.019989  -0.059669   0.066225  -0.029223
     2  S    0.007404  -0.004613  -0.175626   0.013106  -0.036381   0.049997
     3  C    0.005041  -0.007835   0.005926   0.065217   0.021120   0.071902
     4  C    0.001138   0.001283   0.082134  -0.041211   0.005554  -0.047260
     5  C   -0.023728  -0.026217  -0.040993   0.016884  -0.008995   0.008822
     6  C    0.390836   0.416165   0.006282  -0.003323   0.000344  -0.001284
     7  C   -0.003974   0.002034   0.337555   0.208751   0.076037   0.060133
     8  C    0.000303  -0.000403   0.027139   0.065286   0.221666   0.314021
     9  C   -0.000175   0.000068   0.068437  -0.065683  -0.003848  -0.174378
    10  C   -0.000010   0.000014   0.008644  -0.000425  -0.000375  -0.009194
    11  O    0.000007  -0.000222  -0.056510   0.021681  -0.035925   0.069414
    12  H    0.005175   0.001610  -0.057548   0.030694  -0.005818   0.015554
    13  H   -0.002114   0.000491   0.018567  -0.011058   0.004501  -0.007263
    14  H   -0.001406   0.002265  -0.005151   0.012422  -0.002134   0.003421
    15  H    0.000118  -0.009910  -0.019665   0.005635  -0.008819   0.006823
    16  H   -0.014740   0.008776   0.002140   0.003820   0.000547  -0.000326
    17  H   -0.003040  -0.021115  -0.000307   0.001608  -0.000336   0.000005
    18  H   -0.049160  -0.035208   0.004126  -0.008230   0.001430  -0.000803
    19  H    0.547645  -0.024752  -0.001316   0.001427  -0.000199   0.000134
    20  H   -0.024752   0.531542   0.000147   0.000416   0.000046  -0.000042
    21  H   -0.001316   0.000147   0.754969  -0.190069   0.092639  -0.133790
    22  H    0.001427   0.000416  -0.190069   0.800555  -0.140016   0.075097
    23  H   -0.000199   0.000046   0.092639  -0.140016   0.699641  -0.124284
    24  H    0.000134  -0.000042  -0.133790   0.075097  -0.124284   0.691716
    25  H    0.000001  -0.000000   0.007366  -0.004645   0.017635  -0.027504
    26  H    0.000039  -0.000001  -0.006976  -0.000425  -0.024638   0.020564
    27  H   -0.000001   0.000000   0.003410  -0.001739   0.001847  -0.007037
    28  H    0.000000  -0.000000   0.000461   0.002087  -0.000932  -0.001708
    29  H   -0.000001   0.000001   0.002161   0.000461   0.000663  -0.002970
              25         26         27         28         29
     1  O   -0.001179   0.003208   0.000309  -0.000846   0.000387
     2  S    0.008142   0.012953   0.003511  -0.001840  -0.008867
     3  C    0.009917  -0.004208  -0.001018  -0.000234  -0.003137
     4  C   -0.003318  -0.000458   0.000190   0.000200   0.001696
     5  C    0.000855   0.000914  -0.000117   0.000046  -0.000120
     6  C   -0.000054  -0.000015  -0.000005   0.000005   0.000035
     7  C   -0.011703   0.013429   0.004726  -0.003815  -0.002880
     8  C    0.020558  -0.005168   0.016210  -0.031761  -0.025881
     9  C    0.348928   0.364826  -0.038824   0.014614   0.009272
    10  C   -0.051941  -0.083496   0.379298   0.396231   0.377264
    11  O    0.000265  -0.000426  -0.000008   0.000208  -0.001048
    12  H   -0.000480   0.001097   0.000046  -0.000096  -0.000246
    13  H    0.000219  -0.000348  -0.000008   0.000018   0.000140
    14  H   -0.000244   0.000008   0.000052  -0.000062  -0.000075
    15  H    0.000622   0.001167  -0.000424   0.000327   0.000025
    16  H    0.000038  -0.000196   0.000010  -0.000005  -0.000008
    17  H   -0.000002  -0.000052  -0.000001   0.000004   0.000001
    18  H    0.000004  -0.000156   0.000013  -0.000014   0.000009
    19  H    0.000001   0.000039  -0.000001   0.000000  -0.000001
    20  H   -0.000000  -0.000001   0.000000  -0.000000   0.000001
    21  H    0.007366  -0.006976   0.003410   0.000461   0.002161
    22  H   -0.004645  -0.000425  -0.001739   0.002087   0.000461
    23  H    0.017635  -0.024638   0.001847  -0.000932   0.000663
    24  H   -0.027504   0.020564  -0.007037  -0.001708  -0.002970
    25  H    0.623515  -0.058312  -0.008273   0.012163  -0.015314
    26  H   -0.058312   0.636105  -0.004427  -0.027135   0.016496
    27  H   -0.008273  -0.004427   0.536460  -0.021216  -0.034927
    28  H    0.012163  -0.027135  -0.021216   0.552332  -0.047455
    29  H   -0.015314   0.016496  -0.034927  -0.047455   0.583355
 Mulliken charges:
               1
     1  O   -0.225794
     2  S    0.053045
     3  C   -0.357405
     4  C   -0.270112
     5  C   -0.190533
     6  C   -0.548343
     7  C   -0.466591
     8  C   -0.225241
     9  C   -0.128190
    10  C   -0.545401
    11  O   -0.228509
    12  H    0.226397
    13  H    0.261953
    14  H    0.213638
    15  H    0.100645
    16  H    0.132192
    17  H    0.156481
    18  H    0.141876
    19  H    0.165176
    20  H    0.165551
    21  H    0.245857
    22  H    0.201344
    23  H    0.182805
    24  H    0.179463
    25  H    0.132741
    26  H    0.145632
    27  H    0.171942
    28  H    0.158422
    29  H    0.150960
 Sum of Mulliken charges =  -0.00000
 Mulliken charges with hydrogens summed into heavy atoms:
               1
     1  O   -0.225794
     2  S    0.053045
     3  C    0.130945
     4  C    0.044170
     5  C    0.098139
     6  C   -0.075740
     7  C   -0.019389
     8  C    0.137027
     9  C    0.150183
    10  C   -0.064077
    11  O   -0.228509
 Electronic spatial extent (au):  <R**2>=           3603.1477
 Charge=             -0.0000 electrons
 Dipole moment (field-independent basis, Debye):
    X=              1.9297    Y=             -6.0076    Z=             -2.6896  Tot=              6.8592
 Quadrupole moment (field-independent basis, Debye-Ang):
   XX=            -64.4704   YY=            -91.8138   ZZ=            -83.5420
   XY=              6.0593   XZ=             -0.1582   YZ=             -0.8162
 Traceless Quadrupole moment (field-independent basis, Debye-Ang):
   XX=             15.4716   YY=            -11.8718   ZZ=             -3.5999
   XY=              6.0593   XZ=             -0.1582   YZ=             -0.8162
 Octapole moment (field-independent basis, Debye-Ang**2):
  XXX=              7.7127  YYY=            -21.0601  ZZZ=            -10.1508  XYY=              9.8968
  XXY=             -1.4723  XXZ=              0.4208  XZZ=             -0.3387  YZZ=             -8.7471
  YYZ=              4.8822  XYZ=              2.5486
 Hexadecapole moment (field-independent basis, Debye-Ang**3):
 XXXX=          -3645.8113 YYYY=           -977.3290 ZZZZ=           -295.5100 XXXY=             14.9643
 XXXZ=             36.4381 YYYX=             29.2098 YYYZ=             14.7371 ZZZX=             -1.5492
 ZZZY=             -6.6320 XXYY=           -765.5932 XXZZ=           -660.3348 YYZZ=           -216.3922
 XXYZ=             14.3293 YYXZ=            -11.0563 ZZXY=              2.3374
 N-N= 7.568984186898D+02 E-N=-3.543926359322D+03  KE= 8.610724009893D+02
 No NMR shielding tensors so no spin-rotation constants.
 Leave Link  601 at Sun Oct 13 23:10:55 2019, MaxMem= 10737418240 cpu:               4.3 elap:               0.2
 (Enter /apps/cent7/gaussian/g16-A.03/g16-haswell/g16/l701.exe)
 ... and contract with generalized density number  0.
 Compute integral first derivatives.
 Leave Link  701 at Sun Oct 13 23:10:55 2019, MaxMem= 10737418240 cpu:               4.0 elap:               0.2
 (Enter /apps/cent7/gaussian/g16-A.03/g16-haswell/g16/l702.exe)
 L702 exits ... SP integral derivatives will be done elsewhere.
 Leave Link  702 at Sun Oct 13 23:10:55 2019, MaxMem= 10737418240 cpu:               0.4 elap:               0.0
 (Enter /apps/cent7/gaussian/g16-A.03/g16-haswell/g16/l703.exe)
 Integral derivatives from FoFJK, PRISM(SPDF).
 Compute integral first derivatives, UseDBF=F ICtDFT=           0.
 Calling FoFJK, ICntrl=      2127 FMM=F ISym2X=0 I1Cent= 0 IOpClX= 0 NMat=1 NMatS=1 NMatT=0.
 FoFJK:  IHMeth= 1 ICntrl=    2127 DoSepK=F KAlg= 0 I1Cent=           0 FoldK=F
 IRaf=         0 NMat=       1 IRICut=       1 DoRegI=T DoRafI=F ISym2E= 0 IDoP0=0 IntGTp=1.
 FoFCou: FMM=F IPFlag=           0 FMFlag=      100000 FMFlg1=         800
         NFxFlg=           0 DoJE=F BraDBF=F KetDBF=F FulRan=T
         wScrn=  0.000000 ICntrl=      2127 IOpCl=  0 I1Cent=           0 NGrid=           0
         NMat0=    1 NMatS0=      1 NMatT0=    0 NMatD0=    1 NMtDS0=    0 NMtDT0=    0
 Symmetry not used in FoFCou.
 Leave Link  703 at Sun Oct 13 23:11:00 2019, MaxMem= 10737418240 cpu:             121.7 elap:               5.1
 (Enter /apps/cent7/gaussian/g16-A.03/g16-haswell/g16/l716.exe)
 Dipole        = 7.59202325D-01-2.36357095D+00-1.05817075D+00
 ***** Axes restored to original set *****
 -------------------------------------------------------------------
 Center     Atomic                   Forces (Hartrees/Bohr)
 Number     Number              X              Y              Z
 -------------------------------------------------------------------
      1        8          -0.047985937   -0.087343717    0.001604379
      2       16          -0.036583895    0.134754488   -0.005453726
      3        6           0.033079361   -0.020577254    0.006924534
      4        6          -0.006122377    0.000767587   -0.008599690
      5        6           0.008696155    0.005798259    0.019451979
      6        6          -0.008744040    0.007224760    0.002759732
      7        6          -0.000906416    0.008977656    0.018243922
      8        6           0.002096872   -0.005488661   -0.000004239
      9        6          -0.005517031    0.019909057   -0.007337405
     10        6           0.001163858   -0.001189706   -0.013335931
     11        8           0.084087057   -0.054862942    0.003528772
     12        1          -0.016193465    0.011568038   -0.004861880
     13        1          -0.020945316    0.004830291    0.005770656
     14        1           0.008750971   -0.003596627    0.017156238
     15        1           0.015367782    0.007205040    0.006788757
     16        1          -0.008832930    0.004562854   -0.015261742
     17        1          -0.015439819   -0.010135099   -0.007529011
     18        1           0.003887005   -0.002833566   -0.000098432
     19        1           0.003540038    0.000561158   -0.000418486
     20        1           0.003728350   -0.002068437    0.002090126
     21        1           0.007839857   -0.010555829   -0.014041263
     22        1          -0.002588470   -0.012815237   -0.013533715
     23        1          -0.012385041    0.014296568   -0.000555869
     24        1           0.004865396    0.018059384   -0.000447777
     25        1           0.011264527   -0.014100209   -0.000770189
     26        1          -0.004389405   -0.019053686    0.000126900
     27        1           0.000724736    0.001772163    0.001461458
     28        1          -0.001637823    0.002694574    0.002686585
     29        1          -0.000820001    0.001639094    0.003655315
 -------------------------------------------------------------------
 Cartesian Forces:  Max     0.134754488 RMS     0.023382753
 Leave Link  716 at Sun Oct 13 23:11:00 2019, MaxMem= 10737418240 cpu:               0.7 elap:               0.1
 (Enter /apps/cent7/gaussian/g16-A.03/g16-haswell/g16/l103.exe)

 GradGradGradGradGradGradGradGradGradGradGradGradGradGradGradGradGradGrad
 Berny optimization.
 FormGI is forming the generalized inverse of G from B-inverse, IUseBI=4.
 Internal  Forces:  Max     0.098574477 RMS     0.013493680
 Search for a local minimum.
 Step number   1 out of a maximum of  164
 All quantities printed in internal units (Hartrees-Bohrs-Radians)
 RMS Force = .13494D-01 SwitMx=.10000D-02 MixMth= 1
 Mixed Optimization -- RFO/linear search
 Second derivative matrix not updated -- first step.
 ITU=  0
     Eigenvalues ---    0.00230   0.00230   0.00230   0.00230   0.00230
     Eigenvalues ---    0.00230   0.00230   0.00230   0.03847   0.03960
     Eigenvalues ---    0.03961   0.03981   0.04009   0.04068   0.04942
     Eigenvalues ---    0.04973   0.05110   0.05145   0.05151   0.05159
     Eigenvalues ---    0.05651   0.05715   0.05715   0.05715   0.05715
     Eigenvalues ---    0.07001   0.07694   0.07736   0.07768   0.07785
     Eigenvalues ---    0.07944   0.07947   0.11651   0.11733   0.11766
     Eigenvalues ---    0.11781   0.11791   0.11930   0.12255   0.16000
     Eigenvalues ---    0.16000   0.16000   0.16000   0.16000   0.16000
     Eigenvalues ---    0.18533   0.22478   0.22497   0.22501   0.22503
     Eigenvalues ---    0.22508   0.22534   0.23501   0.23512   0.25000
     Eigenvalues ---    0.27330   0.27584   0.27736   0.27854   0.28013
     Eigenvalues ---    0.28194   0.34804   0.34805   0.34805   0.34806
     Eigenvalues ---    0.34808   0.34809   0.34810   0.34810   0.34810
     Eigenvalues ---    0.34812   0.34815   0.34815   0.34816   0.34816
     Eigenvalues ---    0.34816   0.34816   0.34817   0.34819   0.50397
     Eigenvalues ---    0.50426
[...]
 -0.00000571,-0.00000122,-0.01061124,-0.01439370,-0.00231182,-0.1266980
 5,-0.20976611,-0.00131283,-0.01087260,-0.01497586,0.00140215,0.0002352
 2,0.00093185,-0.00102257,-0.00014003,0.00020403,-0.00018379,0.00006323
 ,0.00006549,0.00003669,0.00004041,0.00001632,-0.00005322,0.00002917,0.
 00000854,-0.00003865,-0.00004266,-0.00000685,0.00000087,0.00000343,0.0
 0001022,0.00000976,-0.00000014,-0.00000231,-0.00000336,-0.00000292,-0.
 00000305,0.00000083,0.00000533,-0.00000126,-0.00000113,0.00000482,0.00
 000540,-0.00000276,0.00103690,-0.00082145,-0.00255017,-0.00002739,0.00
 020983,0.00035499,0.13929149,0.22959740,0.00138525,0.00163883,0.000747
 21,-0.00307878,-0.00436393,-0.00014329,0.00019428,0.00022550,-0.000126
 53,0.00007800,-0.00003157,0.00009498,-0.00003014,0.00003662,-0.0000308
 2,0.00000178,-0.00000211,0.00001391,-0.01818898,-0.02281831,-0.0028685
 1,0.00134440,0.00073621,-0.04660322,0.01831369,0.02285153,-0.00171366,
 0.00066696,0.00090113,0.00182793,0.00017989,0.00085582,-0.00015246,0.0
 0005224,0.00015565,0.00022281,0.00003826,0.00006678,-0.00005219,0.0000
 3791,-0.00001024,-0.00003649,-0.00007974,0.00003080,-0.00000234,0.0000
 0345,0.00000801,0.00001415,0.00000213,-0.00000907,-0.00001965,-0.00000
 425,0.00000359,-0.00000261,-0.00000381,0.00000282,-0.00000019,0.000004
 01,0.00000158,-0.00000258,0.00147617,-0.00282279,-0.00469309,0.0002456
 8,0.00062771,0.00098650,0.00007775,0.00157373,0.05687440,0.00040515,-0
 .00027402,0.00034817,-0.00235277,0.00180729,-0.00031084,0.00007192,-0.
 00015837,0.00012930,-0.00001782,0.00002124,0.00000149,0.00000389,-0.00
 002792,0.00000620,0.00000065,0.00000285,0.00000145,-0.00419601,0.00128
 610,0.00204102,-0.28506826,0.08219581,-0.00892921,-0.00293151,0.001207
 68,-0.00060383,0.00049397,-0.00045323,0.00025826,0.00075783,-0.0006437
 3,-0.00136823,-0.00000556,-0.00000238,-0.00002351,0.00000274,0.0000155
 0,0.00006951,0.00000029,0.00000106,-0.00000209,0.00003550,-0.00003994,
 -0.00000094,0.00000089,0.00000317,-0.00000114,-0.00000349,0.00000555,0
 .00001094,0.00000124,-0.00000412,-0.00000102,-0.00000063,0.00000213,0.
 00000331,-0.00000003,0.00000078,-0.00000204,0.00061955,-0.00005053,0.0
 0034268,0.00130452,0.00054541,0.00011323,-0.01755970,0.00678832,-0.000
 81882,0.30589554,0.00019059,0.00011360,0.00009639,0.00077876,-0.000204
 40,0.00050198,0.00015089,-0.00001575,-0.00001264,0.00003674,-0.0001480
 3,-0.00002221,-0.00000604,0.00006482,-0.00001402,-0.00000738,-0.000009
 93,-0.00000393,0.01770261,-0.00715856,-0.00086334,0.08088854,-0.079254
 29,0.00239202,0.01762298,-0.00709474,0.00199920,-0.00046665,0.00052789
 ,-0.00102290,-0.00065773,-0.00027823,0.00070460,-0.00000923,-0.0000216
 8,-0.00000164,-0.00005786,0.00001317,-0.00001049,-0.00000426,0.0000034
 5,0.00000871,-0.00003413,0.00009782,-0.00004455,-0.00000186,-0.0000121
 5,-0.00000213,0.00000529,-0.00001351,-0.00002813,-0.00000040,0.0000057
 2,0.00000366,0.00000595,-0.00000306,-0.00000622,-0.00000233,0.00000239
 ,0.00000433,0.00018516,0.00027295,0.00067723,0.00047091,-0.00118743,-0
 .00302123,-0.02428472,0.01009569,-0.00095484,-0.09243412,0.08495783,-0
 .00062296,0.00047846,-0.00027384,0.00503321,-0.00227767,0.00013208,-0.
 00029294,0.00006501,-0.00005479,0.00014549,-0.00017041,0.00018457,-0.0
 0011450,0.00012421,-0.00007073,-0.00000326,0.00000394,0.00002809,0.027
 54901,-0.00958321,-0.00167601,-0.01182922,0.00352061,-0.04695690,-0.02
 738459,0.00946874,-0.00288826,-0.00113707,0.00039162,0.00174819,-0.002
 23132,0.00081069,0.00047224,0.00000121,-0.00002008,0.00001509,-0.00002
 964,0.00003213,-0.00002995,-0.00000463,-0.00000247,0.00001342,-0.00006
 792,0.00018219,-0.00008943,0.00000248,-0.00001341,-0.00000501,0.000012
 83,-0.00002584,-0.00005373,-0.00000351,0.00001053,0.00000169,-0.000007
 45,0.00000291,-0.00000553,-0.00000056,0.00000006,0.00000309,-0.0005678
 3,0.00035832,0.00104708,0.00048867,-0.00289076,-0.00475504,0.00016155,
 0.00009208,-0.00054080,0.00971972,-0.00271872,0.05741094,0.00007418,0.
 00009977,-0.00011484,0.00020466,0.00006548,0.00021888,-0.00002042,-0.0
 0005186,0.00003580,0.00001525,-0.00001511,0.00003314,-0.00001208,0.000
 00054,-0.00000663,0.00000110,-0.00000286,0.00000970,0.00006213,0.00014
 832,0.00013959,0.00324282,0.00457138,-0.00014578,-0.14770868,-0.125450
 68,-0.00235897,0.00448999,0.00636165,0.00020872,-0.00012305,0.00003263
 ,0.00005353,0.00000980,-0.00000741,0.00000417,-0.00000077,0.00002436,0
 .00001642,-0.00000019,0.00000960,-0.00001468,-0.00001683,-0.00000282,-
 0.00000501,0.00000609,0.00000263,0.00000727,0.00000057,0.00000234,-0.0
 0000412,-0.00000523,0.00000071,-0.00000324,-0.00000165,0.00000148,0.00
 000056,0.00000247,0.00000373,-0.00000269,0.00005780,-0.00007800,0.0004
 7860,-0.00011642,-0.00013851,-0.00007136,0.00116330,0.00101267,-0.0009
 7423,0.00060108,0.00012682,0.00059428,0.15514077,0.00024329,0.00036087
 ,0.00011111,-0.00016205,-0.00034042,-0.00018694,-0.00000099,-0.0000431
 5,0.00004694,0.00001782,0.00000915,0.00002001,-0.00000950,-0.00000445,
 -0.00000908,0.00000230,0.00000138,0.00000867,0.00015662,0.00060094,-0.
 00097074,-0.01132181,-0.01556153,0.00097308,-0.12405629,-0.20926019,-0
 .00244958,-0.01079513,-0.01435965,-0.00116236,0.00014703,0.00009673,0.
 00005628,-0.00000340,0.00001316,0.00000964,-0.00000604,0.00001916,0.00
 001314,0.00000693,-0.00000125,-0.00000660,-0.00000470,-0.00000507,-0.0
 0000121,0.00000377,0.00000487,0.00000418,-0.00000004,0.00000157,-0.000
 00055,-0.00000230,0.00000061,-0.00000234,-0.00000316,0.00000230,0.0000
 0224,0.00000195,0.00000110,-0.00000178,-0.00010190,0.00053514,0.000671
 01,0.00007720,-0.00001968,0.00011438,0.00107627,-0.00085755,0.00302384
 ,0.00017352,0.00019215,-0.00050537,0.13674951,0.22919360,-0.00028491,-
 0.00052061,-0.00035958,0.00017886,0.00088614,0.00040160,0.00002147,-0.
 00007330,0.00003940,-0.00000162,0.00000945,-0.00001508,0.00000060,-0.0
 0000460,0.00000169,-0.00000066,0.00000020,-0.00000123,0.00077181,0.001
 09972,0.00171869,0.01852012,0.02334015,-0.00244715,-0.00253414,-0.0025
 2608,-0.04628122,-0.01788597,-0.02342331,-0.00165203,0.00002534,-0.000
 17890,-0.00001713,-0.00000965,-0.00001622,-0.00002044,-0.00000637,0.00
 000918,0.00002634,-0.00000712,-0.00000219,0.00000727,0.00001089,-0.000
 00611,0.00000139,-0.00000099,-0.00000299,-0.00000431,-0.00000001,0.000
 00083,0.00000254,0.00000198,-0.00000054,0.00000066,0.00000068,-0.00000
 032,0.00000058,-0.00000163,0.00000018,0.00000001,-0.00030589,-0.000543
 23,-0.00046935,0.00004004,-0.00008081,-0.00003107,-0.00121801,0.002755
 96,-0.00468818,-0.00025594,-0.00078022,0.00110448,0.00211232,0.0027322
 4,0.05615479,0.00006045,-0.00003583,-0.00007409,-0.00002846,0.00013218
 ,-0.00006960,-0.00003626,0.00004891,-0.00004736,-0.00003357,0.00003438
 ,-0.00004310,0.00001761,-0.00001219,0.00001178,-0.00000561,0.00000720,
 -0.00001466,0.00038608,-0.00032425,0.00036015,-0.00389733,0.00154360,-
 0.00039076,-0.27894718,0.08063955,-0.00726959,-0.00445057,0.00141216,0
 .00032946,0.00031408,-0.00018087,0.00003286,0.00000245,0.00000021,-0.0
 0000161,0.00001318,-0.00003029,-0.00002018,0.00000248,0.00000437,0.000
 00013,-0.00000256,-0.00001999,0.00000130,-0.00000173,0.00000459,-0.000
 00266,0.00000076,-0.00000195,0.00001119,0.00000255,-0.00001090,0.00000
 285,0.00000602,-0.00000291,0.00000364,0.00000184,0.00000124,-0.0000020
 8,-0.00009839,0.00007771,0.00001656,0.00014422,-0.00017860,-0.00075759
 ,0.00062607,0.00017266,-0.00025227,0.00157974,0.00035895,-0.00049986,-
 0.01871666,0.00637091,-0.00062166,0.30084534,-0.00022806,-0.00005374,-
 0.00001358,0.00050525,-0.00018749,-0.00027132,-0.00003654,-0.00000776,
 0.00000800,0.00001621,0.00002461,0.00000422,-0.00000935,-0.00000411,-0
 .00000226,0.00000225,0.00000464,0.00000316,-0.00030327,0.00028621,-0.0
 0093827,0.01828639,-0.00726797,0.00179176,0.07918640,-0.07788787,0.002
 80582,0.01769154,-0.00669947,-0.00027412,-0.00030438,0.00016228,0.0002
 2778,-0.00000860,-0.00000374,0.00000019,-0.00000424,0.00000554,0.00000
 124,-0.00000035,-0.00000792,0.00001162,0.00000631,0.00000491,0.0000021
 3,-0.00000147,-0.00000189,-0.00000219,0.00000090,0.00000123,0.00000078
 ,0.00000207,0.00000081,-0.00000095,-0.00000307,0.00000064,0.00000053,-
 0.00000254,-0.00000356,0.00000289,-0.00013848,-0.00001294,0.00010884,-
 0.00018892,0.00049398,0.00030371,0.00014101,0.00021505,-0.00077536,0.0
 0027806,-0.00128209,0.00311147,-0.02449171,0.00944156,-0.00088000,-0.0
 9054770,0.08337710,0.00011222,-0.00012353,0.00002901,-0.00072851,0.000
 68472,0.00029873,0.00004951,-0.00007739,0.00004246,-0.00002200,0.00002
 261,-0.00002894,0.00001529,-0.00001462,0.00000634,-0.00000188,0.000000
 96,-0.00000468,-0.00136077,0.00053821,0.00166786,-0.02800020,0.0097414
 8,-0.00370130,-0.00695898,0.00287676,-0.04647542,0.02779660,-0.0100698
 0,-0.00042235,0.00055749,-0.00032739,-0.00044662,0.00000051,0.00000401
 ,-0.00000312,0.00000267,0.00000672,0.00002463,0.00000300,0.00000426,-0
 .00000723,0.00000372,-0.00002312,0.00000712,0.00000014,0.00000294,0.00
 000023,-0.00000067,0.00000196,0.00000878,0.00000072,-0.00000592,-0.000
 00057,0.00000225,-0.00000025,0.00000309,0.00000110,0.00000071,-0.00000
 232,0.00001150,-0.00006171,-0.00003916,0.00056242,-0.00032856,-0.00048
 228,0.00059707,-0.00053511,0.00112136,-0.00009217,0.00294994,-0.004567
 73,-0.00028343,0.00005610,-0.00079941,0.00772751,-0.00308507,0.0564421
 3,-0.00001477,-0.00003330,0.00000971,-0.00006257,0.00018966,0.00003856
 ,0.00002031,-0.00005287,0.00004784,0.00000524,-0.00000601,0.00000187,-
 0.00000270,0.00000168,-0.00000322,0.00000097,0.00000039,0.00000189,0.0
 0057360,-0.00010320,0.00032829,-0.00004297,0.00085064,0.00088528,-0.00
 048014,-0.00429899,0.00563504,-0.05265007,0.02049638,-0.03129332,0.000
 05799,-0.00003613,-0.00001698,-0.00000015,-0.00000586,-0.00000235,-0.0
 0000309,0.00001672,0.00001825,-0.00000105,-0.00000005,0.00000121,0.000
 00058,0.00000324,-0.00000211,-0.00000042,-0.00000107,-0.00000010,0.000
 00041,0.00000039,-0.00000158,0.00000047,0.00000180,-0.00000051,-0.0000
 0105,0.00000059,-0.00000019,-0.00000067,-0.00000109,0.00000095,-0.0000
 1739,0.00002702,0.00004885,-0.00000748,-0.00006223,-0.00008140,0.00004
 728,0.00033344,-0.00026519,0.00032453,-0.00020131,0.00033138,0.0000339
 3,0.00006299,-0.00048464,0.00006568,-0.00050675,-0.00003430,0.05219915
 ,0.00006302,0.00014932,0.00003961,0.00015279,-0.00057248,-0.00018984,-
 0.00003824,0.00014747,-0.00013504,-0.00001991,0.00001126,-0.00000214,0
 .00000993,0.00000037,0.00000433,-0.00000208,-0.00000184,-0.00000315,-0
 .00003104,0.00078885,-0.00094990,0.00079566,-0.00219213,-0.00273691,-0
 .00341797,0.01162954,-0.01743024,0.02047154,-0.12862740,0.12380867,-0.
 00011355,0.00009540,0.00003877,-0.00000064,0.00000292,0.00000685,0.000
 00709,-0.00004583,-0.00005191,0.00000264,-0.00000081,-0.00000025,0.000
 00279,-0.00000163,0.00000331,-0.00000178,0.00000091,-0.00000045,-0.000
 00093,-0.00000059,0.00000246,0.00000121,-0.00000116,0.00000067,0.00000
 188,-0.00000082,0.00000005,0.00000051,-0.00000005,-0.00000007,-0.00005
 396,0.00004925,0.00007713,0.00001407,0.00004446,0.00004186,0.00026374,
 0.00012695,-0.00020702,-0.00012967,-0.00015960,-0.00005237,-0.00040704
 ,0.00076458,0.00074873,-0.00007321,0.00068378,0.00087176,-0.02298989,0
 .13685314,0.00017060,0.00027958,-0.00017182,0.00023563,-0.00103695,0.0
 0039840,-0.00006517,0.00027109,-0.00025204,-0.00005786,-0.00001107,-0.
 00003629,0.00003283,0.00001659,0.00003329,-0.00001185,-0.00000954,-0.0
 0002659,-0.00028046,0.00121648,-0.00131148,0.00146212,-0.00471110,-0.0
 0305991,-0.00405929,0.01559732,-0.02050946,-0.03089409,0.12241433,-0.2
 3195465,-0.00023599,0.00016467,-0.00017689,0.00001312,0.00000368,0.000
 01797,0.00002526,-0.00008663,-0.00009572,-0.00000174,0.00000430,0.0000
 0783,-0.00000757,0.00001723,0.00000739,-0.00000418,-0.00000310,-0.0000
 0271,-0.00000044,-0.00000373,-0.00000342,0.00000119,-0.00000043,0.0000
 0778,0.00001370,-0.00001091,-0.00001051,0.00000153,0.00000378,0.000004
 26,-0.00006239,-0.00000317,-0.00002281,0.00004866,0.00003489,-0.000015
 02,0.00008340,-0.00013527,0.00028261,0.00001004,-0.00017787,0.00028947
 ,-0.00059817,-0.00004383,0.00074581,0.00049742,0.00025072,0.00076285,0
 .03312637,-0.13213127,0.25299810,0.00002663,0.00007930,0.00002892,-0.0
 0003789,-0.00020085,-0.00004296,-0.00000247,0.00002972,-0.00002421,0.0
 0000169,-0.00000346,0.00000399,-0.00000132,0.00000006,-0.00000140,0.00
 000061,-0.00000121,0.00000167,0.00012755,0.00027065,-0.00013147,0.0000
 7899,0.00012426,-0.00023149,0.00467180,0.00644806,0.00032005,-0.149857
 69,-0.13040666,-0.00543210,-0.00000660,0.00006562,-0.00000124,-0.00000
 182,0.00000381,0.00000436,0.00000074,-0.00000616,-0.00000855,0.0000023
 1,-0.00000220,0.00000074,0.00000039,0.00000308,-0.00000151,0.00000041,
 0.00000023,0.00000065,-0.00000055,0.00000059,-0.00000148,-0.00000008,0
 .00000165,-0.00000090,-0.00000068,-0.00000011,-0.00000055,0.00000032,0
 .00000012,0.00000092,-0.00004921,0.00001494,0.00008932,-0.00001507,0.0
 0002178,0.00002509,0.00005326,-0.00011371,-0.00042446,-0.00009115,-0.0
 0015664,0.00002466,0.00097164,0.00116992,0.00160514,0.00061774,0.00007
 094,-0.00070378,0.00292036,0.00514025,0.00078819,0.15840667,0.00012019
 ,0.00012679,-0.00005588,-0.00005749,-0.00018117,0.00015647,-0.00000504
 ,0.00003197,-0.00003738,-0.00000813,-0.00001146,-0.00000116,0.00000523
 ,0.00000344,0.00000613,-0.00000322,-0.00000365,-0.00000413,0.00026647,
 0.00028568,0.00006972,0.00014574,0.00069007,0.00101481,-0.01123470,-0.
 01550446,-0.00083285,-0.12981996,-0.21328426,-0.00595241,-0.00002206,0
 .00005722,-0.00006784,0.00000598,0.00000117,0.00000767,0.00000256,-0.0
 0001160,-0.00001308,0.00000044,0.00000371,-0.00000358,-0.00000697,0.00
 000274,-0.00000079,0.00000193,0.00000147,0.00000209,-0.00000021,-0.000
 00026,-0.00000246,-0.00000196,-0.00000039,0.00000090,0.00000330,-0.000
 00246,-0.00000196,0.00000213,0.00000316,-0.00000047,-0.00000033,0.0000
 6489,0.00022446,-0.00000055,-0.00004205,-0.00000894,-0.00006270,0.0005
 6796,-0.00065877,0.00008560,-0.00001301,-0.00008667,0.00141357,-0.0008
 9212,-0.00328543,0.00026091,0.00013595,0.00044508,-0.01048936,-0.01342
 484,-0.00119607,0.14234866,0.23148090,0.00007913,0.00012418,0.00006044
 ,-0.00004767,-0.00006408,-0.00011415,-0.00000221,-0.00001668,0.0000239
 4,0.00001042,-0.00000130,0.00001162,-0.00000617,-0.00000148,-0.0000072
 7,0.00000164,0.00000059,0.00000625,0.00015894,0.00008154,0.00008638,-0
 .00091003,-0.00112307,0.00172358,-0.01814174,-0.02241200,-0.00208941,-
 0.00473259,-0.00509197,-0.04723876,0.00001055,0.00003985,0.00002905,-0
 .00000004,0.00000118,0.00000170,-0.00000434,0.00000758,0.00000745,0.00
 000276,-0.00000069,-0.00000583,-0.00000257,-0.00000319,-0.00000198,0.0
 0000158,0.00000198,0.00000213,0.00000016,0.00000104,-0.00000037,-0.000
 00072,0.00000051,-0.00000184,-0.00000214,0.00000220,0.00000173,0.00000
 063,-0.00000022,-0.00000142,0.00006577,0.00019377,0.00012778,-0.000020
 79,-0.00003246,0.00003340,0.00039874,0.00051632,-0.00046774,-0.0000351
 0,0.00009670,-0.00003893,0.00123554,-0.00311264,-0.00453162,0.00012114
 ,0.00080487,0.00110268,0.01793127,0.02064324,0.00166795,0.00452218,0.0
 0984145,0.05088872,0.00002767,-0.00007521,0.00003951,-0.00020073,0.000
 20334,-0.00004047,0.00002351,-0.00004001,0.00004423,-0.00000132,0.0000
 0294,-0.00000996,0.00000076,-0.00000246,-0.00000199,-0.00000098,0.0000
 0263,-0.00000074,0.00042664,-0.00019368,0.00008194,0.00031548,-0.00028
 148,-0.00043061,-0.00480505,0.00178022,0.00006531,-0.28673035,0.083240
 49,-0.00292860,0.00015743,-0.00008777,0.00000090,-0.00000147,0.0000009
 8,-0.00000339,-0.00000284,0.00001020,0.00001515,0.00000010,0.00000189,
 -0.00000312,-0.00000079,-0.00000610,0.00000045,0.00000055,0.00000194,-
 0.00000036,0.00000052,-0.00000135,0.00000325,-0.00000004,-0.00000376,0
 .00000031,0.00000020,0.00000112,0.00000277,0.00000068,0.00000057,-0.00
 000232,-0.00001576,0.00000388,-0.00001242,0.00000863,-0.00006839,-0.00
 020736,-0.00009761,0.00009172,0.00001880,0.00012790,-0.00019956,0.0007
 3279,0.00064438,0.00020730,0.00032996,0.00153203,0.00058811,0.00074298
 ,-0.00296598,0.00035279,-0.00023088,-0.01781656,0.00704995,-0.00063434
 ,0.30937302,0.00001425,0.00001846,-0.00004500,0.00000728,-0.00003025,0
 .00014446,0.00000313,0.00001412,-0.00002267,-0.00000288,-0.00001415,-0
 .00000051,0.00000356,0.00000775,0.00000540,-0.00000159,-0.00000443,-0.
 00000327,-0.00016986,-0.00000081,0.00011884,-0.00041895,0.00035775,0.0
 0092976,0.01865228,-0.00731778,-0.00002029,0.08268353,-0.07635515,0.00
 172275,-0.00008778,0.00001544,-0.00007231,0.00000422,-0.00000277,0.000
 00148,0.00000085,-0.00000528,-0.00000705,-0.00000262,-0.00000015,0.000
 00243,0.00000064,0.00000826,-0.00000018,-0.00000119,-0.00000255,-0.000
 00060,-0.00000033,-0.00000022,-0.00000320,0.00000017,0.00000265,0.0000
 0115,0.00000186,-0.00000162,-0.00000336,-0.00000049,0.00000013,0.00000
 152,0.00001599,-0.00004602,-0.00002667,-0.00005319,0.00002618,0.000137
 30,-0.00013505,-0.00000236,-0.00008613,-0.00020206,0.00050898,-0.00030
 599,0.00001884,0.00010620,0.00074211,0.00034916,-0.00141774,-0.0035557
 4,0.01680318,-0.00631903,-0.00071373,-0.02490264,0.00991460,-0.0004972
 2,-0.09258031,0.08053980,-0.00003989,0.00000815,0.00001628,0.00009951,
 -0.00002655,-0.00010582,0.00000152,-0.00001005,0.00001570,0.00001690,-
 0.00000274,0.00001660,-0.00000951,-0.00000125,-0.00000742,0.00000234,0
 .00000006,0.00000676,-0.00016667,-0.00004022,0.00008066,0.00131981,-0.
 00050707,0.00176354,0.02752930,-0.00909101,-0.00086576,-0.00400804,0.0
 0210511,-0.04709490,-0.00014111,0.00007291,0.00007154,-0.00000233,0.00
 000032,-0.00000250,-0.00000415,0.00000929,0.00000694,-0.00000009,-0.00
 000178,-0.00000042,0.00000216,0.00000189,-0.00000139,0.00000119,-0.000
 00068,0.00000110,-0.00000027,0.00000086,-0.00000135,-0.00000052,0.0000
 0206,-0.00000142,-0.00000259,0.00000191,0.00000093,-0.00000070,-0.0000
 0044,-0.00000008,0.00002896,-0.00001709,0.00002236,-0.00016902,0.00012
 890,0.00010722,-0.00002961,0.00010263,-0.00004152,-0.00061043,0.000250
 29,-0.00044376,-0.00056538,0.00061016,0.00111254,0.00095108,-0.0031966
 1,-0.00453615,-0.02622088,0.00760312,0.00042566,-0.00040979,0.00044110
 ,-0.00127549,0.00242821,0.00155674,0.05073014\\0.00000029,-0.00000166,
 0.00000650,-0.00000040,-0.00000304,-0.00000981,-0.00000655,0.00000240,
 0.00000356,0.00000712,-0.00000372,0.00000205,0.00000307,0.00000019,0.0
 0000210,-0.00000106,-0.00000439,0.00000131,0.00000527,-0.00000466,-0.0
 0000980,0.00000035,0.00000836,0.00000680,-0.00000345,0.00000063,-0.000
 00062,-0.00000085,-0.00000110,-0.00000110,0.00000010,0.00000519,0.0000
 0767,0.00000079,0.00000226,-0.00000028,0.00000377,0.00000034,0.0000014
 1,0.00000130,-0.00000031,-0.00000093,-0.00000229,-0.00000011,-0.000001
 99,-0.00000266,0.00000091,-0.00000248,-0.00000186,0.00000217,-0.000000
 42,-0.00000308,-0.00000114,-0.00000033,-0.00000090,-0.00000005,-0.0000
 0136,0.00000028,-0.00000125,-0.00000109,-0.00000193,0.00000457,-0.0000
 0284,-0.00000158,0.00000068,0.00000317,0.00000089,-0.00000082,0.000000
 30,0.00000141,0.00000141,-0.00000116,0.00000008,-0.00000144,-0.0000000
 6,0.00000046,-0.00000339,-0.00000111,-0.00000072,-0.00000104,-0.000000
 05,0.00000173,-0.00000187,0.00000100,0.00000041,0.00000090,-0.00000044
 \\\@


 Boundary, n.  In political geography, an imaginary
 line between two nations, separating the imaginary
 rights of one from the imaginary rights of another.
                               -- Ambrose Bierce
 Job cpu time:       0 days  1 hours 55 minutes 51.4 seconds.
 Elapsed time:       0 days  0 hours  4 minutes 55.3 seconds.
 File lengths (MBytes):  RWF=    364 Int=      0 D2E=      0 Chk=     13 Scr=      1
 Normal termination of Gaussian 16 at Sun Oct 13 23:21:23 2019.
real 665.81
user 15594.40
sys 76.46
Machine:
brown-a329
brown-a329
brown-a329
brown-a329
brown-a329
brown-a329
brown-a329
brown-a329
brown-a329
brown-a329
brown-a329
brown-a329
brown-a329
brown-a329
brown-a329
brown-a329
brown-a329
brown-a329
brown-a329
brown-a329
brown-a329
brown-a329
brown-a329
brown-a329
