 Entering Gaussian System, Link 0=/apps/cent7/gaussian/g16-A.03/g16-haswell/g16/g16
 Initial command:
 /apps/cent7/gaussian/g16-A.03/g16-haswell/g16/l1.exe "/scratch/brown/finej/gaussian/Gau-78066.inp" -scrdir="/scratch/brown/finej/gaussian/"
 Entering Link 1 = /apps/cent7/gaussian/g16-A.03/g16-haswell/g16/l1.exe PID=     78068.
  
 Copyright (c) 1988,1990,1992,1993,1995,1998,2003,2009,2016,
            Gaussian, Inc.  All Rights Reserved.
  
 This is part of the Gaussian(R) 16 program.  It is based on
 the Gaussian(R) 09 system (copyright 2009, Gaussian, Inc.),
 the Gaussian(R) 03 system (copyright 2003, Gaussian, Inc.),
 the Gaussian(R) 98 system (copyright 1998, Gaussian, Inc.),
 the Gaussian(R) 94 system (copyright 1995, Gaussian, Inc.),
 the Gaussian 92(TM) system (copyright 1992, Gaussian, Inc.),
 the Gaussian 90(TM) system (copyright 1990, Gaussian, Inc.),
 the Gaussian 88(TM) system (copyright 1988, Gaussian, Inc.),
 the Gaussian 86(TM) system (copyright 1986, Carnegie Mellon
 University), and the Gaussian 82(TM) system (copyright 1983,
 Carnegie Mellon University). Gaussian is a federally registered
 trademark of Gaussian, Inc.
  
 This software contains proprietary and confidential information,
 including trade secrets, belonging to Gaussian, Inc.
  
 This software is provided under written license and may be
 used, copied, transmitted, or stored only in accord with that
 written license.
  
 The following legend is applicable only to US Government
 contracts under FAR:
  
                    RESTRICTED RIGHTS LEGEND
  
 Use, reproduction and disclosure by the US Government is
 subject to restrictions as set forth in subparagraphs (a)
 and (c) of the Commercial Computer Software - Restricted
 Rights clause in FAR 52.227-19.
  
 Gaussian, Inc.
 340 Quinnipiac St., Bldg. 40, Wallingford CT 06492
  
  
 ---------------------------------------------------------------
 Warning -- This program may not be used in any manner that
 competes with the business of Gaussian, Inc. or will provide
 assistance to any competitor of Gaussian, Inc.  The licensee
 of this program is prohibited from giving any competitor of
 Gaussian, Inc. access to this program.  By using this program,
 the user acknowledges that Gaussian, Inc. is engaged in the
 business of creating and licensing software in the field of
 computational chemistry and represents and warrants to the
 licensee that it is not a competitor of Gaussian, Inc. and that
 it will not use this program in any manner prohibited above.
 ---------------------------------------------------------------
  

 Cite this work as:
 Gaussian 16, Revision A.03,
 M. J. Frisch, G. W. Trucks, H. B. Schlegel, G. E. Scuseria, 
 M. A. Robb, J. R. Cheeseman, G. Scalmani, V. Barone, 
 G. A. Petersson, H. Nakatsuji, X. Li, M. Caricato, A. V. Marenich, 
 J. Bloino, B. G. Janesko, R. Gomperts, B. Mennucci, H. P. Hratchian, 
 J. V. Ortiz, A. F. Izmaylov, J. L. Sonnenberg, D. Williams-Young, 
 F. Ding, F. Lipparini, F. Egidi, J. Goings, B. Peng, A. Petrone, 
 T. Henderson, D. Ranasinghe, V. G. Zakrzewski, J. Gao, N. Rega, 
 G. Zheng, W. Liang, M. Hada, M. Ehara, K. Toyota, R. Fukuda, 
 J. Hasegawa, M. Ishida, T. Nakajima, Y. Honda, O. Kitao, H. Nakai, 
 T. Vreven, K. Throssell, J. A. Montgomery, Jr., J. E. Peralta, 
 F. Ogliaro, M. J. Bearpark, J. J. Heyd, E. N. Brothers, K. N. Kudin, 
 V. N. Staroverov, T. A. Keith, R. Kobayashi, J. Normand, 
 K. Raghavachari, A. P. Rendell, J. C. Burant, S. S. Iyengar, 
 J. Tomasi, M. Cossi, J. M. Millam, M. Klene, C. Adamo, R. Cammi, 
 J. W. Ochterski, R. L. Martin, K. Morokuma, O. Farkas, 
 J. B. Foresman, and D. J. Fox, Gaussian, Inc., Wallingford CT, 2016.
 
 ******************************************
 Gaussian 16:  ES64L-G16RevA.03 25-Dec-2016
                13-Oct-2019 
 ******************************************
 %chk=30_p.chk
 %nprocshared=24
 Will use up to   24 processors via shared memory.
 %mem=80GB
 -------------------------------------------------------------------
 #P opt freq m062x/6-311++g(d,p) geom=connectivity temperature=0.001
 -------------------------------------------------------------------
 1/18=20,19=15,26=3,38=1,57=2,112=-1000/1,3;
 2/9=110,12=2,17=6,18=5,40=1/2;
 3/5=4,6=6,7=1111,11=2,25=1,30=1,71=1,74=-55/1,2,3;
 4//1;
 5/5=2,38=5/2;
 6/7=2,8=2,9=2,10=2,28=1/1;
 7//1,2,3,16;
 1/18=20,19=15,26=3/3(2);
 2/9=110/2;
 99//99;
 2/9=110/2;
 3/5=4,6=6,7=1111,11=2,25=1,30=1,71=1,74=-55/1,2,3;
 4/5=5,16=3,69=1/1;
 5/5=2,38=5/2;
 7//1,2,3,16;
 1/18=20,19=15,26=3/3(-5);
 2/9=110/2;
 6/7=2,8=2,9=2,10=2,19=2,28=1/1;
 99/9=1/99;
 Leave Link    1 at Sun Oct 13 23:10:25 2019, MaxMem= 10737418240 cpu:               1.1 elap:               0.1
 (Enter /apps/cent7/gaussian/g16-A.03/g16-haswell/g16/l101.exe)
 -------------------
 Title Card Required
 -------------------
 Symbolic Z-matrix:
 Charge =  1 Multiplicity = 1
 O                     0.6932    3.9776   -2.7631 
 S                    -0.3548    2.763    -2.7494 
 C                    -0.1029    1.73     -4.2457 
 C                     1.3196    1.1179   -4.2811 
 C                     1.5822    0.2322   -5.5267 
 C                     3.0063   -0.3689   -5.5184 
 C                    -0.1226    1.7679   -1.2247 
 C                    -0.3176    2.6013    0.0647 
 C                    -0.1087    1.7531    1.3497 
 C                    -0.2906    2.5828    2.6387 
 O                    -1.8414    3.3653   -2.7719 
 H                    -0.7492    0.854    -4.1913 
 H                    -0.1215    2.3669   -5.1301 
 H                     2.0052    1.9612   -4.3639 
 H                     1.3784    0.4501   -3.4216 
 H                     0.8958   -0.6113   -5.4527 
 H                     1.5379    0.8968   -6.3896 
 H                     3.3359   -0.508    -4.4888 
 H                     2.9975   -1.3312   -6.0302 
 H                     3.6897    0.3086   -6.0302 
 H                    -0.9188    1.0265   -1.1571 
 H                     0.9196    1.4561   -1.1567 
 H                     0.473     3.3517    0.0624 
 H                    -1.3628    2.9108    0.0698 
 H                    -0.9045    1.0082    1.3565 
 H                     0.9342    1.4364    1.3402 
 H                    -0.4105    1.9115    3.489 
 H                     0.5865    3.2114    2.793 
 H                    -1.1761    3.2114    2.5443 
 H                     1.63624   3.79794  -2.76107 
 
 ITRead=  0  0  0  0  0  0  0  0  0  0  0  0  0  0  0  0  0  0  0  0
 ITRead=  0  0  0  0  0  0  0  0  0  0
 MicOpt= -1 -1 -1 -1 -1 -1 -1 -1 -1 -1 -1 -1 -1 -1 -1 -1 -1 -1 -1 -1
 MicOpt= -1 -1 -1 -1 -1 -1 -1 -1 -1 -1
 NAtoms=     30 NQM=       30 NQMF=       0 NMMI=      0 NMMIF=      0
                NMic=       0 NMicF=      0.
                    Isotopes and Nuclear Properties:
 (Nuclear quadrupole moments (NQMom) in fm**2, nuclear magnetic moments (NMagM)
  in nuclear magnetons)

  Atom         1           2           3           4           5           6           7           8           9          10
 IAtWgt=          16          32          12          12          12          12          12          12          12          12
 AtmWgt=  15.9949146  31.9720718  12.0000000  12.0000000  12.0000000  12.0000000  12.0000000  12.0000000  12.0000000  12.0000000
 NucSpn=           0           0           0           0           0           0           0           0           0           0
 AtZEff=  -0.0000000  -0.0000000  -0.0000000  -0.0000000  -0.0000000  -0.0000000  -0.0000000  -0.0000000  -0.0000000  -0.0000000
 NQMom=    0.0000000   0.0000000   0.0000000   0.0000000   0.0000000   0.0000000   0.0000000   0.0000000   0.0000000   0.0000000
 NMagM=    0.0000000   0.0000000   0.0000000   0.0000000   0.0000000   0.0000000   0.0000000   0.0000000   0.0000000   0.0000000
 AtZNuc=   8.0000000  16.0000000   6.0000000   6.0000000   6.0000000   6.0000000   6.0000000   6.0000000   6.0000000   6.0000000

  Atom        11          12          13          14          15          16          17          18          19          20
 IAtWgt=          16           1           1           1           1           1           1           1           1           1
 AtmWgt=  15.9949146   1.0078250   1.0078250   1.0078250   1.0078250   1.0078250   1.0078250   1.0078250   1.0078250   1.0078250
 NucSpn=           0           1           1           1           1           1           1           1           1           1
 AtZEff=  -0.0000000  -0.0000000  -0.0000000  -0.0000000  -0.0000000  -0.0000000  -0.0000000  -0.0000000  -0.0000000  -0.0000000
 NQMom=    0.0000000   0.0000000   0.0000000   0.0000000   0.0000000   0.0000000   0.0000000   0.0000000   0.0000000   0.0000000
 NMagM=    0.0000000   2.7928460   2.7928460   2.7928460   2.7928460   2.7928460   2.7928460   2.7928460   2.7928460   2.7928460
 AtZNuc=   8.0000000   1.0000000   1.0000000   1.0000000   1.0000000   1.0000000   1.0000000   1.0000000   1.0000000   1.0000000

  Atom        21          22          23          24          25          26          27          28          29          30
 IAtWgt=           1           1           1           1           1           1           1           1           1           1
 AtmWgt=   1.0078250   1.0078250   1.0078250   1.0078250   1.0078250   1.0078250   1.0078250   1.0078250   1.0078250   1.0078250
 NucSpn=           1           1           1           1           1           1           1           1           1           1
 AtZEff=  -0.0000000  -0.0000000  -0.0000000  -0.0000000  -0.0000000  -0.0000000  -0.0000000  -0.0000000  -0.0000000  -0.0000000
 NQMom=    0.0000000   0.0000000   0.0000000   0.0000000   0.0000000   0.0000000   0.0000000   0.0000000   0.0000000   0.0000000
 NMagM=    2.7928460   2.7928460   2.7928460   2.7928460   2.7928460   2.7928460   2.7928460   2.7928460   2.7928460   2.7928460
 AtZNuc=   1.0000000   1.0000000   1.0000000   1.0000000   1.0000000   1.0000000   1.0000000   1.0000000   1.0000000   1.0000000
 Leave Link  101 at Sun Oct 13 23:10:25 2019, MaxMem= 10737418240 cpu:               9.5 elap:               0.4
 (Enter /apps/cent7/gaussian/g16-A.03/g16-haswell/g16/l103.exe)

 GradGradGradGradGradGradGradGradGradGradGradGradGradGradGradGradGradGrad
 Berny optimization.
 Initialization pass.
                           ----------------------------
                           !    Initial Parameters    !
                           ! (Angstroms and Degrees)  !
 --------------------------                            --------------------------
 ! Name  Definition              Value          Derivative Info.                !
 --------------------------------------------------------------------------------
 ! R1    R(1,2)                  1.6043         estimate D2E/DX2                !
 ! R2    R(1,30)                 0.96           estimate D2E/DX2                !
 ! R3    R(2,3)                  1.8356         estimate D2E/DX2                !
 ! R4    R(2,7)                  1.8354         estimate D2E/DX2                !
 ! R5    R(2,11)                 1.6041         estimate D2E/DX2                !
 ! R6    R(3,4)                  1.549          estimate D2E/DX2                !
 ! R7    R(3,12)                 1.09           estimate D2E/DX2                !
 ! R8    R(3,13)                 1.09           estimate D2E/DX2                !
 ! R9    R(4,5)                  1.5508         estimate D2E/DX2                !
 ! R10   R(4,14)                 1.09           estimate D2E/DX2                !
 ! R11   R(4,15)                 1.09           estimate D2E/DX2                !
 ! R12   R(5,6)                  1.5458         estimate D2E/DX2                !
 ! R13   R(5,16)                 1.09           estimate D2E/DX2                !
 ! R14   R(5,17)                 1.0901         estimate D2E/DX2                !
 ! R15   R(6,18)                 1.09           estimate D2E/DX2                !
 ! R16   R(6,19)                 1.09           estimate D2E/DX2                !
 ! R17   R(6,20)                 1.0899         estimate D2E/DX2                !
 ! R18   R(7,8)                  1.5476         estimate D2E/DX2                !
 ! R19   R(7,21)                 1.09           estimate D2E/DX2                !
 ! R20   R(7,22)                 1.09           estimate D2E/DX2                !
 ! R21   R(8,9)                  1.5538         estimate D2E/DX2                !
 ! R22   R(8,23)                 1.09           estimate D2E/DX2                !
 ! R23   R(8,24)                 1.0901         estimate D2E/DX2                !
 ! R24   R(9,10)                 1.5437         estimate D2E/DX2                !
 ! R25   R(9,25)                 1.0901         estimate D2E/DX2                !
 ! R26   R(9,26)                 1.09           estimate D2E/DX2                !
 ! R27   R(10,27)                1.09           estimate D2E/DX2                !
 ! R28   R(10,28)                1.0901         estimate D2E/DX2                !
 ! R29   R(10,29)                1.09           estimate D2E/DX2                !
 ! A1    A(2,1,30)             120.0            estimate D2E/DX2                !
 ! A2    A(1,2,3)              109.2356         estimate D2E/DX2                !
 ! A3    A(1,2,7)              109.5675         estimate D2E/DX2                !
 ! A4    A(1,2,11)             108.7235         estimate D2E/DX2                !
 ! A5    A(3,2,7)              110.774          estimate D2E/DX2                !
 ! A6    A(3,2,11)             109.0891         estimate D2E/DX2                !
 ! A7    A(7,2,11)             109.4178         estimate D2E/DX2                !
 ! A8    A(2,3,4)              111.5324         estimate D2E/DX2                !
 ! A9    A(2,3,12)             109.2826         estimate D2E/DX2                !
 ! A10   A(2,3,13)             109.2822         estimate D2E/DX2                !
 ! A11   A(4,3,12)             103.1842         estimate D2E/DX2                !
 ! A12   A(4,3,13)             103.1804         estimate D2E/DX2                !
 ! A13   A(12,3,13)            119.9982         estimate D2E/DX2                !
 ! A14   A(3,4,5)              113.5497         estimate D2E/DX2                !
 ! A15   A(3,4,14)             105.8811         estimate D2E/DX2                !
 ! A16   A(3,4,15)             105.8791         estimate D2E/DX2                !
 ! A17   A(5,4,14)             105.9231         estimate D2E/DX2                !
 ! A18   A(5,4,15)             105.9205         estimate D2E/DX2                !
 ! A19   A(14,4,15)            119.9975         estimate D2E/DX2                !
 ! A20   A(4,5,6)              111.9491         estimate D2E/DX2                !
 ! A21   A(4,5,16)             106.3083         estimate D2E/DX2                !
 ! A22   A(4,5,17)             106.3036         estimate D2E/DX2                !
 ! A23   A(6,5,16)             106.1923         estimate D2E/DX2                !
 ! A24   A(6,5,17)             106.1871         estimate D2E/DX2                !
 ! A25   A(16,5,17)            119.997          estimate D2E/DX2                !
 ! A26   A(5,6,18)             109.4682         estimate D2E/DX2                !
 ! A27   A(5,6,19)             109.4726         estimate D2E/DX2                !
 ! A28   A(5,6,20)             109.4759         estimate D2E/DX2                !
 ! A29   A(18,6,19)            109.4701         estimate D2E/DX2                !
 ! A30   A(18,6,20)            109.4678         estimate D2E/DX2                !
 ! A31   A(19,6,20)            109.4727         estimate D2E/DX2                !
 ! A32   A(2,7,8)              112.5942         estimate D2E/DX2                !
 ! A33   A(2,7,21)             109.1392         estimate D2E/DX2                !
 ! A34   A(2,7,22)             109.1403         estimate D2E/DX2                !
 ! A35   A(8,7,21)             102.8598         estimate D2E/DX2                !
 ! A36   A(8,7,22)             102.8587         estimate D2E/DX2                !
 ! A37   A(21,7,22)            119.9991         estimate D2E/DX2                !
 ! A38   A(7,8,9)              112.217          estimate D2E/DX2                !
 ! A39   A(7,8,23)             106.1154         estimate D2E/DX2                !
 ! A40   A(7,8,24)             106.1174         estimate D2E/DX2                !
 ! A41   A(9,8,23)             106.2622         estimate D2E/DX2                !
 ! A42   A(9,8,24)             106.2621         estimate D2E/DX2                !
 ! A43   A(23,8,24)            119.9997         estimate D2E/DX2                !
 ! A44   A(8,9,10)             112.4149         estimate D2E/DX2                !
 ! A45   A(8,9,25)             106.2628         estimate D2E/DX2                !
 ! A46   A(8,9,26)             106.2628         estimate D2E/DX2                !
 ! A47   A(10,9,25)            106.0249         estimate D2E/DX2                !
 ! A48   A(10,9,26)            106.033          estimate D2E/DX2                !
 ! A49   A(25,9,26)            120.0018         estimate D2E/DX2                !
 ! A50   A(9,10,27)            109.4715         estimate D2E/DX2                !
 ! A51   A(9,10,28)            109.4707         estimate D2E/DX2                !
 ! A52   A(9,10,29)            109.473          estimate D2E/DX2                !
 ! A53   A(27,10,28)           109.4659         estimate D2E/DX2                !
 ! A54   A(27,10,29)           109.4735         estimate D2E/DX2                !
 ! A55   A(28,10,29)           109.4728         estimate D2E/DX2                !
 ! D1    D(30,1,2,3)           -60.4609         estimate D2E/DX2                !
 ! D2    D(30,1,2,7)            61.0531         estimate D2E/DX2                !
 ! D3    D(30,1,2,11)         -179.4077         estimate D2E/DX2                !
 ! D4    D(1,2,3,4)             61.2947         estimate D2E/DX2                !
 ! D5    D(1,2,3,12)           174.7358         estimate D2E/DX2                !
 ! D6    D(1,2,3,13)           -52.1416         estimate D2E/DX2                !
 ! D7    D(7,2,3,4)            -59.4859         estimate D2E/DX2                !
 ! D8    D(7,2,3,12)            53.9552         estimate D2E/DX2                !
 ! D9    D(7,2,3,13)          -172.9222         estimate D2E/DX2                !
 ! D10   D(11,2,3,4)          -179.986          estimate D2E/DX2                !
 ! D11   D(11,2,3,12)          -66.5448         estimate D2E/DX2                !
 ! D12   D(11,2,3,13)           66.5777         estimate D2E/DX2                !
 ! D13   D(1,2,7,8)             59.0842         estimate D2E/DX2                !
 ! D14   D(1,2,7,21)           172.637          estimate D2E/DX2                !
 ! D15   D(1,2,7,22)           -54.4679         estimate D2E/DX2                !
 ! D16   D(3,2,7,8)            179.6678         estimate D2E/DX2                !
 ! D17   D(3,2,7,21)           -66.7794         estimate D2E/DX2                !
 ! D18   D(3,2,7,22)            66.1158         estimate D2E/DX2                !
 ! D19   D(11,2,7,8)           -60.0278         estimate D2E/DX2                !
 ! D20   D(11,2,7,21)           53.525          estimate D2E/DX2                !
 ! D21   D(11,2,7,22)         -173.5798         estimate D2E/DX2                !
 ! D22   D(2,3,4,5)            179.8764         estimate D2E/DX2                !
 ! D23   D(2,3,4,14)           -64.329          estimate D2E/DX2                !
 ! D24   D(2,3,4,15)            64.0861         estimate D2E/DX2                !
 ! D25   D(12,3,4,5)            62.6799         estimate D2E/DX2                !
 ! D26   D(12,3,4,14)          178.4745         estimate D2E/DX2                !
 ! D27   D(12,3,4,15)          -53.1103         estimate D2E/DX2                !
 ! D28   D(13,3,4,5)           -62.9298         estimate D2E/DX2                !
 ! D29   D(13,3,4,14)           52.8648         estimate D2E/DX2                !
 ! D30   D(13,3,4,15)         -178.72           estimate D2E/DX2                !
 ! D31   D(3,4,5,6)           -179.5014         estimate D2E/DX2                !
 ! D32   D(3,4,5,16)           -63.9598         estimate D2E/DX2                !
 ! D33   D(3,4,5,17)            64.966          estimate D2E/DX2                !
 ! D34   D(14,4,5,6)            64.7288         estimate D2E/DX2                !
 ! D35   D(14,4,5,16)         -179.7296         estimate D2E/DX2                !
 ! D36   D(14,4,5,17)          -50.8038         estimate D2E/DX2                !
 ! D37   D(15,4,5,6)           -63.7355         estimate D2E/DX2                !
 ! D38   D(15,4,5,16)           51.8061         estimate D2E/DX2                !
 ! D39   D(15,4,5,17)         -179.2681         estimate D2E/DX2                !
 ! D40   D(4,5,6,18)            29.7546         estimate D2E/DX2                !
 ! D41   D(4,5,6,19)           149.7521         estimate D2E/DX2                !
 ! D42   D(4,5,6,20)           -90.2423         estimate D2E/DX2                !
 ! D43   D(16,5,6,18)          -85.8576         estimate D2E/DX2                !
 ! D44   D(16,5,6,19)           34.1399         estimate D2E/DX2                !
 ! D45   D(16,5,6,20)          154.1455         estimate D2E/DX2                !
 ! D46   D(17,5,6,18)          145.3581         estimate D2E/DX2                !
 ! D47   D(17,5,6,19)          -94.6444         estimate D2E/DX2                !
 ! D48   D(17,5,6,20)           25.3612         estimate D2E/DX2                !
 ! D49   D(2,7,8,9)           -179.5743         estimate D2E/DX2                !
 ! D50   D(2,7,8,23)           -63.9243         estimate D2E/DX2                !
 ! D51   D(2,7,8,24)            64.7747         estimate D2E/DX2                !
 ! D52   D(21,7,8,9)            63.0864         estimate D2E/DX2                !
 ! D53   D(21,7,8,23)          178.7364         estimate D2E/DX2                !
 ! D54   D(21,7,8,24)          -52.5646         estimate D2E/DX2                !
 ! D55   D(22,7,8,9)           -62.2344         estimate D2E/DX2                !
 ! D56   D(22,7,8,23)           53.4155         estimate D2E/DX2                !
 ! D57   D(22,7,8,24)         -177.8855         estimate D2E/DX2                !
 ! D58   D(7,8,9,10)           179.5232         estimate D2E/DX2                !
 ! D59   D(7,8,9,25)           -64.9211         estimate D2E/DX2                !
 ! D60   D(7,8,9,26)            63.9578         estimate D2E/DX2                !
 ! D61   D(23,8,9,10)           63.9622         estimate D2E/DX2                !
 ! D62   D(23,8,9,25)          179.5179         estimate D2E/DX2                !
 ! D63   D(23,8,9,26)          -51.6032         estimate D2E/DX2                !
 ! D64   D(24,8,9,10)          -64.9134         estimate D2E/DX2                !
 ! D65   D(24,8,9,25)           50.6423         estimate D2E/DX2                !
 ! D66   D(24,8,9,26)          179.5212         estimate D2E/DX2                !
 ! D67   D(8,9,10,27)          164.3998         estimate D2E/DX2                !
 ! D68   D(8,9,10,28)          -75.607          estimate D2E/DX2                !
 ! D69   D(8,9,10,29)           44.3957         estimate D2E/DX2                !
 ! D70   D(25,9,10,27)          48.7005         estimate D2E/DX2                !
 ! D71   D(25,9,10,28)         168.6938         estimate D2E/DX2                !
 ! D72   D(25,9,10,29)         -71.3035         estimate D2E/DX2                !
 ! D73   D(26,9,10,27)         -79.8962         estimate D2E/DX2                !
 ! D74   D(26,9,10,28)          40.0971         estimate D2E/DX2                !
 ! D75   D(26,9,10,29)         160.0998         estimate D2E/DX2                !
 --------------------------------------------------------------------------------
 Trust Radius=3.00D-01 FncErr=1.00D-07 GrdErr=1.00D-06 EigMax=2.50D+02 EigMin=1.00D-04
 Number of steps in this run=    169 maximum allowed number of steps=    180.
 GradGradGradGradGradGradGradGradGradGradGradGradGradGradGradGradGradGrad

 Leave Link  103 at Sun Oct 13 23:10:25 2019, MaxMem= 10737418240 cpu:               0.3 elap:               0.0
 (Enter /apps/cent7/gaussian/g16-A.03/g16-haswell/g16/l202.exe)
                          Input orientation:                          
 ---------------------------------------------------------------------
 Center     Atomic      Atomic             Coordinates (Angstroms)
 Number     Number       Type             X           Y           Z
 ---------------------------------------------------------------------
      1          8           0        0.693200    3.977600   -2.763100
      2         16           0       -0.354800    2.763000   -2.749400
      3          6           0       -0.102900    1.730000   -4.245700
      4          6           0        1.319600    1.117900   -4.281100
      5          6           0        1.582200    0.232200   -5.526700
      6          6           0        3.006300   -0.368900   -5.518400
      7          6           0       -0.122600    1.767900   -1.224700
      8          6           0       -0.317600    2.601300    0.064700
      9          6           0       -0.108700    1.753100    1.349700
     10          6           0       -0.290600    2.582800    2.638700
     11          8           0       -1.841400    3.365300   -2.771900
     12          1           0       -0.749200    0.854000   -4.191300
     13          1           0       -0.121500    2.366900   -5.130100
     14          1           0        2.005200    1.961200   -4.363900
     15          1           0        1.378400    0.450100   -3.421600
     16          1           0        0.895800   -0.611300   -5.452700
     17          1           0        1.537900    0.896800   -6.389600
     18          1           0        3.335900   -0.508000   -4.488800
     19          1           0        2.997500   -1.331200   -6.030200
     20          1           0        3.689700    0.308600   -6.030200
     21          1           0       -0.918800    1.026500   -1.157100
     22          1           0        0.919600    1.456100   -1.156700
     23          1           0        0.473000    3.351700    0.062400
     24          1           0       -1.362800    2.910800    0.069800
     25          1           0       -0.904500    1.008200    1.356500
     26          1           0        0.934200    1.436400    1.340200
     27          1           0       -0.410500    1.911500    3.489000
     28          1           0        0.586500    3.211400    2.793000
     29          1           0       -1.176100    3.211400    2.544300
     30          1           0        1.636237    3.797940   -2.761074
 ---------------------------------------------------------------------
                    Distance matrix (angstroms):
                    1          2          3          4          5
     1  O    0.000000
     2  S    1.604290   0.000000
     3  C    2.807772   1.835608   0.000000
     4  C    3.297664   2.802869   1.549008   0.000000
     5  C    4.738758   4.227329   2.593054   1.550788   0.000000
     6  C    5.642178   5.364061   3.961347   2.566407   1.545785
     7  C    2.813357   1.835443   3.021302   3.441514   4.875646
     8  C    3.303388   2.818987   4.402818   4.875128   6.362832
     9  C    4.744109   4.228840   5.595451   5.843751   7.242731
    10  C    5.665048   5.391495   6.939558   7.254124   8.700946
    11  O    2.607525   1.604136   2.805116   4.161780   5.396876
    12  H    3.725205   2.424646   1.089972   2.087496   2.757781
    13  H    2.976706   2.424677   1.090023   2.087480   2.759860
    14  H    2.889597   2.969696   2.124032   1.089981   2.126141
    15  H    3.653269   2.967380   2.124037   1.090025   2.126138
    16  H    5.322875   4.500859   2.817079   2.131287   1.090006
    17  H    4.832841   4.507335   2.825377   2.131270   1.090070
    18  H    5.484753   5.229361   4.110120   2.598491   2.168086
    19  H    6.645833   6.226077   4.708276   3.445692   2.168134
    20  H    5.754521   5.757231   4.425905   3.054782   2.168157
    21  H    3.726496   2.422591   3.271094   3.844238   5.096991
    22  H    2.998290   2.422556   3.265340   3.168005   4.586270
    23  H    2.902359   2.989655   4.639105   4.957074   6.496125
    24  H    3.659306   2.997632   4.648137   5.416649   6.867950
    25  H    5.323635   4.498879   5.705103   6.061451   7.359640
    26  H    4.832479   4.488454   5.688942   5.643491   7.001737
    27  H    6.676502   6.296490   7.742942   7.999844   9.384761
    28  H    5.609696   5.639619   7.225864   7.413708   8.892944
    29  H    5.678894   5.375766   7.032098   7.562893   9.034650
    30  H    0.960000   2.243984   3.083032   3.097314   4.512882
                    6          7          8          9         10
     6  C    0.000000
     7  C    5.726412   0.000000
     8  C    7.144327   1.547622   0.000000
     9  C    7.834341   2.574480   1.553804   0.000000
    10  C    9.280106   3.951980   2.574208   1.543700   0.000000
    11  O    6.707288   2.810656   3.309375   4.752791   5.682594
    12  H    4.166588   3.166790   4.620917   5.649894   7.060309
    13  H    4.173549   3.951070   5.203782   6.508819   7.773639
    14  H    2.786474   3.797298   5.041590   6.095663   7.395505
    15  H    2.778019   2.969169   4.433775   5.164744   6.637862
    16  H    2.125390   4.957188   6.498834   7.271317   8.779554
    17  H    2.125367   5.494749   6.928650   7.958725   9.364625
    18  H    1.089982   5.272124   6.614391   7.146043   8.573553
    19  H    1.089972   6.514006   7.975102   8.580461  10.063837
    20  H    1.089945   6.305237   7.646093   8.424805   9.806355
    21  H    6.031127   1.090036   2.081882   2.732811   4.150277
    22  H    5.168111   1.089965   2.081818   2.725372   4.139939
    23  H    7.169784   2.125979   1.090025   2.133316   2.794926
    24  H    7.814950   2.126040   1.090073   2.133350   2.802935
    25  H    8.028388   2.801982   2.133346   1.090055   2.121385
    26  H    7.388714   2.793820   2.133283   1.089968   2.121431
    27  H    9.899899   4.724667   3.494322   2.166282   1.089968
    28  H    9.367676   4.327635   2.938238   2.166346   1.090069
    29  H    9.763101   4.171201   2.694005   2.166345   1.090027
    30  H    5.180972   3.094351   3.637914   4.911683   5.860616
                   11         12         13         14         15
    11  O    0.000000
    12  H    3.084514   0.000000
    13  H    3.084796   1.887914   0.000000
    14  H    4.393437   2.973618   2.296630   0.000000
    15  H    4.391767   2.298316   2.973684   1.887917   0.000000
    16  H    5.521983   2.538555   3.163644   3.005663   2.341974
    17  H    5.531809   3.172567   2.549734   2.335546   3.005662
    18  H    6.689890   4.316433   4.542018   2.807723   2.426660
    19  H    7.489231   4.711095   4.920801   3.821140   3.549550
    20  H    7.110063   4.835581   4.424028   2.888803   3.488112
    21  H    2.988102   3.043828   4.268148   4.439257   3.276786
    22  H    3.725189   3.515141   4.207298   3.423417   2.520378
    23  H    3.659220   5.081953   5.318394   4.886027   4.623558
    24  H    2.917342   4.771153   5.373603   5.648262   5.075342
    25  H    4.845347   5.552115   6.673465   6.488262   5.324786
    26  H    5.322967   5.811241   6.621564   5.827453   4.883118
    27  H    6.584822   7.760157   8.635959   8.216211   7.286443
    28  H    6.073425   7.491454   7.999372   7.402495   6.846396
    29  H    5.359878   7.148978   7.792418   7.707587   7.052816
    30  H    3.504462   4.050017   3.278689   2.465522   3.422105
                   16         17         18         19         20
    16  H    0.000000
    17  H    1.887972   0.000000
    18  H    2.625617   2.969732   0.000000
    19  H    2.295410   2.687673   1.779912   0.000000
    20  H    2.997599   2.259511   1.779866   1.779911   0.000000
    21  H    4.942402   5.781977   5.617596   6.681561   6.745425
    22  H    4.767633   5.298901   4.560601   5.986461   5.721994
    23  H    6.804444   6.984902   6.618678   8.088413   7.531759
    24  H    6.928526   7.361665   7.385581   8.614916   8.337218
    25  H    7.226968   8.122795   7.378847   8.675352   8.726938
    26  H    7.094931   7.772093   6.597431   8.138772   7.949057
    27  H    9.382161  10.119912   9.139737  10.618132  10.487902
    28  H    9.093969   9.517493   8.626572  10.212590   9.793108
    29  H    9.102627   9.619654   9.146397  10.562964  10.277369
    30  H    5.218668   4.646771   4.941155   6.232840   5.203786
                   21         22         23         24         25
    21  H    0.000000
    22  H    1.887928   0.000000
    23  H    2.971673   2.297598   0.000000
    24  H    2.291944   2.971499   1.888017   0.000000
    25  H    2.513707   3.137536   3.010680   2.342119   0.000000
    26  H    3.136580   2.497020   2.348159   3.010645   1.887972
    27  H    4.756873   4.853770   3.820515   3.687330   2.368025
    28  H    4.758467   4.334993   2.736557   3.362432   3.023360
    29  H    4.305851   4.601134   2.983126   2.499673   2.517683
    30  H    4.096562   2.927763   3.086139   4.218422   5.585016
                   26         27         28         29         30
    26  H    0.000000
    27  H    2.579007   0.000000
    28  H    2.319946   1.779934   0.000000
    29  H    3.008961   1.779984   1.780059   0.000000
    30  H    4.784367   6.841871   5.682755   6.033262   0.000000
 Stoichiometry    C8H19O2S(1+)
 Framework group  C1[X(C8H19O2S)]
 Deg. of freedom    84
 Full point group                 C1      NOp   1
 Largest Abelian subgroup         C1      NOp   1
 Largest concise Abelian subgroup C1      NOp   1
                         Standard orientation:                         
 ---------------------------------------------------------------------
 Center     Atomic      Atomic             Coordinates (Angstroms)
 Number     Number       Type             X           Y           Z
 ---------------------------------------------------------------------
      1          8           0       -0.009304    1.312353    1.584970
      2         16           0       -0.004644    1.093303   -0.004288
      3          6           0        1.722885    0.853465   -0.576634
      4          6           0        2.366811   -0.399006    0.068424
      5          6           0        3.828496   -0.647861   -0.385988
      6          6           0        4.430124   -1.911853    0.269619
      7          6           0       -1.038648   -0.363026   -0.427128
      8          6           0       -2.504537   -0.208559    0.044511
      9          6           0       -3.369221   -1.450356   -0.308430
     10          6           0       -4.829657   -1.306058    0.170441
     11          8           0       -0.613032    2.401173   -0.706137
     12          1           0        1.719668    0.611874   -1.639489
     13          1           0        2.341785    1.670299   -0.205291
     14          1           0        2.417168   -0.191504    1.137286
     15          1           0        1.791643   -1.250679   -0.294880
     16          1           0        3.785944   -0.851371   -1.455982
     17          1           0        4.412136    0.194400   -0.014216
     18          1           0        3.635641   -2.631068    0.468584
     19          1           0        5.162696   -2.356779   -0.403743
     20          1           0        4.916147   -1.639097    1.206298
     21          1           0       -1.138013   -0.428296   -1.510661
     22          1           0       -0.690604   -1.225551    0.141150
     23          1           0       -2.468761   -0.160874    1.132905
     24          1           0       -2.919279    0.623816   -0.524173
     25          1           0       -3.412239   -1.493030   -1.396800
     26          1           0       -2.949170   -2.284494    0.253531
     27          1           0       -5.450738   -2.050085   -0.328270
     28          1           0       -4.875207   -1.458690    1.248810
     29          1           0       -5.194244   -0.307576   -0.070949
     30          1           0        0.330905    0.627165    2.164948
 ---------------------------------------------------------------------
 Rotational constants (GHZ):           1.3279858           0.3776918           0.3238411
 Leave Link  202 at Sun Oct 13 23:10:25 2019, MaxMem= 10737418240 cpu:               0.4 elap:               0.0
 (Enter /apps/cent7/gaussian/g16-A.03/g16-haswell/g16/l301.exe)
 Standard basis: 6-311++G(d,p) (5D, 7F)
 Ernie: Thresh=  0.10000D-02 Tol=  0.10000D-05 Strict=F.
 There are   394 symmetry adapted cartesian basis functions of A   symmetry.
 There are   383 symmetry adapted basis functions of A   symmetry.
   383 basis functions,   581 primitive gaussians,   394 cartesian basis functions
    49 alpha electrons       49 beta electrons
       nuclear repulsion energy       774.9884090458 Hartrees.
 IExCor= 4336 DFT=T Ex+Corr=M062X ExCW=0 ScaHFX=  0.540000
 ScaDFX=  1.000000  1.000000  1.000000  1.000000 ScalE2=  1.000000  1.000000
 IRadAn=      5 IRanWt=     -1 IRanGd=            0 ICorTp=0 IEmpDi=  4
 NAtoms=   30 NActive=   30 NUniq=   30 SFac= 1.00D+00 NAtFMM=   60 NAOKFM=F Big=F
 Integral buffers will be    131072 words long.
 Raffenetti 2 integral format.
 Two-electron integral symmetry is turned on.
 Leave Link  301 at Sun Oct 13 23:10:25 2019, MaxMem= 10737418240 cpu:               1.3 elap:               0.1
 (Enter /apps/cent7/gaussian/g16-A.03/g16-haswell/g16/l302.exe)
 NPDir=0 NMtPBC=     1 NCelOv=     1 NCel=       1 NClECP=     1 NCelD=      1
         NCelK=      1 NCelE2=     1 NClLst=     1 CellRange=     0.0.
 One-electron integrals computed using PRISM.
 One-electron integral symmetry used in STVInt
 NBasis=   383 RedAO= T EigKep=  4.76D-06  NBF=   383
 NBsUse=   383 1.00D-06 EigRej= -1.00D+00 NBFU=   383
 Precomputing XC quadrature grid using
 IXCGrd= 4 IRadAn=           5 IRanWt=          -1 IRanGd=           0 AccXCQ= 0.00D+00.
 Generated NRdTot=       0 NPtTot=           0 NUsed=           0 NTot=          32
 NSgBfM=   393   393   393   393   393 MxSgAt=    30 MxSgA2=    30.
 Leave Link  302 at Sun Oct 13 23:10:25 2019, MaxMem= 10737418240 cpu:               7.3 elap:               0.3
 (Enter /apps/cent7/gaussian/g16-A.03/g16-haswell/g16/l303.exe)
 DipDrv:  MaxL=1.
 Leave Link  303 at Sun Oct 13 23:10:26 2019, MaxMem= 10737418240 cpu:               1.2 elap:               0.1
 (Enter /apps/cent7/gaussian/g16-A.03/g16-haswell/g16/l401.exe)
 ExpMin= 3.60D-02 ExpMax= 9.34D+04 ExpMxC= 3.17D+03 IAcc=3 IRadAn=         5 AccDes= 0.00D+00
 Harris functional with IExCor= 1009 and IRadAn=       5 diagonalized for initial guess.
 HarFok:  IExCor= 1009 AccDes= 0.00D+00 IRadAn=         5 IDoV= 1 UseB2=F ITyADJ=14
 ICtDFT=  3500011 ScaDFX=  1.000000  1.000000  1.000000  1.000000
 FoFCou: FMM=F IPFlag=           0 FMFlag=      100000 FMFlg1=           0
         NFxFlg=           0 DoJE=T BraDBF=F KetDBF=T FulRan=T
         wScrn=  0.000000 ICntrl=       500 IOpCl=  0 I1Cent=   200000004 NGrid=           0
         NMat0=    1 NMatS0=      1 NMatT0=    0 NMatD0=    1 NMtDS0=    0 NMtDT0=    0
 Petite list used in FoFCou.
 Harris En= -864.315314702864    
 JPrj=0 DoOrth=F DoCkMO=F.
 Leave Link  401 at Sun Oct 13 23:10:27 2019, MaxMem= 10737418240 cpu:              21.9 elap:               1.0
 (Enter /apps/cent7/gaussian/g16-A.03/g16-haswell/g16/l502.exe)
 Integral symmetry usage will be decided dynamically.
 Closed shell SCF:
 Using DIIS extrapolation, IDIIS=  1040.
 NGot= 10737418240 LenX= 10737094295 LenY= 10736938618
 Requested convergence on RMS density matrix=1.00D-08 within 128 cycles.
 Requested convergence on MAX density matrix=1.00D-06.
 Requested convergence on             energy=1.00D-06.
 No special actions if energy rises.
 Fock matrices will be formed incrementally for  20 cycles.

 Cycle   1  Pass 1  IDiag  1:
 FoFJK:  IHMeth= 1 ICntrl=       0 DoSepK=F KAlg= 0 I1Cent=           0 FoldK=F
 IRaf= 880000000 NMat=       1 IRICut=       1 DoRegI=T DoRafI=F ISym2E= 0 IDoP0=0 IntGTp=1.
 FoFCou: FMM=F IPFlag=           0 FMFlag=      100000 FMFlg1=           0
         NFxFlg=           0 DoJE=F BraDBF=F KetDBF=F FulRan=T
         wScrn=  0.000000 ICntrl=         0 IOpCl=  0 I1Cent=           0 NGrid=           0
         NMat0=    1 NMatS0=      1 NMatT0=    0 NMatD0=    1 NMtDS0=    0 NMtDT0=    0
 Symmetry not used in FoFCou.
 E= -863.807964872913    
 DIIS: error= 2.69D-02 at cycle   1 NSaved=   1.
 NSaved= 1 IEnMin= 1 EnMin= -863.807964872913     IErMin= 1 ErrMin= 2.69D-02
 ErrMax= 2.69D-02  0.00D+00 EMaxC= 1.00D-01 BMatC= 7.94D-01 BMatP= 7.94D-01
 IDIUse=3 WtCom= 7.31D-01 WtEn= 2.69D-01
 Coeff-Com:  0.100D+01
 Coeff-En:   0.100D+01
 Coeff:      0.100D+01
 Gap=     0.235 Goal=   None    Shift=    0.000
 GapD=    0.235 DampG=1.000 DampE=0.500 DampFc=0.5000 IDamp=-1.
 Damping current iteration by 5.00D-01
 RMSDP=3.58D-02 MaxDP=4.26D+00              OVMax= 3.14D-01

 Cycle   2  Pass 1  IDiag  1:
 RMSU=  1.49D-02    CP:  1.47D+00
 E= -863.989257099987     Delta-E=       -0.181292227073 Rises=F Damp=T
 DIIS: error= 1.39D-02 at cycle   2 NSaved=   2.
 NSaved= 2 IEnMin= 2 EnMin= -863.989257099987     IErMin= 2 ErrMin= 1.39D-02
 ErrMax= 1.39D-02  0.00D+00 EMaxC= 1.00D-01 BMatC= 1.03D-01 BMatP= 7.94D-01
 IDIUse=3 WtCom= 8.61D-01 WtEn= 1.39D-01
 Coeff-Com:  0.158D+00 0.842D+00
 Coeff-En:   0.321D+00 0.679D+00
 Coeff:      0.180D+00 0.820D+00
 Gap=     0.327 Goal=   None    Shift=    0.000
 RMSDP=1.49D-02 MaxDP=1.71D+00 DE=-1.81D-01 OVMax= 2.57D-01

 Cycle   3  Pass 1  IDiag  1:
 RMSU=  5.43D-03    CP:  1.03D+00  3.12D-01
 E= -864.359919362384     Delta-E=       -0.370662262397 Rises=F Damp=F
 DIIS: error= 1.42D-02 at cycle   3 NSaved=   3.
 NSaved= 3 IEnMin= 3 EnMin= -864.359919362384     IErMin= 2 ErrMin= 1.39D-02
 ErrMax= 1.42D-02  0.00D+00 EMaxC= 1.00D-01 BMatC= 1.04D-01 BMatP= 1.03D-01
 IDIUse=3 WtCom= 8.58D-01 WtEn= 1.42D-01
 Coeff-Com:  0.139D-01 0.499D+00 0.487D+00
 Coeff-En:   0.000D+00 0.000D+00 0.100D+01
 Coeff:      0.119D-01 0.428D+00 0.560D+00
 Gap=     0.359 Goal=   None    Shift=    0.000
 RMSDP=6.52D-03 MaxDP=6.96D-01 DE=-3.71D-01 OVMax= 8.76D-02

 Cycle   4  Pass 1  IDiag  1:
 RMSU=  2.64D-03    CP:  1.21D+00  5.94D-01  6.97D-01
 E= -864.433230889331     Delta-E=       -0.073311526947 Rises=F Damp=F
 DIIS: error= 4.38D-03 at cycle   4 NSaved=   4.
 NSaved= 4 IEnMin= 4 EnMin= -864.433230889331     IErMin= 4 ErrMin= 4.38D-03
 ErrMax= 4.38D-03  0.00D+00 EMaxC= 1.00D-01 BMatC= 1.35D-02 BMatP= 1.03D-01
 IDIUse=3 WtCom= 9.56D-01 WtEn= 4.38D-02
 Coeff-Com: -0.177D-01 0.694D-01 0.284D+00 0.664D+00
 Coeff-En:   0.000D+00 0.000D+00 0.955D-01 0.905D+00
 Coeff:     -0.169D-01 0.663D-01 0.276D+00 0.675D+00
 Gap=     0.357 Goal=   None    Shift=    0.000
 RMSDP=2.07D-03 MaxDP=2.18D-01 DE=-7.33D-02 OVMax= 2.80D-02

 Cycle   5  Pass 1  IDiag  1:
 RMSU=  5.25D-04    CP:  1.16D+00  5.10D-01  8.43D-01  7.01D-01
 E= -864.443269180461     Delta-E=       -0.010038291131 Rises=F Damp=F
 DIIS: error= 9.70D-04 at cycle   5 NSaved=   5.
 NSaved= 5 IEnMin= 5 EnMin= -864.443269180461     IErMin= 5 ErrMin= 9.70D-04
 ErrMax= 9.70D-04  0.00D+00 EMaxC= 1.00D-01 BMatC= 6.30D-04 BMatP= 1.35D-02
 IDIUse=3 WtCom= 9.90D-01 WtEn= 9.70D-03
 Coeff-Com: -0.820D-02 0.407D-02 0.809D-01 0.293D+00 0.631D+00
 Coeff-En:   0.000D+00 0.000D+00 0.000D+00 0.000D+00 0.100D+01
 Coeff:     -0.812D-02 0.403D-02 0.801D-01 0.290D+00 0.634D+00
 Gap=     0.336 Goal=   None    Shift=    0.000
 RMSDP=3.24D-04 MaxDP=2.62D-02 DE=-1.00D-02 OVMax= 4.43D-03

 Cycle   6  Pass 1  IDiag  1:
 RMSU=  1.72D-04    CP:  1.16D+00  5.11D-01  8.13D-01  7.48D-01  6.57D-01
 E= -864.443775837772     Delta-E=       -0.000506657311 Rises=F Damp=F
 DIIS: error= 3.52D-04 at cycle   6 NSaved=   6.
 NSaved= 6 IEnMin= 6 EnMin= -864.443775837772     IErMin= 6 ErrMin= 3.52D-04
 ErrMax= 3.52D-04  0.00D+00 EMaxC= 1.00D-01 BMatC= 5.25D-05 BMatP= 6.30D-04
 IDIUse=3 WtCom= 9.96D-01 WtEn= 3.52D-03
 Coeff-Com: -0.100D-02-0.495D-02-0.190D-02 0.328D-01 0.255D+00 0.720D+00
 Coeff-En:   0.000D+00 0.000D+00 0.000D+00 0.000D+00 0.000D+00 0.100D+01
 Coeff:     -0.996D-03-0.493D-02-0.190D-02 0.327D-01 0.254D+00 0.721D+00
 Gap=     0.337 Goal=   None    Shift=    0.000
 RMSDP=1.40D-04 MaxDP=1.13D-02 DE=-5.07D-04 OVMax= 1.57D-03

 Cycle   7  Pass 1  IDiag  1:
 RMSU=  8.18D-05    CP:  1.16D+00  5.08D-01  8.23D-01  7.57D-01  8.19D-01
                    CP:  8.86D-01
 E= -864.443822693785     Delta-E=       -0.000046856013 Rises=F Damp=F
 DIIS: error= 1.57D-04 at cycle   7 NSaved=   7.
 NSaved= 7 IEnMin= 7 EnMin= -864.443822693785     IErMin= 7 ErrMin= 1.57D-04
 ErrMax= 1.57D-04  0.00D+00 EMaxC= 1.00D-01 BMatC= 7.00D-06 BMatP= 5.25D-05
 IDIUse=3 WtCom= 9.98D-01 WtEn= 1.57D-03
 Coeff-Com:  0.641D-03-0.281D-02-0.112D-01-0.210D-01 0.439D-01 0.318D+00
 Coeff-Com:  0.672D+00
 Coeff-En:   0.000D+00 0.000D+00 0.000D+00 0.000D+00 0.000D+00 0.000D+00
 Coeff-En:   0.100D+01
 Coeff:      0.640D-03-0.281D-02-0.112D-01-0.210D-01 0.439D-01 0.318D+00
 Coeff:      0.673D+00
 Gap=     0.337 Goal=   None    Shift=    0.000
 RMSDP=5.96D-05 MaxDP=5.62D-03 DE=-4.69D-05 OVMax= 6.21D-04

 Cycle   8  Pass 1  IDiag  1:
 RMSU=  2.07D-05    CP:  1.16D+00  5.06D-01  8.22D-01  7.52D-01  8.23D-01
                    CP:  9.76D-01  7.62D-01
 E= -864.443829826849     Delta-E=       -0.000007133064 Rises=F Damp=F
 DIIS: error= 2.66D-05 at cycle   8 NSaved=   8.
 NSaved= 8 IEnMin= 8 EnMin= -864.443829826849     IErMin= 8 ErrMin= 2.66D-05
 ErrMax= 2.66D-05  0.00D+00 EMaxC= 1.00D-01 BMatC= 3.82D-07 BMatP= 7.00D-06
 IDIUse=1 WtCom= 1.00D+00 WtEn= 0.00D+00
 Coeff-Com:  0.226D-03-0.590D-04-0.296D-02-0.995D-02-0.225D-01-0.950D-02
 Coeff-Com:  0.156D+00 0.888D+00
 Coeff:      0.226D-03-0.590D-04-0.296D-02-0.995D-02-0.225D-01-0.950D-02
 Coeff:      0.156D+00 0.888D+00
 Gap=     0.337 Goal=   None    Shift=    0.000
 RMSDP=1.98D-05 MaxDP=2.29D-03 DE=-7.13D-06 OVMax= 3.09D-04

 Cycle   9  Pass 1  IDiag  1:
 RMSU=  5.09D-06    CP:  1.16D+00  5.05D-01  8.23D-01  7.51D-01  8.34D-01
                    CP:  9.94D-01  8.12D-01  1.23D+00
 E= -864.443830544879     Delta-E=       -0.000000718029 Rises=F Damp=F
 DIIS: error= 8.68D-06 at cycle   9 NSaved=   9.
 NSaved= 9 IEnMin= 9 EnMin= -864.443830544879     IErMin= 9 ErrMin= 8.68D-06
 ErrMax= 8.68D-06  0.00D+00 EMaxC= 1.00D-01 BMatC= 5.44D-08 BMatP= 3.82D-07
 IDIUse=1 WtCom= 1.00D+00 WtEn= 0.00D+00
 Coeff-Com:  0.243D-04 0.173D-03-0.221D-03-0.137D-02-0.114D-01-0.259D-01
 Coeff-Com: -0.465D-02 0.248D+00 0.795D+00
 Coeff:      0.243D-04 0.173D-03-0.221D-03-0.137D-02-0.114D-01-0.259D-01
 Coeff:     -0.465D-02 0.248D+00 0.795D+00
 Gap=     0.337 Goal=   None    Shift=    0.000
 RMSDP=6.31D-06 MaxDP=7.89D-04 DE=-7.18D-07 OVMax= 7.51D-05

 Cycle  10  Pass 1  IDiag  1:
 RMSU=  2.00D-06    CP:  1.16D+00  5.05D-01  8.23D-01  7.50D-01  8.34D-01
                    CP:  1.00D+00  8.19D-01  1.32D+00  1.26D+00
 E= -864.443830624219     Delta-E=       -0.000000079340 Rises=F Damp=F
 DIIS: error= 3.05D-06 at cycle  10 NSaved=  10.
 NSaved=10 IEnMin=10 EnMin= -864.443830624219     IErMin=10 ErrMin= 3.05D-06
 ErrMax= 3.05D-06  0.00D+00 EMaxC= 1.00D-01 BMatC= 6.88D-09 BMatP= 5.44D-08
 IDIUse=1 WtCom= 1.00D+00 WtEn= 0.00D+00
 Coeff-Com: -0.191D-04 0.481D-04 0.367D-03 0.123D-02-0.266D-03-0.546D-02
 Coeff-Com: -0.241D-01-0.780D-01 0.225D+00 0.882D+00
 Coeff:     -0.191D-04 0.481D-04 0.367D-03 0.123D-02-0.266D-03-0.546D-02
 Coeff:     -0.241D-01-0.780D-01 0.225D+00 0.882D+00
 Gap=     0.337 Goal=   None    Shift=    0.000
 RMSDP=2.32D-06 MaxDP=1.91D-04 DE=-7.93D-08 OVMax= 3.24D-05

 Cycle  11  Pass 1  IDiag  1:
 RMSU=  1.11D-06    CP:  1.16D+00  5.05D-01  8.23D-01  7.50D-01  8.33D-01
                    CP:  1.01D+00  8.22D-01  1.36D+00  1.43D+00  1.07D+00
 E= -864.443830635658     Delta-E=       -0.000000011439 Rises=F Damp=F
 DIIS: error= 8.42D-07 at cycle  11 NSaved=  11.
 NSaved=11 IEnMin=11 EnMin= -864.443830635658     IErMin=11 ErrMin= 8.42D-07
 ErrMax= 8.42D-07  0.00D+00 EMaxC= 1.00D-01 BMatC= 2.92D-10 BMatP= 6.88D-09
 IDIUse=1 WtCom= 1.00D+00 WtEn= 0.00D+00
 Coeff-Com:  0.164D-05-0.878D-05 0.579D-04 0.172D-03 0.578D-03 0.105D-02
 Coeff-Com: -0.219D-02-0.231D-01-0.172D-01 0.118D+00 0.923D+00
 Coeff:      0.164D-05-0.878D-05 0.579D-04 0.172D-03 0.578D-03 0.105D-02
 Coeff:     -0.219D-02-0.231D-01-0.172D-01 0.118D+00 0.923D+00
 Gap=     0.337 Goal=   None    Shift=    0.000
 RMSDP=7.37D-07 MaxDP=7.02D-05 DE=-1.14D-08 OVMax= 8.41D-06

 Cycle  12  Pass 1  IDiag  1:
 RMSU=  2.22D-07    CP:  1.16D+00  5.05D-01  8.23D-01  7.50D-01  8.33D-01
                    CP:  1.01D+00  8.22D-01  1.36D+00  1.49D+00  1.17D+00
                    CP:  1.09D+00
 E= -864.443830636062     Delta-E=       -0.000000000404 Rises=F Damp=F
 DIIS: error= 2.47D-07 at cycle  12 NSaved=  12.
 NSaved=12 IEnMin=12 EnMin= -864.443830636062     IErMin=12 ErrMin= 2.47D-07
 ErrMax= 2.47D-07  0.00D+00 EMaxC= 1.00D-01 BMatC= 4.91D-11 BMatP= 2.92D-10
 IDIUse=1 WtCom= 1.00D+00 WtEn= 0.00D+00
 Coeff-Com:  0.188D-05-0.632D-05 0.202D-05-0.125D-04 0.232D-03 0.746D-03
 Coeff-Com:  0.658D-03-0.331D-02-0.195D-01-0.137D-01 0.353D+00 0.682D+00
 Coeff:      0.188D-05-0.632D-05 0.202D-05-0.125D-04 0.232D-03 0.746D-03
 Coeff:      0.658D-03-0.331D-02-0.195D-01-0.137D-01 0.353D+00 0.682D+00
 Gap=     0.337 Goal=   None    Shift=    0.000
 RMSDP=1.99D-07 MaxDP=1.75D-05 DE=-4.04D-10 OVMax= 2.11D-06

 Cycle  13  Pass 1  IDiag  1:
 RMSU=  6.67D-08    CP:  1.16D+00  5.05D-01  8.23D-01  7.50D-01  8.33D-01
                    CP:  1.01D+00  8.22D-01  1.36D+00  1.50D+00  1.17D+00
                    CP:  1.21D+00  1.05D+00
 E= -864.443830636138     Delta-E=       -0.000000000076 Rises=F Damp=F
 DIIS: error= 7.88D-08 at cycle  13 NSaved=  13.
 NSaved=13 IEnMin=13 EnMin= -864.443830636138     IErMin=13 ErrMin= 7.88D-08
 ErrMax= 7.88D-08  0.00D+00 EMaxC= 1.00D-01 BMatC= 4.55D-12 BMatP= 4.91D-11
 IDIUse=1 WtCom= 1.00D+00 WtEn= 0.00D+00
 Coeff-Com: -0.185D-07-0.844D-07-0.695D-05-0.245D-04-0.200D-04 0.579D-04
 Coeff-Com:  0.456D-03 0.250D-02-0.244D-02-0.224D-01-0.389D-01 0.194D+00
 Coeff-Com:  0.867D+00
 Coeff:     -0.185D-07-0.844D-07-0.695D-05-0.245D-04-0.200D-04 0.579D-04
 Coeff:      0.456D-03 0.250D-02-0.244D-02-0.224D-01-0.389D-01 0.194D+00
 Coeff:      0.867D+00
 Gap=     0.337 Goal=   None    Shift=    0.000
 RMSDP=1.03D-07 MaxDP=8.05D-06 DE=-7.59D-11 OVMax= 1.09D-06

 Cycle  14  Pass 1  IDiag  1:
 RMSU=  2.10D-08    CP:  1.16D+00  5.05D-01  8.23D-01  7.50D-01  8.33D-01
                    CP:  1.01D+00  8.22D-01  1.36D+00  1.50D+00  1.18D+00
                    CP:  1.26D+00  1.21D+00  1.22D+00
 E= -864.443830636144     Delta-E=       -0.000000000006 Rises=F Damp=F
 DIIS: error= 3.09D-08 at cycle  14 NSaved=  14.
 NSaved=14 IEnMin=14 EnMin= -864.443830636144     IErMin=14 ErrMin= 3.09D-08
 ErrMax= 3.09D-08  0.00D+00 EMaxC= 1.00D-01 BMatC= 4.72D-13 BMatP= 4.55D-12
 IDIUse=1 WtCom= 1.00D+00 WtEn= 0.00D+00
 Coeff-Com: -0.303D-06 0.759D-06-0.208D-05-0.329D-05-0.237D-04-0.415D-04
 Coeff-Com:  0.209D-04 0.687D-03 0.932D-03-0.329D-02-0.356D-01-0.227D-01
 Coeff-Com:  0.156D+00 0.904D+00
 Coeff:     -0.303D-06 0.759D-06-0.208D-05-0.329D-05-0.237D-04-0.415D-04
 Coeff:      0.209D-04 0.687D-03 0.932D-03-0.329D-02-0.356D-01-0.227D-01
 Coeff:      0.156D+00 0.904D+00
 Gap=     0.337 Goal=   None    Shift=    0.000
 RMSDP=3.63D-08 MaxDP=2.40D-06 DE=-5.91D-12 OVMax= 3.80D-07

 Cycle  15  Pass 1  IDiag  1:
 RMSU=  6.29D-09    CP:  1.16D+00  5.05D-01  8.23D-01  7.50D-01  8.33D-01
                    CP:  1.01D+00  8.22D-01  1.36D+00  1.50D+00  1.18D+00
                    CP:  1.27D+00  1.26D+00  1.31D+00  1.15D+00
 E= -864.443830636132     Delta-E=        0.000000000011 Rises=F Damp=F
 DIIS: error= 8.19D-09 at cycle  15 NSaved=  15.
 NSaved=15 IEnMin=14 EnMin= -864.443830636144     IErMin=15 ErrMin= 8.19D-09
 ErrMax= 8.19D-09  0.00D+00 EMaxC= 1.00D-01 BMatC= 5.95D-14 BMatP= 4.72D-13
 IDIUse=1 WtCom= 1.00D+00 WtEn= 0.00D+00
 Coeff-Com: -0.134D-06 0.356D-06-0.316D-06 0.506D-06-0.716D-05-0.188D-04
 Coeff-Com: -0.332D-04 0.533D-04 0.494D-03 0.683D-03-0.830D-02-0.256D-01
 Coeff-Com: -0.321D-01 0.285D+00 0.780D+00
 Coeff:     -0.134D-06 0.356D-06-0.316D-06 0.506D-06-0.716D-05-0.188D-04
 Coeff:     -0.332D-04 0.533D-04 0.494D-03 0.683D-03-0.830D-02-0.256D-01
 Coeff:     -0.321D-01 0.285D+00 0.780D+00
 Gap=     0.337 Goal=   None    Shift=    0.000
 RMSDP=1.09D-08 MaxDP=8.88D-07 DE= 1.14D-11 OVMax= 1.04D-07

 Cycle  16  Pass 1  IDiag  1:
 RMSU=  1.53D-09    CP:  1.16D+00  5.05D-01  8.23D-01  7.50D-01  8.33D-01
                    CP:  1.01D+00  8.22D-01  1.36D+00  1.50D+00  1.18D+00
                    CP:  1.28D+00  1.27D+00  1.34D+00  1.28D+00  1.07D+00
 E= -864.443830636125     Delta-E=        0.000000000007 Rises=F Damp=F
 DIIS: error= 2.37D-09 at cycle  16 NSaved=  16.
 NSaved=16 IEnMin=14 EnMin= -864.443830636144     IErMin=16 ErrMin= 2.37D-09
 ErrMax= 2.37D-09  0.00D+00 EMaxC= 1.00D-01 BMatC= 5.94D-15 BMatP= 5.95D-14
 IDIUse=1 WtCom= 1.00D+00 WtEn= 0.00D+00
 Coeff-Com: -0.780D-08 0.319D-07 0.744D-07 0.258D-06 0.812D-06-0.839D-07
 Coeff-Com: -0.122D-04-0.609D-04 0.162D-04 0.544D-03 0.244D-02-0.412D-02
 Coeff-Com: -0.294D-01-0.374D-01 0.231D+00 0.837D+00
 Coeff:     -0.780D-08 0.319D-07 0.744D-07 0.258D-06 0.812D-06-0.839D-07
 Coeff:     -0.122D-04-0.609D-04 0.162D-04 0.544D-03 0.244D-02-0.412D-02
 Coeff:     -0.294D-01-0.374D-01 0.231D+00 0.837D+00
 Gap=     0.337 Goal=   None    Shift=    0.000
 RMSDP=3.13D-09 MaxDP=2.82D-07 DE= 7.28D-12 OVMax= 3.45D-08

 SCF Done:  E(RM062X) =  -864.443830636     A.U. after   16 cycles
            NFock= 16  Conv=0.31D-08     -V/T= 2.0033
 KE= 8.616397229292D+02 PE=-3.564531794437D+03 EE= 1.063459831826D+03
 Leave Link  502 at Sun Oct 13 23:11:07 2019, MaxMem= 10737418240 cpu:             971.7 elap:              40.7
 (Enter /apps/cent7/gaussian/g16-A.03/g16-haswell/g16/l601.exe)
 Copying SCF densities to generalized density rwf, IOpCl= 0 IROHF=0.

 **********************************************************************

            Population analysis using the SCF density.

 **********************************************************************

 Orbital symmetries:
       Occupied  (A) (A) (A) (A) (A) (A) (A) (A) (A) (A) (A) (A)
                 (A) (A) (A) (A) (A) (A) (A) (A) (A) (A) (A) (A)
                 (A) (A) (A) (A) (A) (A) (A) (A) (A) (A) (A) (A)
                 (A) (A) (A) (A) (A) (A) (A) (A) (A) (A) (A) (A)
                 (A)
       Virtual   (A) (A) (A) (A) (A) (A) (A) (A) (A) (A) (A) (A)
                 (A) (A) (A) (A) (A) (A) (A) (A) (A) (A) (A) (A)
                 (A) (A) (A) (A) (A) (A) (A) (A) (A) (A) (A) (A)
                 (A) (A) (A) (A) (A) (A) (A) (A) (A) (A) (A) (A)
                 (A) (A) (A) (A) (A) (A) (A) (A) (A) (A) (A) (A)
                 (A) (A) (A) (A) (A) (A) (A) (A) (A) (A) (A) (A)
                 (A) (A) (A) (A) (A) (A) (A) (A) (A) (A) (A) (A)
                 (A) (A) (A) (A) (A) (A) (A) (A) (A) (A) (A) (A)
                 (A) (A) (A) (A) (A) (A) (A) (A) (A) (A) (A) (A)
                 (A) (A) (A) (A) (A) (A) (A) (A) (A) (A) (A) (A)
                 (A) (A) (A) (A) (A) (A) (A) (A) (A) (A) (A) (A)
                 (A) (A) (A) (A) (A) (A) (A) (A) (A) (A) (A) (A)
                 (A) (A) (A) (A) (A) (A) (A) (A) (A) (A) (A) (A)
                 (A) (A) (A) (A) (A) (A) (A) (A) (A) (A) (A) (A)
                 (A) (A) (A) (A) (A) (A) (A) (A) (A) (A) (A) (A)
                 (A) (A) (A) (A) (A) (A) (A) (A) (A) (A) (A) (A)
                 (A) (A) (A) (A) (A) (A) (A) (A) (A) (A) (A) (A)
                 (A) (A) (A) (A) (A) (A) (A) (A) (A) (A) (A) (A)
                 (A) (A) (A) (A) (A) (A) (A) (A) (A) (A) (A) (A)
                 (A) (A) (A) (A) (A) (A) (A) (A) (A) (A) (A) (A)
                 (A) (A) (A) (A) (A) (A) (A) (A) (A) (A) (A) (A)
                 (A) (A) (A) (A) (A) (A) (A) (A) (A) (A) (A) (A)
                 (A) (A) (A) (A) (A) (A) (A) (A) (A) (A) (A) (A)
                 (A) (A) (A) (A) (A) (A) (A) (A) (A) (A) (A) (A)
                 (A) (A) (A) (A) (A) (A) (A) (A) (A) (A) (A) (A)
                 (A) (A) (A) (A) (A) (A) (A) (A) (A) (A) (A) (A)
                 (A) (A) (A) (A) (A) (A) (A) (A) (A) (A) (A) (A)
                 (A) (A) (A) (A) (A) (A) (A) (A) (A) (A)
 The electronic state is 1-A.
 Alpha  occ. eigenvalues --  -90.31017 -19.89447 -19.81186 -10.77527 -10.77508
 Alpha  occ. eigenvalues --  -10.71851 -10.70310 -10.68328 -10.67394 -10.64935
 Alpha  occ. eigenvalues --  -10.63920  -8.65493  -6.57749  -6.57450  -6.57411
 Alpha  occ. eigenvalues --   -1.43468  -1.29172  -1.11961  -1.08037  -1.03139
 Alpha  occ. eigenvalues --   -0.98956  -0.95983  -0.89714  -0.88720  -0.81696
 Alpha  occ. eigenvalues --   -0.81304  -0.80081  -0.77045  -0.76100  -0.74469
 Alpha  occ. eigenvalues --   -0.72016  -0.67702  -0.66434  -0.66145  -0.64464
 Alpha  occ. eigenvalues --   -0.63723  -0.62961  -0.60638  -0.59224  -0.59012
 Alpha  occ. eigenvalues --   -0.58002  -0.56581  -0.55495  -0.54191  -0.53811
 Alpha  occ. eigenvalues --   -0.53294  -0.52754  -0.52373  -0.51410
 Alpha virt. eigenvalues --   -0.17752  -0.15032  -0.13372  -0.12473  -0.11846
 Alpha virt. eigenvalues --   -0.11440  -0.10005  -0.09591  -0.08632  -0.08087
 Alpha virt. eigenvalues --   -0.07633  -0.07412  -0.06427  -0.05969  -0.05685
 Alpha virt. eigenvalues --   -0.05355  -0.04559  -0.04179  -0.03717  -0.03227
 Alpha virt. eigenvalues --   -0.02888  -0.02309  -0.02270  -0.02060  -0.01301
 Alpha virt. eigenvalues --   -0.00959  -0.00582   0.00096   0.00400   0.00792
 Alpha virt. eigenvalues --    0.01027   0.01512   0.01999   0.02458   0.02927
 Alpha virt. eigenvalues --    0.03502   0.03720   0.03876   0.04113   0.04672
 Alpha virt. eigenvalues --    0.05039   0.05354   0.05451   0.05754   0.05806
 Alpha virt. eigenvalues --    0.06441   0.06504   0.06852   0.07162   0.07567
 Alpha virt. eigenvalues --    0.07726   0.08093   0.08365   0.08750   0.09334
 Alpha virt. eigenvalues --    0.09603   0.09960   0.10098   0.10220   0.10907
 Alpha virt. eigenvalues --    0.11164   0.11817   0.11956   0.12442   0.12750
 Alpha virt. eigenvalues --    0.13132   0.13747   0.14132   0.14504   0.15195
 Alpha virt. eigenvalues --    0.15478   0.16027   0.16446   0.16976   0.17875
 Alpha virt. eigenvalues --    0.18240   0.18999   0.19331   0.20390   0.20829
 Alpha virt. eigenvalues --    0.21166   0.21325   0.22896   0.23554   0.23696
 Alpha virt. eigenvalues --    0.24469   0.25045   0.25454   0.26204   0.26651
 Alpha virt. eigenvalues --    0.27076   0.28246   0.29122   0.30281   0.30821
 Alpha virt. eigenvalues --    0.32811   0.33961   0.36078   0.37017   0.37873
 Alpha virt. eigenvalues --    0.38389   0.39082   0.39256   0.40244   0.41775
 Alpha virt. eigenvalues --    0.42757   0.43507   0.44786   0.46685   0.47312
 Alpha virt. eigenvalues --    0.48630   0.50712   0.52508   0.53880   0.54461
 Alpha virt. eigenvalues --    0.55031   0.55711   0.55800   0.58180   0.58875
 Alpha virt. eigenvalues --    0.59733   0.59862   0.60287   0.60519   0.60854
 Alpha virt. eigenvalues --    0.61074   0.61632   0.62665   0.62759   0.63435
 Alpha virt. eigenvalues --    0.63872   0.64954   0.65746   0.66075   0.66268
 Alpha virt. eigenvalues --    0.67215   0.67585   0.68198   0.69593   0.70726
 Alpha virt. eigenvalues --    0.71779   0.73951   0.76297   0.79407   0.80116
 Alpha virt. eigenvalues --    0.81505   0.84127   0.85413   0.87053   0.88241
 Alpha virt. eigenvalues --    0.89317   0.89841   0.90747   0.91884   0.97874
 Alpha virt. eigenvalues --    0.99113   1.02241   1.04480   1.08435   1.08663
 Alpha virt. eigenvalues --    1.10447   1.10853   1.12857   1.14529   1.15452
 Alpha virt. eigenvalues --    1.17072   1.18983   1.20527   1.21617   1.21810
 Alpha virt. eigenvalues --    1.26235   1.29500   1.32050   1.34558   1.35546
 Alpha virt. eigenvalues --    1.37743   1.38724   1.39897   1.40902   1.41450
 Alpha virt. eigenvalues --    1.43330   1.44673   1.45793   1.46608   1.46731
 Alpha virt. eigenvalues --    1.47346   1.48303   1.49521   1.50278   1.50905
 Alpha virt. eigenvalues --    1.52233   1.52580   1.53586   1.54362   1.54434
 Alpha virt. eigenvalues --    1.55858   1.56906   1.58572   1.58847   1.60508
 Alpha virt. eigenvalues --    1.61754   1.63377   1.63762   1.64949   1.66413
 Alpha virt. eigenvalues --    1.66649   1.68915   1.69462   1.70689   1.71374
 Alpha virt. eigenvalues --    1.72440   1.73020   1.76155   1.80974   1.81254
 Alpha virt. eigenvalues --    1.82131   1.83760   1.85991   1.87812   1.91460
 Alpha virt. eigenvalues --    1.92260   1.93240   1.94878   1.95735   1.97251
 Alpha virt. eigenvalues --    1.99193   1.99398   2.00917   2.01735   2.04110
 Alpha virt. eigenvalues --    2.07637   2.08656   2.09586   2.11780   2.17174
 Alpha virt. eigenvalues --    2.18171   2.21108   2.23172   2.29076   2.29524
 Alpha virt. eigenvalues --    2.31052   2.31190   2.37724   2.40101   2.40364
 Alpha virt. eigenvalues --    2.40948   2.41322   2.41586   2.42314   2.42876
 Alpha virt. eigenvalues --    2.43281   2.44284   2.46100   2.47022   2.48030
 Alpha virt. eigenvalues --    2.49276   2.50211   2.51526   2.53783   2.54907
 Alpha virt. eigenvalues --    2.55091   2.55988   2.56334   2.58081   2.59638
 Alpha virt. eigenvalues --    2.60950   2.61668   2.62948   2.63176   2.68505
 Alpha virt. eigenvalues --    2.70937   2.72124   2.72450   2.73471   2.75501
 Alpha virt. eigenvalues --    2.78162   2.78881   2.79927   2.81677   2.82572
 Alpha virt. eigenvalues --    2.83134   2.83338   2.86312   2.87982   2.88256
 Alpha virt. eigenvalues --    2.90299   2.92790   2.95755   2.97312   3.04223
 Alpha virt. eigenvalues --    3.07619   3.15580   3.19568   3.25297   3.26463
 Alpha virt. eigenvalues --    3.31597   3.61030   3.62871   3.63770   3.67159
 Alpha virt. eigenvalues --    3.67947   3.69160   3.73644   3.80485   3.82055
 Alpha virt. eigenvalues --    3.83259   3.84225   3.93297   3.95387   3.98983
 Alpha virt. eigenvalues --    3.99876   4.20438   4.20815   4.95016   4.95981
 Alpha virt. eigenvalues --    5.02271   5.06191   5.07600   5.38744   7.98694
 Alpha virt. eigenvalues --   17.35847  17.37943  17.41367  23.72365  23.74762
 Alpha virt. eigenvalues --   23.79160  23.80612  23.82447  23.83262  23.92676
 Alpha virt. eigenvalues --   23.93935  49.77493  49.82602 189.25368
          Condensed to atoms (all electrons):
               1          2          3          4          5          6
     1  O    8.351463   0.642660  -0.672892   0.155966   0.000814   0.005268
     2  S    0.642660  23.133342  -3.376231   1.030745  -0.531350  -0.081658
     3  C   -0.672892  -3.376231  12.246487  -3.862133   1.231159  -0.294108
     4  C    0.155966   1.030745  -3.862133   9.896293  -2.391278   0.215483
     5  C    0.000814  -0.531350   1.231159  -2.391278   7.503322  -0.065774
     6  C    0.005268  -0.081658  -0.294108   0.215483  -0.065774   5.627708
     7  C   -0.472425  -3.997580   0.835006   0.135044  -0.142912   0.018206
     8  C   -0.033278   0.232644  -0.157641   0.090992   0.085816   0.000862
     9  C    0.007930  -0.466842  -0.140600   0.037839  -0.023631   0.000861
    10  C   -0.011947  -0.130486   0.027635  -0.006610   0.000452   0.000084
    11  O   -0.055779   0.042571  -0.113084  -0.038193   0.005584  -0.001767
    12  H    0.032857   0.181337   0.153640  -0.005988   0.074214  -0.003903
    13  H   -0.037276  -0.189354   0.219185   0.244775  -0.114578   0.028336
    14  H    0.038513   0.241610  -0.060230   0.355794   0.001746  -0.012242
    15  H   -0.038063  -0.435868   0.318874   0.137183   0.044326   0.043490
    16  H    0.001406   0.052360  -0.060259   0.120719   0.318460  -0.061953
    17  H   -0.004450  -0.010832   0.001298   0.052040   0.330058  -0.060959
    18  H    0.000177   0.008958  -0.015573   0.058454  -0.082431   0.348891
    19  H    0.000453   0.005537  -0.000506  -0.031365   0.005569   0.406321
    20  H   -0.000029  -0.000122  -0.017124   0.000064  -0.015665   0.416000
    21  H    0.018763  -0.233108  -0.124903   0.103480  -0.061749   0.001525
    22  H   -0.059052   0.309661   0.173678  -0.094542   0.077003   0.000927
    23  H    0.072273   0.007185  -0.073884   0.009328  -0.020479  -0.001143
    24  H   -0.025968   0.024836   0.110308  -0.043466   0.011498  -0.000612
    25  H   -0.000450   0.033977   0.004556  -0.002087   0.000775   0.000043
    26  H    0.001777  -0.019142   0.002359  -0.001992  -0.000083  -0.000171
    27  H    0.000166  -0.000060  -0.001495   0.000044  -0.000209  -0.000010
    28  H   -0.000399   0.005031   0.000599   0.000506   0.000252   0.000023
    29  H    0.000230  -0.008950  -0.001697   0.001248  -0.000059   0.000028
    30  H    0.047024  -0.346138   0.096943  -0.013660   0.011084   0.001651
               7          8          9         10         11         12
     1  O   -0.472425  -0.033278   0.007930  -0.011947  -0.055779   0.032857
     2  S   -3.997580   0.232644  -0.466842  -0.130486   0.042571   0.181337
     3  C    0.835006  -0.157641  -0.140600   0.027635  -0.113084   0.153640
     4  C    0.135044   0.090992   0.037839  -0.006610  -0.038193  -0.005988
     5  C   -0.142912   0.085816  -0.023631   0.000452   0.005584   0.074214
     6  C    0.018206   0.000862   0.000861   0.000084  -0.001767  -0.003903
     7  C   10.175803  -1.369020   0.589109  -0.017919  -0.112588  -0.194011
     8  C   -1.369020   7.795925  -1.130536   0.079880   0.008665   0.007671
     9  C    0.589109  -1.130536   6.812098  -0.141124   0.022843  -0.005263
    10  C   -0.017919   0.079880  -0.141124   5.716846  -0.002395  -0.002360
    11  O   -0.112588   0.008665   0.022843  -0.002395   8.304980   0.025847
    12  H   -0.194011   0.007671  -0.005263  -0.002360   0.025847   0.509069
    13  H    0.160975  -0.019927   0.003140   0.001437  -0.034685  -0.040646
    14  H   -0.223125   0.012045  -0.011445  -0.002150   0.004757   0.037954
    15  H    0.342347  -0.063888   0.012776   0.006647  -0.003019  -0.069574
    16  H   -0.027744  -0.001143  -0.001176  -0.000124   0.000118   0.020836
    17  H    0.015289   0.001705   0.000811   0.000026   0.000834  -0.018633
    18  H    0.008493  -0.001727   0.001313  -0.000106  -0.000116  -0.004336
    19  H   -0.006840   0.001194  -0.000347  -0.000009   0.000019   0.005295
    20  H    0.000642  -0.000133   0.000028   0.000017  -0.000047   0.001942
    21  H    0.665484  -0.191450   0.147770   0.004855  -0.033706  -0.041817
    22  H   -0.390918   0.396724  -0.195587  -0.011220   0.013062   0.023465
    23  H    0.324592  -0.038630   0.117338  -0.009060  -0.027992  -0.002769
    24  H   -0.091886   0.459400  -0.194360   0.001339   0.057501   0.012408
    25  H   -0.019259   0.023734   0.341837  -0.049505  -0.003880  -0.000914
    26  H    0.032646   0.017658   0.338027  -0.074854   0.001585   0.000846
    27  H    0.014272  -0.012219  -0.012887   0.379843   0.000130   0.000034
    28  H   -0.020514  -0.014985   0.014402   0.390711  -0.000176  -0.000121
    29  H    0.003346  -0.008933  -0.005265   0.363595  -0.000409  -0.000219
    30  H    0.204087   0.012417   0.024214   0.003653   0.052867   0.003762
              13         14         15         16         17         18
     1  O   -0.037276   0.038513  -0.038063   0.001406  -0.004450   0.000177
     2  S   -0.189354   0.241610  -0.435868   0.052360  -0.010832   0.008958
     3  C    0.219185  -0.060230   0.318874  -0.060259   0.001298  -0.015573
     4  C    0.244775   0.355794   0.137183   0.120719   0.052040   0.058454
     5  C   -0.114578   0.001746   0.044326   0.318460   0.330058  -0.082431
     6  C    0.028336  -0.012242   0.043490  -0.061953  -0.060959   0.348891
     7  C    0.160975  -0.223125   0.342347  -0.027744   0.015289   0.008493
     8  C   -0.019927   0.012045  -0.063888  -0.001143   0.001705  -0.001727
     9  C    0.003140  -0.011445   0.012776  -0.001176   0.000811   0.001313
    10  C    0.001437  -0.002150   0.006647  -0.000124   0.000026  -0.000106
    11  O   -0.034685   0.004757  -0.003019   0.000118   0.000834  -0.000116
    12  H   -0.040646   0.037954  -0.069574   0.020836  -0.018633  -0.004336
    13  H    0.484797  -0.058199   0.038380  -0.009959   0.014309   0.003082
    14  H   -0.058199   0.699283  -0.170816   0.039383  -0.061960  -0.004237
    15  H    0.038380  -0.170816   0.797554  -0.092816   0.026733  -0.001567
    16  H   -0.009959   0.039383  -0.092816   0.587746  -0.046760  -0.001078
    17  H    0.014309  -0.061960   0.026733  -0.046760   0.591409   0.018458
    18  H    0.003082  -0.004237  -0.001567  -0.001078   0.018458   0.607078
    19  H   -0.001417  -0.002736  -0.000934  -0.012024  -0.002390  -0.046122
    20  H    0.000378   0.010850  -0.014263   0.010984  -0.025685  -0.037387
    21  H    0.014322  -0.005096   0.003568   0.000338   0.000270   0.002967
    22  H   -0.012659   0.030477  -0.049701   0.007176   0.000008  -0.007933
    23  H    0.001900   0.000960   0.001160   0.000215  -0.000197   0.001137
    24  H   -0.005865   0.002852   0.001143  -0.000085  -0.000092  -0.000579
    25  H    0.000467  -0.000352   0.001479   0.000022  -0.000021  -0.000013
    26  H   -0.000227  -0.000320   0.001371  -0.000199  -0.000010   0.000014
    27  H    0.000001  -0.000014  -0.000127   0.000004   0.000000   0.000009
    28  H    0.000045  -0.000003   0.000040   0.000001  -0.000000  -0.000016
    29  H    0.000098  -0.000097  -0.000008  -0.000008   0.000004   0.000007
    30  H   -0.005884  -0.016727   0.013012  -0.001743   0.003931   0.000248
              19         20         21         22         23         24
     1  O    0.000453  -0.000029   0.018763  -0.059052   0.072273  -0.025968
     2  S    0.005537  -0.000122  -0.233108   0.309661   0.007185   0.024836
     3  C   -0.000506  -0.017124  -0.124903   0.173678  -0.073884   0.110308
     4  C   -0.031365   0.000064   0.103480  -0.094542   0.009328  -0.043466
     5  C    0.005569  -0.015665  -0.061749   0.077003  -0.020479   0.011498
     6  C    0.406321   0.416000   0.001525   0.000927  -0.001143  -0.000612
     7  C   -0.006840   0.000642   0.665484  -0.390918   0.324592  -0.091886
     8  C    0.001194  -0.000133  -0.191450   0.396724  -0.038630   0.459400
     9  C   -0.000347   0.000028   0.147770  -0.195587   0.117338  -0.194360
    10  C   -0.000009   0.000017   0.004855  -0.011220  -0.009060   0.001339
    11  O    0.000019  -0.000047  -0.033706   0.013062  -0.027992   0.057501
    12  H    0.005295   0.001942  -0.041817   0.023465  -0.002769   0.012408
    13  H   -0.001417   0.000378   0.014322  -0.012659   0.001900  -0.005865
    14  H   -0.002736   0.010850  -0.005096   0.030477   0.000960   0.002852
    15  H   -0.000934  -0.014263   0.003568  -0.049701   0.001160   0.001143
    16  H   -0.012024   0.010984   0.000338   0.007176   0.000215  -0.000085
    17  H   -0.002390  -0.025685   0.000270   0.000008  -0.000197  -0.000092
    18  H   -0.046122  -0.037387   0.002967  -0.007933   0.001137  -0.000579
    19  H    0.504378  -0.016000  -0.001287   0.001998  -0.000220   0.000113
    20  H   -0.016000   0.504105   0.000078   0.000818  -0.000041  -0.000020
    21  H   -0.001287   0.000078   0.590609  -0.160223   0.066876  -0.093968
    22  H    0.001998   0.000818  -0.160223   0.806256  -0.156977   0.066787
    23  H   -0.000220  -0.000041   0.066876  -0.156977   0.706245  -0.106701
    24  H    0.000113  -0.000020  -0.093968   0.066787  -0.106701   0.623855
    25  H    0.000013  -0.000003   0.008316  -0.009229   0.025880  -0.041218
    26  H   -0.000009  -0.000001  -0.002717  -0.003663  -0.034944   0.024064
    27  H   -0.000002   0.000000   0.003133  -0.002526   0.001636  -0.005224
    28  H    0.000002   0.000000   0.000286   0.004310   0.005343  -0.005288
    29  H   -0.000000   0.000001   0.001534   0.001157  -0.005858   0.003751
    30  H    0.000011  -0.000144   0.001243  -0.011244  -0.018176   0.006986
              25         26         27         28         29         30
     1  O   -0.000450   0.001777   0.000166  -0.000399   0.000230   0.047024
     2  S    0.033977  -0.019142  -0.000060   0.005031  -0.008950  -0.346138
     3  C    0.004556   0.002359  -0.001495   0.000599  -0.001697   0.096943
     4  C   -0.002087  -0.001992   0.000044   0.000506   0.001248  -0.013660
     5  C    0.000775  -0.000083  -0.000209   0.000252  -0.000059   0.011084
     6  C    0.000043  -0.000171  -0.000010   0.000023   0.000028   0.001651
     7  C   -0.019259   0.032646   0.014272  -0.020514   0.003346   0.204087
     8  C    0.023734   0.017658  -0.012219  -0.014985  -0.008933   0.012417
     9  C    0.341837   0.338027  -0.012887   0.014402  -0.005265   0.024214
    10  C   -0.049505  -0.074854   0.379843   0.390711   0.363595   0.003653
    11  O   -0.003880   0.001585   0.000130  -0.000176  -0.000409   0.052867
    12  H   -0.000914   0.000846   0.000034  -0.000121  -0.000219   0.003762
    13  H    0.000467  -0.000227   0.000001   0.000045   0.000098  -0.005884
    14  H   -0.000352  -0.000320  -0.000014  -0.000003  -0.000097  -0.016727
    15  H    0.001479   0.001371  -0.000127   0.000040  -0.000008   0.013012
    16  H    0.000022  -0.000199   0.000004   0.000001  -0.000008  -0.001743
    17  H   -0.000021  -0.000010   0.000000  -0.000000   0.000004   0.003931
    18  H   -0.000013   0.000014   0.000009  -0.000016   0.000007   0.000248
    19  H    0.000013  -0.000009  -0.000002   0.000002  -0.000000   0.000011
    20  H   -0.000003  -0.000001   0.000000   0.000000   0.000001  -0.000144
    21  H    0.008316  -0.002717   0.003133   0.000286   0.001534   0.001243
    22  H   -0.009229  -0.003663  -0.002526   0.004310   0.001157  -0.011244
    23  H    0.025880  -0.034944   0.001636   0.005343  -0.005858  -0.018176
    24  H   -0.041218   0.024064  -0.005224  -0.005288   0.003751   0.006986
    25  H    0.613144  -0.068750  -0.006806   0.016064  -0.021314  -0.001517
    26  H   -0.068750   0.648895  -0.002047  -0.036134   0.021164   0.002529
    27  H   -0.006806  -0.002047   0.492385  -0.015357  -0.032112   0.000056
    28  H    0.016064  -0.036134  -0.015357   0.540172  -0.051118  -0.000413
    29  H   -0.021314   0.021164  -0.032112  -0.051118   0.581626   0.000228
    30  H   -0.001517   0.002529   0.000056  -0.000413   0.000228   0.583656
 Mulliken charges:
               1
     1  O    0.034270
     2  S   -0.124732
     3  C   -0.449366
     4  C   -0.154682
     5  C   -0.251934
     6  C   -0.531407
     7  C   -0.438601
     8  C   -0.183819
     9  C   -0.143275
    10  C   -0.517149
    11  O   -0.113527
    12  H    0.299378
    13  H    0.315047
    14  H    0.153526
    15  H    0.150560
    16  H    0.157304
    17  H    0.174805
    18  H    0.143936
    19  H    0.191305
    20  H    0.180759
    21  H    0.314607
    22  H    0.251966
    23  H    0.155002
    24  H    0.208494
    25  H    0.155013
    26  H    0.152329
    27  H    0.199382
    28  H    0.166737
    29  H    0.158030
    30  H    0.346043
 Sum of Mulliken charges =   1.00000
 Mulliken charges with hydrogens summed into heavy atoms:
               1
     1  O    0.380313
     2  S   -0.124732
     3  C    0.165059
     4  C    0.149404
     5  C    0.080175
     6  C   -0.015407
     7  C    0.127972
     8  C    0.179677
     9  C    0.164067
    10  C    0.006999
    11  O   -0.113527
 Electronic spatial extent (au):  <R**2>=           3585.2355
 Charge=              1.0000 electrons
 Dipole moment (field-independent basis, Debye):
    X=              2.5128    Y=             -3.2977    Z=              1.0934  Tot=              4.2877
 Quadrupole moment (field-independent basis, Debye-Ang):
   XX=            -42.9249   YY=            -80.2513   ZZ=            -67.3754
   XY=              5.9930   XZ=              1.0776   YZ=              1.9492
 Traceless Quadrupole moment (field-independent basis, Debye-Ang):
   XX=             20.5923   YY=            -16.7341   ZZ=             -3.8582
   XY=              5.9930   XZ=              1.0776   YZ=              1.9492
 Octapole moment (field-independent basis, Debye-Ang**2):
  XXX=              9.5067  YYY=             -9.1516  ZZZ=             14.6389  XYY=              8.9978
  XXY=            -26.1764  XXZ=             -5.2048  XZZ=              3.9714  YZZ=              1.0403
  YYZ=              4.4058  XYZ=              3.0253
 Hexadecapole moment (field-independent basis, Debye-Ang**3):
 XXXX=          -3110.1129 YYYY=           -892.9454 ZZZZ=           -225.3117 XXXY=             14.0847
 XXXZ=             28.4160 YYYX=             18.1002 YYYZ=             11.9823 ZZZX=              6.1815
 ZZZY=             10.1372 XXYY=           -680.5491 XXZZ=           -630.0900 YYZZ=           -198.0897
 XXYZ=             16.6076 YYXZ=             -6.9300 ZZXY=              4.6233
 N-N= 7.749884090458D+02 E-N=-3.564531794593D+03  KE= 8.616397229292D+02
 No NMR shielding tensors so no spin-rotation constants.
 Leave Link  601 at Sun Oct 13 23:11:07 2019, MaxMem= 10737418240 cpu:               3.6 elap:               0.2
 (Enter /apps/cent7/gaussian/g16-A.03/g16-haswell/g16/l701.exe)
 ... and contract with generalized density number  0.
 Compute integral first derivatives.
 Leave Link  701 at Sun Oct 13 23:11:08 2019, MaxMem= 10737418240 cpu:               4.2 elap:               0.2
 (Enter /apps/cent7/gaussian/g16-A.03/g16-haswell/g16/l702.exe)
 L702 exits ... SP integral derivatives will be done elsewhere.
 Leave Link  702 at Sun Oct 13 23:11:08 2019, MaxMem= 10737418240 cpu:               0.4 elap:               0.0
 (Enter /apps/cent7/gaussian/g16-A.03/g16-haswell/g16/l703.exe)
 Integral derivatives from FoFJK, PRISM(SPDF).
 Compute integral first derivatives, UseDBF=F ICtDFT=           0.
 Calling FoFJK, ICntrl=      2127 FMM=F ISym2X=0 I1Cent= 0 IOpClX= 0 NMat=1 NMatS=1 NMatT=0.
 FoFJK:  IHMeth= 1 ICntrl=    2127 DoSepK=F KAlg= 0 I1Cent=           0 FoldK=F
 IRaf=         0 NMat=       1 IRICut=       1 DoRegI=T DoRafI=F ISym2E= 0 IDoP0=0 IntGTp=1.
 FoFCou: FMM=F IPFlag=           0 FMFlag=      100000 FMFlg1=         800
         NFxFlg=           0 DoJE=F BraDBF=F KetDBF=F FulRan=T
         wScrn=  0.000000 ICntrl=      2127 IOpCl=  0 I1Cent=           0 NGrid=           0
         NMat0=    1 NMatS0=      1 NMatT0=    0 NMatD0=    1 NMtDS0=    0 NMtDT0=    0
 Symmetry not used in FoFCou.
 Leave Link  703 at Sun Oct 13 23:11:13 2019, MaxMem= 10737418240 cpu:             131.4 elap:               5.5
 (Enter /apps/cent7/gaussian/g16-A.03/g16-haswell/g16/l716.exe)
 Dipole        = 9.88623854D-01-1.29741353D+00 4.30176742D-01
 ***** Axes restored to original set *****
 -------------------------------------------------------------------
 Center     Atomic                   Forces (Hartrees/Bohr)
 Number     Number              X              Y              Z
 -------------------------------------------------------------------
      1        8          -0.021177700   -0.006094405    0.000431913
      2       16          -0.121412629    0.030087498   -0.005176870
      3        6           0.040446163   -0.012564257   -0.002221073
      4        6          -0.005899416    0.000072136   -0.002147496
      5        6           0.008375075    0.005454977    0.015246599
      6        6          -0.007613300    0.008361122    0.004141940
      7        6           0.008317497    0.015705114    0.025180854
      8        6          -0.000202513   -0.001324311    0.000510158
      9        6          -0.004076340    0.016066159   -0.006084814
     10        6           0.000940054    0.001192420   -0.013931227
     11        8           0.114156188   -0.041983758    0.003968292
     12        1          -0.018002105    0.013263375    0.000016566
     13        1          -0.021738951    0.005122961    0.004028020
     14        1           0.011740796   -0.004086473    0.013571947
[...]
 ,0.00037266,0.00066584,0.00064360,-0.00099794,-0.00295260,-0.02624241,
 0.00845646,-0.00058463,-0.07486523,0.07243116,-0.00060290,0.00026412,-
 0.00036556,0.00524368,-0.00200451,0.00034834,-0.00025662,-0.00008037,-
 0.00007298,0.00015740,-0.00017314,0.00014162,-0.00013008,0.00012335,-0
 .00007770,0.00000365,0.00000873,0.00003056,0.02803576,-0.00803786,-0.0
 0324970,-0.01474504,0.00203500,-0.04670398,-0.02783823,0.00755873,-0.0
 0263327,-0.00115817,0.00034176,0.00190358,-0.00168707,0.00083629,0.000
 06551,-0.00000620,-0.00003462,-0.00001035,-0.00005031,0.00005908,0.000
 00232,-0.00002211,0.00001378,0.00000795,-0.00006824,0.00017015,-0.0000
 8776,0.00000511,-0.00001226,-0.00000472,0.00001322,-0.00003672,-0.0000
 4915,-0.00000392,0.00000972,0.00000098,-0.00000886,0.00000392,-0.00000
 383,-0.00000079,0.00000025,0.00000308,-0.00047127,0.00041750,0.0010296
 2,0.00063318,-0.00268159,-0.00479082,-0.00034929,0.00062397,-0.0003676
 5,0.01190776,-0.00152888,0.05857829,0.00008759,0.00011532,-0.00015915,
 0.00024899,0.00005361,0.00040151,-0.00001190,-0.00003705,0.00002119,0.
 00000994,-0.00002775,0.00003418,-0.00000750,0.00000721,-0.00000302,0.0
 0000069,-0.00000407,0.00000510,0.00009537,0.00011607,0.00015185,0.0037
 0367,0.00645671,-0.00017697,-0.13324602,-0.12212146,-0.00372984,0.0049
 6982,0.00762450,0.00024135,-0.00014838,0.00003033,-0.00001956,0.000008
 54,-0.00001037,0.00000352,0.00000036,0.00001478,0.00001447,-0.00000191
 ,0.00001305,-0.00001071,-0.00001580,-0.00000024,-0.00000141,0.00000483
 ,0.00000009,0.00000673,0.00000041,0.00000091,-0.00000494,-0.00000511,0
 .00000106,-0.00000147,-0.00000052,0.00000006,-0.00000085,0.00000091,0.
 00000383,-0.00000085,0.00005748,-0.00022888,0.00051255,-0.00013248,-0.
 00017873,-0.00009914,0.00092958,0.00129426,-0.00141774,0.00059041,0.00
 016877,0.00064300,0.13858306,0.00019993,0.00028352,-0.00003756,0.00001
 202,-0.00021123,-0.00002001,0.00000508,-0.00006196,0.00006175,0.000015
 51,0.00000870,0.00001565,-0.00000873,-0.00000297,-0.00000990,0.0000027
 0,0.00000144,0.00000729,-0.00000002,0.00051494,-0.00079225,-0.00929385
 ,-0.01540416,0.00097249,-0.12045480,-0.22739714,-0.00379501,-0.0095091
 2,-0.01447600,-0.00162782,0.00004425,0.00008227,0.00003374,-0.00000596
 ,-0.00000021,0.00000898,-0.00000480,0.00002575,0.00001406,0.00000242,0
 .00000623,-0.00000235,-0.00000821,-0.00000207,0.00000389,0.00000228,0.
 00000251,0.00000391,0.00000014,0.00000114,-0.00000169,-0.00000253,0.00
 000050,-0.00000091,-0.00000244,0.00000104,0.00000029,0.00000164,0.0000
 0099,-0.00000065,-0.00023492,0.00038071,0.00074179,0.00007632,-0.00005
 599,0.00012831,0.00096296,-0.00063556,0.00279156,0.00007901,0.00019609
 ,-0.00045126,0.13176289,0.24802348,-0.00021413,-0.00039815,-0.00029069
 ,-0.00004611,0.00072050,0.00079962,0.00004016,-0.00007420,0.00003489,-
 0.00000329,0.00000628,-0.00001806,0.00000481,-0.00000238,0.00000619,-0
 .00000174,0.00000021,-0.00000312,0.00073137,0.00137850,0.00126320,0.01
 672550,0.02461969,-0.00324783,-0.00445351,-0.00433161,-0.04662859,-0.0
 1630234,-0.02463799,-0.00161307,0.00006760,-0.00016871,-0.00009562,-0.
 00000313,-0.00000196,-0.00001613,-0.00000620,0.00001274,0.00002645,-0.
 00000152,-0.00001025,0.00000256,0.00001108,-0.00000800,-0.00000202,-0.
 00000251,-0.00000089,-0.00000551,-0.00000019,0.00000141,0.00000197,0.0
 0000238,-0.00000083,0.00000054,0.00000120,-0.00000076,0.00000105,-0.00
 000133,0.00000098,-0.00000148,-0.00012408,-0.00048655,-0.00051274,0.00
 003220,-0.00003362,-0.00003781,-0.00119221,0.00275588,-0.00476401,-0.0
 0007893,-0.00079826,0.00107655,0.00358050,0.00437864,0.05723293,0.0000
 4133,0.00000877,-0.00002785,0.00005502,0.00013574,-0.00030604,-0.00005
 819,0.00006279,-0.00005531,-0.00003403,0.00003664,-0.00001840,0.000015
 39,-0.00001397,0.00000605,-0.00000576,0.00000808,-0.00000847,0.0004639
 5,-0.00027132,0.00038587,-0.00392527,0.00119020,-0.00041480,-0.2914078
 6,0.06625897,-0.00871504,-0.00612306,0.00167427,0.00057827,0.00025989,
 -0.00020235,0.00015586,0.00000148,-0.00000080,-0.00000793,0.00000819,-
 0.00003314,-0.00002096,0.00000830,0.00000042,-0.00000204,-0.00000293,-
 0.00001603,-0.00000679,-0.00000241,0.00000481,-0.00000270,-0.00000010,
 -0.00000061,0.00000973,0.00000237,-0.00000907,0.00000065,0.00000431,-0
 .00000161,0.00000373,0.00000189,-0.00000005,-0.00000278,-0.00015137,0.
 00009967,0.00002343,0.00001111,-0.00010357,-0.00089367,0.00057059,0.00
 022273,-0.00028096,0.00145648,0.00031284,-0.00037820,-0.01699841,0.004
 75312,-0.00057544,0.31366474,-0.00024729,-0.00008680,-0.00003620,0.000
 48535,-0.00013117,-0.00026474,-0.00004230,-0.00002912,0.00001985,0.000
 02102,0.00002141,-0.00000253,-0.00001125,-0.00000765,-0.00000362,0.000
 00388,0.00000610,0.00000167,-0.00018874,0.00024793,-0.00081837,0.01814
 607,-0.00620849,0.00190514,0.06477965,-0.06826771,0.00325033,0.0177314
 3,-0.00515737,-0.00033667,-0.00020818,0.00014355,0.00019249,-0.0000088
 7,-0.00000684,-0.00000062,-0.00000370,0.00001245,0.00000216,-0.0000043
 1,-0.00000931,0.00000842,0.00000338,0.00000240,0.00000221,-0.00000108,
 -0.00000139,-0.00000298,0.00000121,0.00000152,0.00000138,0.00000144,-0
 .00000077,-0.00000053,-0.00000283,0.00000046,0.00000057,-0.00000144,-0
 .00000289,0.00000236,-0.00016633,-0.00003923,0.00015777,-0.00015969,0.
 00046628,0.00024333,0.00024950,0.00029365,-0.00078900,0.00045050,-0.00
 120076,0.00311009,-0.02611563,0.00835403,-0.00132632,-0.07484903,0.072
 03952,0.00011965,-0.00002857,0.00005540,-0.00066558,0.00060553,0.00059
 132,0.00004283,-0.00010407,0.00004250,-0.00002308,0.00002048,-0.000010
 94,0.00001490,-0.00001440,0.00000262,-0.00000228,0.00000288,-0.0000037
 0,-0.00159595,0.00065527,0.00130506,-0.02840319,0.00788116,-0.00480458
 ,-0.00785419,0.00342873,-0.04682850,0.02854384,-0.00814665,0.00007462,
 0.00046057,-0.00034163,-0.00039441,0.00000511,0.00000964,-0.00000843,-
 0.00000921,0.00000176,0.00002533,0.00000636,0.00000152,-0.00000517,0.0
 0000078,-0.00001484,0.00000338,-0.00000168,0.00000245,-0.00000065,-0.0
 0000069,0.00000226,0.00000636,0.00000084,-0.00000533,-0.00000078,0.000
 00314,-0.00000071,0.00000231,0.00000089,-0.00000011,-0.00000180,-0.000
 01550,-0.00003048,-0.00003771,0.00046930,-0.00028903,-0.00051409,0.000
 57903,-0.00057226,0.00108711,-0.00027164,0.00290277,-0.00460687,-0.000
 34263,-0.00015275,-0.00061703,0.00903495,-0.00352822,0.05739974,-0.000
 03002,-0.00003489,-0.00000097,-0.00007922,0.00028545,0.00013627,0.0000
 3928,-0.00011491,0.00009524,0.00001644,-0.00000618,0.00000671,-0.00000
 857,-0.00000027,-0.00000934,0.00000363,0.00000117,0.00000499,0.0005468
 8,-0.00013541,0.00031698,-0.00022449,0.00090521,0.00134965,-0.00001042
 ,-0.00506543,0.00701116,-0.05487618,0.02598009,-0.03937822,0.00005622,
 -0.00004783,-0.00001610,-0.00000236,-0.00000777,-0.00000594,-0.0000113
 2,0.00003503,0.00003477,-0.00000238,0.00000016,0.00000068,0.00000099,0
 .00000170,-0.00000281,-0.00000037,-0.00000124,0.00000044,0.00000059,0.
 00000086,-0.00000228,0.00000045,0.00000162,-0.00000087,-0.00000237,0.0
 0000144,-0.00000006,-0.00000076,-0.00000117,0.00000071,-0.00000674,0.0
 0001632,0.00003072,0.00000186,-0.00008125,-0.00005725,-0.00002617,0.00
 033366,-0.00022508,0.00026965,-0.00013236,0.00029716,0.00008520,0.0000
 0955,-0.00050682,0.00012290,-0.00057120,-0.00006805,0.05523085,0.00006
 763,0.00012383,0.00001807,0.00027607,-0.00066178,-0.00037965,-0.000085
 01,0.00026373,-0.00023049,-0.00004463,0.00000882,-0.00000874,0.0000204
 5,0.00000707,0.00001500,-0.00000766,-0.00000414,-0.00001053,-0.0000580
 3,0.00081047,-0.00073327,0.00088723,-0.00190122,-0.00337361,-0.0039426
 5,0.01075631,-0.01702438,0.02592000,-0.12989422,0.12574603,-0.00011105
 ,0.00010294,0.00004557,0.00000492,0.00000686,0.00000678,0.00001949,-0.
 00008732,-0.00008314,0.00000463,-0.00000072,0.00000244,0.00000451,0.00
 000461,0.00000515,-0.00000268,0.00000154,-0.00000086,-0.00000143,-0.00
 000256,0.00000355,0.00000207,-0.00000042,0.00000179,0.00000522,-0.0000
 0255,-0.00000100,0.00000063,0.00000027,0.00000134,-0.00006743,0.000083
 59,0.00005298,0.00000443,0.00006726,0.00002126,0.00023757,0.00007409,-
 0.00019273,-0.00003564,-0.00024331,-0.00001649,-0.00047301,0.00077787,
 0.00060950,-0.00011333,0.00068564,0.00078456,-0.02881430,0.13778625,0.
 00013490,0.00018537,-0.00010206,0.00029136,-0.00083278,-0.00003386,-0.
 00009787,0.00033135,-0.00021344,-0.00006359,-0.00001081,-0.00004208,0.
 00003407,0.00002133,0.00004034,-0.00001732,-0.00000938,-0.00002587,-0.
 00025128,0.00086339,-0.00106392,0.00152910,-0.00386872,-0.00288339,-0.
 00458929,0.01431182,-0.02084316,-0.03860042,0.12361993,-0.23358827,-0.
 00014517,0.00012766,-0.00007384,0.00001759,0.00001386,0.00000896,0.000
 03038,-0.00011004,-0.00008607,0.00000112,-0.00000181,0.00000719,-0.000
 00317,0.00001866,0.00000478,-0.00000172,0.00000111,-0.00000323,-0.0000
 0110,-0.00000604,0.00000119,0.00000181,0.00000098,0.00000469,0.0000114
 5,-0.00000631,-0.00000329,0.00000081,0.00000188,0.00000341,-0.00005227
 ,0.00005798,-0.00002504,0.00001791,0.00007736,-0.00003406,0.00009677,-
 0.00015678,0.00020357,0.00005827,-0.00020709,0.00022129,-0.00051868,0.
 00010569,0.00072591,0.00030675,0.00037141,0.00075715,0.04110409,-0.132
 53267,0.25386601,-0.00000591,0.00001882,0.00004317,-0.00000718,-0.0001
 4043,-0.00013354,-0.00000466,0.00001707,-0.00002709,0.00000574,0.00000
 108,0.00000788,-0.00000413,-0.00000216,-0.00000535,0.00000248,0.000000
 10,0.00000403,0.00009844,0.00024955,-0.00009967,0.00007167,0.00010262,
 -0.00033508,0.00517130,0.00856173,0.00050276,-0.13430754,-0.12634600,-
 0.00660999,-0.00000305,0.00004823,0.00002862,-0.00000615,0.00000114,0.
 00000277,-0.00000121,-0.00000282,-0.00000505,0.00000217,-0.00000159,0.
 00000094,0.00000302,-0.00000005,-0.00000032,0.00000042,-0.00000041,0.0
 0000041,-0.00000030,0.00000090,-0.00000039,0.00000019,0.00000083,-0.00
 000112,-0.00000192,0.00000054,0.,0.00000002,-0.00000036,0.00000052,-0.
 00004546,0.00000424,0.00006758,-0.00000655,0.00003184,0.00002556,0.000
 08015,-0.00020032,-0.00045171,-0.00009652,-0.00017846,0.00005682,0.000
 68453,0.00138954,0.00202393,0.00061860,0.00008685,-0.00076104,0.003021
 32,0.00595674,0.00085857,0.14068252,0.00010883,0.00009851,-0.00003525,
 -0.00004406,-0.00012696,0.00003617,-0.00001151,0.00004872,-0.00003301,
 -0.00001129,-0.00001084,-0.00000280,0.00000645,0.00000475,0.00000703,-
 0.00000415,-0.00000304,-0.00000394,0.00024603,0.00028923,0.00021102,0.
 00006565,0.00070924,0.00075599,-0.00914151,-0.01506608,-0.00077175,-0.
 12531151,-0.23145298,-0.00948034,-0.00001657,0.00004205,-0.00004357,0.
 00000477,0.00000117,0.00000606,0.00000381,-0.00001804,-0.00001272,0.00
 000220,0.00000403,-0.00000216,-0.00000533,0.00000194,-0.00000027,0.000
 00160,0.00000157,0.00000183,-0.00000064,-0.00000093,-0.00000087,-0.000
 00167,-0.00000027,0.00000047,0.00000266,-0.00000146,-0.00000029,0.0000
 0132,0.00000225,-0.00000040,-0.00002598,0.00003824,0.00023187,0.000000
 88,-0.00003983,-0.00000008,-0.00011002,0.00050184,-0.00073182,0.000083
 88,-0.00002750,-0.00008121,0.00141674,-0.00055142,-0.00295751,0.000211
 52,0.00012948,0.00034577,-0.00972624,-0.01379387,-0.00154920,0.1370074
 6,0.25050936,0.00006352,0.00010990,0.00002424,0.00000650,0.00001228,-0
 .00015606,-0.00000393,-0.00004034,0.00002228,0.00001209,0.00000144,0.0
 0001917,-0.00000729,-0.00000347,-0.00001163,0.00000343,0.00000160,0.00
 000796,0.00011320,0.00006697,0.00033690,-0.00084500,-0.00130791,0.0016
 2766,-0.01651016,-0.02362501,-0.00307723,-0.00598106,-0.00847169,-0.04
 765868,-0.00001229,0.00003983,0.00003051,-0.00000235,-0.00000372,-0.00
 000091,-0.00000814,0.00001378,0.00000893,0.00000329,0.00000249,-0.0000
 0345,-0.00000130,-0.00000361,-0.00000003,0.00000090,0.00000086,0.00000
 271,-0.00000005,0.00000176,-0.00000084,-0.00000074,-0.00000006,-0.0000
 0149,-0.00000251,0.00000151,0.00000076,0.00000045,-0.00000020,-0.00000
 144,0.00002279,0.00015665,0.00012015,-0.00001073,-0.00005404,0.0000548
 5,0.00028959,0.00049961,-0.00050589,-0.00004051,0.00006485,-0.00003935
 ,0.00147190,-0.00294050,-0.00449986,0.00000807,0.00083530,0.00106151,0
 .01644963,0.02162012,0.00239763,0.00564933,0.01341380,0.05154871,0.000
 03806,-0.00002563,0.00001370,-0.00016223,0.00011672,0.00010122,0.00002
 175,-0.00003950,0.00004143,-0.00000519,-0.00000010,-0.00001054,0.00000
 267,0.00000015,0.00000022,-0.00000158,0.00000173,-0.00000162,0.0004366
 9,-0.00012587,-0.00006284,0.00036372,-0.00030810,-0.00031771,-0.005438
 34,0.00168287,0.00004256,-0.30025890,0.06837451,-0.00373014,0.00009143
 ,-0.00006275,-0.00001899,-0.00000048,0.00000042,-0.00000256,-0.0000028
 0,0.00001006,0.00001112,0.00000011,0.00000211,-0.00000138,-0.00000352,
 -0.00000114,-0.00000192,-0.00000003,0.00000101,-0.00000068,0.00000043,
 -0.00000098,0.00000113,-0.00000020,-0.00000242,0.00000051,0.00000095,0
 .,0.00000092,0.00000053,0.00000068,-0.00000153,-0.00001274,0.00000580,
 -0.00002203,0.00000267,-0.00005694,-0.00020878,-0.00011804,0.00009565,
 0.00001768,0.00007551,-0.00016443,0.00081170,0.00056604,0.00020424,0.0
 0030953,0.00144756,0.00056746,0.00074963,-0.00413743,0.00038663,-0.000
 06057,-0.01597144,0.00529233,-0.00067308,0.32307579,0.00002431,0.00001
 461,-0.00002519,-0.00003372,0.00000016,0.00010460,0.00000340,0.0000264
 3,-0.00001394,-0.00000733,-0.00001779,-0.00000806,0.00000578,0.0000100
 5,0.00000883,-0.00000317,-0.00000511,-0.00000540,-0.00011912,-0.000024
 08,0.00021051,-0.00040123,0.00036387,0.00073188,0.01825070,-0.00608668
 ,0.00017021,0.06732659,-0.06646421,0.00101281,-0.00004943,0.00000913,-
 0.00007667,0.00000796,0.00000216,0.00000203,0.00000397,-0.00001045,-0.
 00000586,-0.00000243,-0.00000157,0.00000202,0.00000177,0.00000833,0.00
 000081,-0.00000027,-0.00000149,-0.00000104,-0.00000035,-0.00000119,-0.
 00000188,0.00000051,0.00000251,0.00000116,0.00000209,-0.00000095,-0.00
 000182,-0.00000060,0.00000004,0.00000150,0.00003039,-0.00003324,-0.000
 02162,-0.00003217,0.00001214,0.00012564,-0.00015151,-0.00000827,-0.000
 10783,-0.00019070,0.00047992,-0.00025221,0.00013364,0.00015336,0.00074
 190,0.00060382,-0.00126182,-0.00344485,0.01717047,-0.00494613,-0.00079
 148,-0.02659655,0.00872823,-0.00038083,-0.07595949,0.06906311,-0.00003
 685,-0.00000731,0.00001072,0.00002694,0.00001274,-0.00015510,0.0000165
 4,-0.00002485,0.00001644,0.00001929,-0.00000367,0.00001770,-0.00000987
 ,-0.00000285,-0.00000841,0.00000405,-0.00000002,0.00000687,-0.00015444
 ,-0.00004894,0.00032709,0.00138111,-0.00048056,0.00165296,0.02821628,-
 0.00732019,-0.00145928,-0.00503123,0.00148059,-0.04735374,-0.00011523,
 0.00007993,0.00004754,-0.00000460,-0.00000077,0.00000137,-0.00000228,0
 .00001482,0.00000755,0.00000003,-0.00000005,-0.00000141,0.00000212,-0.
 00000275,0.00000035,0.00000106,-0.00000153,0.00000151,0.00000003,0.000
 00168,-0.00000124,-0.00000061,0.00000136,-0.00000108,-0.00000288,0.000
 00132,0.00000037,-0.00000062,0.00000004,-0.00000061,0.00004274,-0.0000
 3545,0.00003457,-0.00013427,0.00010301,0.00010806,-0.00002751,0.000078
 87,-0.00003455,-0.00049894,0.00021847,-0.00048583,-0.00055856,0.000624
 11,0.00107448,0.00122474,-0.00309111,-0.00456390,-0.02656748,0.0056679
 2,0.00075096,-0.00084521,0.00072300,-0.00126040,0.00303191,0.00201854,
 0.05126679,-0.44567527,0.13748619,0.00214334,-0.02743675,0.00156806,-0
 .00027338,0.00222116,0.00052494,-0.00102162,0.00149182,0.00101693,0.00
 055530,-0.00051986,-0.00012846,-0.00041561,0.00018908,0.00014702,0.000
 14279,0.00253203,0.00179185,0.00054280,-0.00034198,0.00073118,0.000059
 05,0.00035700,-0.00038291,0.00003996,-0.00012045,0.00022372,-0.0000899
 3,0.00110761,-0.00180877,0.00048650,-0.00055039,0.00054594,0.00093705,
 -0.00013538,0.00016061,-0.00018290,0.00022915,0.00004574,0.00067246,-0
 .00005643,-0.00001005,-0.00013573,-0.00004994,-0.00006870,-0.00004015,
 0.00005725,0.00002095,-0.00001919,-0.00000715,0.00002930,-0.00001070,-
 0.00013825,0.00001320,-0.00001293,-0.00008337,-0.00004273,0.00005584,-
 0.00011957,0.00019387,-0.00113396,0.00090182,-0.00024553,0.00020293,0.
 00009614,0.00000282,0.00023698,-0.00002262,-0.00004934,-0.00003116,-0.
 00005941,0.00000180,-0.00001680,-0.00004472,0.00005412,-0.00001711,0.0
 0002254,-0.00004135,-0.00009247,0.00001948,-0.00004566,0.00000446,-0.0
 0001099,-0.00001731,0.00002376,0.46614743,0.17405352,-0.08393321,0.000
 73225,-0.02836910,0.00560372,0.00042021,0.00023701,-0.00015412,0.00062
 433,-0.00175487,-0.00131115,0.00022730,0.00118011,0.00009608,-0.000459
 75,0.00008794,-0.00004095,0.00003503,0.00033094,-0.00031168,-0.0005737
 1,0.00029488,0.00033310,-0.00004826,0.00002092,-0.00013157,-0.00001454
 ,-0.00000153,0.00007894,-0.00002694,-0.00667511,-0.00188882,-0.0001184
 8,0.00028091,-0.00015725,0.00006611,0.00015882,0.00008187,0.00009201,0
 .00145331,0.00036436,-0.00150193,0.00003649,-0.00034807,0.00008903,-0.
 00008377,0.00022012,0.00038384,-0.00002664,0.00005935,0.00016062,-0.00
 000501,-0.00005020,-0.00002148,-0.00001444,0.00003758,0.00002838,0.000
 01027,-0.00000328,-0.00007084,0.00035972,-0.00022623,-0.00005258,0.000
 12698,-0.00110935,0.00123921,0.00002685,0.00004193,-0.00004748,-0.0000
 1716,-0.00010748,-0.00018530,-0.00001665,-0.00001587,0.00001175,0.0000
 3047,0.00000692,0.00002912,-0.00000228,-0.00002291,-0.00002666,-0.0000
 1015,-0.00001739,-0.00001138,0.00000497,-0.00001105,-0.00000634,-0.141
 71741,0.08291659,0.00055921,0.00076040,-0.00006924,0.00161764,0.000431
 51,-0.00076713,0.00041759,0.00008147,0.00007318,-0.00201059,-0.0017469
 2,0.00000817,0.00083062,0.00046819,-0.00043725,0.00004260,-0.00007553,
 0.00002288,-0.00040185,-0.00039632,-0.00005443,0.00005964,0.00075502,-
 0.00001839,-0.00002129,-0.00013358,-0.00023417,0.00000642,-0.00002158,
 -0.00000670,0.00013461,-0.00001565,0.00161790,0.00022134,0.00001569,0.
 00005106,-0.00026398,-0.00019959,-0.00021342,0.00175834,-0.00057386,-0
 .00071785,0.00031305,0.00065341,-0.00003683,-0.00004983,0.00019574,0.0
 0030201,-0.00007656,-0.00007293,-0.00007631,0.00000307,0.00002932,-0.0
 0003193,-0.00001986,0.00003726,0.00001161,0.00006772,-0.00002384,-0.00
 003634,-0.00049209,0.00007950,0.00012481,-0.00007148,0.00134037,-0.000
 55358,0.00020049,-0.00039596,-0.00047408,-0.00013801,-0.00022148,0.000
 13982,-0.00004233,-0.00005947,0.00010725,-0.00002074,0.00009643,-0.000
 01585,0.00000208,-0.00001449,0.00002851,0.00000267,-0.00002583,-0.0000
 4671,-0.00001891,0.00000624,0.00000021,-0.00260958,-0.00097354,0.00130
 280\\-0.00000043,0.00000049,0.00000409,-0.00000036,0.00000147,0.000000
 33,0.00000004,0.00000058,0.00000072,-0.00000209,0.00000001,-0.00000108
 ,-0.00000017,0.00000098,0.,-0.00000118,0.00000249,-0.00000142,-0.00000
 108,-0.00000053,0.00000195,0.00000101,-0.00000338,0.00000094,0.0000005
 9,0.00000152,-0.00000072,0.00000193,-0.00000145,-0.00000003,-0.0000000
 2,-0.00000159,-0.00000114,-0.00000066,-0.00000065,0.00000070,-0.000001
 04,-0.00000041,-0.00000017,-0.00000026,0.00000138,0.00000051,-0.000000
 21,0.00000071,0.00000027,-0.00000075,0.00000053,-0.00000006,-0.0000016
 5,0.00000055,-0.00000148,0.00000074,0.00000026,-0.00000080,-0.00000101
 ,0.00000096,-0.00000059,-0.00000119,0.00000132,-0.00000082,0.00000100,
 -0.00000153,0.00000153,0.,0.00000011,0.00000034,0.00000042,0.00000022,
 -0.00000096,0.00000024,-0.00000062,0.00000030,0.00000145,-0.00000134,0
 .00000055,0.00000163,-0.00000068,0.00000038,0.00000184,-0.00000075,0.0
 0000022,0.00000094,-0.00000025,0.00000030,0.00000112,-0.00000088,0.000
 00107,-0.00000084,0.00000048,-0.00000493\\\@


 ABALONE: AN EXPRESSION OF DISBELIEF.
 Job cpu time:       0 days  2 hours 10 minutes 34.6 seconds.
 Elapsed time:       0 days  0 hours  5 minutes 27.8 seconds.
 File lengths (MBytes):  RWF=    386 Int=      0 D2E=      0 Chk=     13 Scr=      1
 Normal termination of Gaussian 16 at Sun Oct 13 23:23:28 2019.
real 783.97
user 18508.07
sys 80.43
Machine:
brown-a209
brown-a209
brown-a209
brown-a209
brown-a209
brown-a209
brown-a209
brown-a209
brown-a209
brown-a209
brown-a209
brown-a209
brown-a209
brown-a209
brown-a209
brown-a209
brown-a209
brown-a209
brown-a209
brown-a209
brown-a209
brown-a209
brown-a209
brown-a209
