 Entering Gaussian System, Link 0=/apps/cent7/gaussian/g16-A.03/g16-haswell/g16/g16
 Initial command:
 /apps/cent7/gaussian/g16-A.03/g16-haswell/g16/l1.exe "/scratch/brown/finej/gaussian/Gau-77790.inp" -scrdir="/scratch/brown/finej/gaussian/"
 Entering Link 1 = /apps/cent7/gaussian/g16-A.03/g16-haswell/g16/l1.exe PID=     77791.
  
 Copyright (c) 1988,1990,1992,1993,1995,1998,2003,2009,2016,
            Gaussian, Inc.  All Rights Reserved.
  
 This is part of the Gaussian(R) 16 program.  It is based on
 the Gaussian(R) 09 system (copyright 2009, Gaussian, Inc.),
 the Gaussian(R) 03 system (copyright 2003, Gaussian, Inc.),
 the Gaussian(R) 98 system (copyright 1998, Gaussian, Inc.),
 the Gaussian(R) 94 system (copyright 1995, Gaussian, Inc.),
 the Gaussian 92(TM) system (copyright 1992, Gaussian, Inc.),
 the Gaussian 90(TM) system (copyright 1990, Gaussian, Inc.),
 the Gaussian 88(TM) system (copyright 1988, Gaussian, Inc.),
 the Gaussian 86(TM) system (copyright 1986, Carnegie Mellon
 University), and the Gaussian 82(TM) system (copyright 1983,
 Carnegie Mellon University). Gaussian is a federally registered
 trademark of Gaussian, Inc.
  
 This software contains proprietary and confidential information,
 including trade secrets, belonging to Gaussian, Inc.
  
 This software is provided under written license and may be
 used, copied, transmitted, or stored only in accord with that
 written license.
  
 The following legend is applicable only to US Government
 contracts under FAR:
  
                    RESTRICTED RIGHTS LEGEND
  
 Use, reproduction and disclosure by the US Government is
 subject to restrictions as set forth in subparagraphs (a)
 and (c) of the Commercial Computer Software - Restricted
 Rights clause in FAR 52.227-19.
  
 Gaussian, Inc.
 340 Quinnipiac St., Bldg. 40, Wallingford CT 06492
  
  
 ---------------------------------------------------------------
 Warning -- This program may not be used in any manner that
 competes with the business of Gaussian, Inc. or will provide
 assistance to any competitor of Gaussian, Inc.  The licensee
 of this program is prohibited from giving any competitor of
 Gaussian, Inc. access to this program.  By using this program,
 the user acknowledges that Gaussian, Inc. is engaged in the
 business of creating and licensing software in the field of
 computational chemistry and represents and warrants to the
 licensee that it is not a competitor of Gaussian, Inc. and that
 it will not use this program in any manner prohibited above.
 ---------------------------------------------------------------
  

 Cite this work as:
 Gaussian 16, Revision A.03,
 M. J. Frisch, G. W. Trucks, H. B. Schlegel, G. E. Scuseria, 
 M. A. Robb, J. R. Cheeseman, G. Scalmani, V. Barone, 
 G. A. Petersson, H. Nakatsuji, X. Li, M. Caricato, A. V. Marenich, 
 J. Bloino, B. G. Janesko, R. Gomperts, B. Mennucci, H. P. Hratchian, 
 J. V. Ortiz, A. F. Izmaylov, J. L. Sonnenberg, D. Williams-Young, 
 F. Ding, F. Lipparini, F. Egidi, J. Goings, B. Peng, A. Petrone, 
 T. Henderson, D. Ranasinghe, V. G. Zakrzewski, J. Gao, N. Rega, 
 G. Zheng, W. Liang, M. Hada, M. Ehara, K. Toyota, R. Fukuda, 
 J. Hasegawa, M. Ishida, T. Nakajima, Y. Honda, O. Kitao, H. Nakai, 
 T. Vreven, K. Throssell, J. A. Montgomery, Jr., J. E. Peralta, 
 F. Ogliaro, M. J. Bearpark, J. J. Heyd, E. N. Brothers, K. N. Kudin, 
 V. N. Staroverov, T. A. Keith, R. Kobayashi, J. Normand, 
 K. Raghavachari, A. P. Rendell, J. C. Burant, S. S. Iyengar, 
 J. Tomasi, M. Cossi, J. M. Millam, M. Klene, C. Adamo, R. Cammi, 
 J. W. Ochterski, R. L. Martin, K. Morokuma, O. Farkas, 
 J. B. Foresman, and D. J. Fox, Gaussian, Inc., Wallingford CT, 2016.
 
 ******************************************
 Gaussian 16:  ES64L-G16RevA.03 25-Dec-2016
                13-Oct-2019 
 ******************************************
 %chk=31.chk
 %nprocshared=24
 Will use up to   24 processors via shared memory.
 %mem=80GB
 -------------------------------------------------------------------
 #P opt freq m062x/6-311++g(d,p) geom=connectivity temperature=0.001
 -------------------------------------------------------------------
 1/18=20,19=15,26=3,38=1,57=2,112=-1000/1,3;
 2/9=110,12=2,17=6,18=5,40=1/2;
 3/5=4,6=6,7=1111,11=2,25=1,30=1,71=1,74=-55/1,2,3;
 4//1;
 5/5=2,38=5/2;
 6/7=2,8=2,9=2,10=2,28=1/1;
 7//1,2,3,16;
 1/18=20,19=15,26=3/3(2);
 2/9=110/2;
 99//99;
 2/9=110/2;
 3/5=4,6=6,7=1111,11=2,25=1,30=1,71=1,74=-55/1,2,3;
 4/5=5,16=3,69=1/1;
 5/5=2,38=5/2;
 7//1,2,3,16;
 1/18=20,19=15,26=3/3(-5);
 2/9=110/2;
 6/7=2,8=2,9=2,10=2,19=2,28=1/1;
 99/9=1/99;
 Leave Link    1 at Sun Oct 13 23:10:39 2019, MaxMem= 10737418240 cpu:               0.9 elap:               0.0
 (Enter /apps/cent7/gaussian/g16-A.03/g16-haswell/g16/l101.exe)
 -------------------
 Title Card Required
 -------------------
 Symbolic Z-matrix:
 Charge =  0 Multiplicity = 1
 C                    -0.019     3.4371   -6.2057 
 C                     0.6704    2.7497   -5.0045 
 C                    -0.2321    2.7281   -3.7441 
 C                     0.4315    2.0488   -2.5209 
 S                    -0.7273    2.0292   -1.1005 
 C                     0.1766    1.2507    0.2915 
 C                    -0.7128    1.2232    1.5589 
 C                    -0.0348    0.5419    2.7754 
 C                    -0.9462    0.534     4.0243 
 O                    -0.9055    3.5656   -0.6806 
 H                    -0.4084    2.6782   -6.8843 
 H                    -0.8392    4.0589   -5.8469 
 H                     0.7046    4.0589   -6.7329 
 H                     0.8153    1.7087   -5.2935 
 H                     1.5304    3.3703   -4.753 
 H                    -0.3788    3.771    -3.4631 
 H                    -1.0903    2.1071   -4.0011 
 H                     0.6079    1.0279   -2.8596 
 H                     1.2748    2.7007   -2.2925 
 H                     0.3422    0.1959    0.0722 
 H                     1.0143    1.8853    0.5805 
 H                    -0.8597    2.2652    1.843 
 H                    -1.5714    0.6006    1.3074 
 H                     0.1091   -0.5026    2.4987 
 H                     0.8249    1.1612    3.0316 
 H                    -1.1573   -0.4955    4.3136 
 H                    -0.4431    1.046     4.8446 
 H                    -1.8809    1.046     3.7953 
 
 ITRead=  0  0  0  0  0  0  0  0  0  0  0  0  0  0  0  0  0  0  0  0
 ITRead=  0  0  0  0  0  0  0  0
 MicOpt= -1 -1 -1 -1 -1 -1 -1 -1 -1 -1 -1 -1 -1 -1 -1 -1 -1 -1 -1 -1
 MicOpt= -1 -1 -1 -1 -1 -1 -1 -1
 NAtoms=     28 NQM=       28 NQMF=       0 NMMI=      0 NMMIF=      0
                NMic=       0 NMicF=      0.
                    Isotopes and Nuclear Properties:
 (Nuclear quadrupole moments (NQMom) in fm**2, nuclear magnetic moments (NMagM)
  in nuclear magnetons)

  Atom         1           2           3           4           5           6           7           8           9          10
 IAtWgt=          12          12          12          12          32          12          12          12          12          16
 AtmWgt=  12.0000000  12.0000000  12.0000000  12.0000000  31.9720718  12.0000000  12.0000000  12.0000000  12.0000000  15.9949146
 NucSpn=           0           0           0           0           0           0           0           0           0           0
 AtZEff=  -0.0000000  -0.0000000  -0.0000000  -0.0000000  -0.0000000  -0.0000000  -0.0000000  -0.0000000  -0.0000000  -0.0000000
 NQMom=    0.0000000   0.0000000   0.0000000   0.0000000   0.0000000   0.0000000   0.0000000   0.0000000   0.0000000   0.0000000
 NMagM=    0.0000000   0.0000000   0.0000000   0.0000000   0.0000000   0.0000000   0.0000000   0.0000000   0.0000000   0.0000000
 AtZNuc=   6.0000000   6.0000000   6.0000000   6.0000000  16.0000000   6.0000000   6.0000000   6.0000000   6.0000000   8.0000000

  Atom        11          12          13          14          15          16          17          18          19          20
 IAtWgt=           1           1           1           1           1           1           1           1           1           1
 AtmWgt=   1.0078250   1.0078250   1.0078250   1.0078250   1.0078250   1.0078250   1.0078250   1.0078250   1.0078250   1.0078250
 NucSpn=           1           1           1           1           1           1           1           1           1           1
 AtZEff=  -0.0000000  -0.0000000  -0.0000000  -0.0000000  -0.0000000  -0.0000000  -0.0000000  -0.0000000  -0.0000000  -0.0000000
 NQMom=    0.0000000   0.0000000   0.0000000   0.0000000   0.0000000   0.0000000   0.0000000   0.0000000   0.0000000   0.0000000
 NMagM=    2.7928460   2.7928460   2.7928460   2.7928460   2.7928460   2.7928460   2.7928460   2.7928460   2.7928460   2.7928460
 AtZNuc=   1.0000000   1.0000000   1.0000000   1.0000000   1.0000000   1.0000000   1.0000000   1.0000000   1.0000000   1.0000000

  Atom        21          22          23          24          25          26          27          28
 IAtWgt=           1           1           1           1           1           1           1           1
 AtmWgt=   1.0078250   1.0078250   1.0078250   1.0078250   1.0078250   1.0078250   1.0078250   1.0078250
 NucSpn=           1           1           1           1           1           1           1           1
 AtZEff=  -0.0000000  -0.0000000  -0.0000000  -0.0000000  -0.0000000  -0.0000000  -0.0000000  -0.0000000
 NQMom=    0.0000000   0.0000000   0.0000000   0.0000000   0.0000000   0.0000000   0.0000000   0.0000000
 NMagM=    2.7928460   2.7928460   2.7928460   2.7928460   2.7928460   2.7928460   2.7928460   2.7928460
 AtZNuc=   1.0000000   1.0000000   1.0000000   1.0000000   1.0000000   1.0000000   1.0000000   1.0000000
 Leave Link  101 at Sun Oct 13 23:10:40 2019, MaxMem= 10737418240 cpu:               9.0 elap:               0.4
 (Enter /apps/cent7/gaussian/g16-A.03/g16-haswell/g16/l103.exe)

 GradGradGradGradGradGradGradGradGradGradGradGradGradGradGradGradGradGrad
 Berny optimization.
 Initialization pass.
                           ----------------------------
                           !    Initial Parameters    !
                           ! (Angstroms and Degrees)  !
 --------------------------                            --------------------------
 ! Name  Definition              Value          Derivative Info.                !
 --------------------------------------------------------------------------------
 ! R1    R(1,2)                  1.5462         estimate D2E/DX2                !
 ! R2    R(1,11)                 1.09           estimate D2E/DX2                !
 ! R3    R(1,12)                 1.09           estimate D2E/DX2                !
 ! R4    R(1,13)                 1.09           estimate D2E/DX2                !
 ! R5    R(2,3)                  1.5503         estimate D2E/DX2                !
 ! R6    R(2,14)                 1.09           estimate D2E/DX2                !
 ! R7    R(2,15)                 1.09           estimate D2E/DX2                !
 ! R8    R(3,4)                  1.5486         estimate D2E/DX2                !
 ! R9    R(3,16)                 1.09           estimate D2E/DX2                !
 ! R10   R(3,17)                 1.09           estimate D2E/DX2                !
 ! R11   R(4,5)                  1.8332         estimate D2E/DX2                !
 ! R12   R(4,18)                 1.09           estimate D2E/DX2                !
 ! R13   R(4,19)                 1.0901         estimate D2E/DX2                !
 ! R14   R(5,6)                  1.8332         estimate D2E/DX2                !
 ! R15   R(5,10)                 1.6027         estimate D2E/DX2                !
 ! R16   R(6,7)                  1.5486         estimate D2E/DX2                !
 ! R17   R(6,20)                 1.09           estimate D2E/DX2                !
 ! R18   R(6,21)                 1.0899         estimate D2E/DX2                !
 ! R19   R(7,8)                  1.5504         estimate D2E/DX2                !
 ! R20   R(7,22)                 1.09           estimate D2E/DX2                !
 ! R21   R(7,23)                 1.09           estimate D2E/DX2                !
 ! R22   R(8,9)                  1.5461         estimate D2E/DX2                !
 ! R23   R(8,24)                 1.0901         estimate D2E/DX2                !
 ! R24   R(8,25)                 1.0901         estimate D2E/DX2                !
 ! R25   R(9,26)                 1.09           estimate D2E/DX2                !
 ! R26   R(9,27)                 1.09           estimate D2E/DX2                !
 ! R27   R(9,28)                 1.0901         estimate D2E/DX2                !
 ! A1    A(2,1,11)             109.4766         estimate D2E/DX2                !
 ! A2    A(2,1,12)             109.4749         estimate D2E/DX2                !
 ! A3    A(2,1,13)             109.4731         estimate D2E/DX2                !
 ! A4    A(11,1,12)            109.4688         estimate D2E/DX2                !
 ! A5    A(11,1,13)            109.4639         estimate D2E/DX2                !
 ! A6    A(12,1,13)            109.47           estimate D2E/DX2                !
 ! A7    A(1,2,3)              112.224          estimate D2E/DX2                !
 ! A8    A(1,2,14)             106.1334         estimate D2E/DX2                !
 ! A9    A(1,2,15)             106.1367         estimate D2E/DX2                !
 ! A10   A(3,2,14)             106.2375         estimate D2E/DX2                !
 ! A11   A(3,2,15)             106.2397         estimate D2E/DX2                !
 ! A12   A(14,2,15)            120.0036         estimate D2E/DX2                !
 ! A13   A(2,3,4)              113.5046         estimate D2E/DX2                !
 ! A14   A(2,3,16)             105.9381         estimate D2E/DX2                !
 ! A15   A(2,3,17)             105.9366         estimate D2E/DX2                !
 ! A16   A(4,3,16)             105.8875         estimate D2E/DX2                !
 ! A17   A(4,3,17)             105.885          estimate D2E/DX2                !
 ! A18   A(16,3,17)            119.9933         estimate D2E/DX2                !
 ! A19   A(3,4,5)              110.2325         estimate D2E/DX2                !
 ! A20   A(3,4,18)             103.5777         estimate D2E/DX2                !
 ! A21   A(3,4,19)             103.5728         estimate D2E/DX2                !
 ! A22   A(5,4,18)             109.4538         estimate D2E/DX2                !
 ! A23   A(5,4,19)             109.4543         estimate D2E/DX2                !
 ! A24   A(18,4,19)            120.0019         estimate D2E/DX2                !
 ! A25   A(4,5,6)              106.3314         estimate D2E/DX2                !
 ! A26   A(4,5,10)             105.25           estimate D2E/DX2                !
 ! A27   A(6,5,10)             105.247          estimate D2E/DX2                !
 ! A28   A(5,6,7)              110.2308         estimate D2E/DX2                !
 ! A29   A(5,6,20)             109.456          estimate D2E/DX2                !
 ! A30   A(5,6,21)             109.4532         estimate D2E/DX2                !
 ! A31   A(7,6,20)             103.5758         estimate D2E/DX2                !
 ! A32   A(7,6,21)             103.5768         estimate D2E/DX2                !
 ! A33   A(20,6,21)            120.0003         estimate D2E/DX2                !
 ! A34   A(6,7,8)              113.504          estimate D2E/DX2                !
 ! A35   A(6,7,22)             105.8875         estimate D2E/DX2                !
 ! A36   A(6,7,23)             105.8853         estimate D2E/DX2                !
 ! A37   A(8,7,22)             105.9332         estimate D2E/DX2                !
 ! A38   A(8,7,23)             105.933          estimate D2E/DX2                !
 ! A39   A(22,7,23)            120.0022         estimate D2E/DX2                !
 ! A40   A(7,8,9)              112.2264         estimate D2E/DX2                !
 ! A41   A(7,8,24)             106.2378         estimate D2E/DX2                !
 ! A42   A(7,8,25)             106.2391         estimate D2E/DX2                !
 ! A43   A(9,8,24)             106.1386         estimate D2E/DX2                !
 ! A44   A(9,8,25)             106.1381         estimate D2E/DX2                !
 ! A45   A(24,8,25)            119.9951         estimate D2E/DX2                !
 ! A46   A(8,9,26)             109.4739         estimate D2E/DX2                !
 ! A47   A(8,9,27)             109.4762         estimate D2E/DX2                !
 ! A48   A(8,9,28)             109.4731         estimate D2E/DX2                !
 ! A49   A(26,9,27)            109.4687         estimate D2E/DX2                !
 ! A50   A(26,9,28)            109.47           estimate D2E/DX2                !
 ! A51   A(27,9,28)            109.4654         estimate D2E/DX2                !
 ! D1    D(11,1,2,3)          -100.7219         estimate D2E/DX2                !
 ! D2    D(11,1,2,14)           14.9127         estimate D2E/DX2                !
 ! D3    D(11,1,2,15)          143.6389         estimate D2E/DX2                !
 ! D4    D(12,1,2,3)            19.2807         estimate D2E/DX2                !
 ! D5    D(12,1,2,14)          134.9153         estimate D2E/DX2                !
 ! D6    D(12,1,2,15)          -96.3585         estimate D2E/DX2                !
 ! D7    D(13,1,2,3)           139.2826         estimate D2E/DX2                !
 ! D8    D(13,1,2,14)         -105.0828         estimate D2E/DX2                !
 ! D9    D(13,1,2,15)           23.6434         estimate D2E/DX2                !
 ! D10   D(1,2,3,4)           -179.8525         estimate D2E/DX2                !
 ! D11   D(1,2,3,16)           -64.0894         estimate D2E/DX2                !
 ! D12   D(1,2,3,17)            64.3882         estimate D2E/DX2                !
 ! D13   D(14,2,3,4)            64.5759         estimate D2E/DX2                !
 ! D14   D(14,2,3,16)         -179.661          estimate D2E/DX2                !
 ! D15   D(14,2,3,17)          -51.1833         estimate D2E/DX2                !
 ! D16   D(15,2,3,4)           -64.2757         estimate D2E/DX2                !
 ! D17   D(15,2,3,16)           51.4874         estimate D2E/DX2                !
 ! D18   D(15,2,3,17)          179.9651         estimate D2E/DX2                !
 ! D19   D(2,3,4,5)           -178.3597         estimate D2E/DX2                !
 ! D20   D(2,3,4,18)           -61.3483         estimate D2E/DX2                !
 ! D21   D(2,3,4,19)            64.6309         estimate D2E/DX2                !
 ! D22   D(16,3,4,5)            65.8474         estimate D2E/DX2                !
 ! D23   D(16,3,4,18)         -177.1412         estimate D2E/DX2                !
 ! D24   D(16,3,4,19)          -51.1621         estimate D2E/DX2                !
 ! D25   D(17,3,4,5)           -62.57           estimate D2E/DX2                !
 ! D26   D(17,3,4,18)           54.4414         estimate D2E/DX2                !
 ! D27   D(17,3,4,19)         -179.5794         estimate D2E/DX2                !
 ! D28   D(3,4,5,6)           -178.4464         estimate D2E/DX2                !
 ! D29   D(3,4,5,10)           -67.105          estimate D2E/DX2                !
 ! D30   D(18,4,5,6)            68.2544         estimate D2E/DX2                !
 ! D31   D(18,4,5,10)          179.5957         estimate D2E/DX2                !
 ! D32   D(19,4,5,6)           -65.1525         estimate D2E/DX2                !
 ! D33   D(19,4,5,10)           46.1888         estimate D2E/DX2                !
 ! D34   D(4,5,6,7)            178.448          estimate D2E/DX2                !
 ! D35   D(4,5,6,20)           -68.2547         estimate D2E/DX2                !
 ! D36   D(4,5,6,21)            65.151          estimate D2E/DX2                !
 ! D37   D(10,5,6,7)            67.1045         estimate D2E/DX2                !
 ! D38   D(10,5,6,20)         -179.5982         estimate D2E/DX2                !
 ! D39   D(10,5,6,21)          -46.1925         estimate D2E/DX2                !
 ! D40   D(5,6,7,8)            178.3594         estimate D2E/DX2                !
 ! D41   D(5,6,7,22)           -65.8539         estimate D2E/DX2                !
 ! D42   D(5,6,7,23)            62.5742         estimate D2E/DX2                !
 ! D43   D(20,6,7,8)            61.3472         estimate D2E/DX2                !
 ! D44   D(20,6,7,22)          177.1339         estimate D2E/DX2                !
 ! D45   D(20,6,7,23)          -54.438          estimate D2E/DX2                !
 ! D46   D(21,6,7,8)           -64.6312         estimate D2E/DX2                !
 ! D47   D(21,6,7,22)           51.1556         estimate D2E/DX2                !
 ! D48   D(21,6,7,23)          179.5836         estimate D2E/DX2                !
 ! D49   D(6,7,8,9)            179.8503         estimate D2E/DX2                !
 ! D50   D(6,7,8,24)           -64.5704         estimate D2E/DX2                !
 ! D51   D(6,7,8,25)            64.2708         estimate D2E/DX2                !
 ! D52   D(22,7,8,9)            64.0905         estimate D2E/DX2                !
 ! D53   D(22,7,8,24)          179.6699         estimate D2E/DX2                !
 ! D54   D(22,7,8,25)          -51.4889         estimate D2E/DX2                !
 ! D55   D(23,7,8,9)           -64.3927         estimate D2E/DX2                !
 ! D56   D(23,7,8,24)           51.1867         estimate D2E/DX2                !
 ! D57   D(23,7,8,25)         -179.9721         estimate D2E/DX2                !
 ! D58   D(7,8,9,26)           118.2059         estimate D2E/DX2                !
 ! D59   D(7,8,9,27)          -121.7925         estimate D2E/DX2                !
 ! D60   D(7,8,9,28)            -1.7954         estimate D2E/DX2                !
 ! D61   D(24,8,9,26)            2.5665         estimate D2E/DX2                !
 ! D62   D(24,8,9,27)          122.5681         estimate D2E/DX2                !
 ! D63   D(24,8,9,28)         -117.4348         estimate D2E/DX2                !
 ! D64   D(25,8,9,26)         -126.1535         estimate D2E/DX2                !
 ! D65   D(25,8,9,27)           -6.1519         estimate D2E/DX2                !
 ! D66   D(25,8,9,28)          113.8452         estimate D2E/DX2                !
 --------------------------------------------------------------------------------
 Trust Radius=3.00D-01 FncErr=1.00D-07 GrdErr=1.00D-06 EigMax=2.50D+02 EigMin=1.00D-04
 Number of steps in this run=    154 maximum allowed number of steps=    168.
 GradGradGradGradGradGradGradGradGradGradGradGradGradGradGradGradGradGrad

 Leave Link  103 at Sun Oct 13 23:10:40 2019, MaxMem= 10737418240 cpu:               0.3 elap:               0.0
 (Enter /apps/cent7/gaussian/g16-A.03/g16-haswell/g16/l202.exe)
                          Input orientation:                          
 ---------------------------------------------------------------------
 Center     Atomic      Atomic             Coordinates (Angstroms)
 Number     Number       Type             X           Y           Z
 ---------------------------------------------------------------------
      1          6           0       -0.019000    3.437100   -6.205700
      2          6           0        0.670400    2.749700   -5.004500
      3          6           0       -0.232100    2.728100   -3.744100
      4          6           0        0.431500    2.048800   -2.520900
      5         16           0       -0.727300    2.029200   -1.100500
      6          6           0        0.176600    1.250700    0.291500
      7          6           0       -0.712800    1.223200    1.558900
      8          6           0       -0.034800    0.541900    2.775400
      9          6           0       -0.946200    0.534000    4.024300
     10          8           0       -0.905500    3.565600   -0.680600
     11          1           0       -0.408400    2.678200   -6.884300
     12          1           0       -0.839200    4.058900   -5.846900
     13          1           0        0.704600    4.058900   -6.732900
     14          1           0        0.815300    1.708700   -5.293500
     15          1           0        1.530400    3.370300   -4.753000
     16          1           0       -0.378800    3.771000   -3.463100
     17          1           0       -1.090300    2.107100   -4.001100
     18          1           0        0.607900    1.027900   -2.859600
     19          1           0        1.274800    2.700700   -2.292500
     20          1           0        0.342200    0.195900    0.072200
     21          1           0        1.014300    1.885300    0.580500
     22          1           0       -0.859700    2.265200    1.843000
     23          1           0       -1.571400    0.600600    1.307400
     24          1           0        0.109100   -0.502600    2.498700
     25          1           0        0.824900    1.161200    3.031600
     26          1           0       -1.157300   -0.495500    4.313600
     27          1           0       -0.443100    1.046000    4.844600
     28          1           0       -1.880900    1.046000    3.795300
 ---------------------------------------------------------------------
                    Distance matrix (angstroms):
                    1          2          3          4          5
     1  C    0.000000
     2  C    1.546180   0.000000
     3  C    2.570519   1.550349   0.000000
     4  C    3.963342   2.591641   1.548558   0.000000
     5  S    5.342933   4.208789   2.778904   1.833232   0.000000
     6  C    6.858004   5.526161   4.316922   2.934541   1.833238
     7  C    8.103809   6.879074   5.533318   4.316921   2.778894
     8  C    9.436238   8.117791   6.879119   5.526208   4.208826
     9  C   10.674296   9.436204   8.103829   6.858011   5.342950
    10  O    5.597243   4.673892   3.246522   2.734036   1.602684
    11  H    1.089981   2.168541   3.145541   4.487854   5.828828
    12  H    1.090000   2.168533   2.561517   4.088699   5.163382
    13  H    1.090033   2.168534   3.403140   4.675043   6.155806
    14  H    2.124978   1.090045   2.129991   2.819624   4.479239
    15  H    2.124956   1.089953   2.129955   2.817129   4.498501
    16  H    2.786180   2.125979   1.090010   2.123747   2.955875
    17  H    2.788699   2.125985   1.090045   2.123739   2.924264
    18  H    4.170568   2.751199   2.092515   1.089987   2.424829
    19  H    4.186805   2.778965   2.092520   1.090089   2.424908
    20  H    7.074452   5.692319   4.615843   3.188319   2.424880
    21  H    7.037635   5.661950   4.578863   3.159916   2.424797
    22  H    8.176900   7.033079   5.641263   4.556056   2.955912
    23  H    8.179386   7.034513   5.642485   4.556838   2.924275
    24  H    9.555324   8.196983   7.037499   5.640033   4.479265
    25  H    9.550895   8.193052   7.034382   5.636741   4.498555
    26  H   11.287902  10.034879   8.727779   7.463788   5.989281
    27  H   11.313989  10.057199   8.754413   7.484726   6.032551
    28  H   10.450073   9.319238   7.898769   6.800528   5.125069
                    6          7          8          9         10
     6  C    0.000000
     7  C    1.548577   0.000000
     8  C    2.591688   1.550395   0.000000
     9  C    3.963349   2.570539   1.546112   0.000000
    10  O    2.733986   3.246434   4.673844   5.597172   0.000000
    11  H    7.339761   8.573057   9.900160  11.130336   6.286532
    12  H    6.826257   7.931144   9.346679  10.482221   5.190221
    13  H    7.583335   8.877171  10.164830  11.439730   6.282205
    14  H    5.640029   7.037484   8.197026   9.555323   5.261946
    15  H    5.636706   7.034349   8.193077   9.550871   4.749336
    16  H    4.556029   5.641217   7.033086   8.176874   2.839350
    17  H    4.556849   5.642463   7.034549   8.179392   3.631404
    18  H    3.188274   4.615792   5.692318   7.074408   3.671286
    19  H    3.160000   4.578956   5.662074   7.037712   2.846047
    20  H    1.090009   2.092522   2.751206   4.170537   3.671286
    21  H    1.089945   2.092491   2.779014   4.186804   2.845947
    22  H    2.123742   1.089980   2.125933   2.786145   2.839312
    23  H    2.123720   1.089989   2.125937   2.788702   3.631362
    24  H    2.819636   2.130054   1.090069   2.125007   5.261902
    25  H    2.817171   2.130073   1.090071   2.125001   4.749300
    26  H    4.583208   3.277176   2.168470   1.090013   6.441892
    27  H    4.599636   3.301509   2.168505   1.090021   6.090159
    28  H    4.068393   2.529297   2.168501   1.090068   5.228142
                   11         12         13         14         15
    11  H    0.000000
    12  H    1.779921   0.000000
    13  H    1.779894   1.779976   0.000000
    14  H    2.228905   2.926954   2.758182   0.000000
    15  H    2.963172   2.699221   2.253025   1.887968   0.000000
    16  H    3.591615   2.444863   3.456622   3.004883   2.338685
    17  H    3.017281   2.698065   3.807088   2.336735   3.004845
    18  H    4.467053   4.495000   4.919224   2.535818   3.150049
    19  H    4.890633   4.352868   4.678353   3.193933   2.562763
    20  H    7.424157   7.166186   7.833485   5.594919   5.896710
    21  H    7.640419   7.033596   7.635854   5.880022   5.560378
    22  H    8.748715   7.896350   8.900026   7.351527   7.102186
    23  H    8.530706   7.979973   9.043586   7.106061   7.349888
    24  H    9.920987   9.558012  10.314279   8.130618   8.343057
    25  H   10.106799   9.486499  10.186098   8.343089   8.122675
    26  H   11.663027  11.139098  12.092741  10.052165  10.216231
    27  H   11.841975  11.114973  12.018040  10.237373  10.070303
    28  H   10.903494  10.155527  11.251905   9.503418   9.492775
                   16         17         18         19         20
    16  H    0.000000
    17  H    1.887919   0.000000
    18  H    2.976976   2.313348   0.000000
    19  H    2.291340   2.977478   1.888020   0.000000
    20  H    5.079323   4.721919   3.059129   3.568693   0.000000
    21  H    4.674109   5.046741   3.568555   2.997810   1.887898
    22  H    5.536551   5.850784   5.079292   4.674196   2.976961
    23  H    5.850761   5.539059   4.721845   5.046836   2.313302
    24  H    7.351514   7.106089   5.594874   5.880101   2.535772
    25  H    7.102188   7.349938   5.896702   5.560442   3.150056
    26  H    8.904277   8.712764   7.542644   7.731194   4.551484
    27  H    8.743434   8.932593   7.775579   7.525119   4.910720
    28  H    7.897234   7.907897   7.105079   7.053920   4.418859
                   21         22         23         24         25
    21  H    0.000000
    22  H    2.291311   0.000000
    23  H    2.977362   1.887929   0.000000
    24  H    3.193892   3.004868   2.336734   0.000000
    25  H    2.562827   2.338688   3.004895   1.888010   0.000000
    26  H    4.931540   3.716705   3.226477   2.213071   2.883972
    27  H    4.583774   3.266436   3.739415   2.864670   2.215415
    28  H    4.406988   2.518089   2.546334   2.835389   2.813870
                   26         27         28
    26  H    0.000000
    27  H    1.779962   0.000000
    28  H    1.780015   1.779972   0.000000
 Stoichiometry    C8H18OS
 Framework group  C1[X(C8H18OS)]
 Deg. of freedom    78
 Full point group                 C1      NOp   1
 Largest Abelian subgroup         C1      NOp   1
 Largest concise Abelian subgroup C1      NOp   1
                         Standard orientation:                         
 ---------------------------------------------------------------------
 Center     Atomic      Atomic             Coordinates (Angstroms)
 Number     Number       Type             X           Y           Z
 ---------------------------------------------------------------------
      1          6           0        5.337149    0.110938   -0.184815
      2          6           0        4.058880   -0.651684    0.233644
      3          6           0        2.766670    0.096704   -0.183119
      4          6           0        1.467278   -0.640105    0.225199
      5         16           0        0.000009    0.295222   -0.351880
      6          6           0       -1.467263   -0.640106    0.225213
      7          6           0       -2.766647    0.096729   -0.183156
      8          6           0       -4.058911   -0.651661    0.233609
      9          6           0       -5.337147    0.110911   -0.184796
     10          8           0       -0.000038    1.649842    0.504626
     11          1           0        5.747280   -0.336463   -1.090180
     12          1           0        5.091147    1.155621   -0.375132
     13          1           0        6.074373    0.051325    0.615884
     14          1           0        4.065316   -1.585292   -0.328968
     15          1           0        4.061337   -0.672016    1.323404
     16          1           0        2.768261    1.031602    0.377315
     17          1           0        2.769531    0.114725   -1.273011
     18          1           0        1.529549   -1.585943   -0.312932
     19          1           0        1.498936   -0.629787    1.314780
     20          1           0       -1.529580   -1.585970   -0.312910
     21          1           0       -1.498874   -0.629799    1.314651
     22          1           0       -2.768290    1.031561    0.377329
     23          1           0       -2.769527    0.114658   -1.272994
     24          1           0       -4.065301   -1.585347   -0.328919
     25          1           0       -4.061338   -0.672046    1.323487
     26          1           0       -5.912736   -0.499122   -0.880990
     27          1           0       -5.940352    0.321252    0.698405
     28          1           0       -5.059623    1.048390   -0.666837
 ---------------------------------------------------------------------
 Rotational constants (GHZ):           4.5828455           0.3079871           0.2976317
 Leave Link  202 at Sun Oct 13 23:10:40 2019, MaxMem= 10737418240 cpu:               0.5 elap:               0.0
 (Enter /apps/cent7/gaussian/g16-A.03/g16-haswell/g16/l301.exe)
 Standard basis: 6-311++G(d,p) (5D, 7F)
 Ernie: Thresh=  0.10000D-02 Tol=  0.10000D-05 Strict=F.
 There are   364 symmetry adapted cartesian basis functions of A   symmetry.
 There are   354 symmetry adapted basis functions of A   symmetry.
   354 basis functions,   536 primitive gaussians,   364 cartesian basis functions
    45 alpha electrons       45 beta electrons
       nuclear repulsion energy       627.9085006656 Hartrees.
 IExCor= 4336 DFT=T Ex+Corr=M062X ExCW=0 ScaHFX=  0.540000
 ScaDFX=  1.000000  1.000000  1.000000  1.000000 ScalE2=  1.000000  1.000000
 IRadAn=      5 IRanWt=     -1 IRanGd=            0 ICorTp=0 IEmpDi=  4
 NAtoms=   28 NActive=   28 NUniq=   28 SFac= 1.00D+00 NAtFMM=   60 NAOKFM=F Big=F
 Integral buffers will be    131072 words long.
 Raffenetti 2 integral format.
 Two-electron integral symmetry is turned on.
 Leave Link  301 at Sun Oct 13 23:10:40 2019, MaxMem= 10737418240 cpu:               1.3 elap:               0.1
 (Enter /apps/cent7/gaussian/g16-A.03/g16-haswell/g16/l302.exe)
 NPDir=0 NMtPBC=     1 NCelOv=     1 NCel=       1 NClECP=     1 NCelD=      1
         NCelK=      1 NCelE2=     1 NClLst=     1 CellRange=     0.0.
 One-electron integrals computed using PRISM.
 One-electron integral symmetry used in STVInt
 NBasis=   354 RedAO= T EigKep=  4.50D-06  NBF=   354
 NBsUse=   354 1.00D-06 EigRej= -1.00D+00 NBFU=   354
 Precomputing XC quadrature grid using
 IXCGrd= 4 IRadAn=           5 IRanWt=          -1 IRanGd=           0 AccXCQ= 0.00D+00.
 Generated NRdTot=       0 NPtTot=           0 NUsed=           0 NTot=          32
 NSgBfM=   354   354   354   354   354 MxSgAt=    28 MxSgA2=    28.
 Leave Link  302 at Sun Oct 13 23:10:40 2019, MaxMem= 10737418240 cpu:               7.2 elap:               0.3
 (Enter /apps/cent7/gaussian/g16-A.03/g16-haswell/g16/l303.exe)
 DipDrv:  MaxL=1.
 Leave Link  303 at Sun Oct 13 23:10:40 2019, MaxMem= 10737418240 cpu:               1.3 elap:               0.1
 (Enter /apps/cent7/gaussian/g16-A.03/g16-haswell/g16/l401.exe)
 ExpMin= 3.60D-02 ExpMax= 9.34D+04 ExpMxC= 3.17D+03 IAcc=3 IRadAn=         5 AccDes= 0.00D+00
 Harris functional with IExCor= 1009 and IRadAn=       5 diagonalized for initial guess.
 HarFok:  IExCor= 1009 AccDes= 0.00D+00 IRadAn=         5 IDoV= 1 UseB2=F ITyADJ=14
 ICtDFT=  3500011 ScaDFX=  1.000000  1.000000  1.000000  1.000000
 FoFCou: FMM=F IPFlag=           0 FMFlag=      100000 FMFlg1=           0
         NFxFlg=           0 DoJE=T BraDBF=F KetDBF=T FulRan=T
         wScrn=  0.000000 ICntrl=       500 IOpCl=  0 I1Cent=   200000004 NGrid=           0
         NMat0=    1 NMatS0=      1 NMatT0=    0 NMatD0=    1 NMtDS0=    0 NMtDT0=    0
 Petite list used in FoFCou.
 Harris En= -788.748140457860    
 JPrj=0 DoOrth=F DoCkMO=F.
 Leave Link  401 at Sun Oct 13 23:10:41 2019, MaxMem= 10737418240 cpu:              16.3 elap:               0.7
 (Enter /apps/cent7/gaussian/g16-A.03/g16-haswell/g16/l502.exe)
 Integral symmetry usage will be decided dynamically.
 Closed shell SCF:
 Using DIIS extrapolation, IDIIS=  1040.
 NGot= 10737418240 LenX= 10737140777 LenY= 10737007840
 Requested convergence on RMS density matrix=1.00D-08 within 128 cycles.
 Requested convergence on MAX density matrix=1.00D-06.
 Requested convergence on             energy=1.00D-06.
 No special actions if energy rises.
 Fock matrices will be formed incrementally for  20 cycles.

 Cycle   1  Pass 1  IDiag  1:
 FoFJK:  IHMeth= 1 ICntrl=       0 DoSepK=F KAlg= 0 I1Cent=           0 FoldK=F
 IRaf= 860000000 NMat=       1 IRICut=       1 DoRegI=T DoRafI=F ISym2E= 0 IDoP0=0 IntGTp=1.
 FoFCou: FMM=F IPFlag=           0 FMFlag=      100000 FMFlg1=           0
         NFxFlg=           0 DoJE=F BraDBF=F KetDBF=F FulRan=T
         wScrn=  0.000000 ICntrl=         0 IOpCl=  0 I1Cent=           0 NGrid=           0
         NMat0=    1 NMatS0=      1 NMatT0=    0 NMatD0=    1 NMtDS0=    0 NMtDT0=    0
 Symmetry not used in FoFCou.
 E= -788.399110390307    
 DIIS: error= 3.71D-02 at cycle   1 NSaved=   1.
 NSaved= 1 IEnMin= 1 EnMin= -788.399110390307     IErMin= 1 ErrMin= 3.71D-02
 ErrMax= 3.71D-02  0.00D+00 EMaxC= 1.00D-01 BMatC= 6.47D-01 BMatP= 6.47D-01
 IDIUse=3 WtCom= 6.29D-01 WtEn= 3.71D-01
 Coeff-Com:  0.100D+01
 Coeff-En:   0.100D+01
 Coeff:      0.100D+01
 Gap=     0.344 Goal=   None    Shift=    0.000
 GapD=    0.344 DampG=1.000 DampE=0.500 DampFc=0.5000 IDamp=-1.
 Damping current iteration by 5.00D-01
 RMSDP=1.52D-02 MaxDP=8.39D-01              OVMax= 2.68D-01

 Cycle   2  Pass 1  IDiag  1:
 RMSU=  7.58D-03    CP:  9.83D-01
 E= -788.603986074506     Delta-E=       -0.204875684199 Rises=F Damp=T
 DIIS: error= 1.32D-02 at cycle   2 NSaved=   2.
 NSaved= 2 IEnMin= 2 EnMin= -788.603986074506     IErMin= 2 ErrMin= 1.32D-02
 ErrMax= 1.32D-02  0.00D+00 EMaxC= 1.00D-01 BMatC= 5.83D-02 BMatP= 6.47D-01
 IDIUse=3 WtCom= 8.68D-01 WtEn= 1.32D-01
 Coeff-Com:  0.875D-01 0.912D+00
 Coeff-En:   0.193D+00 0.807D+00
 Coeff:      0.102D+00 0.898D+00
 Gap=     0.333 Goal=   None    Shift=    0.000
 RMSDP=7.37D-03 MaxDP=6.29D-01 DE=-2.05D-01 OVMax= 1.82D-01

 Cycle   3  Pass 1  IDiag  1:
 RMSU=  4.46D-03    CP:  8.22D-01  2.94D-01
 E= -788.874312818939     Delta-E=       -0.270326744432 Rises=F Damp=F
 DIIS: error= 2.00D-02 at cycle   3 NSaved=   3.
 NSaved= 3 IEnMin= 3 EnMin= -788.874312818939     IErMin= 2 ErrMin= 1.32D-02
 ErrMax= 2.00D-02  0.00D+00 EMaxC= 1.00D-01 BMatC= 6.43D-02 BMatP= 5.83D-02
 IDIUse=2 WtCom= 0.00D+00 WtEn= 1.00D+00
 Coeff-En:   0.000D+00 0.000D+00 0.100D+01
 Coeff:      0.000D+00 0.000D+00 0.100D+01
 Gap=     0.271 Goal=   None    Shift=    0.000
 RMSDP=6.46D-03 MaxDP=4.37D-01 DE=-2.70D-01 OVMax= 1.94D-01

 Cycle   4  Pass 1  IDiag  1:
 RMSU=  3.50D-03    CP:  9.23D-01  9.37D-01  5.82D-01
 E= -788.741520125302     Delta-E=        0.132792693637 Rises=F Damp=F
 DIIS: error= 3.45D-02 at cycle   4 NSaved=   4.
 NSaved= 4 IEnMin= 3 EnMin= -788.874312818939     IErMin= 2 ErrMin= 1.32D-02
 ErrMax= 3.45D-02  0.00D+00 EMaxC= 1.00D-01 BMatC= 2.29D-01 BMatP= 5.83D-02
 IDIUse=2 WtCom= 0.00D+00 WtEn= 1.00D+00
 Coeff-En:   0.000D+00 0.000D+00 0.742D+00 0.258D+00
 Coeff:      0.000D+00 0.000D+00 0.742D+00 0.258D+00
 Gap=     0.263 Goal=   None    Shift=    0.000
 RMSDP=4.58D-03 MaxDP=3.86D-01 DE= 1.33D-01 OVMax= 1.09D-01

 Cycle   5  Pass 1  IDiag  1:
 RMSU=  1.04D-03    CP:  8.63D-01  4.93D-01  8.87D-01  3.06D-01
 E= -788.918032617037     Delta-E=       -0.176512491736 Rises=F Damp=F
 DIIS: error= 7.22D-03 at cycle   5 NSaved=   5.
 NSaved= 5 IEnMin= 5 EnMin= -788.918032617037     IErMin= 5 ErrMin= 7.22D-03
 ErrMax= 7.22D-03  0.00D+00 EMaxC= 1.00D-01 BMatC= 1.04D-02 BMatP= 5.83D-02
 IDIUse=3 WtCom= 9.28D-01 WtEn= 7.22D-02
 Coeff-Com: -0.113D-01 0.218D-01 0.193D+00-0.105D+00 0.902D+00
 Coeff-En:   0.000D+00 0.000D+00 0.148D+00 0.000D+00 0.852D+00
 Coeff:     -0.105D-01 0.202D-01 0.189D+00-0.974D-01 0.898D+00
 Gap=     0.278 Goal=   None    Shift=    0.000
 RMSDP=8.25D-04 MaxDP=4.46D-02 DE=-1.77D-01 OVMax= 2.76D-02

 Cycle   6  Pass 1  IDiag  1:
 RMSU=  1.91D-04    CP:  8.53D-01  4.13D-01  9.40D-01  1.79D-01  9.77D-01
 E= -788.926361191881     Delta-E=       -0.008328574844 Rises=F Damp=F
 DIIS: error= 3.85D-04 at cycle   6 NSaved=   6.
 NSaved= 6 IEnMin= 6 EnMin= -788.926361191881     IErMin= 6 ErrMin= 3.85D-04
 ErrMax= 3.85D-04  0.00D+00 EMaxC= 1.00D-01 BMatC= 2.40D-05 BMatP= 1.04D-02
 IDIUse=3 WtCom= 9.96D-01 WtEn= 3.85D-03
 Coeff-Com: -0.246D-02 0.334D-02 0.142D-01-0.266D-01 0.178D+00 0.834D+00
 Coeff-En:   0.000D+00 0.000D+00 0.000D+00 0.000D+00 0.000D+00 0.100D+01
 Coeff:     -0.245D-02 0.333D-02 0.141D-01-0.265D-01 0.177D+00 0.834D+00
 Gap=     0.277 Goal=   None    Shift=    0.000
 RMSDP=5.04D-05 MaxDP=2.04D-03 DE=-8.33D-03 OVMax= 1.51D-03

 Cycle   7  Pass 1  IDiag  1:
 RMSU=  3.06D-05    CP:  8.54D-01  4.10D-01  9.42D-01  1.78D-01  9.95D-01
                    CP:  1.13D+00
 E= -788.926385421159     Delta-E=       -0.000024229277 Rises=F Damp=F
 DIIS: error= 7.45D-05 at cycle   7 NSaved=   7.
 NSaved= 7 IEnMin= 7 EnMin= -788.926385421159     IErMin= 7 ErrMin= 7.45D-05
 ErrMax= 7.45D-05  0.00D+00 EMaxC= 1.00D-01 BMatC= 2.41D-06 BMatP= 2.40D-05
 IDIUse=1 WtCom= 1.00D+00 WtEn= 0.00D+00
 Coeff-Com:  0.570D-03-0.193D-02-0.155D-01 0.192D-02-0.344D-01 0.291D+00
 Coeff-Com:  0.758D+00
 Coeff:      0.570D-03-0.193D-02-0.155D-01 0.192D-02-0.344D-01 0.291D+00
 Coeff:      0.758D+00
 Gap=     0.277 Goal=   None    Shift=    0.000
 RMSDP=2.79D-05 MaxDP=1.29D-03 DE=-2.42D-05 OVMax= 6.70D-04

 Cycle   8  Pass 1  IDiag  1:
 RMSU=  9.45D-06    CP:  8.54D-01  4.08D-01  9.42D-01  1.76D-01  1.00D+00
                    CP:  1.21D+00  1.11D+00
 E= -788.926388885071     Delta-E=       -0.000003463913 Rises=F Damp=F
 DIIS: error= 3.09D-05 at cycle   8 NSaved=   8.
 NSaved= 8 IEnMin= 8 EnMin= -788.926388885071     IErMin= 8 ErrMin= 3.09D-05
 ErrMax= 3.09D-05  0.00D+00 EMaxC= 1.00D-01 BMatC= 1.61D-07 BMatP= 2.41D-06
 IDIUse=1 WtCom= 1.00D+00 WtEn= 0.00D+00
 Coeff-Com:  0.178D-03-0.110D-03-0.460D-02 0.171D-02-0.192D-01-0.567D-01
 Coeff-Com:  0.783D-01 0.100D+01
 Coeff:      0.178D-03-0.110D-03-0.460D-02 0.171D-02-0.192D-01-0.567D-01
 Coeff:      0.783D-01 0.100D+01
 Gap=     0.277 Goal=   None    Shift=    0.000
 RMSDP=9.86D-06 MaxDP=3.57D-04 DE=-3.46D-06 OVMax= 2.72D-04

 Cycle   9  Pass 1  IDiag  1:
 RMSU=  4.03D-06    CP:  8.54D-01  4.07D-01  9.43D-01  1.75D-01  1.00D+00
                    CP:  1.23D+00  1.19D+00  1.19D+00
 E= -788.926389220508     Delta-E=       -0.000000335436 Rises=F Damp=F
 DIIS: error= 6.43D-06 at cycle   9 NSaved=   9.
 NSaved= 9 IEnMin= 9 EnMin= -788.926389220508     IErMin= 9 ErrMin= 6.43D-06
 ErrMax= 6.43D-06  0.00D+00 EMaxC= 1.00D-01 BMatC= 1.36D-08 BMatP= 1.61D-07
 IDIUse=1 WtCom= 1.00D+00 WtEn= 0.00D+00
 Coeff-Com: -0.500D-06 0.105D-03-0.139D-03 0.195D-03-0.176D-02-0.328D-01
 Coeff-Com: -0.337D-01 0.268D+00 0.800D+00
 Coeff:     -0.500D-06 0.105D-03-0.139D-03 0.195D-03-0.176D-02-0.328D-01
 Coeff:     -0.337D-01 0.268D+00 0.800D+00
 Gap=     0.277 Goal=   None    Shift=    0.000
 RMSDP=1.87D-06 MaxDP=1.17D-04 DE=-3.35D-07 OVMax= 5.34D-05

 Cycle  10  Pass 1  IDiag  1:
 RMSU=  1.11D-06    CP:  8.54D-01  4.07D-01  9.43D-01  1.75D-01  1.00D+00
                    CP:  1.24D+00  1.21D+00  1.24D+00  9.41D-01
 E= -788.926389238422     Delta-E=       -0.000000017914 Rises=F Damp=F
 DIIS: error= 2.39D-06 at cycle  10 NSaved=  10.
 NSaved=10 IEnMin=10 EnMin= -788.926389238422     IErMin=10 ErrMin= 2.39D-06
 ErrMax= 2.39D-06  0.00D+00 EMaxC= 1.00D-01 BMatC= 1.80D-09 BMatP= 1.36D-08
 IDIUse=1 WtCom= 1.00D+00 WtEn= 0.00D+00
 Coeff-Com: -0.694D-05 0.118D-04 0.450D-03-0.723D-04 0.136D-02-0.385D-02
 Coeff-Com: -0.197D-01-0.198D-01 0.268D+00 0.774D+00
 Coeff:     -0.694D-05 0.118D-04 0.450D-03-0.723D-04 0.136D-02-0.385D-02
 Coeff:     -0.197D-01-0.198D-01 0.268D+00 0.774D+00
 Gap=     0.277 Goal=   None    Shift=    0.000
 RMSDP=8.98D-07 MaxDP=5.32D-05 DE=-1.79D-08 OVMax= 1.01D-05

 Cycle  11  Pass 1  IDiag  1:
 RMSU=  2.68D-07    CP:  8.54D-01  4.07D-01  9.43D-01  1.75D-01  1.00D+00
                    CP:  1.24D+00  1.21D+00  1.25D+00  1.06D+00  9.12D-01
 E= -788.926389240262     Delta-E=       -0.000000001840 Rises=F Damp=F
 DIIS: error= 6.55D-07 at cycle  11 NSaved=  11.
 NSaved=11 IEnMin=11 EnMin= -788.926389240262     IErMin=11 ErrMin= 6.55D-07
 ErrMax= 6.55D-07  0.00D+00 EMaxC= 1.00D-01 BMatC= 1.26D-10 BMatP= 1.80D-09
 IDIUse=1 WtCom= 1.00D+00 WtEn= 0.00D+00
 Coeff-Com: -0.199D-05-0.234D-05 0.155D-03-0.535D-04 0.595D-03 0.131D-02
 Coeff-Com: -0.294D-02-0.240D-01 0.157D-01 0.208D+00 0.801D+00
 Coeff:     -0.199D-05-0.234D-05 0.155D-03-0.535D-04 0.595D-03 0.131D-02
 Coeff:     -0.294D-02-0.240D-01 0.157D-01 0.208D+00 0.801D+00
 Gap=     0.277 Goal=   None    Shift=    0.000
 RMSDP=1.26D-07 MaxDP=6.91D-06 DE=-1.84D-09 OVMax= 3.42D-06

 Cycle  12  Pass 1  IDiag  1:
 RMSU=  6.58D-08    CP:  8.54D-01  4.07D-01  9.43D-01  1.75D-01  1.00D+00
                    CP:  1.24D+00  1.21D+00  1.25D+00  1.08D+00  9.25D-01
                    CP:  1.08D+00
 E= -788.926389240384     Delta-E=       -0.000000000122 Rises=F Damp=F
 DIIS: error= 1.89D-07 at cycle  12 NSaved=  12.
 NSaved=12 IEnMin=12 EnMin= -788.926389240384     IErMin=12 ErrMin= 1.89D-07
 ErrMax= 1.89D-07  0.00D+00 EMaxC= 1.00D-01 BMatC= 1.42D-11 BMatP= 1.26D-10
 IDIUse=1 WtCom= 1.00D+00 WtEn= 0.00D+00
 Coeff-Com:  0.652D-06-0.136D-05 0.670D-05-0.722D-05 0.256D-04 0.438D-03
 Coeff-Com:  0.642D-03-0.428D-02-0.154D-01 0.654D-02 0.284D+00 0.728D+00
 Coeff:      0.652D-06-0.136D-05 0.670D-05-0.722D-05 0.256D-04 0.438D-03
 Coeff:      0.642D-03-0.428D-02-0.154D-01 0.654D-02 0.284D+00 0.728D+00
 Gap=     0.277 Goal=   None    Shift=    0.000
 RMSDP=5.02D-08 MaxDP=2.79D-06 DE=-1.22D-10 OVMax= 1.26D-06

 Cycle  13  Pass 1  IDiag  1:
 RMSU=  2.09D-08    CP:  8.54D-01  4.07D-01  9.43D-01  1.75D-01  1.00D+00
                    CP:  1.24D+00  1.21D+00  1.25D+00  1.08D+00  9.27D-01
                    CP:  1.14D+00  9.41D-01
 E= -788.926389240396     Delta-E=       -0.000000000013 Rises=F Damp=F
 DIIS: error= 2.46D-08 at cycle  13 NSaved=  13.
 NSaved=13 IEnMin=13 EnMin= -788.926389240396     IErMin=13 ErrMin= 2.46D-08
 ErrMax= 2.46D-08  0.00D+00 EMaxC= 1.00D-01 BMatC= 2.75D-13 BMatP= 1.42D-11
 IDIUse=1 WtCom= 1.00D+00 WtEn= 0.00D+00
 Coeff-Com:  0.615D-07 0.158D-07-0.423D-05-0.118D-06-0.121D-04 0.261D-04
 Coeff-Com:  0.221D-03 0.291D-03-0.379D-02-0.102D-01 0.144D-02 0.114D+00
 Coeff-Com:  0.898D+00
 Coeff:      0.615D-07 0.158D-07-0.423D-05-0.118D-06-0.121D-04 0.261D-04
 Coeff:      0.221D-03 0.291D-03-0.379D-02-0.102D-01 0.144D-02 0.114D+00
 Coeff:      0.898D+00
 Gap=     0.277 Goal=   None    Shift=    0.000
 RMSDP=1.08D-08 MaxDP=5.29D-07 DE=-1.25D-11 OVMax= 2.97D-07

 Cycle  14  Pass 1  IDiag  1:
 RMSU=  4.74D-09    CP:  8.54D-01  4.07D-01  9.43D-01  1.75D-01  1.00D+00
                    CP:  1.24D+00  1.21D+00  1.25D+00  1.08D+00  9.27D-01
                    CP:  1.16D+00  1.02D+00  1.08D+00
 E= -788.926389240401     Delta-E=       -0.000000000005 Rises=F Damp=F
 DIIS: error= 8.53D-09 at cycle  14 NSaved=  14.
 NSaved=14 IEnMin=14 EnMin= -788.926389240401     IErMin=14 ErrMin= 8.53D-09
 ErrMax= 8.53D-09  0.00D+00 EMaxC= 1.00D-01 BMatC= 3.02D-14 BMatP= 2.75D-13
 IDIUse=1 WtCom= 1.00D+00 WtEn= 0.00D+00
 Coeff-Com: -0.446D-07 0.912D-07-0.143D-05 0.533D-06-0.434D-05-0.255D-04
 Coeff-Com:  0.403D-05 0.365D-03 0.235D-03-0.295D-02-0.198D-01-0.248D-01
 Coeff-Com:  0.207D+00 0.840D+00
 Coeff:     -0.446D-07 0.912D-07-0.143D-05 0.533D-06-0.434D-05-0.255D-04
 Coeff:      0.403D-05 0.365D-03 0.235D-03-0.295D-02-0.198D-01-0.248D-01
 Coeff:      0.207D+00 0.840D+00
 Gap=     0.277 Goal=   None    Shift=    0.000
 RMSDP=4.67D-09 MaxDP=2.95D-07 DE=-4.77D-12 OVMax= 9.06D-08

 SCF Done:  E(RM062X) =  -788.926389240     A.U. after   14 cycles
            NFock= 14  Conv=0.47D-08     -V/T= 2.0030
 KE= 7.865876574140D+02 PE=-3.109967814845D+03 EE= 9.065452675249D+02
 Leave Link  502 at Sun Oct 13 23:11:09 2019, MaxMem= 10737418240 cpu:             662.4 elap:              27.7
 (Enter /apps/cent7/gaussian/g16-A.03/g16-haswell/g16/l601.exe)
 Copying SCF densities to generalized density rwf, IOpCl= 0 IROHF=0.

 **********************************************************************

            Population analysis using the SCF density.

 **********************************************************************

 Orbital symmetries:
       Occupied  (A) (A) (A) (A) (A) (A) (A) (A) (A) (A) (A) (A)
                 (A) (A) (A) (A) (A) (A) (A) (A) (A) (A) (A) (A)
                 (A) (A) (A) (A) (A) (A) (A) (A) (A) (A) (A) (A)
                 (A) (A) (A) (A) (A) (A) (A) (A) (A)
       Virtual   (A) (A) (A) (A) (A) (A) (A) (A) (A) (A) (A) (A)
                 (A) (A) (A) (A) (A) (A) (A) (A) (A) (A) (A) (A)
                 (A) (A) (A) (A) (A) (A) (A) (A) (A) (A) (A) (A)
                 (A) (A) (A) (A) (A) (A) (A) (A) (A) (A) (A) (A)
                 (A) (A) (A) (A) (A) (A) (A) (A) (A) (A) (A) (A)
                 (A) (A) (A) (A) (A) (A) (A) (A) (A) (A) (A) (A)
                 (A) (A) (A) (A) (A) (A) (A) (A) (A) (A) (A) (A)
                 (A) (A) (A) (A) (A) (A) (A) (A) (A) (A) (A) (A)
                 (A) (A) (A) (A) (A) (A) (A) (A) (A) (A) (A) (A)
                 (A) (A) (A) (A) (A) (A) (A) (A) (A) (A) (A) (A)
                 (A) (A) (A) (A) (A) (A) (A) (A) (A) (A) (A) (A)
                 (A) (A) (A) (A) (A) (A) (A) (A) (A) (A) (A) (A)
                 (A) (A) (A) (A) (A) (A) (A) (A) (A) (A) (A) (A)
                 (A) (A) (A) (A) (A) (A) (A) (A) (A) (A) (A) (A)
                 (A) (A) (A) (A) (A) (A) (A) (A) (A) (A) (A) (A)
                 (A) (A) (A) (A) (A) (A) (A) (A) (A) (A) (A) (A)
                 (A) (A) (A) (A) (A) (A) (A) (A) (A) (A) (A) (A)
                 (A) (A) (A) (A) (A) (A) (A) (A) (A) (A) (A) (A)
                 (A) (A) (A) (A) (A) (A) (A) (A) (A) (A) (A) (A)
                 (A) (A) (A) (A) (A) (A) (A) (A) (A) (A) (A) (A)
                 (A) (A) (A) (A) (A) (A) (A) (A) (A) (A) (A) (A)
                 (A) (A) (A) (A) (A) (A) (A) (A) (A) (A) (A) (A)
                 (A) (A) (A) (A) (A) (A) (A) (A) (A) (A) (A) (A)
                 (A) (A) (A) (A) (A) (A) (A) (A) (A) (A) (A) (A)
                 (A) (A) (A) (A) (A) (A) (A) (A) (A) (A) (A) (A)
                 (A) (A) (A) (A) (A) (A) (A) (A) (A)
 The electronic state is 1-A.
 Alpha  occ. eigenvalues --  -89.99092 -19.57006 -10.57652 -10.57644 -10.54648
 Alpha  occ. eigenvalues --  -10.54642 -10.54309 -10.54281 -10.52852 -10.52817
 Alpha  occ. eigenvalues --   -8.34718  -6.26756  -6.26725  -6.26354  -1.07646
 Alpha  occ. eigenvalues --   -0.92241  -0.91359  -0.86658  -0.83916  -0.77679
 Alpha  occ. eigenvalues --   -0.72775  -0.68034  -0.66022  -0.65953  -0.58762
 Alpha  occ. eigenvalues --   -0.58158  -0.53033  -0.53015  -0.51808  -0.50827
 Alpha  occ. eigenvalues --   -0.48948  -0.47432  -0.45979  -0.44719  -0.43843
 Alpha  occ. eigenvalues --   -0.42749  -0.41760  -0.40893  -0.40700  -0.39959
 Alpha  occ. eigenvalues --   -0.38721  -0.38189  -0.38024  -0.31928  -0.28405
 Alpha virt. eigenvalues --   -0.00739   0.00006   0.00721   0.00841   0.01770
 Alpha virt. eigenvalues --    0.01961   0.02311   0.03124   0.03632   0.03836
 Alpha virt. eigenvalues --    0.04169   0.05185   0.05302   0.05477   0.05677
 Alpha virt. eigenvalues --    0.05866   0.06463   0.07433   0.07699   0.08075
 Alpha virt. eigenvalues --    0.08741   0.09860   0.10390   0.10531   0.10872
 Alpha virt. eigenvalues --    0.11164   0.11773   0.12542   0.12719   0.12860
 Alpha virt. eigenvalues --    0.13070   0.13525   0.13983   0.14087   0.14331
 Alpha virt. eigenvalues --    0.14581   0.14943   0.15268   0.15617   0.15948
 Alpha virt. eigenvalues --    0.16321   0.16972   0.17466   0.17879   0.17904
 Alpha virt. eigenvalues --    0.18531   0.18706   0.18926   0.19882   0.20172
 Alpha virt. eigenvalues --    0.20413   0.20582   0.21446   0.21869   0.22186
 Alpha virt. eigenvalues --    0.22697   0.23275   0.23585   0.24171   0.24791
 Alpha virt. eigenvalues --    0.25456   0.26184   0.26501   0.26696   0.27478
 Alpha virt. eigenvalues --    0.27796   0.27998   0.28661   0.28958   0.29872
 Alpha virt. eigenvalues --    0.30524   0.30798   0.31725   0.31890   0.33373
 Alpha virt. eigenvalues --    0.33793   0.34073   0.34815   0.35146   0.36526
 Alpha virt. eigenvalues --    0.36954   0.37932   0.38206   0.38444   0.40312
 Alpha virt. eigenvalues --    0.41996   0.45704   0.46578   0.48517   0.49086
 Alpha virt. eigenvalues --    0.49422   0.49832   0.50228   0.50858   0.51601
 Alpha virt. eigenvalues --    0.52712   0.52849   0.54650   0.55406   0.56970
 Alpha virt. eigenvalues --    0.57434   0.58814   0.60272   0.61752   0.64349
 Alpha virt. eigenvalues --    0.64936   0.66167   0.68136   0.68720   0.69331
 Alpha virt. eigenvalues --    0.70542   0.71251   0.71718   0.72009   0.72067
 Alpha virt. eigenvalues --    0.72906   0.73468   0.73937   0.74604   0.74908
 Alpha virt. eigenvalues --    0.75324   0.75752   0.76537   0.76731   0.78152
 Alpha virt. eigenvalues --    0.78541   0.79247   0.79828   0.81313   0.83213
 Alpha virt. eigenvalues --    0.83443   0.85718   0.87523   0.88128   0.92333
 Alpha virt. eigenvalues --    0.95140   0.96111   0.99791   1.00571   1.01371
 Alpha virt. eigenvalues --    1.02617   1.03997   1.05203   1.06825   1.08364
 Alpha virt. eigenvalues --    1.10883   1.12180   1.20425   1.25861   1.27029
 Alpha virt. eigenvalues --    1.27933   1.29714   1.30750   1.31152   1.33492
 Alpha virt. eigenvalues --    1.34076   1.34344   1.34405   1.35423   1.43908
 Alpha virt. eigenvalues --    1.44835   1.46099   1.48966   1.51183   1.53043
 Alpha virt. eigenvalues --    1.54189   1.54555   1.57493   1.59056   1.59403
 Alpha virt. eigenvalues --    1.59857   1.60546   1.61102   1.61477   1.61872
 Alpha virt. eigenvalues --    1.63020   1.64836   1.66377   1.67136   1.68165
 Alpha virt. eigenvalues --    1.68366   1.69082   1.70501   1.71736   1.73384
 Alpha virt. eigenvalues --    1.75036   1.75489   1.75941   1.78148   1.79237
 Alpha virt. eigenvalues --    1.79420   1.80556   1.82535   1.85294   1.85816
 Alpha virt. eigenvalues --    1.86386   1.88147   1.88985   1.90530   1.93584
 Alpha virt. eigenvalues --    1.96156   1.97604   1.99720   2.00994   2.02261
 Alpha virt. eigenvalues --    2.05283   2.05473   2.09204   2.10138   2.11358
 Alpha virt. eigenvalues --    2.11778   2.13212   2.14162   2.15554   2.18052
 Alpha virt. eigenvalues --    2.20592   2.25138   2.26119   2.28972   2.29571
 Alpha virt. eigenvalues --    2.31617   2.36514   2.37666   2.43250   2.43740
 Alpha virt. eigenvalues --    2.44437   2.44922   2.50393   2.51410   2.51822
 Alpha virt. eigenvalues --    2.53744   2.55856   2.56191   2.56921   2.57468
 Alpha virt. eigenvalues --    2.58029   2.58925   2.59897   2.60360   2.60970
 Alpha virt. eigenvalues --    2.61433   2.62248   2.63565   2.67464   2.67571
 Alpha virt. eigenvalues --    2.69713   2.69856   2.70240   2.71183   2.74100
 Alpha virt. eigenvalues --    2.75028   2.75417   2.76242   2.84598   2.85261
 Alpha virt. eigenvalues --    2.87850   2.88528   2.91882   2.92265   2.94341
 Alpha virt. eigenvalues --    2.96985   2.97555   3.00155   3.01143   3.03046
 Alpha virt. eigenvalues --    3.04155   3.05095   3.06406   3.08905   3.12868
 Alpha virt. eigenvalues --    3.15803   3.19277   3.31867   3.37206   3.41293
 Alpha virt. eigenvalues --    3.49518   3.68696   3.71184   3.77513   3.78701
 Alpha virt. eigenvalues --    3.80016   3.82001   3.98605   3.99423   4.00669
 Alpha virt. eigenvalues --    4.01404   4.11289   4.13141   4.14775   4.15672
 Alpha virt. eigenvalues --    4.36126   4.37112   5.21795   5.26191   5.30340
 Alpha virt. eigenvalues --    8.16694  17.57292  17.60094  17.68537  23.90784
 Alpha virt. eigenvalues --   23.92547  23.95057  23.95484  23.96813  23.96886
 Alpha virt. eigenvalues --   24.04335  24.04668  50.04929 189.45414
          Condensed to atoms (all electrons):
               1          2          3          4          5          6
     1  C    5.565558   0.168670  -0.053800  -0.077986  -0.076843  -0.003850
     2  C    0.168670   6.216791  -0.284141   0.060476  -0.221351  -0.049414
     3  C   -0.053800  -0.284141   6.487279  -0.806603  -0.014234  -0.002382
     4  C   -0.077986   0.060476  -0.806603   7.215083  -0.092532  -0.003092
     5  S   -0.076843  -0.221351  -0.014234  -0.092532  16.178169  -0.171755
     6  C   -0.003850  -0.049414  -0.002382  -0.003092  -0.171755   7.415250
     7  C   -0.002614  -0.028119  -0.102349  -0.002605   0.037396  -0.958016
     8  C   -0.000493  -0.006561  -0.027607  -0.042377  -0.211889   0.112498
     9  C    0.000006  -0.000572  -0.002366  -0.005289  -0.080325  -0.031539
    10  O    0.003946  -0.000045   0.055221  -0.172766   0.199277  -0.181221
    11  H    0.399838  -0.023464  -0.002947  -0.007835   0.002507   0.000184
    12  H    0.390831  -0.048127  -0.013757   0.002477   0.004808  -0.000631
    13  H    0.379241  -0.035955   0.023298   0.010256   0.001614  -0.000238
    14  H   -0.089172   0.336045   0.031380   0.003646   0.026855  -0.002902
    15  H   -0.077553   0.347057  -0.011864   0.027845   0.030908   0.002162
    16  H    0.009238  -0.091305   0.528552  -0.170708  -0.035687   0.049953
    17  H   -0.013744  -0.115596   0.297956   0.134532   0.017638  -0.004092
    18  H    0.022477  -0.041196   0.235760  -0.140408   0.021471   0.134773
    19  H   -0.014810   0.018009  -0.075786   0.525990  -0.197964  -0.005912
    20  H    0.000385  -0.006999  -0.072853   0.117353   0.037089  -0.184570
    21  H    0.000130   0.001047   0.042428   0.006145  -0.204397   0.550781
    22  H   -0.000287  -0.001208  -0.022763   0.042460  -0.020068  -0.198617
    23  H    0.000117   0.000088   0.012403   0.002855   0.012806   0.146649
    24  H   -0.000014   0.000289   0.002535  -0.003444   0.029928   0.004141
    25  H    0.000017   0.000308   0.000394   0.002107   0.027966   0.020734
    26  H    0.000001  -0.000008  -0.000220   0.000332   0.000982  -0.007088
    27  H   -0.000001   0.000001   0.000294  -0.000319   0.002906   0.001200
    28  H    0.000005   0.000031   0.000468  -0.000349   0.005044   0.001354
               7          8          9         10         11         12
     1  C   -0.002614  -0.000493   0.000006   0.003946   0.399838   0.390831
     2  C   -0.028119  -0.006561  -0.000572  -0.000045  -0.023464  -0.048127
     3  C   -0.102349  -0.027607  -0.002366   0.055221  -0.002947  -0.013757
     4  C   -0.002605  -0.042377  -0.005289  -0.172766  -0.007835   0.002477
     5  S    0.037396  -0.211889  -0.080325   0.199277   0.002507   0.004808
     6  C   -0.958016   0.112498  -0.031539  -0.181221   0.000184  -0.000631
     7  C    6.596784  -0.292313  -0.118996   0.066919  -0.000083   0.000448
     8  C   -0.292313   6.159208   0.185569   0.002768   0.000005   0.000021
     9  C   -0.118996   0.185569   5.582899   0.003364   0.000003   0.000006
    10  O    0.066919   0.002768   0.003364   8.447819   0.000172  -0.000223
    11  H   -0.000083   0.000005   0.000003   0.000172   0.554768  -0.034732
    12  H    0.000448   0.000021   0.000006  -0.000223  -0.034732   0.564425
    13  H    0.000212  -0.000010  -0.000002  -0.000391  -0.031505  -0.042746
    14  H    0.001831   0.000170  -0.000030  -0.001484  -0.025298   0.015705
    15  H    0.001092   0.000436   0.000032   0.001589   0.010184   0.001910
    16  H   -0.025517  -0.001706  -0.000058   0.037894  -0.001979   0.003849
    17  H    0.014616   0.000546  -0.000020  -0.004147   0.002970   0.001689
    18  H   -0.074235  -0.006663   0.002070   0.029614   0.003702   0.000930
    19  H    0.042682   0.000680  -0.001194  -0.044047  -0.000808  -0.001053
    20  H    0.246272  -0.003175   0.013694   0.030680  -0.000030   0.000445
    21  H   -0.073398  -0.012382  -0.014071  -0.045217  -0.000082  -0.000341
    22  H    0.543192  -0.081509   0.001132   0.037455  -0.000030   0.000087
    23  H    0.300446  -0.130322  -0.009179  -0.002611   0.000022  -0.000046
    24  H    0.045753   0.324797  -0.082214  -0.002246   0.000000  -0.000006
    25  H   -0.016088   0.357907  -0.077868   0.002605   0.000003   0.000003
    26  H    0.004477  -0.028252   0.397398   0.000387   0.000000   0.000001
    27  H    0.022441  -0.034805   0.383896  -0.000644  -0.000000  -0.000001
    28  H   -0.006690  -0.055425   0.391317  -0.000104   0.000000   0.000001
              13         14         15         16         17         18
     1  C    0.379241  -0.089172  -0.077553   0.009238  -0.013744   0.022477
     2  C   -0.035955   0.336045   0.347057  -0.091305  -0.115596  -0.041196
     3  C    0.023298   0.031380  -0.011864   0.528552   0.297956   0.235760
     4  C    0.010256   0.003646   0.027845  -0.170708   0.134532  -0.140408
     5  S    0.001614   0.026855   0.030908  -0.035687   0.017638   0.021471
     6  C   -0.000238  -0.002902   0.002162   0.049953  -0.004092   0.134773
     7  C    0.000212   0.001831   0.001092  -0.025517   0.014616  -0.074235
     8  C   -0.000010   0.000170   0.000436  -0.001706   0.000546  -0.006663
     9  C   -0.000002  -0.000030   0.000032  -0.000058  -0.000020   0.002070
    10  O   -0.000391  -0.001484   0.001589   0.037894  -0.004147   0.029614
    11  H   -0.031505  -0.025298   0.010184  -0.001979   0.002970   0.003702
    12  H   -0.042746   0.015705   0.001910   0.003849   0.001689   0.000930
    13  H    0.557659   0.003303  -0.016778  -0.003927  -0.002460  -0.003784
    14  H    0.003303   0.635033  -0.048248   0.007951  -0.025731  -0.009141
    15  H   -0.016778  -0.048248   0.613217  -0.033607   0.022888  -0.003864
    16  H   -0.003927   0.007951  -0.033607   0.620398  -0.076555   0.086470
    17  H   -0.002460  -0.025731   0.022888  -0.076555   0.625530  -0.081213
    18  H   -0.003784  -0.009141  -0.003864   0.086470  -0.081213   0.891781
    19  H    0.004580   0.000782  -0.000593  -0.071533   0.037989  -0.158393
    20  H   -0.000005   0.002764   0.001176  -0.017778   0.011060  -0.079139
    21  H    0.000120  -0.001125  -0.000827   0.011988  -0.003463   0.020619
    22  H    0.000034   0.000434   0.000104  -0.009237   0.003463  -0.017101
    23  H   -0.000014  -0.000247  -0.000013   0.003155  -0.001368   0.009727
    24  H    0.000000  -0.000043  -0.000036   0.000584  -0.000360   0.003230
    25  H   -0.000004  -0.000016   0.000011   0.000041  -0.000007   0.001145
    26  H   -0.000000   0.000002   0.000004  -0.000062   0.000039  -0.000165
    27  H    0.000000  -0.000000  -0.000005   0.000046  -0.000016  -0.000047
    28  H   -0.000000  -0.000003  -0.000001   0.000060  -0.000042   0.000324
              19         20         21         22         23         24
     1  C   -0.014810   0.000385   0.000130  -0.000287   0.000117  -0.000014
     2  C    0.018009  -0.006999   0.001047  -0.001208   0.000088   0.000289
     3  C   -0.075786  -0.072853   0.042428  -0.022763   0.012403   0.002535
     4  C    0.525990   0.117353   0.006145   0.042460   0.002855  -0.003444
     5  S   -0.197964   0.037089  -0.204397  -0.020068   0.012806   0.029928
     6  C   -0.005912  -0.184570   0.550781  -0.198617   0.146649   0.004141
     7  C    0.042682   0.246272  -0.073398   0.543192   0.300446   0.045753
     8  C    0.000680  -0.003175  -0.012382  -0.081509  -0.130322   0.324797
     9  C   -0.001194   0.013694  -0.014071   0.001132  -0.009179  -0.082214
    10  O   -0.044047   0.030680  -0.045217   0.037455  -0.002611  -0.002246
    11  H   -0.000808  -0.000030  -0.000082  -0.000030   0.000022   0.000000
    12  H   -0.001053   0.000445  -0.000341   0.000087  -0.000046  -0.000006
    13  H    0.004580  -0.000005   0.000120   0.000034  -0.000014   0.000000
    14  H    0.000782   0.002764  -0.001125   0.000434  -0.000247  -0.000043
    15  H   -0.000593   0.001176  -0.000827   0.000104  -0.000013  -0.000036
    16  H   -0.071533  -0.017778   0.011988  -0.009237   0.003155   0.000584
    17  H    0.037989   0.011060  -0.003463   0.003463  -0.001368  -0.000360
    18  H   -0.158393  -0.079139   0.020619  -0.017101   0.009727   0.003230
    19  H    0.667195   0.021058  -0.002779   0.011730  -0.003028  -0.001144
    20  H    0.021058   0.898112  -0.160354   0.085229  -0.075695  -0.017127
    21  H   -0.002779  -0.160354   0.666666  -0.071032   0.035299   0.004294
    22  H    0.011730   0.085229  -0.071032   0.607867  -0.073212   0.005456
    23  H   -0.003028  -0.075695   0.035299  -0.073212   0.624416  -0.028908
    24  H   -0.001144  -0.017127   0.004294   0.005456  -0.028908   0.634059
    25  H   -0.001023   0.000256  -0.004221  -0.029173   0.022737  -0.048417
    26  H   -0.000043   0.006761  -0.002393   0.000218   0.001283  -0.027367
    27  H    0.000202  -0.004002   0.005237  -0.002072  -0.003722   0.009210
    28  H   -0.000178   0.000997  -0.000883   0.004142   0.001692   0.012661
              25         26         27         28
     1  C    0.000017   0.000001  -0.000001   0.000005
     2  C    0.000308  -0.000008   0.000001   0.000031
     3  C    0.000394  -0.000220   0.000294   0.000468
     4  C    0.002107   0.000332  -0.000319  -0.000349
     5  S    0.027966   0.000982   0.002906   0.005044
     6  C    0.020734  -0.007088   0.001200   0.001354
     7  C   -0.016088   0.004477   0.022441  -0.006690
     8  C    0.357907  -0.028252  -0.034805  -0.055425
     9  C   -0.077868   0.397398   0.383896   0.391317
    10  O    0.002605   0.000387  -0.000644  -0.000104
    11  H    0.000003   0.000000  -0.000000   0.000000
    12  H    0.000003   0.000001  -0.000001   0.000001
    13  H   -0.000004  -0.000000   0.000000  -0.000000
    14  H   -0.000016   0.000002  -0.000000  -0.000003
    15  H    0.000011   0.000004  -0.000005  -0.000001
    16  H    0.000041  -0.000062   0.000046   0.000060
    17  H   -0.000007   0.000039  -0.000016  -0.000042
    18  H    0.001145  -0.000165  -0.000047   0.000324
    19  H   -0.001023  -0.000043   0.000202  -0.000178
    20  H    0.000256   0.006761  -0.004002   0.000997
    21  H   -0.004221  -0.002393   0.005237  -0.000883
    22  H   -0.029173   0.000218  -0.002072   0.004142
    23  H    0.022737   0.001283  -0.003722   0.001692
    24  H   -0.048417  -0.027367   0.009210   0.012661
    25  H    0.610054   0.009668  -0.023228   0.007794
    26  H    0.009668   0.565120  -0.039360  -0.035799
    27  H   -0.023228  -0.039360   0.561359  -0.035300
    28  H    0.007794  -0.035799  -0.035300   0.550119
 Mulliken charges:
               1
     1  C   -0.529295
     2  C   -0.194751
     3  C   -0.224297
     4  C   -0.625241
     5  S    0.689682
     6  C   -0.634361
     7  C   -0.223541
     8  C   -0.209118
     9  C   -0.537662
    10  O   -0.464563
    11  H    0.154434
    12  H    0.154030
    13  H    0.157502
    14  H    0.137541
    15  H    0.132775
    16  H    0.179479
    17  H    0.157897
    18  H    0.151257
    19  H    0.249391
    20  H    0.148394
    21  H    0.252210
    22  H    0.183303
    23  H    0.154672
    24  H    0.134389
    25  H    0.136292
    26  H    0.154086
    27  H    0.156730
    28  H    0.158765
 Sum of Mulliken charges =  -0.00000
 Mulliken charges with hydrogens summed into heavy atoms:
               1
     1  C   -0.063329
     2  C    0.075565
     3  C    0.113080
     4  C   -0.224593
     5  S    0.689682
     6  C   -0.233756
     7  C    0.114434
     8  C    0.061563
     9  C   -0.068081
    10  O   -0.464563
 Electronic spatial extent (au):  <R**2>=           3822.9040
 Charge=             -0.0000 electrons
 Dipole moment (field-independent basis, Debye):
    X=             -0.0006    Y=             -4.4601    Z=             -0.8083  Tot=              4.5327
 Quadrupole moment (field-independent basis, Debye-Ang):
   XX=            -62.7328   YY=            -81.1107   ZZ=            -72.6595
   XY=              0.0149   XZ=              0.0217   YZ=             -0.1455
 Traceless Quadrupole moment (field-independent basis, Debye-Ang):
   XX=              9.4348   YY=             -8.9430   ZZ=             -0.4918
   XY=              0.0149   XZ=              0.0217   YZ=             -0.1455
 Octapole moment (field-independent basis, Debye-Ang**2):
  XXX=              0.4782  YYY=             -8.6314  ZZZ=              3.9677  XYY=             -0.1536
  XXY=             -1.6843  XXZ=              5.1874  XZZ=             -0.0190  YZZ=             -1.6568
  YYZ=             -7.8341  XYZ=             -0.2730
 Hexadecapole moment (field-independent basis, Debye-Ang**3):
 XXXX=          -4816.2135 YYYY=           -344.8909 ZZZZ=           -175.0637 XXXY=              1.2329
 XXXZ=              3.8719 YYYX=              1.9073 YYYZ=              5.2222 ZZZX=             -2.1888
 ZZZY=              1.4362 XXYY=           -876.2992 XXZZ=           -806.1997 YYZZ=            -86.2177
 XXYZ=             32.5614 YYXZ=              1.0717 ZZXY=             -1.8630
 N-N= 6.279085006656D+02 E-N=-3.109967815392D+03  KE= 7.865876574140D+02
 No NMR shielding tensors so no spin-rotation constants.
 Leave Link  601 at Sun Oct 13 23:11:09 2019, MaxMem= 10737418240 cpu:               3.2 elap:               0.2
 (Enter /apps/cent7/gaussian/g16-A.03/g16-haswell/g16/l701.exe)
 ... and contract with generalized density number  0.
 Compute integral first derivatives.
 Leave Link  701 at Sun Oct 13 23:11:09 2019, MaxMem= 10737418240 cpu:               3.9 elap:               0.2
 (Enter /apps/cent7/gaussian/g16-A.03/g16-haswell/g16/l702.exe)
 L702 exits ... SP integral derivatives will be done elsewhere.
 Leave Link  702 at Sun Oct 13 23:11:09 2019, MaxMem= 10737418240 cpu:               1.1 elap:               0.1
 (Enter /apps/cent7/gaussian/g16-A.03/g16-haswell/g16/l703.exe)
 Integral derivatives from FoFJK, PRISM(SPDF).
 Compute integral first derivatives, UseDBF=F ICtDFT=           0.
 Calling FoFJK, ICntrl=      2127 FMM=F ISym2X=0 I1Cent= 0 IOpClX= 0 NMat=1 NMatS=1 NMatT=0.
 FoFJK:  IHMeth= 1 ICntrl=    2127 DoSepK=F KAlg= 0 I1Cent=           0 FoldK=F
 IRaf=         0 NMat=       1 IRICut=       1 DoRegI=T DoRafI=F ISym2E= 0 IDoP0=0 IntGTp=1.
 FoFCou: FMM=F IPFlag=           0 FMFlag=      100000 FMFlg1=         800
         NFxFlg=           0 DoJE=F BraDBF=F KetDBF=F FulRan=T
         wScrn=  0.000000 ICntrl=      2127 IOpCl=  0 I1Cent=           0 NGrid=           0
         NMat0=    1 NMatS0=      1 NMatT0=    0 NMatD0=    1 NMtDS0=    0 NMtDT0=    0
 Symmetry not used in FoFCou.
 Leave Link  703 at Sun Oct 13 23:11:13 2019, MaxMem= 10737418240 cpu:              97.1 elap:               4.1
 (Enter /apps/cent7/gaussian/g16-A.03/g16-haswell/g16/l716.exe)
 Dipole        =-2.26496787D-04-1.75473699D+00-3.17997684D-01
 ***** Axes restored to original set *****
 -------------------------------------------------------------------
 Center     Atomic                   Forces (Hartrees/Bohr)
 Number     Number              X              Y              Z
 -------------------------------------------------------------------
      1        6           0.000653996   -0.004468772    0.009272317
      2        6          -0.018661665    0.005820144    0.008651639
      3        6           0.009766681   -0.004807059    0.001530038
      4        6          -0.004501799    0.011446334   -0.015705013
      5       16          -0.015998039    0.049769036    0.012688755
      6        6          -0.007643888    0.001897176    0.018348230
      7        6           0.010728161   -0.002949073   -0.002324380
      8        6          -0.016512339    0.009516018   -0.008503597
      9        6           0.002139878    0.001594513   -0.008350655
     10        8           0.010432641   -0.053644600   -0.014292214
     11        1          -0.002749899    0.003578134   -0.002325562
     12        1          -0.001319439    0.002832225   -0.003898507
     13        1          -0.002983503   -0.000010691   -0.003122597
     14        1           0.020207262    0.001384043    0.002826026
     15        1           0.011448278   -0.014399089   -0.001160913
     16        1          -0.018845867   -0.001578206   -0.001188974
     17        1          -0.013232440    0.013682873    0.001456556
     18        1           0.012467178   -0.003401707    0.012437411
     19        1           0.009004643   -0.012932620    0.008931863
     20        1           0.014497315    0.002982215   -0.010062481
     21        1           0.011040623   -0.006734515   -0.012717520
     22        1          -0.018869718   -0.000945434   -0.002966532
     23        1          -0.013201649    0.012948630    0.003843920
     24        1           0.019781970    0.002039239    0.000902611
     25        1           0.012069558   -0.014445401   -0.004994013
     26        1          -0.002842576    0.002115795    0.003652063
     27        1          -0.004236171   -0.001177833    0.002473434
     28        1          -0.002639192   -0.000111374    0.004598094
 -------------------------------------------------------------------
 Cartesian Forces:  Max     0.053644600 RMS     0.012264279
 Leave Link  716 at Sun Oct 13 23:11:14 2019, MaxMem= 10737418240 cpu:               1.3 elap:               0.1
 (Enter /apps/cent7/gaussian/g16-A.03/g16-haswell/g16/l103.exe)

 GradGradGradGradGradGradGradGradGradGradGradGradGradGradGradGradGradGrad
 Berny optimization.
 FormGI is forming the generalized inverse of G from B-inverse, IUseBI=4.
 GSVD:  received Info=                   1 from GESDD.
 Internal  Forces:  Max     0.056329608 RMS     0.008698121
 Search for a local minimum.
 Step number   1 out of a maximum of  154
 All quantities printed in internal units (Hartrees-Bohrs-Radians)
 RMS Force = .86981D-02 SwitMx=.10000D-02 MixMth= 1
 Mixed Optimization -- RFO/linear search
 Second derivative matrix not updated -- first step.
 ITU=  0
     Eigenvalues ---    0.00230   0.00230   0.00230   0.00230   0.00230
     Eigenvalues ---    0.00230   0.00230   0.00230   0.03851   0.03852
     Eigenvalues ---    0.03980   0.03981   0.04772   0.04773   0.05111
     Eigenvalues ---    0.05111   0.05131   0.05150   0.05151   0.05714
     Eigenvalues ---    0.05714   0.05715   0.05715   0.05877   0.05877
     Eigenvalues ---    0.07737   0.07738   0.07939   0.07940   0.08231
     Eigenvalues ---    0.08231   0.11767   0.11768   0.11924   0.11924
     Eigenvalues ---    0.12167   0.12167   0.14547   0.16000   0.16000
     Eigenvalues ---    0.16000   0.16000   0.16000   0.16000   0.22497
     Eigenvalues ---    0.22497   0.22503   0.22504   0.22533   0.22533
     Eigenvalues ---    0.23664   0.23664   0.25000   0.27618   0.27622
     Eigenvalues ---    0.27772   0.27774   0.27978   0.27984   0.34802
     Eigenvalues ---    0.34804   0.34805   0.34805   0.34807   0.34807
     Eigenvalues ---    0.34809   0.34810   0.34811   0.34811   0.34812
     Eigenvalues ---    0.34813   0.34814   0.34814   0.34815   0.34815
     Eigenvalues ---    0.34818   0.34819   0.50702
 RFO step:  Lambda=-4.78138489D-02 EMin= 2.30000000D-03
 Linear search not attempted -- first point.
 Maximum step size (   0.300) exceeded in Quadratic search.
    -- Step size scaled by   0.734
 Iteration  1 RMS(Cart)=  0.09237148 RMS(Int)=  0.00164065
 Iteration  2 RMS(Cart)=  0.00333133 RMS(Int)=  0.00065932
 Iteration  3 RMS(Cart)=  0.00000400 RMS(Int)=  0.00065932
 Iteration  4 RMS(Cart)=  0.00000001 RMS(Int)=  0.00065932
 ITry= 1 IFail=0 DXMaxC= 3.01D-01 DCOld= 1.00D+10 DXMaxT= 3.00D-01 DXLimC= 3.00D+00 Rises=F
 Variable       Old X    -DE/DX   Delta X   Delta X   Delta X     New X
                                 (Linear)    (Quad)   (Total)
    R1        2.92186   0.00377   0.00000   0.00845   0.00845   2.93031
    R2        2.05977  -0.00006   0.00000  -0.00011  -0.00011   2.05965
    R3        2.05980   0.00133   0.00000   0.00246   0.00246   2.06226
    R4        2.05986  -0.00048   0.00000  -0.00088  -0.00088   2.05898
    R5        2.92973  -0.00456   0.00000  -0.01034  -0.01034   2.91940
    R6        2.05989   0.00062   0.00000   0.00114   0.00114   2.06103
    R7        2.05971   0.00057   0.00000   0.00105   0.00105   2.06076
    R8        2.92635  -0.00188   0.00000  -0.00424  -0.00424   2.92211
    R9        2.05982   0.00072   0.00000   0.00134   0.00134   2.06116
   R10        2.05989   0.00228   0.00000   0.00423   0.00423   2.06411
   R11        3.46431  -0.01296   0.00000  -0.03344  -0.03344   3.43086
   R12        2.05978   0.00134   0.00000   0.00248   0.00248   2.06226
   R13        2.05997   0.00110   0.00000   0.00205   0.00205   2.06202
   R14        3.46432  -0.01296   0.00000  -0.03344  -0.03344   3.43087
   R15        3.02863  -0.05633   0.00000  -0.07454  -0.07454   2.95409
   R16        2.92639  -0.00190   0.00000  -0.00429  -0.00429   2.92210
   R17        2.05982   0.00134   0.00000   0.00249   0.00249   2.06231
   R18        2.05970   0.00119   0.00000   0.00221   0.00221   2.06191
   R19        2.92982  -0.00442   0.00000  -0.01002  -0.01002   2.91981
   R20        2.05976   0.00087   0.00000   0.00161   0.00161   2.06137
   R21        2.05978   0.00212   0.00000   0.00392   0.00392   2.06370
   R22        2.92173   0.00637   0.00000   0.01428   0.01428   2.93601
   R23        2.05993   0.00043   0.00000   0.00080   0.00080   2.06073
   R24        2.05994   0.00014   0.00000   0.00026   0.00026   2.06019
   R25        2.05983  -0.00048   0.00000  -0.00089  -0.00089   2.05894
   R26        2.05984  -0.00065   0.00000  -0.00120  -0.00120   2.05864
   R27        2.05993   0.00124   0.00000   0.00231   0.00231   2.06224
    A1        1.91073   0.00532   0.00000   0.01893   0.01877   1.92950
    A2        1.91070   0.00491   0.00000   0.01735   0.01720   1.92789
    A3        1.91067   0.00396   0.00000   0.01385   0.01372   1.92439
    A4        1.91059  -0.00502   0.00000  -0.01747  -0.01765   1.89294
    A5        1.91051  -0.00464   0.00000  -0.01637  -0.01651   1.89400
    A6        1.91061  -0.00453   0.00000  -0.01628  -0.01640   1.89421
    A7        1.95868  -0.01449   0.00000  -0.02734  -0.02713   1.93155
    A8        1.85238   0.00695   0.00000   0.02874   0.02889   1.88126
    A9        1.85244   0.00722   0.00000   0.03003   0.03017   1.88260
   A10        1.85419   0.00571   0.00000   0.02111   0.02132   1.87551
   A11        1.85423   0.00548   0.00000   0.02018   0.02039   1.87462
   A12        2.09446  -0.01276   0.00000  -0.07598  -0.07598   2.01848
   A13        1.98103  -0.02191   0.00000  -0.04857  -0.04799   1.93304
   A14        1.84897   0.00861   0.00000   0.03063   0.03101   1.87998
   A15        1.84894   0.00747   0.00000   0.02660   0.02707   1.87601
   A16        1.84809   0.00729   0.00000   0.02489   0.02532   1.87341
   A17        1.84804   0.00891   0.00000   0.03296   0.03337   1.88141
   A18        2.09428  -0.01339   0.00000  -0.07377  -0.07396   2.02032
   A19        1.92392  -0.01860   0.00000  -0.04007  -0.03908   1.88484
   A20        1.80777   0.01543   0.00000   0.06965   0.06877   1.87654
[...]
 119,-0.00003465,0.00004819,0.00004779,0.00005688,0.00113024,-0.0001165
 5,-0.00665596,0.01598866,0.00474798,-0.08509526,0.08542525,0.01802182,
 -0.00845227,0.01861423,0.00230885,0.00056571,-0.00066129,0.00097692,-0
 .00065615,-0.00053602,-0.00101506,-0.00000015,-0.00000067,-0.00000161,
 0.00000349,-0.00000115,0.00000087,-0.00000059,-0.00000109,0.00000441,0
 .00000421,-0.00000156,-0.00000394,-0.00000582,-0.00000059,0.00000108,0
 .00002946,-0.00001551,0.00001883,-0.00000511,-0.00000099,-0.00000329,0
 .00002085,-0.00007373,-0.00004035,-0.00005015,-0.00000252,0.00001080,-
 0.00104456,-0.00018473,0.00288173,0.00019093,0.00024251,-0.00043274,0.
 09197149,0.00000956,0.00000094,-0.00000561,-0.00001936,0.00002895,-0.0
 0001569,0.00006634,-0.00005613,0.00001460,-0.00006022,-0.00012690,-0.0
 0026847,0.00120735,-0.00068396,0.00038741,-0.00097868,0.00278936,-0.00
 158320,0.08680377,-0.26969400,-0.04483627,0.00338889,-0.00794857,-0.00
 066303,-0.00041043,0.00032431,-0.00053192,-0.00047390,-0.00005969,0.00
 082479,-0.00000110,-0.00000130,-0.00000057,-0.00000043,0.00000131,0.00
 000102,0.00000039,0.00000253,-0.00000523,-0.00000324,0.00000101,0.0000
 0584,-0.00000100,-0.00000097,0.00000140,-0.00000708,0.00002416,0.00001
 968,0.00000179,-0.00000682,-0.00000266,0.00001495,0.00004422,-0.000065
 45,-0.00003262,0.00000070,0.00001260,-0.00007911,0.00103471,0.00145662
 ,-0.00002741,0.00055445,-0.00054898,-0.09705060,0.28885610,-0.00001709
 ,-0.00000052,0.00000265,0.00003107,0.00000242,0.00003436,-0.00014201,0
 .00009175,0.00004954,-0.00005922,0.00007990,-0.00004802,0.00164214,-0.
 00413165,-0.00180630,0.01075967,-0.02740659,-0.00866613,0.01720927,-0.
 04225194,-0.05489609,-0.00998661,0.02516131,0.00311008,-0.00044599,0.0
 0082371,0.00186318,-0.00052622,0.00187923,0.00197726,0.00000312,0.0000
 0035,0.00000021,0.00000190,0.00000205,-0.00000198,0.00000048,-0.000004
 40,0.00001105,-0.00000680,0.00000586,0.00001529,0.00000289,-0.00000329
 ,-0.00000579,-0.00000579,0.00003607,-0.00006967,0.00001682,0.00000668,
 -0.00000555,-0.00015453,0.00009293,0.00022687,-0.00000797,-0.00006664,
 0.00007629,0.00298216,0.00096940,-0.00497752,-0.00041210,0.00046280,0.
 00100818,-0.01979929,0.04712046,0.06658770,-0.00000310,-0.00000253,-0.
 00000033,-0.00000852,-0.00000209,-0.00002178,0.00005247,0.00005937,0.0
 0004399,0.00024173,0.00019855,0.00021433,-0.00011129,0.00000589,0.0001
 0849,-0.01366761,-0.01093018,-0.00083919,-0.19798856,-0.12445769,-0.01
 908787,-0.01598861,-0.01228903,-0.00337812,0.00077451,-0.00001730,0.00
 112128,0.00000006,-0.00045553,-0.00005830,0.00000368,0.00000107,0.0000
 0083,0.,0.00000084,-0.00000118,-0.00000243,-0.00000228,0.00000352,-0.0
 0000590,0.00000205,0.00000457,-0.00000177,0.00000310,0.00000285,-0.000
 00298,0.00000962,-0.00001292,-0.00000318,-0.00001613,0.00002529,-0.000
 03810,-0.00000193,0.00000829,0.00013093,0.00008348,-0.00024232,0.00018
 261,0.00018721,-0.00037586,-0.00081691,0.00021705,0.00281468,0.0100622
 4,0.00714926,0.00105261,0.21750385,-0.00000633,-0.00000337,-0.00000043
 ,0.00000846,-0.00000180,0.00000276,-0.00003244,-0.00000896,0.00000818,
 0.00025825,0.00018935,0.00035327,-0.00135763,-0.00048842,-0.00016966,0
 .00090691,-0.00037258,0.00078994,-0.12579627,-0.15542657,-0.01791420,0
 .00835484,0.00646927,0.00180587,0.00031553,0.00034364,-0.00045332,0.00
 068405,-0.00005318,0.00046753,0.00000111,0.00000269,0.00000122,-0.0000
 0075,-0.00000112,-0.00000050,0.00000150,-0.00000046,0.00000283,0.00000
 118,-0.00000119,-0.00000103,0.00000005,-0.00000002,0.00000188,-0.00000
 160,-0.00000505,-0.00000586,-0.00000197,0.00000849,0.00001121,-0.00000
 365,-0.00001595,-0.00001944,0.00009911,0.00001416,-0.00015758,0.000295
 05,0.00060829,0.00061416,0.00023534,0.00144155,-0.00019556,-0.02334195
 ,-0.01744517,-0.00294920,0.13799049,0.16332006,-0.00001342,0.00000373,
 0.00001128,0.00002533,-0.00001402,0.00003926,-0.00019431,-0.00009472,0
 .00002223,0.00015697,-0.00010405,-0.00014540,0.00143243,0.00062886,0.0
 0133319,0.02377743,0.02029201,0.00101006,-0.02033355,-0.01861204,-0.04
 988766,-0.02037535,-0.01704109,-0.00465826,-0.00089572,-0.00101737,0.0
 0152920,-0.00060868,0.00001591,-0.00003050,-0.00000054,0.00000067,-0.0
 0000066,0.00000067,-0.00000042,0.00000050,-0.00000042,-0.00000264,0.00
 000303,0.00000259,0.00000309,0.00000168,-0.00000251,-0.00000421,-0.000
 00019,0.00000323,0.00000474,-0.00000945,-0.00002094,0.00002338,-0.0000
 5056,0.00003061,0.00000663,0.00000855,-0.00024640,-0.00016023,-0.00000
 297,-0.00064899,-0.00045277,0.00109423,0.00288619,-0.00008953,-0.00499
 629,-0.00495716,-0.00340245,-0.00119964,0.02123928,0.01705467,0.058993
 09,0.00000539,-0.00000003,-0.00000102,-0.00000958,0.00000118,-0.000002
 54,0.00001878,0.00000443,-0.00000044,-0.00001109,0.00000363,0.00000456
 ,-0.00028108,0.00018183,0.00018480,0.00034618,-0.00041911,0.00101999,-
 0.00846373,0.01895474,0.00262709,-0.08594840,0.08637887,0.01801734,-0.
 00707540,0.01592508,0.00410797,0.00015453,-0.00023591,-0.00029963,-0.0
 0000200,0.00000003,-0.00000026,-0.00000072,-0.00000090,0.00000061,0.00
 000044,0.00000143,-0.00000360,0.00000334,-0.00000141,-0.00000131,-0.00
 000078,-0.00000075,0.00000045,0.00000289,-0.00000441,0.00000313,-0.000
 00467,0.00000253,-0.00000257,0.00001185,-0.00000339,-0.00000136,0.0000
 0369,-0.00000161,-0.00000769,0.00048410,-0.00011288,-0.00042956,-0.000
 01347,-0.00010527,-0.00016004,-0.00157076,0.00081614,-0.00313228,0.000
 23983,-0.00011077,0.00079294,0.09233762,-0.00001064,0.00000040,0.00000
 637,0.00002276,-0.00001133,0.00000717,-0.00006173,0.00000797,0.0000257
 5,0.00004954,-0.00008425,0.00001280,0.00019941,-0.00018908,0.00009356,
 -0.00026485,0.00033006,-0.00077933,0.00355958,-0.00892211,-0.00096019,
 0.08761521,-0.26110707,-0.04486850,-0.00136222,0.00259711,0.00049604,-
 0.00017977,0.00040835,0.00020154,0.00000167,-0.00000023,-0.00000095,-0
 .00000015,0.00000271,-0.00000187,-0.00000028,-0.00000306,0.00000574,-0
 .00000274,0.00000696,0.00000593,0.00000036,-0.00000279,-0.00000176,-0.
 00000151,0.00001050,-0.00000961,0.00000497,0.00000019,-0.00000294,0.00
 000123,0.00001844,0.00001850,-0.00000372,-0.00001047,0.00000663,-0.000
 17313,0.00004998,0.00086854,0.00005263,-0.00012331,0.00000260,0.001025
 67,0.00126247,0.00160911,0.00010826,0.00075738,0.00025247,-0.09824380,
 0.28170850,-0.00000200,-0.00000143,0.00000163,0.00000626,-0.00001065,0
 .00000502,-0.00001741,0.00001468,0.00000952,0.00006914,-0.00003720,0.0
 0003239,-0.00039023,0.00050172,0.00054529,-0.00051718,0.00094617,0.001
 90700,-0.01019511,0.02567823,0.00276754,0.01812658,-0.04491970,-0.0558
 0375,0.01152307,-0.02721597,-0.00703317,0.00017921,-0.00035591,-0.0006
 1042,-0.00000016,0.00000045,-0.00000018,0.00000001,-0.00000064,0.00000
 067,0.00000035,-0.00000066,0.00000091,0.00000176,0.00000083,-0.0000046
 9,-0.00000121,-0.00000023,0.00000118,0.00000156,-0.00001001,0.00000712
 ,-0.00000360,0.00000088,-0.00000092,0.00001890,-0.00000850,-0.00001990
 ,-0.00000224,0.00000265,-0.00001095,0.00022932,-0.00048597,-0.00036732
 ,0.00010773,-0.00002461,-0.00001892,-0.00304001,0.00114329,-0.00399943
 ,0.00062633,-0.00071077,0.00097214,-0.02013704,0.04715097,0.06591673,0
 .00000978,-0.00000111,-0.00000546,-0.00002377,0.00000460,-0.00001390,0
 .00004955,-0.00000264,-0.00001367,-0.00004286,0.00011466,-0.00005164,0
 .00020511,-0.00003083,0.00033453,0.00046447,-0.00001319,0.00111411,-0.
 01631741,-0.01240345,-0.00336835,-0.19791843,-0.12539751,-0.01962884,-
 0.01311459,-0.01084778,-0.00080736,0.00008749,0.00013640,-0.00005067,0
 .00000072,0.00000090,0.00000173,-0.00000237,0.00000049,0.00000028,-0.0
 0000038,0.00000164,-0.00000494,-0.00000082,-0.00000032,0.00000081,0.00
 000366,0.00000217,0.00000171,-0.00000507,0.00000072,-0.00000300,-0.000
 00179,-0.00000082,0.00000188,-0.00000711,0.00000121,0.00001299,0.00001
 888,0.00000293,-0.00004026,-0.00000855,0.00010130,-0.00005800,0.000615
 61,0.00010356,-0.00066470,0.00026179,-0.00001337,0.00059360,-0.0013382
 8,0.00157163,-0.00295328,0.01024379,0.00774655,0.00121485,0.21679024,0
 .00000546,0.00000160,-0.00000350,-0.00001456,0.00000114,-0.00000653,0.
 00004439,0.00000545,-0.00002197,-0.00008802,-0.00002575,-0.00009725,0.
 00023072,0.00023479,0.00010415,0.00037602,0.00028561,-0.00028271,0.008
 32504,0.00664480,0.00173172,-0.12676898,-0.15705805,-0.01740331,0.0003
 9471,-0.00009918,0.00022093,-0.00004759,-0.00010115,-0.00017764,0.0000
 0123,0.00000027,0.00000171,-0.00000021,-0.00000121,0.00000068,-0.00000
 054,0.00000067,-0.00000257,-0.00000013,-0.00000256,-0.00000218,0.00000
 271,0.00000515,0.00000084,-0.00000066,-0.00000315,0.00000501,0.0000035
 1,-0.00000124,0.00000419,-0.00000436,-0.00000525,-0.00000564,-0.000014
 71,0.00001654,0.00001030,-0.00012170,-0.00008285,0.00004154,-0.0001170
 9,0.00009616,-0.00037804,-0.00003785,0.00069950,-0.00062068,0.00163083
 ,0.00068208,0.00195896,-0.02258493,-0.01901196,-0.00292553,0.13821231,
 0.16587731,0.00000090,0.00000103,-0.00000109,-0.00000785,-0.00000423,-
 0.00001231,0.00001039,0.00000160,0.00001173,0.00007696,0.00011500,0.00
 004238,0.00000031,0.00020533,0.00032043,-0.00112311,-0.00115168,0.0013
 3893,-0.02049729,-0.01700893,-0.00525159,-0.01987495,-0.01726640,-0.04
 863209,0.02366224,0.01990810,0.00164391,0.00014308,-0.00013665,-0.0000
 9704,0.00000112,0.00000052,0.00000133,-0.00000046,-0.00000015,-0.00000
 048,-0.00000057,-0.00000014,-0.00000024,-0.00000110,-0.00000056,0.0000
 0100,0.00000037,0.00000260,0.00000041,-0.00000146,0.00000041,-0.000004
 36,-0.00000139,-0.00000257,0.00000105,-0.00000374,-0.00000211,0.000001
 30,0.00004828,0.00001778,-0.00006141,0.00002657,-0.00001417,-0.0000592
 9,0.00050349,0.00046909,-0.00056136,0.00075941,0.00016571,0.00100150,-
 0.00275870,0.00195968,-0.00386798,-0.00469414,-0.00375964,-0.00137175,
 0.02177192,0.01681746,0.05843104,-0.00000792,0.00000122,0.00000258,0.0
 0001356,-0.00000865,0.00000179,-0.00003079,0.00000483,0.00000431,0.000
 03124,-0.00001541,0.00000854,-0.00002241,0.00007587,0.00002201,0.00027
 641,0.00025547,-0.00000215,0.00060337,0.00044177,-0.00096200,-0.014377
 27,-0.01147524,-0.00119355,-0.19984539,-0.13087124,-0.01701017,0.00002
 936,-0.00005386,0.00001905,0.00000290,0.00000081,0.00000066,0.00000068
 ,-0.00000024,-0.00000095,-0.00000090,-0.00000245,0.00000511,-0.0000020
 9,0.00000127,0.00000062,0.00000108,0.00000189,-0.00000016,0.00000019,0
 .00000066,-0.00000323,0.00000349,0.00000048,0.00000179,-0.00000443,-0.
 00000120,0.00000076,-0.00000182,0.00000461,-0.00000373,-0.00004803,0.0
 0000492,0.00002311,0.00006616,0.00005298,-0.00021929,-0.00000622,0.000
 07411,0.00009130,0.00063464,-0.00014725,0.00058490,0.00007498,0.000351
 55,-0.00035523,-0.00075295,0.00058130,0.00343423,0.21667649,-0.0000007
 5,-0.00000060,-0.00000080,-0.00000044,-0.00000167,0.00000099,-0.000007
 17,-0.00000104,0.00000293,0.00002206,0.00000162,0.00001945,-0.00008797
 ,0.00000755,0.00005540,0.00029977,0.00016428,0.00014983,-0.00010097,-0
 .00010621,-0.00027302,0.00053227,-0.00004953,0.00012784,-0.13116811,-0
 .16056937,-0.01408469,0.00006475,-0.00001402,-0.00000206,0.00000077,0.
 00000108,0.00000115,-0.00000046,-0.00000075,-0.00000011,0.00000035,-0.
 00000023,0.00000006,0.00000007,-0.00000050,-0.00000065,0.00000173,0.00
 000139,-0.00000008,-0.00000127,-0.00000096,-0.00000116,0.00000106,0.00
 000253,0.00000148,0.00000028,-0.00000086,-0.00000055,0.00000619,0.0000
 0149,-0.00000667,0.00000566,-0.00001397,-0.00003307,0.00006442,0.00000
 066,-0.00014024,-0.00012553,-0.00008516,-0.00002907,0.00009604,0.00004
 459,0.00059952,0.00022215,0.00056204,0.00056367,0.00031824,0.00137498,
 -0.00008181,0.14453506,0.17013161,-0.00000501,-0.00000013,0.00000314,0
 .00001163,-0.00000167,0.00000489,-0.00002481,0.00000120,0.00000228,0.0
 0001859,-0.00003259,0.00002895,-0.00011110,-0.00001633,-0.00011166,0.0
 0003160,-0.00013525,-0.00001649,0.00119086,0.00055052,0.00197132,0.022
 64902,0.02029179,0.00145050,-0.01779544,-0.01472238,-0.04858646,-0.000
 01062,-0.00000150,0.00004039,0.00000054,0.00000032,-0.00000100,0.00000
 072,0.00000001,-0.00000055,-0.00000065,-0.00000092,0.00000301,-0.00000
 008,0.00000101,0.00000017,-0.00000091,-0.00000124,-0.00000016,0.000001
 06,-0.00000010,-0.00000048,0.00000057,0.00000088,-0.00000031,0.0000014
 3,-0.00000009,-0.00000203,-0.00000415,-0.00000383,0.00001038,0.0000333
 3,0.00000675,0.00002494,-0.00020848,-0.00011490,0.00008898,-0.00012721
 ,0.00002468,-0.00005055,-0.00057993,-0.00035145,-0.00039869,-0.0007344
 7,-0.00032322,0.00124994,0.00310118,0.00020669,-0.00501899,0.01544282,
 0.01552233,0.05277457,-0.00000892,-0.00000085,0.00000414,0.00001919,-0
 .00001054,0.00001206,-0.00006638,0.00000887,0.00003414,0.00012792,-0.0
 0006675,0.00010841,-0.00030001,0.00014556,0.00029214,0.00083028,-0.000
 18379,0.00079199,-0.00203649,0.00001727,0.00277655,0.01203405,-0.00618
 390,0.01533976,-0.14019645,0.04538794,-0.12157573,0.00004103,-0.000089
 50,-0.00010512,0.00000004,0.00000026,0.00000029,-0.00000003,-0.0000006
 3,-0.00000004,0.00000118,-0.00000151,0.00000299,-0.00000018,0.00000098
 ,-0.00000005,-0.00000130,-0.00000110,-0.00000022,0.00000065,0.00000078
 ,-0.00000238,-0.00000174,0.00000187,0.00000056,0.00000673,0.00000278,-
 0.00000431,0.00000283,-0.00000290,-0.00000776,0.00003580,0.00002362,-0
 .00004001,0.00003477,-0.00003854,-0.00008235,-0.00013209,-0.00015591,0
 .00004321,0.00015148,0.00022005,0.00025918,0.00065824,0.00013362,-0.00
 088558,0.00074581,-0.00017122,-0.00080501,-0.01391214,0.00836298,-0.01
 774759,0.14938583,-0.00000602,-0.00000101,0.00000164,0.00001265,-0.000
 00079,0.00000357,-0.00002039,0.00000530,-0.00000198,0.00001896,-0.0000
 1255,0.00001101,-0.00005271,0.00003863,-0.00005129,0.00022541,0.000525
 45,0.00011784,-0.00038104,0.00030406,0.00005394,-0.00007754,-0.0015001
 6,-0.00042898,0.04511526,-0.06939433,0.05866030,-0.00000056,-0.0000275
 2,0.00005073,0.00000074,0.00000024,-0.00000067,0.00000131,-0.00000040,
 -0.00000057,-0.00000057,-0.00000101,0.00000436,-0.00000070,0.00000030,
 0.00000018,-0.00000113,-0.00000069,-0.00000040,0.00000172,0.00000046,-
 0.00000172,-0.00000016,0.00000051,0.00000108,0.00000037,-0.00000183,-0
 .00000146,-0.00000188,-0.00000043,-0.00000135,-0.00005248,-0.00001730,
 0.00009674,0.00002185,-0.00002216,-0.00005011,-0.00026380,0.00038905,-
 0.00030901,0.00032141,0.00005034,0.00020407,-0.00041339,0.00017597,-0.
 00012268,0.00011069,-0.00016646,0.00024338,-0.01213955,0.00668717,-0.0
 1744238,-0.04941039,0.07035448,0.00004118,-0.00000194,-0.00001665,-0.0
 0008092,0.00003442,-0.00002400,0.00019042,-0.00003121,-0.00004859,-0.0
 0026554,0.00014709,-0.00020758,0.00063892,-0.00041758,-0.00018330,-0.0
 0142552,0.00059838,-0.00095877,0.00493723,-0.00044911,-0.00375599,-0.0
 1755124,0.00774563,-0.01979880,-0.12025998,0.05835720,-0.20325797,-0.0
 0008210,0.00031613,0.00002809,-0.00000613,-0.00000144,0.00000160,-0.00
 000509,0.00000116,0.00000394,0.00000128,0.00000942,-0.00002359,0.00000
 391,-0.00000623,-0.00000183,0.00000475,0.00000184,0.00000204,-0.000006
 47,-0.00000084,0.00001189,-0.00000502,-0.00000387,0.00000136,-0.000003
 76,-0.00000247,0.00001049,-0.00000332,-0.00000324,0.00001061,-0.000035
 40,-0.00006862,-0.00002876,0.00001873,0.00007772,-0.00004003,0.0001390
 4,0.00001112,0.00022914,0.00016615,-0.00015667,0.00027027,-0.00031121,
 -0.00066983,0.00067372,0.00003848,0.00040640,0.00095486,-0.00081045,0.
 00004922,-0.00172811,0.12986313,-0.06439765,0.22190742,-0.00000644,0.0
 0000046,0.00000235,0.00001223,-0.00000123,0.00000306,-0.00002039,0.000
 00751,0.00000509,0.00001826,-0.00001450,0.00000617,-0.00002279,0.00006
 045,-0.00004461,0.00003257,-0.00016418,-0.00015959,0.00040204,-0.00026
 247,-0.00099260,-0.00778396,0.01693772,0.00409150,-0.08482200,0.089960
 18,0.01967851,-0.00000569,-0.00011840,0.00000884,0.00000064,-0.0000000
 8,-0.00000066,0.00000198,-0.00000079,-0.00000036,-0.00000080,-0.000001
 26,0.00000432,-0.00000051,-0.00000040,-0.00000053,-0.00000237,-0.00000
 020,0.00000004,0.00000383,0.00000031,-0.00000077,-0.00000007,-0.000000
 25,-0.00000108,-0.00000344,-0.00000303,-0.00000336,-0.00000463,0.00000
 428,0.00000098,0.00001597,-0.00001468,-0.00014320,-0.00004454,0.000005
 99,0.00002949,0.00052906,-0.00021811,0.00026570,-0.00000080,-0.0001429
 5,0.00005952,-0.00120398,-0.00056844,0.00344194,0.00003747,0.00016434,
 -0.00066948,0.01059781,-0.02304118,-0.00513290,-0.00742010,0.01699194,
 0.00480893,0.08969065,0.00000521,-0.00000104,-0.00000165,-0.00000908,0
 .00000350,-0.00000355,0.00002272,-0.00000453,-0.00000737,-0.00003826,0
 .00002490,-0.00002668,0.00009222,-0.00014976,-0.00006488,-0.00021041,0
 .00036404,0.00000278,-0.00041173,0.00057723,0.00014187,-0.00067744,0.0
 0215507,0.00061636,0.09054675,-0.26747604,-0.04993356,-0.00003457,0.00
 011553,0.00004501,-0.00000074,-0.00000070,-0.00000021,-0.00000097,0.00
 000171,0.00000051,0.00000003,0.00000113,-0.00000319,-0.00000051,0.0000
 0107,0.00000080,0.00000064,-0.00000079,0.00000006,-0.00000065,0.000001
 78,0.00000022,0.00000014,-0.00000108,-0.00000049,-0.00000224,0.0000010
 5,0.00000501,-0.00000078,-0.00000365,0.00000328,-0.00003045,-0.0000661
 0,0.00015604,-0.00000915,-0.00001134,0.00000419,-0.00013461,0.00009490
 ,-0.00057105,0.00011016,-0.00010804,-0.00005315,-0.00025348,0.00156663
 ,0.00082692,0.00028101,0.00063280,-0.00047864,0.00832630,-0.01813613,-
 0.00345819,0.00201096,-0.00738535,-0.00154504,-0.09958105,0.28780323,-
 0.00000449,0.00000020,0.00000210,0.00001003,-0.00000239,0.00000185,-0.
 00001901,0.00000218,0.,0.00000865,-0.00001094,0.00001314,0.00003180,-0
 .00008555,-0.00010199,-0.00001448,0.00024987,0.00005761,0.00045054,-0.
 00152250,0.00160612,0.01074041,-0.02701732,-0.00729669,0.01938891,-0.0
 4889597,-0.05801022,-0.00006104,0.00015163,0.00012476,0.00000089,-0.00
 000005,-0.00000056,0.00000041,0.00000090,-0.00000087,-0.00000090,-0.00
 000141,0.00000318,-0.00000136,0.00000211,0.00000210,-0.00000027,-0.000
 00091,-0.00000091,-0.00000022,0.00000141,-0.00000280,0.00000133,-0.000
 00058,0.00000052,-0.00000166,0.00000363,0.00000481,-0.00000186,-0.0000
 0513,0.00000246,-0.00014218,0.00012220,0.00020542,0.00001245,-0.000041
 36,0.00004184,-0.00034589,0.00074031,-0.00046666,-0.00007600,0.0000124
 5,-0.00004045,0.00316030,0.00061413,-0.00484940,-0.00052401,0.00041697
 ,0.00119013,0.00091736,-0.00243990,-0.00173797,-0.00827240,0.02336142,
 0.00596854,-0.02525731,0.05434460,0.06328395\\-0.00000068,0.00000055,-
 0.00000067,0.00000065,-0.00000001,0.00000077,-0.00000022,-0.00000113,0
 .,-0.00000017,-0.00000215,-0.00000037,0.00000481,0.00000140,0.00000024
 ,0.00000024,-0.00000188,0.00000040,0.00000219,-0.00000090,-0.00000231,
 0.00000523,0.00000070,-0.00000671,-0.00000381,-0.00000069,0.00000903,-
 0.00000480,-0.00000050,-0.00000056,0.00000085,-0.00000123,-0.00000047,
 -0.00000205,-0.00000058,-0.00000098,-0.00000051,0.00000104,-0.00000002
 ,0.00000171,0.00000118,0.00000080,-0.00000160,0.00000175,0.00000098,-0
 .00000097,-0.00000030,-0.00000068,0.00000163,-0.00000195,-0.00000090,0
 .00000228,0.00000085,-0.00000026,-0.00000142,0.00000165,0.00000143,0.0
 0000211,0.00000041,0.00000104,-0.00000144,0.00000206,-0.00000061,-0.00
 000098,-0.00000094,0.00000002,0.00000148,-0.00000220,-0.00000012,0.000
 00158,0.00000289,-0.00000167,-0.00000079,0.00000120,-0.00000163,0.0000
 0065,0.00000023,0.00000128,-0.00000210,0.00000094,0.00000138,-0.000003
 87,-0.00000239,0.00000060\\\@


 THE GREAT THING ABOUT BEING IMPERFECT IS THE JOY IT BRINGS OTHERS.
   -- SIGN OUTSIDE LAKE AGASSIZ JR. HIGH SCHOOL, FARGO, N.D.
 Job cpu time:       0 days  1 hours 34 minutes 59.9 seconds.
 Elapsed time:       0 days  0 hours  4 minutes  2.3 seconds.
 File lengths (MBytes):  RWF=    310 Int=      0 D2E=      0 Chk=     12 Scr=      1
 Normal termination of Gaussian 16 at Sun Oct 13 23:23:13 2019.
real 753.91
user 17639.52
sys 76.15
Machine:
brown-a283
brown-a283
brown-a283
brown-a283
brown-a283
brown-a283
brown-a283
brown-a283
brown-a283
brown-a283
brown-a283
brown-a283
brown-a283
brown-a283
brown-a283
brown-a283
brown-a283
brown-a283
brown-a283
brown-a283
brown-a283
brown-a283
brown-a283
brown-a283
