 Entering Gaussian System, Link 0=/apps/cent7/gaussian/g16-A.03/g16-haswell/g16/g16
 Initial command:
 /apps/cent7/gaussian/g16-A.03/g16-haswell/g16/l1.exe "/scratch/brown/finej/gaussian/Gau-346420.inp" -scrdir="/scratch/brown/finej/gaussian/"
 Entering Link 1 = /apps/cent7/gaussian/g16-A.03/g16-haswell/g16/l1.exe PID=    346422.
  
 Copyright (c) 1988,1990,1992,1993,1995,1998,2003,2009,2016,
            Gaussian, Inc.  All Rights Reserved.
  
 This is part of the Gaussian(R) 16 program.  It is based on
 the Gaussian(R) 09 system (copyright 2009, Gaussian, Inc.),
 the Gaussian(R) 03 system (copyright 2003, Gaussian, Inc.),
 the Gaussian(R) 98 system (copyright 1998, Gaussian, Inc.),
 the Gaussian(R) 94 system (copyright 1995, Gaussian, Inc.),
 the Gaussian 92(TM) system (copyright 1992, Gaussian, Inc.),
 the Gaussian 90(TM) system (copyright 1990, Gaussian, Inc.),
 the Gaussian 88(TM) system (copyright 1988, Gaussian, Inc.),
 the Gaussian 86(TM) system (copyright 1986, Carnegie Mellon
 University), and the Gaussian 82(TM) system (copyright 1983,
 Carnegie Mellon University). Gaussian is a federally registered
 trademark of Gaussian, Inc.
  
 This software contains proprietary and confidential information,
 including trade secrets, belonging to Gaussian, Inc.
  
 This software is provided under written license and may be
 used, copied, transmitted, or stored only in accord with that
 written license.
  
 The following legend is applicable only to US Government
 contracts under FAR:
  
                    RESTRICTED RIGHTS LEGEND
  
 Use, reproduction and disclosure by the US Government is
 subject to restrictions as set forth in subparagraphs (a)
 and (c) of the Commercial Computer Software - Restricted
 Rights clause in FAR 52.227-19.
  
 Gaussian, Inc.
 340 Quinnipiac St., Bldg. 40, Wallingford CT 06492
  
  
 ---------------------------------------------------------------
 Warning -- This program may not be used in any manner that
 competes with the business of Gaussian, Inc. or will provide
 assistance to any competitor of Gaussian, Inc.  The licensee
 of this program is prohibited from giving any competitor of
 Gaussian, Inc. access to this program.  By using this program,
 the user acknowledges that Gaussian, Inc. is engaged in the
 business of creating and licensing software in the field of
 computational chemistry and represents and warrants to the
 licensee that it is not a competitor of Gaussian, Inc. and that
 it will not use this program in any manner prohibited above.
 ---------------------------------------------------------------
  

 Cite this work as:
 Gaussian 16, Revision A.03,
 M. J. Frisch, G. W. Trucks, H. B. Schlegel, G. E. Scuseria, 
 M. A. Robb, J. R. Cheeseman, G. Scalmani, V. Barone, 
 G. A. Petersson, H. Nakatsuji, X. Li, M. Caricato, A. V. Marenich, 
 J. Bloino, B. G. Janesko, R. Gomperts, B. Mennucci, H. P. Hratchian, 
 J. V. Ortiz, A. F. Izmaylov, J. L. Sonnenberg, D. Williams-Young, 
 F. Ding, F. Lipparini, F. Egidi, J. Goings, B. Peng, A. Petrone, 
 T. Henderson, D. Ranasinghe, V. G. Zakrzewski, J. Gao, N. Rega, 
 G. Zheng, W. Liang, M. Hada, M. Ehara, K. Toyota, R. Fukuda, 
 J. Hasegawa, M. Ishida, T. Nakajima, Y. Honda, O. Kitao, H. Nakai, 
 T. Vreven, K. Throssell, J. A. Montgomery, Jr., J. E. Peralta, 
 F. Ogliaro, M. J. Bearpark, J. J. Heyd, E. N. Brothers, K. N. Kudin, 
 V. N. Staroverov, T. A. Keith, R. Kobayashi, J. Normand, 
 K. Raghavachari, A. P. Rendell, J. C. Burant, S. S. Iyengar, 
 J. Tomasi, M. Cossi, J. M. Millam, M. Klene, C. Adamo, R. Cammi, 
 J. W. Ochterski, R. L. Martin, K. Morokuma, O. Farkas, 
 J. B. Foresman, and D. J. Fox, Gaussian, Inc., Wallingford CT, 2016.
 
 ******************************************
 Gaussian 16:  ES64L-G16RevA.03 25-Dec-2016
                13-Oct-2019 
 ******************************************
 %chk=32.chk
 %nprocshared=24
 Will use up to   24 processors via shared memory.
 %mem=80GB
 -------------------------------------------------------------------
 #P opt freq m062x/6-311++g(d,p) geom=connectivity temperature=0.001
 -------------------------------------------------------------------
 1/18=20,19=15,26=3,38=1,57=2,112=-1000/1,3;
 2/9=110,12=2,17=6,18=5,40=1/2;
 3/5=4,6=6,7=1111,11=2,25=1,30=1,71=1,74=-55/1,2,3;
 4//1;
 5/5=2,38=5/2;
 6/7=2,8=2,9=2,10=2,28=1/1;
 7//1,2,3,16;
 1/18=20,19=15,26=3/3(2);
 2/9=110/2;
 99//99;
 2/9=110/2;
 3/5=4,6=6,7=1111,11=2,25=1,30=1,71=1,74=-55/1,2,3;
 4/5=5,16=3,69=1/1;
 5/5=2,38=5/2;
 7//1,2,3,16;
 1/18=20,19=15,26=3/3(-5);
 2/9=110/2;
 6/7=2,8=2,9=2,10=2,19=2,28=1/1;
 99/9=1/99;
 Leave Link    1 at Sun Oct 13 23:12:28 2019, MaxMem= 10737418240 cpu:               1.3 elap:               0.1
 (Enter /apps/cent7/gaussian/g16-A.03/g16-haswell/g16/l101.exe)
 -------------------
 Title Card Required
 -------------------
 Symbolic Z-matrix:
 Charge =  0 Multiplicity = 1
 O                    -2.0464   -1.695     0.9637 
 S                    -0.6744   -1.6629    0.1306 
 C                    -1.0971   -2.2123   -1.5013 
 C                    -0.2335   -3.1047   -2.1695 
 C                    -0.5633   -3.5831   -3.4515 
 C                    -1.7629   -3.1792   -4.0679 
 C                    -2.6204   -2.2765   -3.4125 
 C                    -2.2896   -1.7967   -2.1316 
 C                    -0.2263    0.049     0.02 
 C                     1.1229    0.4176    0.2 
 C                     1.4993    1.773     0.1518 
 C                     0.5272    2.7675   -0.0674 
 C                    -0.8179    2.4042   -0.2636 
 C                    -1.1937    1.0488   -0.2173 
 H                     0.6928   -3.4259   -1.6932 
 H                     0.1107   -4.267    -3.9673 
 H                    -2.0275   -3.5652   -5.0523 
 H                    -3.5405   -1.9492   -3.8967 
 H                    -2.9591   -1.1009   -1.626 
 H                     1.878    -0.3483    0.3772 
 H                     2.5445    2.0528    0.2842 
 H                     0.8159    3.8185   -0.0851 
 H                    -1.5682    3.1722   -0.4514 
 H                    -2.2376    0.7726   -0.3657 
 
 ITRead=  0  0  0  0  0  0  0  0  0  0  0  0  0  0  0  0  0  0  0  0
 ITRead=  0  0  0  0
 MicOpt= -1 -1 -1 -1 -1 -1 -1 -1 -1 -1 -1 -1 -1 -1 -1 -1 -1 -1 -1 -1
 MicOpt= -1 -1 -1 -1
 NAtoms=     24 NQM=       24 NQMF=       0 NMMI=      0 NMMIF=      0
                NMic=       0 NMicF=      0.
                    Isotopes and Nuclear Properties:
 (Nuclear quadrupole moments (NQMom) in fm**2, nuclear magnetic moments (NMagM)
  in nuclear magnetons)

  Atom         1           2           3           4           5           6           7           8           9          10
 IAtWgt=          16          32          12          12          12          12          12          12          12          12
 AtmWgt=  15.9949146  31.9720718  12.0000000  12.0000000  12.0000000  12.0000000  12.0000000  12.0000000  12.0000000  12.0000000
 NucSpn=           0           0           0           0           0           0           0           0           0           0
 AtZEff=  -0.0000000  -0.0000000  -0.0000000  -0.0000000  -0.0000000  -0.0000000  -0.0000000  -0.0000000  -0.0000000  -0.0000000
 NQMom=    0.0000000   0.0000000   0.0000000   0.0000000   0.0000000   0.0000000   0.0000000   0.0000000   0.0000000   0.0000000
 NMagM=    0.0000000   0.0000000   0.0000000   0.0000000   0.0000000   0.0000000   0.0000000   0.0000000   0.0000000   0.0000000
 AtZNuc=   8.0000000  16.0000000   6.0000000   6.0000000   6.0000000   6.0000000   6.0000000   6.0000000   6.0000000   6.0000000

  Atom        11          12          13          14          15          16          17          18          19          20
 IAtWgt=          12          12          12          12           1           1           1           1           1           1
 AtmWgt=  12.0000000  12.0000000  12.0000000  12.0000000   1.0078250   1.0078250   1.0078250   1.0078250   1.0078250   1.0078250
 NucSpn=           0           0           0           0           1           1           1           1           1           1
 AtZEff=  -0.0000000  -0.0000000  -0.0000000  -0.0000000  -0.0000000  -0.0000000  -0.0000000  -0.0000000  -0.0000000  -0.0000000
 NQMom=    0.0000000   0.0000000   0.0000000   0.0000000   0.0000000   0.0000000   0.0000000   0.0000000   0.0000000   0.0000000
 NMagM=    0.0000000   0.0000000   0.0000000   0.0000000   2.7928460   2.7928460   2.7928460   2.7928460   2.7928460   2.7928460
 AtZNuc=   6.0000000   6.0000000   6.0000000   6.0000000   1.0000000   1.0000000   1.0000000   1.0000000   1.0000000   1.0000000

  Atom        21          22          23          24
 IAtWgt=           1           1           1           1
 AtmWgt=   1.0078250   1.0078250   1.0078250   1.0078250
 NucSpn=           1           1           1           1
 AtZEff=  -0.0000000  -0.0000000  -0.0000000  -0.0000000
 NQMom=    0.0000000   0.0000000   0.0000000   0.0000000
 NMagM=    2.7928460   2.7928460   2.7928460   2.7928460
 AtZNuc=   1.0000000   1.0000000   1.0000000   1.0000000
 Leave Link  101 at Sun Oct 13 23:12:29 2019, MaxMem= 10737418240 cpu:               9.1 elap:               0.4
 (Enter /apps/cent7/gaussian/g16-A.03/g16-haswell/g16/l103.exe)

 GradGradGradGradGradGradGradGradGradGradGradGradGradGradGradGradGradGrad
 Berny optimization.
 Initialization pass.
                           ----------------------------
                           !    Initial Parameters    !
                           ! (Angstroms and Degrees)  !
 --------------------------                            --------------------------
 ! Name  Definition              Value          Derivative Info.                !
 --------------------------------------------------------------------------------
 ! R1    R(1,2)                  1.6055         estimate D2E/DX2                !
 ! R2    R(2,3)                  1.773          estimate D2E/DX2                !
 ! R3    R(2,9)                  1.773          estimate D2E/DX2                !
 ! R4    R(3,4)                  1.4102         estimate D2E/DX2                !
 ! R5    R(3,8)                  1.4114         estimate D2E/DX2                !
 ! R6    R(4,5)                  1.4075         estimate D2E/DX2                !
 ! R7    R(4,15)                 1.09           estimate D2E/DX2                !
 ! R8    R(5,6)                  1.4079         estimate D2E/DX2                !
 ! R9    R(5,16)                 1.09           estimate D2E/DX2                !
 ! R10   R(6,7)                  1.407          estimate D2E/DX2                !
 ! R11   R(6,17)                 1.09           estimate D2E/DX2                !
 ! R12   R(7,8)                  1.4072         estimate D2E/DX2                !
 ! R13   R(7,18)                 1.09           estimate D2E/DX2                !
 ! R14   R(8,19)                 1.09           estimate D2E/DX2                !
 ! R15   R(9,10)                 1.4102         estimate D2E/DX2                !
 ! R16   R(9,14)                 1.4113         estimate D2E/DX2                !
 ! R17   R(10,11)                1.4075         estimate D2E/DX2                !
 ! R18   R(10,20)                1.09           estimate D2E/DX2                !
 ! R19   R(11,12)                1.4079         estimate D2E/DX2                !
 ! R20   R(11,21)                1.0901         estimate D2E/DX2                !
 ! R21   R(12,13)                1.407          estimate D2E/DX2                !
 ! R22   R(12,22)                1.0901         estimate D2E/DX2                !
 ! R23   R(13,14)                1.4073         estimate D2E/DX2                !
 ! R24   R(13,23)                1.09           estimate D2E/DX2                !
 ! R25   R(14,24)                1.09           estimate D2E/DX2                !
 ! A1    A(1,2,3)              105.5264         estimate D2E/DX2                !
 ! A2    A(1,2,9)              105.5249         estimate D2E/DX2                !
 ! A3    A(3,2,9)              107.5791         estimate D2E/DX2                !
 ! A4    A(2,3,4)              119.0916         estimate D2E/DX2                !
 ! A5    A(2,3,8)              121.4141         estimate D2E/DX2                !
 ! A6    A(4,3,8)              119.482          estimate D2E/DX2                !
 ! A7    A(3,4,5)              120.2097         estimate D2E/DX2                !
 ! A8    A(3,4,15)             119.9905         estimate D2E/DX2                !
 ! A9    A(5,4,15)             119.7998         estimate D2E/DX2                !
 ! A10   A(4,5,6)              120.0603         estimate D2E/DX2                !
 ! A11   A(4,5,16)             119.9594         estimate D2E/DX2                !
 ! A12   A(6,5,16)             119.9803         estimate D2E/DX2                !
 ! A13   A(5,6,7)              119.9602         estimate D2E/DX2                !
 ! A14   A(5,6,17)             120.0437         estimate D2E/DX2                !
 ! A15   A(7,6,17)             119.9961         estimate D2E/DX2                !
 ! A16   A(6,7,8)              119.9646         estimate D2E/DX2                !
 ! A17   A(6,7,18)             120.0106         estimate D2E/DX2                !
 ! A18   A(8,7,18)             120.0248         estimate D2E/DX2                !
 ! A19   A(3,8,7)              120.3113         estimate D2E/DX2                !
 ! A20   A(3,8,19)             119.9867         estimate D2E/DX2                !
 ! A21   A(7,8,19)             119.702          estimate D2E/DX2                !
 ! A22   A(2,9,10)             119.092          estimate D2E/DX2                !
 ! A23   A(2,9,14)             121.4161         estimate D2E/DX2                !
 ! A24   A(10,9,14)            119.4797         estimate D2E/DX2                !
 ! A25   A(9,10,11)            120.2114         estimate D2E/DX2                !
 ! A26   A(9,10,20)            119.9911         estimate D2E/DX2                !
 ! A27   A(11,10,20)           119.7975         estimate D2E/DX2                !
 ! A28   A(10,11,12)           120.0608         estimate D2E/DX2                !
 ! A29   A(10,11,21)           119.9622         estimate D2E/DX2                !
 ! A30   A(12,11,21)           119.977          estimate D2E/DX2                !
 ! A31   A(11,12,13)           119.9606         estimate D2E/DX2                !
 ! A32   A(11,12,22)           120.0483         estimate D2E/DX2                !
 ! A33   A(13,12,22)           119.9911         estimate D2E/DX2                !
 ! A34   A(12,13,14)           119.9585         estimate D2E/DX2                !
 ! A35   A(12,13,23)           120.0103         estimate D2E/DX2                !
 ! A36   A(14,13,23)           120.0312         estimate D2E/DX2                !
 ! A37   A(9,14,13)            120.3172         estimate D2E/DX2                !
 ! A38   A(9,14,24)            119.9914         estimate D2E/DX2                !
 ! A39   A(13,14,24)           119.6914         estimate D2E/DX2                !
 ! D1    D(1,2,3,4)           -138.0743         estimate D2E/DX2                !
 ! D2    D(1,2,3,8)             40.6419         estimate D2E/DX2                !
 ! D3    D(9,2,3,4)            109.6279         estimate D2E/DX2                !
 ! D4    D(9,2,3,8)            -71.6558         estimate D2E/DX2                !
 ! D5    D(1,2,9,10)           138.0804         estimate D2E/DX2                !
 ! D6    D(1,2,9,14)           -40.6464         estimate D2E/DX2                !
 ! D7    D(3,2,9,10)          -109.6209         estimate D2E/DX2                !
 ! D8    D(3,2,9,14)            71.6524         estimate D2E/DX2                !
 ! D9    D(2,3,4,5)            178.3462         estimate D2E/DX2                !
 ! D10   D(2,3,4,15)            -1.6635         estimate D2E/DX2                !
 ! D11   D(8,3,4,5)             -0.3953         estimate D2E/DX2                !
 ! D12   D(8,3,4,15)           179.595          estimate D2E/DX2                !
 ! D13   D(2,3,8,7)           -178.2205         estimate D2E/DX2                !
 ! D14   D(2,3,8,19)             1.7821         estimate D2E/DX2                !
 ! D15   D(4,3,8,7)              0.4909         estimate D2E/DX2                !
 ! D16   D(4,3,8,19)          -179.5066         estimate D2E/DX2                !
 ! D17   D(3,4,5,6)             -0.4572         estimate D2E/DX2                !
 ! D18   D(3,4,5,16)           179.5521         estimate D2E/DX2                !
 ! D19   D(15,4,5,6)           179.5524         estimate D2E/DX2                !
 ! D20   D(15,4,5,16)           -0.4383         estimate D2E/DX2                !
 ! D21   D(4,5,6,7)              1.2178         estimate D2E/DX2                !
 ! D22   D(4,5,6,17)          -178.7916         estimate D2E/DX2                !
 ! D23   D(16,5,6,7)          -178.7915         estimate D2E/DX2                !
 ! D24   D(16,5,6,17)            1.1991         estimate D2E/DX2                !
 ! D25   D(5,6,7,8)             -1.1218         estimate D2E/DX2                !
 ! D26   D(5,6,7,18)           178.8884         estimate D2E/DX2                !
 ! D27   D(17,6,7,8)           178.8876         estimate D2E/DX2                !
 ! D28   D(17,6,7,18)           -1.1022         estimate D2E/DX2                !
 ! D29   D(6,7,8,3)              0.2667         estimate D2E/DX2                !
 ! D30   D(6,7,8,19)          -179.7359         estimate D2E/DX2                !
 ! D31   D(18,7,8,3)          -179.7435         estimate D2E/DX2                !
 ! D32   D(18,7,8,19)            0.254          estimate D2E/DX2                !
 ! D33   D(2,9,10,11)         -178.3422         estimate D2E/DX2                !
 ! D34   D(2,9,10,20)            1.6534         estimate D2E/DX2                !
 ! D35   D(14,9,10,11)           0.4096         estimate D2E/DX2                !
 ! D36   D(14,9,10,20)        -179.5948         estimate D2E/DX2                !
 ! D37   D(2,9,14,13)          178.2192         estimate D2E/DX2                !
 ! D38   D(2,9,14,24)           -1.7776         estimate D2E/DX2                !
 ! D39   D(10,9,14,13)          -0.5027         estimate D2E/DX2                !
 ! D40   D(10,9,14,24)         179.5005         estimate D2E/DX2                !
 ! D41   D(9,10,11,12)           0.44           estimate D2E/DX2                !
 ! D42   D(9,10,11,21)        -179.552          estimate D2E/DX2                !
 ! D43   D(20,10,11,12)       -179.5556         estimate D2E/DX2                !
 ! D44   D(20,10,11,21)          0.4524         estimate D2E/DX2                !
 ! D45   D(10,11,12,13)         -1.2003         estimate D2E/DX2                !
 ! D46   D(10,11,12,22)        178.7934         estimate D2E/DX2                !
 ! D47   D(21,11,12,13)        178.7917         estimate D2E/DX2                !
 ! D48   D(21,11,12,22)         -1.2146         estimate D2E/DX2                !
 ! D49   D(11,12,13,14)          1.1067         estimate D2E/DX2                !
 ! D50   D(11,12,13,23)       -178.8882         estimate D2E/DX2                !
 ! D51   D(22,12,13,14)       -178.8869         estimate D2E/DX2                !
 ! D52   D(22,12,13,23)          1.1182         estimate D2E/DX2                !
 ! D53   D(12,13,14,9)          -0.2544         estimate D2E/DX2                !
 ! D54   D(12,13,14,24)        179.7424         estimate D2E/DX2                !
 ! D55   D(23,13,14,9)         179.7405         estimate D2E/DX2                !
 ! D56   D(23,13,14,24)         -0.2627         estimate D2E/DX2                !
 --------------------------------------------------------------------------------
 Trust Radius=3.00D-01 FncErr=1.00D-07 GrdErr=1.00D-06 EigMax=2.50D+02 EigMin=1.00D-04
 Number of steps in this run=    130 maximum allowed number of steps=    144.
 GradGradGradGradGradGradGradGradGradGradGradGradGradGradGradGradGradGrad

 Leave Link  103 at Sun Oct 13 23:12:29 2019, MaxMem= 10737418240 cpu:               0.3 elap:               0.0
 (Enter /apps/cent7/gaussian/g16-A.03/g16-haswell/g16/l202.exe)
                          Input orientation:                          
 ---------------------------------------------------------------------
 Center     Atomic      Atomic             Coordinates (Angstroms)
 Number     Number       Type             X           Y           Z
 ---------------------------------------------------------------------
      1          8           0       -2.046400   -1.695000    0.963700
      2         16           0       -0.674400   -1.662900    0.130600
      3          6           0       -1.097100   -2.212300   -1.501300
      4          6           0       -0.233500   -3.104700   -2.169500
      5          6           0       -0.563300   -3.583100   -3.451500
      6          6           0       -1.762900   -3.179200   -4.067900
      7          6           0       -2.620400   -2.276500   -3.412500
      8          6           0       -2.289600   -1.796700   -2.131600
      9          6           0       -0.226300    0.049000    0.020000
     10          6           0        1.122900    0.417600    0.200000
     11          6           0        1.499300    1.773000    0.151800
     12          6           0        0.527200    2.767500   -0.067400
     13          6           0       -0.817900    2.404200   -0.263600
     14          6           0       -1.193700    1.048800   -0.217300
     15          1           0        0.692800   -3.425900   -1.693200
     16          1           0        0.110700   -4.267000   -3.967300
     17          1           0       -2.027500   -3.565200   -5.052300
     18          1           0       -3.540500   -1.949200   -3.896700
     19          1           0       -2.959100   -1.100900   -1.626000
     20          1           0        1.878000   -0.348300    0.377200
     21          1           0        2.544500    2.052800    0.284200
     22          1           0        0.815900    3.818500   -0.085100
     23          1           0       -1.568200    3.172200   -0.451400
     24          1           0       -2.237600    0.772600   -0.365700
 ---------------------------------------------------------------------
                    Distance matrix (angstroms):
                    1          2          3          4          5
     1  O    0.000000
     2  S    1.605450   0.000000
     3  C    2.691653   1.773024   0.000000
     4  C    3.884688   2.750207   1.410204   0.000000
     5  C    5.025783   4.065827   2.442809   1.407536   0.000000
     6  C    5.253591   4.594714   2.822343   2.438962   1.407879
     7  C    4.451825   4.088640   2.444842   2.815716   2.437290
     8  C    3.106505   2.782862   1.411403   2.437180   2.813090
     9  C    2.691630   1.773028   2.861140   3.839243   5.035577
    10  C    3.884685   2.750197   3.839166   4.456562   5.672947
    11  C    5.025753   4.065812   5.035539   5.673005   6.776865
    12  C    5.253617   4.594724   5.430730   6.283329   7.278148
    13  C    4.451844   4.088678   4.787685   5.858494   6.787878
    14  C    3.106493   2.782809   3.506103   4.688777   5.684360
    15  H    4.190268   2.881606   2.171035   1.089983   2.166591
    16  H    5.965151   4.918384   3.429538   2.168294   1.089975
    17  H    6.300021   5.684371   3.912235   3.426519   2.169507
    18  H    5.091212   4.951327   3.431817   3.905720   3.425135
    19  H    2.809363   2.936212   2.172051   3.426296   3.903028
    20  H    4.190286   2.881619   3.981768   4.306025   5.575197
    21  H    5.965240   4.918469   5.885604   6.351199   7.441589
    22  H    6.300113   5.684476   6.483498   7.305933   8.247334
    23  H    5.091249   4.951343   5.506093   6.643250   7.459524
    24  H    2.809433   2.936251   3.391158   4.722665   5.594423
                    6          7          8          9         10
     6  C    0.000000
     7  C    1.407026   0.000000
     8  C    2.436796   1.407246   0.000000
     9  C    5.430777   4.787663   3.506166   0.000000
    10  C    6.283294   5.858381   4.688778   1.410180   0.000000
    11  C    7.278194   6.787828   5.684403   2.442794   1.407519
    12  C    7.524081   6.821951   5.746930   2.822347   2.438932
    13  C    6.822029   5.922291   4.827306   2.444869   2.815708
    14  C    5.746920   4.827256   3.600335   1.411302   2.437045
    15  H    3.424985   3.905689   3.426543   3.981800   4.306006
    16  H    2.168826   3.424734   3.903027   5.885574   6.351096
    17  H    1.089978   2.168230   3.424438   6.483440   7.305777
    18  H    2.168426   1.090027   2.168775   5.506111   6.643191
    19  H    3.422441   2.165256   1.089954   3.391133   4.722589
    20  H    6.405393   6.189942   5.075513   2.171064   1.090036
    21  H    8.054085   7.686652   6.635003   3.429628   2.168390
    22  H    8.454627   7.747824   6.735188   3.912334   3.426609
    23  H    7.311447   6.289958   5.294663   3.431806   3.905658
    24  H    5.435839   4.327417   3.118078   2.172024   3.426223
                   11         12         13         14         15
    11  C    0.000000
    12  C    1.407856   0.000000
    13  C    2.437291   1.407045   0.000000
    14  C    2.812997   2.436780   1.407295   0.000000
    15  H    5.575216   6.405377   6.189995   5.075441   0.000000
    16  H    7.441559   8.053998   7.686651   6.634884   2.493556
    17  H    8.247263   8.454514   7.747807   6.735090   4.324695
    18  H    7.459538   7.311428   6.289997   5.294663   4.995687
    19  H    5.594390   5.435811   4.327424   3.118058   4.329725
    20  H    2.166595   3.424988   3.905734   3.426465   3.893954
    21  H    1.090074   2.168852   3.424807   3.903032   6.111878
    22  H    2.169615   1.090074   2.168273   3.424501   7.421757
    23  H    3.425079   2.168396   1.089974   2.168843   7.084427
    24  H    3.902951   3.422386   2.165200   1.089971   5.289320
                   16         17         18         19         20
    16  H    0.000000
    17  H    2.498329   0.000000
    18  H    4.325326   2.497206   0.000000
    19  H    4.992950   4.322058   2.492733   0.000000
    20  H    6.111811   7.421647   7.084437   5.289306   0.000000
    21  H    7.996156   8.996852   8.397806   6.624523   2.493622
    22  H    8.996894   9.342217   8.171467   6.389483   4.324812
    23  H    8.397735   8.171401   6.479876   4.644747   4.995677
    24  H    6.624470   6.389434   4.644750   2.370426   4.329721
                   21         22         23         24
    21  H    0.000000
    22  H    2.498427   0.000000
    23  H    4.325328   2.497161   0.000000
    24  H    4.992971   4.322049   2.492694   0.000000
 Stoichiometry    C12H10OS
 Framework group  C1[X(C12H10OS)]
 Deg. of freedom    66
 Full point group                 C1      NOp   1
 Largest Abelian subgroup         C1      NOp   1
 Largest concise Abelian subgroup C1      NOp   1
                         Standard orientation:                         
 ---------------------------------------------------------------------
 Center     Atomic      Atomic             Coordinates (Angstroms)
 Number     Number       Type             X           Y           Z
 ---------------------------------------------------------------------
      1          8           0       -0.000009    1.821364   -1.731822
      2         16           0       -0.000008    1.393008   -0.184572
      3          6           0       -1.430561    0.366480    0.023692
      4          6           0       -2.228304    0.527594    1.175352
      5          6           0       -3.388425   -0.250564    1.347829
      6          6           0       -3.762054   -1.186960    0.365135
      7          6           0       -2.961118   -1.363154   -0.778186
      8          6           0       -1.800172   -0.586514   -0.949574
      9          6           0        1.430580    0.366516    0.023656
     10          6           0        2.228258    0.527538    1.175345
     11          6           0        3.388440   -0.250506    1.347782
     12          6           0        3.762027   -1.186982    0.365182
     13          6           0        2.961172   -1.363126   -0.778225
     14          6           0        1.800163   -0.586464   -0.949490
     15          1           0       -1.946987    1.256464    1.935400
     16          1           0       -3.998057   -0.127846    2.243002
     17          1           0       -4.671068   -1.775387    0.489631
     18          1           0       -3.239928   -2.100746   -1.530770
     19          1           0       -1.185189   -0.723512   -1.838971
     20          1           0        1.946967    1.256467    1.935421
     21          1           0        3.998099   -0.127861    2.243067
     22          1           0        4.671149   -1.775437    0.489603
     23          1           0        3.239948   -2.100759   -1.530704
     24          1           0        1.185238   -0.723558   -1.838933
 ---------------------------------------------------------------------
 Rotational constants (GHZ):           1.1825990           0.3685598           0.3571007
 Leave Link  202 at Sun Oct 13 23:12:29 2019, MaxMem= 10737418240 cpu:               0.3 elap:               0.0
 (Enter /apps/cent7/gaussian/g16-A.03/g16-haswell/g16/l301.exe)
 Standard basis: 6-311++G(d,p) (5D, 7F)
 Ernie: Thresh=  0.10000D-02 Tol=  0.10000D-05 Strict=F.
 There are   400 symmetry adapted cartesian basis functions of A   symmetry.
 There are   386 symmetry adapted basis functions of A   symmetry.
   386 basis functions,   608 primitive gaussians,   400 cartesian basis functions
    53 alpha electrons       53 beta electrons
       nuclear repulsion energy       908.6032709926 Hartrees.
 IExCor= 4336 DFT=T Ex+Corr=M062X ExCW=0 ScaHFX=  0.540000
 ScaDFX=  1.000000  1.000000  1.000000  1.000000 ScalE2=  1.000000  1.000000
 IRadAn=      5 IRanWt=     -1 IRanGd=            0 ICorTp=0 IEmpDi=  4
 NAtoms=   24 NActive=   24 NUniq=   24 SFac= 1.00D+00 NAtFMM=   60 NAOKFM=F Big=F
 Integral buffers will be    131072 words long.
 Raffenetti 2 integral format.
 Two-electron integral symmetry is turned on.
 Leave Link  301 at Sun Oct 13 23:12:29 2019, MaxMem= 10737418240 cpu:               1.6 elap:               0.1
 (Enter /apps/cent7/gaussian/g16-A.03/g16-haswell/g16/l302.exe)
 NPDir=0 NMtPBC=     1 NCelOv=     1 NCel=       1 NClECP=     1 NCelD=      1
         NCelK=      1 NCelE2=     1 NClLst=     1 CellRange=     0.0.
 One-electron integrals computed using PRISM.
 One-electron integral symmetry used in STVInt
 NBasis=   386 RedAO= T EigKep=  1.02D-06  NBF=   386
 NBsUse=   385 1.00D-06 EigRej=  5.44D-07 NBFU=   385
 Precomputing XC quadrature grid using
 IXCGrd= 4 IRadAn=           5 IRanWt=          -1 IRanGd=           0 AccXCQ= 0.00D+00.
 Generated NRdTot=       0 NPtTot=           0 NUsed=           0 NTot=          32
 NSgBfM=   398   398   398   398   398 MxSgAt=    24 MxSgA2=    24.
 Leave Link  302 at Sun Oct 13 23:12:29 2019, MaxMem= 10737418240 cpu:               6.4 elap:               0.3
 (Enter /apps/cent7/gaussian/g16-A.03/g16-haswell/g16/l303.exe)
 DipDrv:  MaxL=1.
 Leave Link  303 at Sun Oct 13 23:12:29 2019, MaxMem= 10737418240 cpu:               1.7 elap:               0.1
 (Enter /apps/cent7/gaussian/g16-A.03/g16-haswell/g16/l401.exe)
 ExpMin= 3.60D-02 ExpMax= 9.34D+04 ExpMxC= 3.17D+03 IAcc=3 IRadAn=         5 AccDes= 0.00D+00
 Harris functional with IExCor= 1009 and IRadAn=       5 diagonalized for initial guess.
 HarFok:  IExCor= 1009 AccDes= 0.00D+00 IRadAn=         5 IDoV= 1 UseB2=F ITyADJ=14
 ICtDFT=  3500011 ScaDFX=  1.000000  1.000000  1.000000  1.000000
 FoFCou: FMM=F IPFlag=           0 FMFlag=      100000 FMFlg1=           0
         NFxFlg=           0 DoJE=T BraDBF=F KetDBF=T FulRan=T
         wScrn=  0.000000 ICntrl=       500 IOpCl=  0 I1Cent=   200000004 NGrid=           0
         NMat0=    1 NMatS0=      1 NMatT0=    0 NMatD0=    1 NMtDS0=    0 NMtDT0=    0
 Petite list used in FoFCou.
 Harris En= -936.164216581896    
 JPrj=0 DoOrth=F DoCkMO=F.
 Leave Link  401 at Sun Oct 13 23:12:30 2019, MaxMem= 10737418240 cpu:              16.2 elap:               0.7
 (Enter /apps/cent7/gaussian/g16-A.03/g16-haswell/g16/l502.exe)
 Integral symmetry usage will be decided dynamically.
 Closed shell SCF:
 Using DIIS extrapolation, IDIIS=  1040.
 NGot= 10737418240 LenX= 10737084845 LenY= 10736924404
 Requested convergence on RMS density matrix=1.00D-08 within 128 cycles.
 Requested convergence on MAX density matrix=1.00D-06.
 Requested convergence on             energy=1.00D-06.
 No special actions if energy rises.
 Fock matrices will be formed incrementally for  20 cycles.

 Cycle   1  Pass 1  IDiag  1:
 FoFJK:  IHMeth= 1 ICntrl=       0 DoSepK=F KAlg= 0 I1Cent=           0 FoldK=F
 IRaf= 880000000 NMat=       1 IRICut=       1 DoRegI=T DoRafI=F ISym2E= 0 IDoP0=0 IntGTp=1.
 FoFCou: FMM=F IPFlag=           0 FMFlag=      100000 FMFlg1=           0
         NFxFlg=           0 DoJE=F BraDBF=F KetDBF=F FulRan=T
         wScrn=  0.000000 ICntrl=         0 IOpCl=  0 I1Cent=           0 NGrid=           0
         NMat0=    1 NMatS0=      1 NMatT0=    0 NMatD0=    1 NMtDS0=    0 NMtDT0=    0
 Symmetry not used in FoFCou.
 E= -936.092839086405    
 DIIS: error= 4.03D-02 at cycle   1 NSaved=   1.
 NSaved= 1 IEnMin= 1 EnMin= -936.092839086405     IErMin= 1 ErrMin= 4.03D-02
 ErrMax= 4.03D-02  0.00D+00 EMaxC= 1.00D-01 BMatC= 5.86D-01 BMatP= 5.86D-01
 IDIUse=3 WtCom= 5.97D-01 WtEn= 4.03D-01
 Coeff-Com:  0.100D+01
 Coeff-En:   0.100D+01
 Coeff:      0.100D+01
 Gap=     0.334 Goal=   None    Shift=    0.000
 GapD=    0.334 DampG=1.000 DampE=0.500 DampFc=0.5000 IDamp=-1.
 Damping current iteration by 5.00D-01
 RMSDP=7.87D-01 MaxDP=6.02D+01              OVMax= 2.81D-01

 Cycle   2  Pass 1  IDiag  1:
 RMSU=  1.52D-01    CP:  3.00D+00
 E= -936.241134269350     Delta-E=       -0.148295182944 Rises=F Damp=T
 DIIS: error= 1.87D-02 at cycle   2 NSaved=   2.
 NSaved= 2 IEnMin= 2 EnMin= -936.241134269350     IErMin= 2 ErrMin= 1.87D-02
 ErrMax= 1.87D-02  0.00D+00 EMaxC= 1.00D-01 BMatC= 7.55D-02 BMatP= 5.86D-01
 IDIUse=3 WtCom= 8.13D-01 WtEn= 1.87D-01
 Coeff-Com:  0.117D+00 0.883D+00
 Coeff-En:   0.266D+00 0.734D+00
 Coeff:      0.145D+00 0.855D+00
 Gap=     0.323 Goal=   None    Shift=    0.000
 RMSDP=2.82D-01 MaxDP=2.17D+01 DE=-1.48D-01 OVMax= 1.92D-01

 Cycle   3  Pass 1  IDiag  1:
 RMSU=  2.29D-02    CP:  1.66D+00  2.46D-01
 E= -936.485393206233     Delta-E=       -0.244258936883 Rises=F Damp=F
 DIIS: error= 2.26D-02 at cycle   3 NSaved=   3.
 NSaved= 3 IEnMin= 3 EnMin= -936.485393206233     IErMin= 2 ErrMin= 1.87D-02
 ErrMax= 2.26D-02  0.00D+00 EMaxC= 1.00D-01 BMatC= 6.47D-02 BMatP= 7.55D-02
 IDIUse=3 WtCom= 7.74D-01 WtEn= 2.26D-01
 Coeff-Com: -0.363D-01 0.486D+00 0.550D+00
 Coeff-En:   0.000D+00 0.000D+00 0.100D+01
 Coeff:     -0.281D-01 0.377D+00 0.652D+00
 Gap=     0.264 Goal=   None    Shift=    0.000
 RMSDP=1.56D-01 MaxDP=1.17D+01 DE=-2.44D-01 OVMax= 8.38D-02

 Cycle   4  Pass 1  IDiag  1:
 RMSU=  1.83D-02    CP:  2.57D+00  5.48D-01  1.52D+00
 E= -936.525142700460     Delta-E=       -0.039749494227 Rises=F Damp=F
 DIIS: error= 9.07D-03 at cycle   4 NSaved=   4.
 NSaved= 4 IEnMin= 4 EnMin= -936.525142700460     IErMin= 4 ErrMin= 9.07D-03
 ErrMax= 9.07D-03  0.00D+00 EMaxC= 1.00D-01 BMatC= 1.88D-02 BMatP= 6.47D-02
 IDIUse=3 WtCom= 9.09D-01 WtEn= 9.07D-02
 Coeff-Com: -0.134D-01 0.694D-01 0.369D+00 0.575D+00
 Coeff-En:   0.000D+00 0.000D+00 0.253D+00 0.747D+00
 Coeff:     -0.122D-01 0.631D-01 0.359D+00 0.590D+00
 Gap=     0.259 Goal=   None    Shift=    0.000
 RMSDP=6.01D-02 MaxDP=4.58D+00 DE=-3.97D-02 OVMax= 3.39D-02

 Cycle   5  Pass 1  IDiag  1:
 RMSU=  3.21D-03    CP:  2.22D+00  4.31D-01  1.41D+00  5.49D-01
 E= -936.541177368988     Delta-E=       -0.016034668528 Rises=F Damp=F
 DIIS: error= 8.01D-04 at cycle   5 NSaved=   5.
 NSaved= 5 IEnMin= 5 EnMin= -936.541177368988     IErMin= 5 ErrMin= 8.01D-04
 ErrMax= 8.01D-04  0.00D+00 EMaxC= 1.00D-01 BMatC= 2.05D-04 BMatP= 1.88D-02
 IDIUse=3 WtCom= 9.92D-01 WtEn= 8.01D-03
 Coeff-Com: -0.125D-02-0.519D-02 0.561D-01 0.166D+00 0.784D+00
 Coeff-En:   0.000D+00 0.000D+00 0.000D+00 0.000D+00 0.100D+01
 Coeff:     -0.124D-02-0.515D-02 0.556D-01 0.165D+00 0.786D+00
 Gap=     0.255 Goal=   None    Shift=    0.000
 RMSDP=9.22D-04 MaxDP=6.94D-02 DE=-1.60D-02 OVMax= 3.55D-03

 Cycle   6  Pass 1  IDiag  1:
 RMSU=  6.90D-04    CP:  2.22D+00  4.29D-01  1.41D+00  5.75D-01  1.00D+00
 E= -936.541368281347     Delta-E=       -0.000190912360 Rises=F Damp=F
 DIIS: error= 4.82D-04 at cycle   6 NSaved=   6.
 NSaved= 6 IEnMin= 6 EnMin= -936.541368281347     IErMin= 6 ErrMin= 4.82D-04
 ErrMax= 4.82D-04  0.00D+00 EMaxC= 1.00D-01 BMatC= 2.50D-05 BMatP= 2.05D-04
 IDIUse=3 WtCom= 9.95D-01 WtEn= 4.82D-03
 Coeff-Com:  0.791D-03-0.720D-02-0.179D-02 0.291D-01 0.324D+00 0.655D+00
 Coeff-En:   0.000D+00 0.000D+00 0.000D+00 0.000D+00 0.000D+00 0.100D+01
 Coeff:      0.788D-03-0.716D-02-0.178D-02 0.290D-01 0.322D+00 0.657D+00
 Gap=     0.254 Goal=   None    Shift=    0.000
 RMSDP=5.68D-04 MaxDP=3.93D-02 DE=-1.91D-04 OVMax= 1.95D-03

 Cycle   7  Pass 1  IDiag  1:
 RMSU=  1.62D-04    CP:  2.22D+00  4.27D-01  1.41D+00  5.77D-01  1.06D+00
                    CP:  1.21D+00
 E= -936.541394915818     Delta-E=       -0.000026634471 Rises=F Damp=F
 DIIS: error= 1.94D-04 at cycle   7 NSaved=   7.
 NSaved= 7 IEnMin= 7 EnMin= -936.541394915818     IErMin= 7 ErrMin= 1.94D-04
 ErrMax= 1.94D-04  0.00D+00 EMaxC= 1.00D-01 BMatC= 4.43D-06 BMatP= 2.50D-05
 IDIUse=3 WtCom= 9.98D-01 WtEn= 1.94D-03
 Coeff-Com:  0.677D-03-0.232D-02-0.101D-01-0.147D-01 0.111D-01 0.302D+00
 Coeff-Com:  0.714D+00
 Coeff-En:   0.000D+00 0.000D+00 0.000D+00 0.000D+00 0.000D+00 0.000D+00
 Coeff-En:   0.100D+01
 Coeff:      0.676D-03-0.232D-02-0.100D-01-0.147D-01 0.111D-01 0.301D+00
 Coeff:      0.714D+00
 Gap=     0.255 Goal=   None    Shift=    0.000
 RMSDP=1.16D-03 MaxDP=8.20D-02 DE=-2.66D-05 OVMax= 9.60D-04

 Cycle   8  Pass 1  IDiag  1:
 RMSU=  1.18D-04    CP:  2.21D+00  4.24D-01  1.41D+00  5.71D-01  1.08D+00
                    CP:  1.27D+00  8.10D-01
 E= -936.541400835414     Delta-E=       -0.000005919595 Rises=F Damp=F
 DIIS: error= 5.04D-05 at cycle   8 NSaved=   8.
 NSaved= 8 IEnMin= 8 EnMin= -936.541400835414     IErMin= 8 ErrMin= 5.04D-05
 ErrMax= 5.04D-05  0.00D+00 EMaxC= 1.00D-01 BMatC= 5.17D-07 BMatP= 4.43D-06
 IDIUse=1 WtCom= 1.00D+00 WtEn= 0.00D+00
 Coeff-Com:  0.241D-03-0.258D-03-0.486D-02-0.113D-01-0.376D-01 0.452D-01
 Coeff-Com:  0.308D+00 0.700D+00
 Coeff:      0.241D-03-0.258D-03-0.486D-02-0.113D-01-0.376D-01 0.452D-01
 Coeff:      0.308D+00 0.700D+00
 Gap=     0.255 Goal=   None    Shift=    0.000
 RMSDP=4.49D-04 MaxDP=3.34D-02 DE=-5.92D-06 OVMax= 2.62D-04

 Cycle   9  Pass 1  IDiag  1:
 RMSU=  3.63D-05    CP:  2.21D+00  4.23D-01  1.41D+00  5.69D-01  1.09D+00
                    CP:  1.32D+00  8.48D-01  9.77D-01
 E= -936.541401537324     Delta-E=       -0.000000701910 Rises=F Damp=F
 DIIS: error= 1.20D-05 at cycle   9 NSaved=   9.
 NSaved= 9 IEnMin= 9 EnMin= -936.541401537324     IErMin= 9 ErrMin= 1.20D-05
 ErrMax= 1.20D-05  0.00D+00 EMaxC= 1.00D-01 BMatC= 3.98D-08 BMatP= 5.17D-07
 IDIUse=1 WtCom= 1.00D+00 WtEn= 0.00D+00
 Coeff-Com:  0.772D-05 0.171D-03-0.659D-03-0.227D-02-0.157D-01-0.172D-01
 Coeff-Com:  0.281D-01 0.202D+00 0.806D+00
 Coeff:      0.772D-05 0.171D-03-0.659D-03-0.227D-02-0.157D-01-0.172D-01
 Coeff:      0.281D-01 0.202D+00 0.806D+00
 Gap=     0.255 Goal=   None    Shift=    0.000
 RMSDP=1.98D-04 MaxDP=1.46D-02 DE=-7.02D-07 OVMax= 1.04D-04

 Cycle  10  Pass 1  IDiag  1:
 RMSU=  7.81D-06    CP:  2.20D+00  4.23D-01  1.41D+00  5.69D-01  1.08D+00
                    CP:  1.34D+00  8.44D-01  1.06D+00  1.15D+00
 E= -936.541401594757     Delta-E=       -0.000000057433 Rises=F Damp=F
 DIIS: error= 6.14D-06 at cycle  10 NSaved=  10.
 NSaved=10 IEnMin=10 EnMin= -936.541401594757     IErMin=10 ErrMin= 6.14D-06
 ErrMax= 6.14D-06  0.00D+00 EMaxC= 1.00D-01 BMatC= 1.32D-08 BMatP= 3.98D-08
 IDIUse=1 WtCom= 1.00D+00 WtEn= 0.00D+00
 Coeff-Com: -0.276D-04 0.970D-04 0.419D-03 0.722D-03-0.212D-02-0.145D-01
 Coeff-Com: -0.337D-01-0.231D-01 0.405D+00 0.667D+00
 Coeff:     -0.276D-04 0.970D-04 0.419D-03 0.722D-03-0.212D-02-0.145D-01
 Coeff:     -0.337D-01-0.231D-01 0.405D+00 0.667D+00
 Gap=     0.255 Goal=   None    Shift=    0.000
 RMSDP=4.44D-05 MaxDP=3.32D-03 DE=-5.74D-08 OVMax= 3.59D-05

 Cycle  11  Pass 1  IDiag  1:
 RMSU=  2.04D-06    CP:  2.20D+00  4.23D-01  1.41D+00  5.68D-01  1.09D+00
                    CP:  1.34D+00  8.47D-01  1.07D+00  1.24D+00  9.48D-01
 E= -936.541401609522     Delta-E=       -0.000000014765 Rises=F Damp=F
 DIIS: error= 2.54D-06 at cycle  11 NSaved=  11.
 NSaved=11 IEnMin=11 EnMin= -936.541401609522     IErMin=11 ErrMin= 2.54D-06
 ErrMax= 2.54D-06  0.00D+00 EMaxC= 1.00D-01 BMatC= 7.02D-10 BMatP= 1.32D-08
 IDIUse=1 WtCom= 1.00D+00 WtEn= 0.00D+00
 Coeff-Com: -0.499D-05 0.144D-04 0.195D-03 0.421D-03 0.208D-03-0.359D-02
 Coeff-Com: -0.138D-01-0.247D-01 0.970D-01 0.257D+00 0.687D+00
 Coeff:     -0.499D-05 0.144D-04 0.195D-03 0.421D-03 0.208D-03-0.359D-02
 Coeff:     -0.138D-01-0.247D-01 0.970D-01 0.257D+00 0.687D+00
 Gap=     0.255 Goal=   None    Shift=    0.000
 RMSDP=1.23D-05 MaxDP=8.96D-04 DE=-1.48D-08 OVMax= 1.29D-05

 Cycle  12  Pass 1  IDiag  1:
 RMSU=  7.73D-07    CP:  2.20D+00  4.23D-01  1.41D+00  5.68D-01  1.09D+00
                    CP:  1.34D+00  8.44D-01  1.07D+00  1.26D+00  1.06D+00
                    CP:  9.46D-01
 E= -936.541401610299     Delta-E=       -0.000000000777 Rises=F Damp=F
 DIIS: error= 8.69D-07 at cycle  12 NSaved=  12.
 NSaved=12 IEnMin=12 EnMin= -936.541401610299     IErMin=12 ErrMin= 8.69D-07
 ErrMax= 8.69D-07  0.00D+00 EMaxC= 1.00D-01 BMatC= 1.64D-10 BMatP= 7.02D-10
 IDIUse=1 WtCom= 1.00D+00 WtEn= 0.00D+00
 Coeff-Com:  0.446D-05-0.123D-04 0.267D-04 0.819D-04 0.469D-03 0.949D-03
 Coeff-Com: -0.795D-03-0.837D-02-0.236D-01 0.139D-01 0.355D+00 0.662D+00
 Coeff:      0.446D-05-0.123D-04 0.267D-04 0.819D-04 0.469D-03 0.949D-03
 Coeff:     -0.795D-03-0.837D-02-0.236D-01 0.139D-01 0.355D+00 0.662D+00
 Gap=     0.255 Goal=   None    Shift=    0.000
 RMSDP=6.52D-06 MaxDP=4.71D-04 DE=-7.77D-10 OVMax= 4.44D-06

 Cycle  13  Pass 1  IDiag  1:
 RMSU=  2.67D-07    CP:  2.20D+00  4.23D-01  1.41D+00  5.68D-01  1.09D+00
                    CP:  1.34D+00  8.43D-01  1.07D+00  1.27D+00  1.05D+00
                    CP:  1.01D+00  1.02D+00
 E= -936.541401610434     Delta-E=       -0.000000000136 Rises=F Damp=F
 DIIS: error= 1.71D-07 at cycle  13 NSaved=  13.
 NSaved=13 IEnMin=13 EnMin= -936.541401610434     IErMin=13 ErrMin= 1.71D-07
 ErrMax= 1.71D-07  0.00D+00 EMaxC= 1.00D-01 BMatC= 5.34D-12 BMatP= 1.64D-10
 IDIUse=1 WtCom= 1.00D+00 WtEn= 0.00D+00
 Coeff-Com:  0.123D-05-0.334D-05-0.697D-05-0.199D-04 0.511D-04 0.346D-03
 Coeff-Com:  0.727D-03 0.126D-02-0.100D-01-0.171D-01 0.261D-02 0.944D-01
 Coeff-Com:  0.928D+00
 Coeff:      0.123D-05-0.334D-05-0.697D-05-0.199D-04 0.511D-04 0.346D-03
 Coeff:      0.727D-03 0.126D-02-0.100D-01-0.171D-01 0.261D-02 0.944D-01
 Coeff:      0.928D+00
 Gap=     0.255 Goal=   None    Shift=    0.000
 RMSDP=1.52D-06 MaxDP=1.21D-04 DE=-1.36D-10 OVMax= 1.66D-06

 Cycle  14  Pass 1  IDiag  1:
 RMSU=  1.02D-07    CP:  2.20D+00  4.23D-01  1.41D+00  5.68D-01  1.09D+00
                    CP:  1.34D+00  8.43D-01  1.07D+00  1.27D+00  1.06D+00
                    CP:  1.01D+00  1.07D+00  1.08D+00
 E= -936.541401610498     Delta-E=       -0.000000000064 Rises=F Damp=F
 DIIS: error= 4.24D-08 at cycle  14 NSaved=  14.
 NSaved=14 IEnMin=14 EnMin= -936.541401610498     IErMin=14 ErrMin= 4.24D-08
 ErrMax= 4.24D-08  0.00D+00 EMaxC= 1.00D-01 BMatC= 4.59D-13 BMatP= 5.34D-12
 IDIUse=1 WtCom= 1.00D+00 WtEn= 0.00D+00
 Coeff-Com: -0.327D-06 0.736D-06-0.335D-05-0.877D-05-0.309D-04-0.356D-04
 Coeff-Com:  0.166D-03 0.819D-03 0.719D-03-0.402D-02-0.308D-01-0.535D-01
 Coeff-Com:  0.782D-01 0.101D+01
 Coeff:     -0.327D-06 0.736D-06-0.335D-05-0.877D-05-0.309D-04-0.356D-04
 Coeff:      0.166D-03 0.819D-03 0.719D-03-0.402D-02-0.308D-01-0.535D-01
 Coeff:      0.782D-01 0.101D+01
 Gap=     0.255 Goal=   None    Shift=    0.000
 RMSDP=3.78D-07 MaxDP=2.93D-05 DE=-6.37D-11 OVMax= 1.09D-06

 Cycle  15  Pass 1  IDiag  1:
 RMSU=  2.56D-08    CP:  2.20D+00  4.23D-01  1.41D+00  5.68D-01  1.09D+00
                    CP:  1.34D+00  8.43D-01  1.07D+00  1.27D+00  1.06D+00
                    CP:  1.00D+00  1.09D+00  1.19D+00  1.32D+00
 E= -936.541401610506     Delta-E=       -0.000000000008 Rises=F Damp=F
 DIIS: error= 1.93D-08 at cycle  15 NSaved=  15.
 NSaved=15 IEnMin=15 EnMin= -936.541401610506     IErMin=15 ErrMin= 1.93D-08
 ErrMax= 1.93D-08  0.00D+00 EMaxC= 1.00D-01 BMatC= 1.57D-13 BMatP= 4.59D-13
 IDIUse=1 WtCom= 1.00D+00 WtEn= 0.00D+00
 Coeff-Com: -0.291D-06 0.732D-06-0.591D-06-0.573D-06-0.188D-04-0.556D-04
 Coeff-Com: -0.242D-04 0.805D-04 0.167D-02 0.991D-03-0.102D-01-0.317D-01
 Coeff-Com: -0.114D+00 0.414D+00 0.739D+00
 Coeff:     -0.291D-06 0.732D-06-0.591D-06-0.573D-06-0.188D-04-0.556D-04
 Coeff:     -0.242D-04 0.805D-04 0.167D-02 0.991D-03-0.102D-01-0.317D-01
 Coeff:     -0.114D+00 0.414D+00 0.739D+00
 Gap=     0.255 Goal=   None    Shift=    0.000
 RMSDP=3.21D-08 MaxDP=1.97D-06 DE=-7.50D-12 OVMax= 3.94D-07

 Cycle  16  Pass 1  IDiag  1:
 RMSU=  7.06D-09    CP:  2.20D+00  4.23D-01  1.41D+00  5.68D-01  1.09D+00
                    CP:  1.34D+00  8.43D-01  1.07D+00  1.27D+00  1.06D+00
                    CP:  1.00D+00  1.09D+00  1.20D+00  1.47D+00  1.23D+00
 E= -936.541401610501     Delta-E=        0.000000000005 Rises=F Damp=F
 DIIS: error= 5.31D-09 at cycle  16 NSaved=  16.
 NSaved=16 IEnMin=15 EnMin= -936.541401610506     IErMin=16 ErrMin= 5.31D-09
 ErrMax= 5.31D-09  0.00D+00 EMaxC= 1.00D-01 BMatC= 1.25D-14 BMatP= 1.57D-13
 IDIUse=1 WtCom= 1.00D+00 WtEn= 0.00D+00
 Coeff-Com: -0.471D-07 0.145D-06 0.212D-06 0.822D-06-0.280D-05-0.154D-04
 Coeff-Com: -0.321D-04-0.933D-04 0.426D-03 0.908D-03 0.149D-02-0.181D-02
 Coeff-Com: -0.529D-01-0.277D-01 0.199D+00 0.881D+00
 Coeff:     -0.471D-07 0.145D-06 0.212D-06 0.822D-06-0.280D-05-0.154D-04
 Coeff:     -0.321D-04-0.933D-04 0.426D-03 0.908D-03 0.149D-02-0.181D-02
 Coeff:     -0.529D-01-0.277D-01 0.199D+00 0.881D+00
 Gap=     0.255 Goal=   None    Shift=    0.000
 RMSDP=3.39D-08 MaxDP=2.63D-06 DE= 4.77D-12 OVMax= 1.71D-07

 Cycle  17  Pass 1  IDiag  1:
 RMSU=  3.16D-09    CP:  2.20D+00  4.23D-01  1.41D+00  5.68D-01  1.09D+00
                    CP:  1.34D+00  8.43D-01  1.07D+00  1.27D+00  1.06D+00
                    CP:  1.00D+00  1.08D+00  1.20D+00  1.56D+00  1.31D+00
                    CP:  1.45D+00
 E= -936.541401610470     Delta-E=        0.000000000030 Rises=F Damp=F
 DIIS: error= 1.65D-09 at cycle  17 NSaved=  17.
 NSaved=17 IEnMin=15 EnMin= -936.541401610506     IErMin=17 ErrMin= 1.65D-09
 ErrMax= 1.65D-09  0.00D+00 EMaxC= 1.00D-01 BMatC= 7.54D-16 BMatP= 1.25D-14
 IDIUse=1 WtCom= 1.00D+00 WtEn= 0.00D+00
 Large coefficients: NSaved= 17 BigCof=    0.00 CofMax=   10.00 Det=-4.91D-15
 Inversion failed.  Reducing to 16 matrices.
 Large coefficients: NSaved= 16 BigCof=    0.00 CofMax=   10.00 Det=-5.16D-15
 Inversion failed.  Reducing to 15 matrices.
 Coeff-Com:  0.172D-06 0.257D-06 0.716D-06-0.140D-05-0.751D-05-0.130D-04
 Coeff-Com: -0.433D-05 0.885D-04 0.732D-03 0.141D-02-0.209D-02-0.276D-01
 Coeff-Com: -0.212D-01 0.136D+00 0.913D+00
 Coeff:      0.172D-06 0.257D-06 0.716D-06-0.140D-05-0.751D-05-0.130D-04
 Coeff:     -0.433D-05 0.885D-04 0.732D-03 0.141D-02-0.209D-02-0.276D-01
 Coeff:     -0.212D-01 0.136D+00 0.913D+00
 Gap=     0.255 Goal=   None    Shift=    0.000
 RMSDP=1.05D-08 MaxDP=8.79D-07 DE= 3.05D-11 OVMax= 4.09D-08

 Cycle  18  Pass 1  IDiag  1:
 RMSU=  3.30D-09    CP:  2.20D+00  4.23D-01  1.41D+00  5.68D-01  1.09D+00
                    CP:  1.34D+00  8.43D-01  1.07D+00  1.27D+00  1.06D+00
                    CP:  1.00D+00  1.08D+00  1.20D+00  1.56D+00  1.34D+00
                    CP:  1.57D+00  1.17D+00
 E= -936.541401610468     Delta-E=        0.000000000002 Rises=F Damp=F
 DIIS: error= 4.59D-10 at cycle  18 NSaved=  16.
 NSaved=16 IEnMin=13 EnMin= -936.541401610506     IErMin=16 ErrMin= 4.59D-10
 ErrMax= 4.59D-10  0.00D+00 EMaxC= 1.00D-01 BMatC= 9.80D-17 BMatP= 7.54D-16
 IDIUse=1 WtCom= 1.00D+00 WtEn= 0.00D+00
 Large coefficients: NSaved= 16 BigCof=    0.00 CofMax=   10.00 Det=-4.95D-16
 Inversion failed.  Reducing to 15 matrices.
 Coeff-Com: -0.871D-07-0.191D-07 0.332D-06 0.172D-05 0.694D-05-0.114D-04
 Coeff-Com: -0.440D-04-0.841D-04 0.101D-03 0.238D-02-0.645D-03-0.162D-01
 Coeff-Com: -0.301D-01 0.207D+00 0.838D+00
 Coeff:     -0.871D-07-0.191D-07 0.332D-06 0.172D-05 0.694D-05-0.114D-04
 Coeff:     -0.440D-04-0.841D-04 0.101D-03 0.238D-02-0.645D-03-0.162D-01
 Coeff:     -0.301D-01 0.207D+00 0.838D+00
 Gap=     0.255 Goal=   None    Shift=    0.000
 RMSDP=2.85D-09 MaxDP=2.55D-07 DE= 2.05D-12 OVMax= 8.99D-09

 SCF Done:  E(RM062X) =  -936.541401610     A.U. after   18 cycles
            NFock= 18  Conv=0.28D-08     -V/T= 2.0035
 KE= 9.332444790416D+02 PE=-4.014578765114D+03 EE= 1.236189613470D+03
 Leave Link  502 at Sun Oct 13 23:13:10 2019, MaxMem= 10737418240 cpu:             950.2 elap:              39.8
 (Enter /apps/cent7/gaussian/g16-A.03/g16-haswell/g16/l601.exe)
 Copying SCF densities to generalized density rwf, IOpCl= 0 IROHF=0.

 **********************************************************************

            Population analysis using the SCF density.

 **********************************************************************

 Orbital symmetries:
       Occupied  (A) (A) (A) (A) (A) (A) (A) (A) (A) (A) (A) (A)
                 (A) (A) (A) (A) (A) (A) (A) (A) (A) (A) (A) (A)
                 (A) (A) (A) (A) (A) (A) (A) (A) (A) (A) (A) (A)
                 (A) (A) (A) (A) (A) (A) (A) (A) (A) (A) (A) (A)
                 (A) (A) (A) (A) (A)
       Virtual   (A) (A) (A) (A) (A) (A) (A) (A) (A) (A) (A) (A)
                 (A) (A) (A) (A) (A) (A) (A) (A) (A) (A) (A) (A)
                 (A) (A) (A) (A) (A) (A) (A) (A) (A) (A) (A) (A)
                 (A) (A) (A) (A) (A) (A) (A) (A) (A) (A) (A) (A)
                 (A) (A) (A) (A) (A) (A) (A) (A) (A) (A) (A) (A)
                 (A) (A) (A) (A) (A) (A) (A) (A) (A) (A) (A) (A)
                 (A) (A) (A) (A) (A) (A) (A) (A) (A) (A) (A) (A)
                 (A) (A) (A) (A) (A) (A) (A) (A) (A) (A) (A) (A)
                 (A) (A) (A) (A) (A) (A) (A) (A) (A) (A) (A) (A)
                 (A) (A) (A) (A) (A) (A) (A) (A) (A) (A) (A) (A)
                 (A) (A) (A) (A) (A) (A) (A) (A) (A) (A) (A) (A)
                 (A) (A) (A) (A) (A) (A) (A) (A) (A) (A) (A) (A)
                 (A) (A) (A) (A) (A) (A) (A) (A) (A) (A) (A) (A)
                 (A) (A) (A) (A) (A) (A) (A) (A) (A) (A) (A) (A)
                 (A) (A) (A) (A) (A) (A) (A) (A) (A) (A) (A) (A)
                 (A) (A) (A) (A) (A) (A) (A) (A) (A) (A) (A) (A)
                 (A) (A) (A) (A) (A) (A) (A) (A) (A) (A) (A) (A)
                 (A) (A) (A) (A) (A) (A) (A) (A) (A) (A) (A) (A)
                 (A) (A) (A) (A) (A) (A) (A) (A) (A) (A) (A) (A)
                 (A) (A) (A) (A) (A) (A) (A) (A) (A) (A) (A) (A)
                 (A) (A) (A) (A) (A) (A) (A) (A) (A) (A) (A) (A)
                 (A) (A) (A) (A) (A) (A) (A) (A) (A) (A) (A) (A)
                 (A) (A) (A) (A) (A) (A) (A) (A) (A) (A) (A) (A)
                 (A) (A) (A) (A) (A) (A) (A) (A) (A) (A) (A) (A)
                 (A) (A) (A) (A) (A) (A) (A) (A) (A) (A) (A) (A)
                 (A) (A) (A) (A) (A) (A) (A) (A) (A) (A) (A) (A)
                 (A) (A) (A) (A) (A) (A) (A) (A) (A) (A) (A) (A)
                 (A) (A) (A) (A) (A) (A) (A) (A)
 The electronic state is 1-A.
 Alpha  occ. eigenvalues --  -90.00269 -19.57460 -10.59207 -10.59206 -10.57703
 Alpha  occ. eigenvalues --  -10.57703 -10.57339 -10.57338 -10.57118 -10.57117
 Alpha  occ. eigenvalues --  -10.56986 -10.56986 -10.56873 -10.56873  -8.35914
 Alpha  occ. eigenvalues --   -6.27951  -6.27946  -6.27555  -1.08516  -0.98052
 Alpha  occ. eigenvalues --   -0.97695  -0.89685  -0.86569  -0.86284  -0.86041
 Alpha  occ. eigenvalues --   -0.78952  -0.71343  -0.70948  -0.70550  -0.67221
 Alpha  occ. eigenvalues --   -0.61895  -0.60059  -0.55878  -0.54887  -0.53961
 Alpha  occ. eigenvalues --   -0.53576  -0.51707  -0.51096  -0.50494  -0.49911
 Alpha  occ. eigenvalues --   -0.45952  -0.45542  -0.43909  -0.43410  -0.43142
 Alpha  occ. eigenvalues --   -0.42358  -0.41091  -0.34382  -0.33611  -0.32837
 Alpha  occ. eigenvalues --   -0.32587  -0.31048  -0.29001
 Alpha virt. eigenvalues --   -0.03505  -0.00998  -0.00887  -0.00542  -0.00116
 Alpha virt. eigenvalues --    0.00191   0.00352   0.01365   0.01457   0.02996
 Alpha virt. eigenvalues --    0.03049   0.03908   0.05005   0.05220   0.05527
 Alpha virt. eigenvalues --    0.05834   0.07109   0.07723   0.08062   0.08475
 Alpha virt. eigenvalues --    0.08796   0.09011   0.10012   0.10338   0.10793
 Alpha virt. eigenvalues --    0.11339   0.11630   0.11819   0.12095   0.12198
 Alpha virt. eigenvalues --    0.12314   0.12560   0.13125   0.13334   0.13477
 Alpha virt. eigenvalues --    0.13495   0.13716   0.14481   0.14934   0.15269
 Alpha virt. eigenvalues --    0.15598   0.15881   0.16334   0.16414   0.17085
 Alpha virt. eigenvalues --    0.17443   0.17657   0.18458   0.18579   0.18830
 Alpha virt. eigenvalues --    0.19236   0.19588   0.20650   0.20854   0.21488
 Alpha virt. eigenvalues --    0.21849   0.22370   0.22778   0.23567   0.24106
 Alpha virt. eigenvalues --    0.24371   0.24419   0.25371   0.25551   0.26045
 Alpha virt. eigenvalues --    0.26278   0.27630   0.28006   0.28307   0.28587
 Alpha virt. eigenvalues --    0.28609   0.29254   0.29993   0.30485   0.30721
 Alpha virt. eigenvalues --    0.31210   0.31398   0.31541   0.32263   0.33306
 Alpha virt. eigenvalues --    0.34202   0.34485   0.35755   0.36374   0.36608
 Alpha virt. eigenvalues --    0.37740   0.37842   0.38375   0.38906   0.39688
 Alpha virt. eigenvalues --    0.42039   0.43697   0.45107   0.46916   0.47979
 Alpha virt. eigenvalues --    0.50076   0.50626   0.54242   0.55279   0.55529
 Alpha virt. eigenvalues --    0.56375   0.56451   0.56452   0.57267   0.57999
 Alpha virt. eigenvalues --    0.58461   0.59212   0.59230   0.59661   0.61124
 Alpha virt. eigenvalues --    0.61765   0.62110   0.62595   0.63355   0.63901
 Alpha virt. eigenvalues --    0.64094   0.65147   0.68438   0.68766   0.69501
 Alpha virt. eigenvalues --    0.69868   0.71466   0.73931   0.73951   0.74165
 Alpha virt. eigenvalues --    0.74748   0.75902   0.76181   0.77086   0.77288
 Alpha virt. eigenvalues --    0.79159   0.79431   0.79581   0.82451   0.83948
 Alpha virt. eigenvalues --    0.84396   0.85663   0.86362   0.87087   0.88287
 Alpha virt. eigenvalues --    0.89005   0.89359   0.90293   0.90943   0.91045
 Alpha virt. eigenvalues --    0.92063   0.93037   0.93042   0.93896   0.95019
 Alpha virt. eigenvalues --    0.95552   0.96375   0.99348   1.00914   1.03676
 Alpha virt. eigenvalues --    1.04011   1.04598   1.04905   1.05620   1.06834
 Alpha virt. eigenvalues --    1.07618   1.09064   1.11736   1.12043   1.14090
 Alpha virt. eigenvalues --    1.15646   1.16110   1.17370   1.17761   1.20983
 Alpha virt. eigenvalues --    1.25390   1.29184   1.29522   1.30753   1.31841
 Alpha virt. eigenvalues --    1.34131   1.35633   1.36889   1.39245   1.43409
 Alpha virt. eigenvalues --    1.51668   1.53016   1.53385   1.53925   1.54099
 Alpha virt. eigenvalues --    1.54671   1.56580   1.58894   1.59028   1.59137
 Alpha virt. eigenvalues --    1.59468   1.61173   1.64942   1.65455   1.66368
 Alpha virt. eigenvalues --    1.67060   1.67871   1.68377   1.69647   1.71003
 Alpha virt. eigenvalues --    1.74851   1.76037   1.76169   1.76799   1.78152
 Alpha virt. eigenvalues --    1.79904   1.81205   1.84364   1.85092   1.88368
 Alpha virt. eigenvalues --    1.88579   1.91628   1.92223   1.92879   1.93552
 Alpha virt. eigenvalues --    1.94186   1.94901   1.95853   1.96347   1.96599
 Alpha virt. eigenvalues --    1.97825   1.98259   1.99786   2.00479   2.02501
 Alpha virt. eigenvalues --    2.02802   2.06133   2.06320   2.07311   2.07842
 Alpha virt. eigenvalues --    2.10077   2.10641   2.10896   2.20212   2.28538
 Alpha virt. eigenvalues --    2.29881   2.31414   2.32363   2.33430   2.35189
 Alpha virt. eigenvalues --    2.41366   2.41880   2.47294   2.47780   2.48912
 Alpha virt. eigenvalues --    2.49317   2.51279   2.52152   2.60601   2.61251
 Alpha virt. eigenvalues --    2.64172   2.64454   2.70155   2.70685   2.70878
 Alpha virt. eigenvalues --    2.72091   2.72895   2.73366   2.74110   2.75126
 Alpha virt. eigenvalues --    2.75561   2.75725   2.78677   2.79744   2.81137
 Alpha virt. eigenvalues --    2.81845   2.82798   2.84565   2.84597   2.86198
 Alpha virt. eigenvalues --    2.86832   2.87285   2.93705   2.93803   2.94469
 Alpha virt. eigenvalues --    2.94982   2.96210   2.96675   3.00067   3.01054
 Alpha virt. eigenvalues --    3.07004   3.07524   3.11891   3.13041   3.17119
 Alpha virt. eigenvalues --    3.19692   3.22729   3.33756   3.35195   3.37977
 Alpha virt. eigenvalues --    3.38789   3.40571   3.48165   3.50072   3.52067
 Alpha virt. eigenvalues --    3.53878   3.53908   3.59547   3.59992   3.80810
 Alpha virt. eigenvalues --    3.83325   4.00734   4.01603   4.06159   4.06338
 Alpha virt. eigenvalues --    4.15285   4.15900   4.16280   4.17361   4.81387
 Alpha virt. eigenvalues --    4.81989   5.24298   5.29475   5.30116   8.23422
 Alpha virt. eigenvalues --   17.61262  17.67045  17.73008  23.63882  23.65244
 Alpha virt. eigenvalues --   23.97099  23.97900  23.99914  24.00215  24.08130
 Alpha virt. eigenvalues --   24.08242  24.10270  24.10459  24.19241  24.19531
 Alpha virt. eigenvalues --   50.05467 189.52688
          Condensed to atoms (all electrons):
               1          2          3          4          5          6
     1  O    8.261574   0.642479   0.104838   0.332637  -0.001511  -0.011649
     2  S    0.642479  23.717376  -3.987864   5.016971  -1.339394  -0.043601
     3  C    0.104838  -3.987864  44.111486 -20.750626   0.283344  -1.997236
     4  C    0.332637   5.016971 -20.750626  65.635557  -3.563799   0.419218
     5  C   -0.001511  -1.339394   0.283344  -3.563799   8.407823  -0.364107
     6  C   -0.011649  -0.043601  -1.997236   0.419218  -0.364107   7.088479
     7  C   -0.040953   0.718446  -0.568917   4.893548  -0.178901  -0.529067
     8  C   -0.620243  -4.666992  -6.656638 -48.065721   2.400471   1.189640
     9  C    0.104412  -3.980784 -14.964903   4.188315   0.621096   0.186557
    10  C    0.331972   4.993008   4.199036 -17.883436   0.054916   0.010603
    11  C   -0.001564  -1.339245   0.622074   0.052513   0.146925  -0.025649
    12  C   -0.011586  -0.044455   0.185922   0.011797  -0.025732   0.017415
    13  C   -0.040711   0.720388   0.084454  -0.881411   0.052876  -0.028240
    14  C   -0.619272  -4.647150   5.430293  16.928403  -0.561546   0.102327
    15  H    0.002655  -0.000646  -0.265352   0.754541  -0.030861   0.001567
    16  H   -0.000069  -0.003388   0.103616  -0.175325   0.382805  -0.032075
    17  H   -0.000346  -0.010320   0.023342  -0.036788  -0.014485   0.411157
    18  H   -0.000184   0.026235   0.160024   0.217273  -0.027461  -0.059544
    19  H    0.000942  -0.021505  -0.717671  -1.123888   0.087404   0.020816
    20  H    0.002655  -0.000515   0.064187  -0.095005  -0.003624   0.004701
    21  H   -0.000070  -0.003372  -0.013081   0.011121   0.000670  -0.000067
    22  H   -0.000344  -0.010295  -0.001596  -0.000576  -0.000197   0.000312
    23  H   -0.000190   0.026168  -0.043343  -0.035780   0.000989   0.000996
    24  H    0.001011  -0.020822   0.464922   0.625194  -0.034376  -0.008287
               7          8          9         10         11         12
     1  O   -0.040953  -0.620243   0.104412   0.331972  -0.001564  -0.011586
     2  S    0.718446  -4.666992  -3.980784   4.993008  -1.339245  -0.044455
     3  C   -0.568917  -6.656638 -14.964903   4.199036   0.622074   0.185922
     4  C    4.893548 -48.065721   4.188315 -17.883436   0.052513   0.011797
     5  C   -0.178901   2.400471   0.621096   0.054916   0.146925  -0.025732
     6  C   -0.529067   1.189640   0.186557   0.010603  -0.025649   0.017415
     7  C    8.473859  -6.711278   0.085778  -0.878303   0.052727  -0.028108
     8  C   -6.711278  68.014919   5.442578  16.919356  -0.558333   0.100687
     9  C    0.085778   5.442578  44.088661 -20.709839   0.277013  -1.991465
    10  C   -0.878303  16.919356 -20.709839  65.597725  -3.547680   0.408085
    11  C    0.052727  -0.558333   0.277013  -3.547680   8.401625  -0.358952
    12  C   -0.028108   0.100687  -1.991465   0.408085  -0.358952   7.082768
    13  C    0.015438   0.752921  -0.565830   4.904567  -0.180060  -0.527454
    14  C    0.747895 -22.538122  -6.687037 -48.065543   2.391164   1.195741
    15  H    0.043203  -0.218451   0.064507  -0.095353  -0.003588   0.004694
    16  H   -0.026326   0.089047  -0.013156   0.011225   0.000666  -0.000068
    17  H   -0.040072  -0.008534  -0.001577  -0.000597  -0.000192   0.000311
    18  H    0.460879  -0.434201  -0.043344  -0.035733   0.000980   0.000997
    19  H   -0.315542   2.344553   0.465352   0.625044  -0.034295  -0.008327
    20  H   -0.012145   0.067086  -0.265216   0.754431  -0.030849   0.001557
    21  H    0.001399  -0.012955   0.103294  -0.174691   0.382543  -0.031779
    22  H   -0.000247   0.005318   0.023276  -0.036750  -0.014525   0.410996
    23  H    0.000278   0.058461   0.160184   0.217396  -0.027462  -0.059391
    24  H    0.028617  -1.077841  -0.718182  -1.123382   0.087079   0.020962
              13         14         15         16         17         18
     1  O   -0.040711  -0.619272   0.002655  -0.000069  -0.000346  -0.000184
     2  S    0.720388  -4.647150  -0.000646  -0.003388  -0.010320   0.026235
     3  C    0.084454   5.430293  -0.265352   0.103616   0.023342   0.160024
     4  C   -0.881411  16.928403   0.754541  -0.175325  -0.036788   0.217273
     5  C    0.052876  -0.561546  -0.030861   0.382805  -0.014485  -0.027461
     6  C   -0.028240   0.102327   0.001567  -0.032075   0.411157  -0.059544
     7  C    0.015438   0.747895   0.043203  -0.026326  -0.040072   0.460879
     8  C    0.752921 -22.538122  -0.218451   0.089047  -0.008534  -0.434201
     9  C   -0.565830  -6.687037   0.064507  -0.013156  -0.001577  -0.043344
    10  C    4.904567 -48.065543  -0.095353   0.011225  -0.000597  -0.035733
    11  C   -0.180060   2.391164  -0.003588   0.000666  -0.000192   0.000980
    12  C   -0.527454   1.195741   0.004694  -0.000068   0.000311   0.000997
    13  C    8.475378  -6.730076  -0.012144   0.001407  -0.000250   0.000272
    14  C   -6.730076  68.055930   0.067315  -0.013052   0.005351   0.058361
    15  H   -0.012144   0.067315   0.478091  -0.012262   0.000510   0.000954
    16  H    0.001407  -0.013052  -0.012262   0.467910  -0.007000  -0.000640
    17  H   -0.000250   0.005351   0.000510  -0.007000   0.479808  -0.007112
    18  H    0.000272   0.058361   0.000954  -0.000640  -0.007112   0.473924
    19  H    0.029001  -1.078069  -0.005458   0.002154  -0.000122  -0.027582
    20  H    0.043092  -0.218252  -0.002744  -0.000125   0.000058  -0.000213
    21  H   -0.026349   0.088643  -0.000124  -0.000036  -0.000002  -0.000010
    22  H   -0.040190  -0.008207   0.000058  -0.000002   0.000003   0.000018
    23  H    0.461028  -0.434757  -0.000213  -0.000010   0.000018  -0.000533
    24  H   -0.316007   2.344933   0.001722  -0.000364  -0.000307   0.005374
              19         20         21         22         23         24
     1  O    0.000942   0.002655  -0.000070  -0.000344  -0.000190   0.001011
     2  S   -0.021505  -0.000515  -0.003372  -0.010295   0.026168  -0.020822
     3  C   -0.717671   0.064187  -0.013081  -0.001596  -0.043343   0.464922
     4  C   -1.123888  -0.095005   0.011121  -0.000576  -0.035780   0.625194
     5  C    0.087404  -0.003624   0.000670  -0.000197   0.000989  -0.034376
     6  C    0.020816   0.004701  -0.000067   0.000312   0.000996  -0.008287
     7  C   -0.315542  -0.012145   0.001399  -0.000247   0.000278   0.028617
     8  C    2.344553   0.067086  -0.012955   0.005318   0.058461  -1.077841
     9  C    0.465352  -0.265216   0.103294   0.023276   0.160184  -0.718182
    10  C    0.625044   0.754431  -0.174691  -0.036750   0.217396  -1.123382
    11  C   -0.034295  -0.030849   0.382543  -0.014525  -0.027462   0.087079
    12  C   -0.008327   0.001557  -0.031779   0.410996  -0.059391   0.020962
    13  C    0.029001   0.043092  -0.026349  -0.040190   0.461028  -0.316007
    14  C   -1.078069  -0.218252   0.088643  -0.008207  -0.434757   2.344933
    15  H   -0.005458  -0.002744  -0.000124   0.000058  -0.000213   0.001722
    16  H    0.002154  -0.000125  -0.000036  -0.000002  -0.000010  -0.000364
    17  H   -0.000122   0.000058  -0.000002   0.000003   0.000018  -0.000307
    18  H   -0.027582  -0.000213  -0.000010   0.000018  -0.000533   0.005374
    19  H    0.607257   0.001723  -0.000361  -0.000308   0.005382  -0.054861
    20  H    0.001723   0.478091  -0.012254   0.000512   0.000952  -0.005441
    21  H   -0.000361  -0.012254   0.467853  -0.006982  -0.000644   0.002142
    22  H   -0.000308   0.000512  -0.006982   0.479804  -0.007108  -0.000109
    23  H    0.005382   0.000952  -0.000644  -0.007108   0.473928  -0.027607
    24  H   -0.054861  -0.005441   0.002142  -0.000109  -0.027607   0.607280
 Mulliken charges:
               1
     1  O   -0.436481
     2  S    0.259276
     3  C    0.129689
     4  C   -0.474731
     5  C   -0.293324
     6  C   -0.354269
     7  C   -0.192207
     8  C    0.184272
     9  C    0.130311
    10  C   -0.476057
    11  C   -0.292916
    12  C   -0.354612
    13  C   -0.192100
    14  C    0.184724
    15  H    0.227382
    16  H    0.225068
    17  H    0.207147
    18  H    0.231268
    19  H    0.198360
    20  H    0.227341
    21  H    0.225110
    22  H    0.207142
    23  H    0.231258
    24  H    0.198349
 Sum of Mulliken charges =  -0.00000
 Mulliken charges with hydrogens summed into heavy atoms:
               1
     1  O   -0.436481
     2  S    0.259276
     3  C    0.129689
     4  C   -0.247350
     5  C   -0.068255
     6  C   -0.147121
     7  C    0.039060
     8  C    0.382632
     9  C    0.130311
    10  C   -0.248716
    11  C   -0.067805
    12  C   -0.147471
    13  C    0.039158
    14  C    0.383073
 Electronic spatial extent (au):  <R**2>=           3335.9181
 Charge=             -0.0000 electrons
 Dipole moment (field-independent basis, Debye):
    X=             -0.0002    Y=             -4.0277    Z=              3.7225  Tot=              5.4845
 Quadrupole moment (field-independent basis, Debye-Ang):
   XX=            -72.6136   YY=            -93.9099   ZZ=            -89.0743
   XY=             -0.0004   XZ=             -0.0005   YZ=             14.0840
 Traceless Quadrupole moment (field-independent basis, Debye-Ang):
   XX=             12.5856   YY=             -8.7106   ZZ=             -3.8750
   XY=             -0.0004   XZ=             -0.0005   YZ=             14.0840
 Octapole moment (field-independent basis, Debye-Ang**2):
  XXX=             -0.0038  YYY=             -7.6605  ZZZ=             12.7903  XYY=              0.0006
  XXY=            -39.3810  XXZ=             25.0968  XZZ=             -0.0012  YZZ=            -12.9536
  YYZ=              6.0085  XYZ=              0.0004
 Hexadecapole moment (field-independent basis, Debye-Ang**3):
 XXXX=          -3055.0755 YYYY=           -737.9866 ZZZZ=           -630.1135 XXXY=             -0.0067
 XXXZ=             -0.0099 YYYX=             -0.0025 YYYZ=             41.1054 ZZZX=             -0.0013
 ZZZY=             50.9776 XXYY=           -615.4095 XXZZ=           -595.2967 YYZZ=           -240.2367
 XXYZ=             24.9623 YYXZ=             -0.0043 ZZXY=             -0.0006
 N-N= 9.086032709926D+02 E-N=-4.014578765048D+03  KE= 9.332444790416D+02
 No NMR shielding tensors so no spin-rotation constants.
 Leave Link  601 at Sun Oct 13 23:13:10 2019, MaxMem= 10737418240 cpu:               4.0 elap:               0.2
 (Enter /apps/cent7/gaussian/g16-A.03/g16-haswell/g16/l701.exe)
 ... and contract with generalized density number  0.
 Compute integral first derivatives.
 Leave Link  701 at Sun Oct 13 23:13:10 2019, MaxMem= 10737418240 cpu:               3.8 elap:               0.2
 (Enter /apps/cent7/gaussian/g16-A.03/g16-haswell/g16/l702.exe)
 L702 exits ... SP integral derivatives will be done elsewhere.
 Leave Link  702 at Sun Oct 13 23:13:10 2019, MaxMem= 10737418240 cpu:               0.5 elap:               0.0
 (Enter /apps/cent7/gaussian/g16-A.03/g16-haswell/g16/l703.exe)
 Integral derivatives from FoFJK, PRISM(SPDF).
 Compute integral first derivatives, UseDBF=F ICtDFT=           0.
 Calling FoFJK, ICntrl=      2127 FMM=F ISym2X=0 I1Cent= 0 IOpClX= 0 NMat=1 NMatS=1 NMatT=0.
 FoFJK:  IHMeth= 1 ICntrl=    2127 DoSepK=F KAlg= 0 I1Cent=           0 FoldK=F
 IRaf=         0 NMat=       1 IRICut=       1 DoRegI=T DoRafI=F ISym2E= 0 IDoP0=0 IntGTp=1.
 FoFCou: FMM=F IPFlag=           0 FMFlag=      100000 FMFlg1=         800
         NFxFlg=           0 DoJE=F BraDBF=F KetDBF=F FulRan=T
         wScrn=  0.000000 ICntrl=      2127 IOpCl=  0 I1Cent=           0 NGrid=           0
         NMat0=    1 NMatS0=      1 NMatT0=    0 NMatD0=    1 NMtDS0=    0 NMtDT0=    0
 Symmetry not used in FoFCou.
 Leave Link  703 at Sun Oct 13 23:13:16 2019, MaxMem= 10737418240 cpu:             139.2 elap:               5.8
 (Enter /apps/cent7/gaussian/g16-A.03/g16-haswell/g16/l716.exe)
 Dipole        =-5.98373539D-05-1.58461507D+00 1.46454224D+00
 ***** Axes restored to original set *****
 -------------------------------------------------------------------
 Center     Atomic                   Forces (Hartrees/Bohr)
 Number     Number              X              Y              Z
 -------------------------------------------------------------------
      1        8           0.046996699    0.004994201   -0.034328196
      2       16          -0.043680252   -0.018681007    0.052773310
      3        6          -0.006606979    0.000960449   -0.034798559
      4        6          -0.006322939    0.003955201   -0.001032987
      5        6          -0.008881437    0.007230880    0.004101328
      6        6           0.005092590    0.002999796    0.010018624
      7        6           0.010349567   -0.002944378    0.008058835
      8        6           0.003531481   -0.004031848   -0.004363087
      9        6           0.005449215    0.032145043   -0.013806627
     10        6          -0.006665642    0.002895969   -0.001684887
     11        6          -0.011958879   -0.000957902   -0.001444157
     12        6          -0.000571848   -0.011537109    0.000208910
     13        6           0.007308565   -0.011078493    0.002613635
     14        6           0.006140824    0.003059595    0.000346023
     15        1          -0.003457675    0.001394518   -0.000828182
     16        1          -0.003010851    0.002509420    0.003246577
     17        1           0.001614078    0.002016216    0.003929777
     18        1           0.003784896   -0.001407339    0.003030275
     19        1           0.002738636   -0.004565280    0.000272931
     20        1          -0.003244636    0.002034533   -0.000421898
     21        1          -0.004772964   -0.001928741    0.000273866
     22        1          -0.000933386   -0.004645399   -0.000511541
     23        1           0.002750797   -0.003999866    0.001273636
     24        1           0.004350141   -0.000418458    0.003072394
 -------------------------------------------------------------------
 Cartesian Forces:  Max     0.052773310 RMS     0.013086953
 Leave Link  716 at Sun Oct 13 23:13:16 2019, MaxMem= 10737418240 cpu:               1.4 elap:               0.1
 (Enter /apps/cent7/gaussian/g16-A.03/g16-haswell/g16/l103.exe)

 GradGradGradGradGradGradGradGradGradGradGradGradGradGradGradGradGradGrad
 Berny optimization.
 FormGI is forming the generalized inverse of G from B-inverse, IUseBI=4.
 GSVD:  received Info=                   1 from GESDD.
 Internal  Forces:  Max     0.058085942 RMS     0.008306077
 Search for a local minimum.
 Step number   1 out of a maximum of  130
 All quantities printed in internal units (Hartrees-Bohrs-Radians)
 RMS Force = .83061D-02 SwitMx=.10000D-02 MixMth= 1
 Mixed Optimization -- RFO/linear search
 Second derivative matrix not updated -- first step.
 ITU=  0
     Eigenvalues ---    0.00727   0.00727   0.01571   0.01572   0.01951
     Eigenvalues ---    0.01951   0.01965   0.01966   0.01971   0.01972
     Eigenvalues ---    0.01981   0.01981   0.01987   0.01987   0.01990
     Eigenvalues ---    0.01990   0.01991   0.01992   0.01994   0.01994
     Eigenvalues ---    0.06953   0.16000   0.16000   0.16000   0.16000
     Eigenvalues ---    0.16000   0.16000   0.16000   0.16000   0.16000
     Eigenvalues ---    0.16000   0.17365   0.21998   0.21998   0.21999
     Eigenvalues ---    0.21999   0.23478   0.23478   0.24994   0.24994
     Eigenvalues ---    0.25000   0.28362   0.28362   0.34804   0.34804
     Eigenvalues ---    0.34808   0.34810   0.34815   0.34815   0.34816
     Eigenvalues ---    0.34816   0.34816   0.34818   0.40373   0.40377
     Eigenvalues ---    0.40486   0.40488   0.43954   0.43964   0.44171
     Eigenvalues ---    0.44174   0.44407   0.44408   0.44424   0.44427
     Eigenvalues ---    0.50178
 RFO step:  Lambda=-2.18482733D-02 EMin= 7.27091987D-03
 Linear search not attempted -- first point.
 Iteration  1 RMS(Cart)=  0.11868350 RMS(Int)=  0.00239817
 Iteration  2 RMS(Cart)=  0.00518853 RMS(Int)=  0.00074124
 Iteration  3 RMS(Cart)=  0.00002625 RMS(Int)=  0.00074122
 Iteration  4 RMS(Cart)=  0.00000014 RMS(Int)=  0.00074122
 ITry= 1 IFail=0 DXMaxC= 4.03D-01 DCOld= 1.00D+10 DXMaxT= 3.00D-01 DXLimC= 3.00D+00 Rises=F
 Variable       Old X    -DE/DX   Delta X   Delta X   Delta X     New X
                                 (Linear)    (Quad)   (Total)
    R1        3.03386  -0.05809   0.00000  -0.11093  -0.11093   2.92293
    R2        3.35053   0.00546   0.00000   0.01789   0.01789   3.36842
    R3        3.35054   0.00547   0.00000   0.01789   0.01789   3.36843
    R4        2.66490  -0.01847   0.00000  -0.04012  -0.04007   2.62482
    R5        2.66716  -0.01841   0.00000  -0.04019  -0.04013   2.62704
    R6        2.65986  -0.01639   0.00000  -0.03516  -0.03518   2.62468
    R7        2.05977  -0.00371   0.00000  -0.01003  -0.01003   2.04974
    R8        2.66051  -0.01619   0.00000  -0.03466  -0.03473   2.62578
    R9        2.05975  -0.00497   0.00000  -0.01344  -0.01344   2.04631
   R10        2.65889  -0.01263   0.00000  -0.02697  -0.02701   2.63188
   R11        2.05976  -0.00465   0.00000  -0.01258  -0.01258   2.04718
   R12        2.65931  -0.01873   0.00000  -0.04022  -0.04020   2.61911
   R13        2.05985  -0.00496   0.00000  -0.01342  -0.01342   2.04644
   R14        2.05971  -0.00447   0.00000  -0.01208  -0.01208   2.04763
   R15        2.66485  -0.01844   0.00000  -0.04005  -0.04001   2.62484
   R16        2.66697  -0.01834   0.00000  -0.04003  -0.03997   2.62701
   R17        2.65983  -0.01639   0.00000  -0.03514  -0.03516   2.62466
   R18        2.05987  -0.00375   0.00000  -0.01013  -0.01013   2.04974
   R19        2.66046  -0.01617   0.00000  -0.03461  -0.03467   2.62579
   R20        2.05994  -0.00504   0.00000  -0.01362  -0.01362   2.04632
   R21        2.65893  -0.01265   0.00000  -0.02700  -0.02704   2.63189
   R22        2.05994  -0.00472   0.00000  -0.01275  -0.01275   2.04719
   R23        2.65940  -0.01876   0.00000  -0.04029  -0.04027   2.61913
   R24        2.05975  -0.00493   0.00000  -0.01333  -0.01333   2.04643
   R25        2.05975  -0.00448   0.00000  -0.01210  -0.01210   2.04764
    A1        1.84178   0.00215   0.00000  -0.02527  -0.02968   1.81210
    A2        1.84176   0.00215   0.00000  -0.02525  -0.02966   1.81209
    A3        1.87761  -0.02731   0.00000  -0.11843  -0.12051   1.75710
    A4        2.07854  -0.00436   0.00000  -0.01625  -0.01641   2.06213
    A5        2.11908  -0.00246   0.00000  -0.00926  -0.00943   2.10964
    A6        2.08535   0.00681   0.00000   0.02497   0.02496   2.11032
    A7        2.09806  -0.00322   0.00000  -0.01286  -0.01282   2.08523
    A8        2.09423   0.00072   0.00000   0.00155   0.00153   2.09576
    A9        2.09090   0.00250   0.00000   0.01130   0.01128   2.10219
   A10        2.09545  -0.00073   0.00000  -0.00208  -0.00215   2.09330
   A11        2.09369  -0.00036   0.00000  -0.00297  -0.00294   2.09075
   A12        2.09405   0.00110   0.00000   0.00505   0.00508   2.09913
   A13        2.09370   0.00088   0.00000   0.00473   0.00461   2.09831
   A14        2.09516  -0.00065   0.00000  -0.00354  -0.00351   2.09165
   A15        2.09433  -0.00023   0.00000  -0.00119  -0.00116   2.09317
   A16        2.09378   0.00027   0.00000   0.00186   0.00183   2.09561
   A17        2.09458   0.00069   0.00000   0.00359   0.00360   2.09818
   A18        2.09483  -0.00096   0.00000  -0.00545  -0.00545   2.08938
   A19        2.09983  -0.00399   0.00000  -0.01625  -0.01626   2.08357
   A20        2.09416   0.00015   0.00000  -0.00203  -0.00217   2.09199
   A21        2.08919   0.00384   0.00000   0.01828   0.01812   2.10732
   A22        2.07855  -0.00436   0.00000  -0.01626  -0.01642   2.06213
   A23        2.11911  -0.00247   0.00000  -0.00928  -0.00945   2.10966
   A24        2.08531   0.00681   0.00000   0.02501   0.02499   2.11031
   A25        2.09809  -0.00323   0.00000  -0.01289  -0.01285   2.08523
   A26        2.09424   0.00073   0.00000   0.00156   0.00154   2.09578
   A27        2.09086   0.00250   0.00000   0.01133   0.01131   2.10217
   A28        2.09546  -0.00073   0.00000  -0.00208  -0.00216   2.09330
   A29        2.09374  -0.00037   0.00000  -0.00301  -0.00298   2.09076
   A30        2.09399   0.00110   0.00000   0.00509   0.00513   2.09912
   A31        2.09371   0.00089   0.00000   0.00474   0.00462   2.09833
   A32        2.09524  -0.00067   0.00000  -0.00360  -0.00357   2.09167
   A33        2.09424  -0.00022   0.00000  -0.00114  -0.00111   2.09313
   A34        2.09367   0.00029   0.00000   0.00193   0.00191   2.09558
   A35        2.09458   0.00069   0.00000   0.00361   0.00361   2.09818
   A36        2.09494  -0.00098   0.00000  -0.00554  -0.00553   2.08941
   A37        2.09993  -0.00401   0.00000  -0.01632  -0.01634   2.08360
   A38        2.09425   0.00015   0.00000  -0.00206  -0.00220   2.09204
   A39        2.08901   0.00386   0.00000   0.01838   0.01823   2.10724
    D1       -2.40985  -0.00564   0.00000  -0.09910  -0.09766  -2.50752
    D2        0.70934  -0.00661   0.00000  -0.12701  -0.12515   0.58418
    D3        1.91337   0.00268   0.00000  -0.00799  -0.00985   1.90352
    D4       -1.25063   0.00171   0.00000  -0.03590  -0.03734  -1.28797
    D5        2.40996   0.00564   0.00000   0.09906   0.09762   2.50758
    D6       -0.70941   0.00662   0.00000   0.12705   0.12519  -0.58422
    D7       -1.91325  -0.00268   0.00000   0.00794   0.00980  -1.90345
    D8        1.25057  -0.00171   0.00000   0.03593   0.03736   1.28793
    D9        3.11273  -0.00049   0.00000  -0.01284  -0.01285   3.09988
   D10       -0.02903  -0.00036   0.00000  -0.00976  -0.00979  -0.03882
   D11       -0.00690   0.00058   0.00000   0.01495   0.01510   0.00821
   D12        3.13452   0.00071   0.00000   0.01804   0.01816  -3.13050
   D13       -3.11053   0.00054   0.00000   0.01392   0.01404  -3.09650
   D14        0.03110  -0.00056   0.00000  -0.01272  -0.01246   0.01864
   D15        0.00857  -0.00057   0.00000  -0.01461  -0.01475  -0.00618
   D16       -3.13298  -0.00168   0.00000  -0.04125  -0.04125   3.10896
   D17       -0.00798   0.00001   0.00000   0.00009   0.00015  -0.00783
[...]
 08,0.00019121,-0.00107516,0.00074672,0.25143609,0.00013432,-0.00031502
 ,-0.00021255,0.00027974,0.00041040,0.00015629,0.00076544,0.00628021,-0
 .00346726,0.00754032,0.00032756,-0.00328629,0.09301946,-0.08346451,-0.
 05598334,0.00086546,0.00276505,-0.00195191,0.00176316,0.00640483,-0.00
 137041,-0.00042416,-0.00087654,0.00053149,0.00006178,0.00000048,0.0000
 7187,-0.00002063,-0.00007736,-0.00002378,-0.00000577,0.00004498,-0.000
 01483,0.00004414,-0.00005102,0.00002957,-0.00004263,-0.00004156,0.0000
 0674,-0.00004002,0.00003470,-0.00003869,-0.00133411,-0.00344857,0.0013
 1129,-0.10146139,0.07613956,0.00065080,-0.00017433,-0.00065691,0.00065
 340,-0.00015308,0.00057132,-0.00146022,-0.00351590,-0.00448540,0.02475
 651,-0.01127706,-0.00885108,0.10414281,-0.05616961,-0.11859486,-0.0134
 4058,0.00639950,0.01127080,-0.00384087,-0.00138762,-0.00020886,-0.0008
 2793,0.00034220,-0.00103601,-0.00006733,0.00014692,-0.00008314,0.00005
 368,-0.00013048,0.00005020,-0.00002561,-0.00000297,0.00002609,-0.00002
 966,-0.00003255,0.00000293,0.00000493,0.00001879,0.00000662,-0.0000597
 9,-0.00004974,0.00002245,0.00016268,0.00144710,0.00054065,-0.11090983,
 0.06285088,0.12095647,0.00023860,-0.00006624,0.00007134,-0.00015521,-0
 .00014225,0.00016271,-0.00163492,0.00031220,0.00010834,-0.00391245,0.0
 0220048,-0.00317434,0.00309407,-0.00849027,-0.02659169,-0.05929232,-0.
 00052778,-0.01949343,0.00643519,0.00728797,0.02482855,-0.00335619,0.00
 362212,0.00201821,0.00000574,-0.00003300,-0.00004602,-0.00005761,0.000
 02136,-0.00000963,0.00002444,0.00000358,-0.00000049,0.00000379,-0.0000
 0806,0.00000255,0.00000531,-0.00001439,0.00001238,-0.00000985,-0.00000
 329,0.00000379,0.00000382,-0.00039328,-0.00131054,0.00045559,-0.001011
 19,0.00085340,0.05741060,-0.00013706,-0.00005057,-0.00007026,0.0000084
 5,-0.00078171,0.00003800,0.00027635,-0.00055449,0.00063238,0.00218800,
 0.00624715,-0.00107249,0.00090502,0.00452359,0.00329215,-0.00048119,-0
 .06606393,-0.08450067,-0.00215604,0.00097452,-0.01082361,0.00361383,0.
 00555931,-0.00284420,-0.00000474,-0.00000558,-0.00016679,-0.00002802,-
 0.00000486,0.00002635,-0.00000186,-0.00001265,0.00003723,-0.00002705,-
 0.00001044,-0.00000336,0.00002464,0.00001910,0.00004107,-0.00001801,-0
 .00005586,0.00000103,0.00009503,0.00007600,0.00022815,-0.00127197,-0.0
 0333074,0.00114258,-0.00172508,0.05698011,-0.00001248,-0.00002994,-0.0
 0015575,0.00012944,0.00030175,-0.00005523,0.00008881,0.00034720,0.0007
 2336,-0.00332480,-0.00105908,0.00094718,0.00186875,-0.00480436,-0.0095
 3724,-0.01953510,-0.08436803,-0.31820150,-0.00362596,-0.00311542,-0.00
 891113,0.00224173,-0.00262422,0.00113368,-0.00001544,0.00004460,0.0000
 8589,-0.00001078,-0.00001533,-0.00000523,0.00000825,0.00000289,-0.0000
 1762,0.00000217,-0.00000976,0.00000909,-0.00000943,-0.00000220,-0.0000
 1447,0.00000059,0.00000657,-0.00000248,0.00012543,-0.00022025,-0.00054
 817,0.00014151,0.00132375,0.00020820,0.02161470,0.09305013,0.33452505,
 0.00007334,-0.00003756,-0.00009050,0.00005321,0.00016820,0.00031647,0.
 00228080,0.00126451,-0.00035808,0.00018485,-0.00007203,0.00092730,-0.0
 0197423,0.00353345,0.00284505,-0.01592648,0.00073351,-0.01442820,-0.27
 415794,0.02413351,-0.12245748,0.00253847,0.00087728,0.00119113,-0.0000
 2486,0.00000919,0.00001289,0.00002095,0.00000924,-0.00001245,0.0000025
 1,-0.00003861,0.00000625,-0.00003286,0.00000190,0.00001661,0.00001902,
 0.00001321,-0.00000461,-0.00002784,-0.00002835,0.00000050,-0.00010981,
 -0.00027670,0.00000107,-0.00086216,0.00003874,-0.00073806,0.00044951,-
 0.00106120,0.00057706,0.28729602,0.00018139,0.00006645,0.00008469,-0.0
 0031553,-0.00001408,-0.00041850,0.00147808,0.00603180,-0.00349477,-0.0
 0020798,-0.00110969,-0.00005019,0.00346071,0.00566750,-0.00319341,0.01
 000833,0.00314977,0.00622395,0.02381761,-0.04368957,0.00573675,-0.0082
 7242,0.00471445,-0.00515929,-0.00003843,0.00011860,0.00008382,0.000030
 32,0.00004428,0.00000097,0.00000471,-0.00008026,0.00001178,-0.00006826
 ,0.00001158,0.00003732,0.00003605,0.00003861,-0.00003797,-0.00001522,-
 0.00006095,0.00001313,-0.00030687,-0.00094468,0.00035748,0.00046045,-0
 .00000398,0.00029125,-0.00128870,-0.00340785,0.00121761,-0.02808144,0.
 03302538,0.00064263,-0.00009926,0.00021356,-0.00161329,0.00023714,-0.0
 0043020,-0.00085083,-0.00369683,-0.00443389,0.00095150,-0.00018472,-0.
 00098079,0.00251981,-0.00313174,0.00005358,0.01410394,-0.00146840,0.01
 116275,-0.12276217,0.00571853,-0.12527641,-0.02644498,0.00275164,-0.00
 975749,0.00009946,0.00014056,-0.00010912,0.00000153,-0.00012806,0.0000
 4145,0.00000495,0.00005075,0.00000850,0.00001888,-0.00006800,-0.000006
 40,-0.00003184,-0.00002000,0.00002784,-0.00006713,-0.00000653,0.000027
 91,0.00001608,0.00034556,-0.00001815,0.00075067,-0.00013208,0.00039571
 ,-0.00011158,0.00142857,0.00020454,0.13216264,-0.00313399,0.12827035,0
 .00189097,-0.00029732,0.00197533,-0.00338058,0.00067093,0.00220064,-0.
 01818509,0.00954303,0.01179150,-0.00294272,0.00127563,-0.00374695,0.00
 005338,-0.00056823,-0.00075190,0.00167186,0.00078000,-0.00191657,0.007
 53072,-0.00203640,-0.00356943,-0.23678091,0.08522250,0.10992334,-0.000
 21574,-0.00019554,-0.00029526,-0.00005427,0.00002863,-0.00002817,0.000
 05853,0.00003658,0.00001163,0.00003407,-0.00000962,-0.00001099,0.00000
 402,-0.00007375,0.00006489,-0.00005512,0.00004662,-0.00000374,-0.00071
 430,0.00053183,0.00072568,-0.00005068,-0.00016738,0.00013870,0.0002634
 3,-0.00018031,-0.00028786,0.00018727,-0.00088780,0.00063728,0.25059010
 ,-0.00097473,-0.00143101,-0.00076978,0.00037778,-0.00190221,0.00041284
 ,0.00291073,0.00313831,0.00110443,0.00162787,0.00569784,-0.00158399,-0
 .00057454,-0.00098343,0.00025830,0.00108903,0.00632817,-0.00321340,0.0
 0648071,0.00137865,-0.00285708,0.08403457,-0.07868364,-0.05522226,-0.0
 0006087,-0.00026162,-0.00084897,-0.00003769,-0.00011495,0.00006788,0.0
 0004335,0.00006875,-0.00000016,0.00005703,-0.00005302,-0.00001776,0.00
 004654,-0.00010400,0.00015544,-0.00018468,-0.00004540,0.00015766,-0.00
 007481,0.00021455,-0.00018602,-0.00021232,-0.00080331,0.00024929,0.000
 27570,-0.00008788,-0.00005724,-0.00118464,-0.00353632,0.00140024,-0.09
 359314,0.07135699,0.00183127,-0.00061379,-0.00071227,-0.00358442,0.000
 98359,-0.00079056,-0.00909417,0.00609139,0.01366900,-0.00385443,-0.001
 43221,-0.00142760,-0.00067223,0.00023835,-0.00089396,-0.00167793,-0.00
 312948,-0.00394428,0.02265114,-0.00967779,-0.00715054,0.11020141,-0.05
 547821,-0.12515344,0.00049409,-0.00020306,-0.00019097,-0.00001926,0.00
 029976,-0.00011305,0.00009312,-0.00001352,-0.00000412,0.00003133,0.000
 06636,-0.00001316,0.00004127,-0.00002354,-0.00004335,-0.00001855,0.000
 08411,0.00006270,-0.00095162,0.00034825,0.00045899,0.00013462,0.000243
 06,-0.00007535,0.00106746,-0.00037982,-0.00042619,0.00004716,0.0014792
 8,0.00064930,-0.11673056,0.06127000,0.12597514,0.00032809,-0.00040809,
 0.00045647,-0.00040190,0.00145715,-0.00117794,-0.00018890,-0.00026518,
 0.00006669,-0.00053097,0.00029175,-0.00006635,0.00023199,-0.00001128,-
 0.00008670,0.00003909,-0.00003002,0.00005666,0.00004004,0.00004691,0.0
 0006885,-0.00002343,-0.00006457,-0.00004218,-0.01275700,0.02509082,-0.
 00125159,-0.15659285,0.13500503,-0.00186212,0.01135618,-0.01122128,0.0
 0033548,0.00006955,-0.00282583,0.00120142,-0.00054504,-0.00107069,0.00
 003184,-0.00529763,-0.00196407,0.00188646,0.00037905,-0.00055901,-0.00
 015136,-0.00000589,0.00001618,0.00000331,0.00002751,-0.00000822,0.0000
 2443,0.00000846,0.00000890,0.00000522,0.00002867,0.00001431,0.00001105
 ,0.16335269,0.00068168,-0.00033066,-0.00022310,-0.00064425,0.00059108,
 -0.00017471,0.00000841,-0.00010344,0.00020422,0.00018224,-0.00041293,-
 0.00025737,-0.00003328,-0.00000454,-0.00000469,0.00004998,0.00003985,0
 .00003161,-0.00004681,0.00003740,0.00002472,-0.00000068,0.00003827,-0.
 00009448,-0.00198029,0.00657102,-0.00028998,0.13327311,-0.24093651,0.0
 0936529,0.01894553,-0.01691668,-0.00023231,-0.00342755,-0.00348332,0.0
 0179597,-0.00102529,-0.00006873,-0.00000718,-0.00097313,0.00116909,0.0
 0093027,-0.00056712,-0.00067221,-0.00068860,-0.00000333,0.00001223,0.0
 0001015,-0.00000266,-0.00000772,0.00000376,-0.00000184,-0.00001554,0.0
 0001191,-0.00000589,0.00000676,-0.00001455,-0.14480689,0.25435602,0.00
 005242,0.00032924,-0.00021195,-0.00104442,-0.00087763,-0.00168342,-0.0
 0010413,-0.00024260,0.00049510,0.00007405,0.00017504,-0.00030403,0.000
 08067,0.00005436,-0.00025707,0.00016752,-0.00009636,-0.00002594,-0.000
 03202,0.00010968,0.00017933,-0.00002004,-0.00000522,-0.00037684,0.0027
 0733,-0.00365503,0.00169002,-0.00211027,0.00967601,-0.03731955,-0.0032
 7981,0.00365967,0.00398827,0.00131906,0.00165305,0.00720892,0.00011070
 ,0.00003160,-0.00110703,0.00187968,0.00072169,0.00674862,-0.00026887,-
 0.00097953,-0.00009003,-0.00000679,-0.00001749,-0.00004413,0.00001439,
 -0.00002330,0.00002176,-0.00000260,-0.00001763,-0.00001196,0.00001225,
 -0.00001752,0.00005201,0.00127195,-0.00970188,0.02595924,-0.00035068,-
 0.00013171,0.00007646,0.00012940,0.00057372,-0.00002313,-0.00001112,-0
 .00001218,0.00004932,-0.00004783,-0.00000777,-0.00006426,0.00001841,0.
 00001062,0.00000681,-0.00002123,0.00000071,-0.00003510,0.00000962,0.00
 000086,-0.00001939,0.00003607,-0.00003732,-0.00001935,0.00119956,-0.00
 229969,0.00109744,-0.00731676,0.00139860,0.00125424,-0.33663978,-0.027
 71151,0.04166188,-0.01264993,-0.00491768,0.00263684,-0.00005207,0.0035
 1614,0.00056275,0.00059283,0.00033057,-0.00026259,-0.00001096,-0.00000
 490,0.00002186,0.00000421,-0.00001900,-0.00001480,-0.00000150,-0.00000
 494,-0.00000364,-0.00000261,-0.00000192,-0.00001039,0.00000797,0.00000
 179,0.00002330,0.00051940,-0.00027093,-0.00059163,0.35479713,-0.000821
 66,-0.00031632,0.00024675,-0.00050005,0.00063790,0.00003903,0.00009400
 ,-0.00001238,0.00010727,-0.00007986,0.00001496,-0.00011250,0.00002939,
 0.00000072,-0.00000424,-0.00000489,-0.00000317,-0.00004081,0.00001074,
 -0.00000094,-0.00000114,0.00003138,-0.00002397,-0.00004411,-0.00204321
 ,-0.00468263,0.00157852,-0.02879848,0.00139204,0.00392706,-0.02771921,
 -0.06154399,0.00626046,0.02570209,0.00736584,-0.00370794,0.00314131,-0
 .00383070,0.00076935,0.00022083,-0.00140348,0.00005036,-0.00001292,-0.
 00003318,0.00002911,-0.00000024,-0.00001526,-0.00002475,0.00000045,-0.
 00000478,-0.00000133,-0.00000282,-0.00000468,-0.00001021,0.00000993,-0
 .00000443,0.00003429,0.00037642,0.00086853,-0.00066447,0.02976333,0.06
 067791,0.00005210,-0.00005987,-0.00027036,0.00009820,-0.00007949,0.000
 43899,-0.00005345,0.00011802,-0.00007295,0.00001763,-0.00005852,-0.000
 00285,0.00000637,-0.00001109,0.00004778,-0.00004700,0.00004024,-0.0000
 1711,0.00001144,-0.00003020,-0.00005002,0.00001380,-0.00002282,0.00006
 346,0.00143733,0.00153940,0.00727142,0.00434393,-0.00008632,0.00304789
 ,0.04142532,0.00662573,-0.04439899,-0.00039054,-0.00000610,0.00369813,
 0.00052757,0.00066234,0.00724211,-0.00029082,0.00025575,-0.00117933,-0
 .00000531,0.00000805,0.00000635,0.00000179,-0.00001443,0.00000070,-0.0
 0000337,-0.00000514,0.00000063,0.00000298,0.00000260,-0.00000146,-0.00
 000176,-0.00000140,0.00000184,-0.00058494,-0.00057793,-0.00410464,-0.0
 4579115,-0.00768124,0.03305699,0.00017893,-0.00024185,-0.00000695,-0.0
 0026145,-0.00006865,-0.00002338,0.00002349,-0.00000868,0.00003510,-0.0
 0003020,0.00002409,-0.00001925,0.00001497,-0.00000014,-0.00001813,0.00
 001153,-0.00000845,-0.00000602,0.00000769,0.00001139,0.00001626,-0.000
 01135,-0.00000857,-0.00001722,-0.00126794,0.00099503,-0.00005568,-0.00
 139001,0.00373681,0.00072252,0.01135875,0.01811245,-0.00290562,-0.1035
 9044,-0.10191581,0.01973676,-0.00620948,-0.02900270,0.00445142,-0.0056
 3328,-0.00000319,0.00188646,0.00000973,-0.00002232,0.00000065,0.000000
 56,-0.00000150,-0.00000356,0.00000233,-0.00000325,-0.00000111,-0.00000
 244,-0.00000297,-0.00000193,0.00001307,0.00001298,0.00001376,0.0003933
 5,0.00095178,-0.00016758,0.00056988,-0.00060399,-0.00056377,0.10527208
 ,-0.00012757,-0.00007952,0.00001376,-0.00002081,0.00004975,-0.00001441
 ,0.00002175,0.00000667,0.00000963,0.00003302,-0.00002408,-0.00001630,-
 0.00001624,0.00000418,0.00000924,-0.00000194,0.00000159,-0.00001683,-0
 .00000126,0.00000276,-0.00000488,0.00000231,-0.00000670,-0.00001122,0.
 00093471,0.00045363,-0.00030822,0.00387302,-0.00239646,0.00054747,-0.0
 1251100,-0.01696305,0.00387128,-0.10185811,-0.29388671,0.04122064,0.00
 151126,0.00152372,0.00002846,-0.00011624,0.00181413,0.00062675,-0.0000
 1958,0.00003156,0.00000180,0.00000231,-0.00000493,-0.00000235,-0.00000
 357,-0.00000355,-0.00000562,-0.00000390,-0.00000239,-0.00000340,0.0000
 0467,0.00000502,0.00000946,-0.00061244,-0.00089493,0.00019323,0.000166
 29,0.00069072,-0.00054322,0.10898001,0.30919151,0.00001227,-0.00000169
 ,-0.00006712,-0.00028521,-0.00016450,-0.00078045,-0.00008272,-0.000168
 16,0.00005589,0.00004202,0.00000222,-0.00001342,0.00000514,0.00003126,
 -0.00002499,0.00001293,-0.00001758,-0.00001068,-0.00000117,0.00005350,
 -0.00000051,-0.00000831,-0.00001896,-0.00005014,0.00010678,-0.00007809
 ,-0.00065175,0.00068904,0.00060490,0.00706834,0.00018893,-0.00018454,0
 .00368472,0.01962340,0.04114768,-0.04608049,0.00158613,0.00438203,0.00
 318434,0.00184332,0.00033730,0.00715596,-0.00000519,-0.00002688,0.0000
 0025,-0.00000094,-0.00000707,-0.00000129,-0.00000199,-0.00000735,0.000
 00130,-0.00000439,-0.00001029,-0.00000058,-0.00000596,-0.00001738,0.00
 000459,-0.00000425,0.00002572,0.00003323,-0.00060925,-0.00043272,-0.00
 392753,-0.02246776,-0.04513979,0.03445208,-0.00011781,0.00027521,0.000
 02202,0.00035846,-0.00086477,-0.00002846,0.00001630,0.00003542,0.00009
 328,-0.00000392,0.00001234,-0.00003434,0.00000405,0.00000598,0.0000069
 3,-0.00000792,-0.00000248,-0.00001613,0.00000576,-0.00000836,0.0000007
 8,0.00000601,0.00000741,-0.00001557,0.00056957,-0.00289007,0.00133480,
 -0.00065916,-0.00102786,0.00004568,-0.00513407,-0.00154817,0.00201143,
 -0.01205758,0.02629870,-0.00037225,-0.15756375,0.13627155,0.00357205,0
 .01093711,-0.01197446,0.00019915,-0.00000358,-0.00000957,0.00000236,-0
 .00000034,-0.00000324,-0.00000272,0.,-0.00000112,0.00000143,0.00000195
 ,0.00000018,-0.00000541,0.00000116,-0.00001754,0.00000289,0.00004024,0
 .00008417,-0.00018749,-0.00070595,0.00127320,-0.00006426,0.00074138,-0
 .00041695,-0.00067273,0.16311811,-0.00049566,0.00040941,0.00006123,0.0
 0117954,-0.00087248,-0.00008716,0.00000172,0.00001347,0.00017602,-0.00
 005033,0.00001058,-0.00008396,0.00000086,0.00001516,-0.00000015,-0.000
 00799,-0.00001144,-0.00005551,0.00001042,0.00000549,-0.00000857,0.0000
 5219,-0.00002131,-0.00006439,-0.00263416,-0.00389591,0.00147992,-0.001
 03267,-0.00004210,0.00004851,-0.00122324,0.00161603,0.00079302,-0.0042
 0183,0.00654819,0.00034875,0.13665902,-0.24567066,0.00121809,0.0177893
 7,-0.01761488,-0.00030600,-0.00001125,-0.00000675,0.00001469,0.0000034
 6,-0.00000709,-0.00001309,-0.00000136,-0.00000737,-0.00000338,-0.00001
 000,-0.00001076,-0.00002018,0.00001054,-0.00002531,0.00003299,0.000080
 81,-0.00001271,-0.00013556,-0.00029830,0.00017804,0.00000687,0.0003289
 7,0.00049754,-0.00052571,-0.14599182,0.25799112,0.00010928,-0.00007076
 ,0.00006174,-0.00041845,0.00015056,0.00012296,0.00012759,0.00007272,-0
 .00004515,0.00001351,0.00002126,0.00010002,-0.00004855,-0.00001726,-0.
 00008846,0.00009408,0.00000650,-0.00000831,-0.00003385,-0.00000273,0.0
 0007423,-0.00003400,-0.00001158,-0.00004559,0.00112966,0.00195073,0.00
 720503,0.00023071,0.00010247,-0.00120439,0.00196181,0.00087572,0.00726
 489,0.00264697,-0.00410985,0.00389544,0.00377036,0.00127730,-0.0398895
 4,-0.00280701,0.00358390,0.00417320,-0.00001892,-0.00000966,-0.0000087
 0,-0.00000064,0.00000407,-0.00000132,-0.00000204,-0.00000988,0.0000019
 6,-0.00000526,-0.00000202,-0.00000057,-0.00000624,-0.00000088,0.000012
 89,-0.00015266,-0.00014283,-0.00110017,0.00015614,-0.00022802,0.000057
 49,-0.00075471,-0.00043990,-0.00399272,-0.00515074,-0.00236908,0.02748
 255,0.00012869,-0.00270011,-0.00004006,-0.00259580,-0.00098568,0.00041
 782,-0.00033951,-0.00005370,0.00017186,-0.00000116,0.00003012,0.000013
 62,-0.00000675,-0.00000783,0.00000488,-0.00000741,0.00000244,0.0000080
 4,-0.00002273,0.00002286,0.00000913,0.00005712,0.00005120,-0.00008668,
 -0.01438470,0.00140604,0.00270906,-0.00038729,0.00277568,0.00087198,0.
 00061495,0.00013423,-0.00031221,0.00138890,-0.00137636,0.00127454,-0.0
 0415688,0.00121722,0.00105494,-0.33011910,-0.03344512,0.04988025,0.000
 01161,-0.00000670,-0.00000068,-0.00000070,0.00000228,0.00000076,0.0000
 0011,-0.00000126,0.00000230,0.00000489,0.00000084,-0.00001505,0.000044
 15,-0.00005743,-0.00004068,-0.00047068,-0.00038697,0.00012562,-0.00007
 405,-0.00006573,-0.00014211,-0.00020115,0.00018025,0.00003990,0.000454
 00,-0.00015830,-0.00080705,0.35006348,-0.00223412,0.00094235,-0.000209
 10,0.00418858,-0.00160033,-0.00111963,-0.00056658,-0.00037189,0.000042
 05,0.00012650,-0.00004279,0.00022234,-0.00008359,0.00006399,0.00005667
 ,-0.00003487,0.00001939,0.00005933,-0.00006750,0.00003114,-0.00006721,
 0.00014038,0.00005380,0.00000102,0.02345593,0.00973351,-0.00382969,0.0
 0276208,-0.00469282,0.00079912,0.00006355,-0.00128910,-0.00003262,-0.0
 0168407,-0.00456415,0.00151218,-0.02672910,0.00240020,0.00415469,-0.03
 324544,-0.06198852,0.00738557,-0.00001350,0.00004751,-0.00002228,-0.00
 000369,0.00001988,0.00003487,-0.00001276,0.00001019,0.00001790,0.00001
 634,0.00001233,0.00001850,-0.00014552,-0.00015851,-0.00021491,0.001459
 30,0.00016968,-0.00016938,-0.00004479,0.00005326,-0.00008121,-0.001261
 43,-0.00001044,0.00021610,0.00049226,0.00091373,-0.00063079,0.03342203
 ,0.06024758,0.00041827,-0.00048610,-0.00132339,-0.00105268,0.00110383,
 -0.00187727,-0.00005527,-0.00082040,0.00004307,-0.00003999,0.00000767,
 -0.00023831,0.00002592,0.00003055,0.00006592,-0.00007788,-0.00000799,-
 0.00004408,-0.00001175,0.00012891,-0.00015173,0.00013942,-0.00000680,-
 0.00014873,0.00067688,0.00000936,0.00327343,0.00047612,0.00084118,0.00
 640760,-0.00027744,-0.00005675,-0.00114985,0.00103396,0.00142902,0.007
 23100,0.00371535,-0.00014712,0.00351550,0.05107107,0.00707584,-0.04851
 036,-0.00001939,-0.00001758,0.00002833,-0.00000331,-0.00000889,-0.0000
 1380,-0.00001268,-0.00001077,0.00001237,-0.00000546,-0.00002257,-0.000
 02848,-0.00012586,-0.00028223,0.00005234,-0.00003973,0.00000599,0.0002
 6026,-0.00010237,-0.00008871,-0.00090853,0.00014974,-0.00002558,-0.000
 03904,-0.00074273,-0.00050734,-0.00406747,-0.05514016,-0.00814354,0.03
 761124\\-0.00001241,-0.00000644,0.00001667,0.00004506,-0.00001962,0.00
 000338,0.00001238,-0.00001461,-0.00000924,0.00000408,0.00000608,0.0000
 0367,-0.00000656,0.00001860,-0.00002681,0.00000496,-0.00000954,0.00000
 348,-0.00001149,0.00000323,0.00002039,-0.00000535,-0.00000225,-0.00000
 247,0.00002013,0.00000546,0.00000426,-0.00000082,-0.00000655,-0.000004
 89,-0.00000563,0.00002106,-0.00002506,0.00000751,-0.00000299,0.0000078
 3,-0.00001755,-0.00001237,0.00000992,-0.00000246,0.00000519,0.00000256
 ,0.00000670,0.00000326,-0.00001814,-0.00000393,0.00001038,-0.00001718,
 -0.00001486,0.00000692,-0.00000299,-0.00000902,-0.00000688,0.00001109,
 0.00000341,-0.00001088,0.00002232,0.00000977,0.00001120,-0.00001280,-0
 .00000261,0.00001375,-0.00001493,-0.00001446,0.00000797,-0.00000230,-0
 .00000761,-0.00000327,0.00001352,0.00000078,-0.00001768,0.00001773\\\@


 The cat could very well be man's best friend
 but would never stoop to admitting it.
                               -- Doug Larson
 Job cpu time:       0 days  2 hours  4 minutes 50.1 seconds.
 Elapsed time:       0 days  0 hours  5 minutes 21.0 seconds.
 File lengths (MBytes):  RWF=    341 Int=      0 D2E=      0 Chk=     13 Scr=      1
 Normal termination of Gaussian 16 at Sun Oct 13 23:24:45 2019.
real 737.16
user 17158.49
sys 80.80
Machine:
brown-a347
brown-a347
brown-a347
brown-a347
brown-a347
brown-a347
brown-a347
brown-a347
brown-a347
brown-a347
brown-a347
brown-a347
brown-a347
brown-a347
brown-a347
brown-a347
brown-a347
brown-a347
brown-a347
brown-a347
brown-a347
brown-a347
brown-a347
brown-a347
