 Entering Gaussian System, Link 0=/apps/cent7/gaussian/g16-A.03/g16-haswell/g16/g16
 Initial command:
 /apps/cent7/gaussian/g16-A.03/g16-haswell/g16/l1.exe "/scratch/brown/finej/gaussian/Gau-270261.inp" -scrdir="/scratch/brown/finej/gaussian/"
 Entering Link 1 = /apps/cent7/gaussian/g16-A.03/g16-haswell/g16/l1.exe PID=    270262.
  
 Copyright (c) 1988,1990,1992,1993,1995,1998,2003,2009,2016,
            Gaussian, Inc.  All Rights Reserved.
  
 This is part of the Gaussian(R) 16 program.  It is based on
 the Gaussian(R) 09 system (copyright 2009, Gaussian, Inc.),
 the Gaussian(R) 03 system (copyright 2003, Gaussian, Inc.),
 the Gaussian(R) 98 system (copyright 1998, Gaussian, Inc.),
 the Gaussian(R) 94 system (copyright 1995, Gaussian, Inc.),
 the Gaussian 92(TM) system (copyright 1992, Gaussian, Inc.),
 the Gaussian 90(TM) system (copyright 1990, Gaussian, Inc.),
 the Gaussian 88(TM) system (copyright 1988, Gaussian, Inc.),
 the Gaussian 86(TM) system (copyright 1986, Carnegie Mellon
 University), and the Gaussian 82(TM) system (copyright 1983,
 Carnegie Mellon University). Gaussian is a federally registered
 trademark of Gaussian, Inc.
  
 This software contains proprietary and confidential information,
 including trade secrets, belonging to Gaussian, Inc.
  
 This software is provided under written license and may be
 used, copied, transmitted, or stored only in accord with that
 written license.
  
 The following legend is applicable only to US Government
 contracts under FAR:
  
                    RESTRICTED RIGHTS LEGEND
  
 Use, reproduction and disclosure by the US Government is
 subject to restrictions as set forth in subparagraphs (a)
 and (c) of the Commercial Computer Software - Restricted
 Rights clause in FAR 52.227-19.
  
 Gaussian, Inc.
 340 Quinnipiac St., Bldg. 40, Wallingford CT 06492
  
  
 ---------------------------------------------------------------
 Warning -- This program may not be used in any manner that
 competes with the business of Gaussian, Inc. or will provide
 assistance to any competitor of Gaussian, Inc.  The licensee
 of this program is prohibited from giving any competitor of
 Gaussian, Inc. access to this program.  By using this program,
 the user acknowledges that Gaussian, Inc. is engaged in the
 business of creating and licensing software in the field of
 computational chemistry and represents and warrants to the
 licensee that it is not a competitor of Gaussian, Inc. and that
 it will not use this program in any manner prohibited above.
 ---------------------------------------------------------------
  

 Cite this work as:
 Gaussian 16, Revision A.03,
 M. J. Frisch, G. W. Trucks, H. B. Schlegel, G. E. Scuseria, 
 M. A. Robb, J. R. Cheeseman, G. Scalmani, V. Barone, 
 G. A. Petersson, H. Nakatsuji, X. Li, M. Caricato, A. V. Marenich, 
 J. Bloino, B. G. Janesko, R. Gomperts, B. Mennucci, H. P. Hratchian, 
 J. V. Ortiz, A. F. Izmaylov, J. L. Sonnenberg, D. Williams-Young, 
 F. Ding, F. Lipparini, F. Egidi, J. Goings, B. Peng, A. Petrone, 
 T. Henderson, D. Ranasinghe, V. G. Zakrzewski, J. Gao, N. Rega, 
 G. Zheng, W. Liang, M. Hada, M. Ehara, K. Toyota, R. Fukuda, 
 J. Hasegawa, M. Ishida, T. Nakajima, Y. Honda, O. Kitao, H. Nakai, 
 T. Vreven, K. Throssell, J. A. Montgomery, Jr., J. E. Peralta, 
 F. Ogliaro, M. J. Bearpark, J. J. Heyd, E. N. Brothers, K. N. Kudin, 
 V. N. Staroverov, T. A. Keith, R. Kobayashi, J. Normand, 
 K. Raghavachari, A. P. Rendell, J. C. Burant, S. S. Iyengar, 
 J. Tomasi, M. Cossi, J. M. Millam, M. Klene, C. Adamo, R. Cammi, 
 J. W. Ochterski, R. L. Martin, K. Morokuma, O. Farkas, 
 J. B. Foresman, and D. J. Fox, Gaussian, Inc., Wallingford CT, 2016.
 
 ******************************************
 Gaussian 16:  ES64L-G16RevA.03 25-Dec-2016
                13-Oct-2019 
 ******************************************
 %chk=32_p.chk
 %nprocshared=24
 Will use up to   24 processors via shared memory.
 %mem=80GB
 -------------------------------------------------------------------
 #p opt freq m062x/6-311++g(d,p) geom=connectivity temperature=0.001
 -------------------------------------------------------------------
 1/18=20,19=15,26=3,38=1,57=2,112=-1000/1,3;
 2/9=110,12=2,17=6,18=5,40=1/2;
 3/5=4,6=6,7=1111,11=2,25=1,30=1,71=1,74=-55/1,2,3;
 4//1;
 5/5=2,38=5/2;
 6/7=2,8=2,9=2,10=2,28=1/1;
 7//1,2,3,16;
 1/18=20,19=15,26=3/3(2);
 2/9=110/2;
 99//99;
 2/9=110/2;
 3/5=4,6=6,7=1111,11=2,25=1,30=1,71=1,74=-55/1,2,3;
 4/5=5,16=3,69=1/1;
 5/5=2,38=5/2;
 7//1,2,3,16;
 1/18=20,19=15,26=3/3(-5);
 2/9=110/2;
 6/7=2,8=2,9=2,10=2,19=2,28=1/1;
 99/9=1/99;
 Leave Link    1 at Sun Oct 13 23:12:35 2019, MaxMem= 10737418240 cpu:               0.8 elap:               0.0
 (Enter /apps/cent7/gaussian/g16-A.03/g16-haswell/g16/l101.exe)
 -------------------
 Title Card Required
 -------------------
 Symbolic Z-matrix:
 Charge =  1 Multiplicity = 1
 O                     0.        2.54302   0.2257 
 S                     0.        1.25741   1.00881 
 C                    -1.35376   0.2615    0.32477 
 C                    -1.76342  -0.89757   0.97187 
 C                    -2.81008  -1.63521   0.43053 
 C                    -3.43967  -1.19989  -0.73287 
 C                    -3.02891  -0.02499  -1.35504 
 C                    -1.97929   0.71917  -0.82438 
 C                     1.35376   0.26149   0.32477 
 C                     1.7634   -0.89759   0.97186 
 C                     2.81007  -1.63522   0.43053 
 C                     3.43967  -1.1999   -0.73287 
 C                     3.02892  -0.02499  -1.35502 
 C                     1.9793    0.71918  -0.82437 
 H                    -1.28124  -1.21882   1.88898 
 H                    -3.14101  -2.5424    0.92153 
 H                    -4.25908  -1.7737   -1.14889 
 H                    -3.52961   0.31701  -2.25294 
 H                    -1.64381   1.64863  -1.27127 
 H                     1.28121  -1.21884   1.88897 
 H                     3.14098  -2.54243   0.92151 
 H                     4.25908  -1.77371  -1.14889 
 H                     3.52963   0.31702  -2.25292 
 H                     1.64383   1.64865  -1.27125 
 H                     0.83139   2.95296  -0.024 
 
 ITRead=  0  0  0  0  0  0  0  0  0  0  0  0  0  0  0  0  0  0  0  0
 ITRead=  0  0  0  0  0
 MicOpt= -1 -1 -1 -1 -1 -1 -1 -1 -1 -1 -1 -1 -1 -1 -1 -1 -1 -1 -1 -1
 MicOpt= -1 -1 -1 -1 -1
 NAtoms=     25 NQM=       25 NQMF=       0 NMMI=      0 NMMIF=      0
                NMic=       0 NMicF=      0.
                    Isotopes and Nuclear Properties:
 (Nuclear quadrupole moments (NQMom) in fm**2, nuclear magnetic moments (NMagM)
  in nuclear magnetons)

  Atom         1           2           3           4           5           6           7           8           9          10
 IAtWgt=          16          32          12          12          12          12          12          12          12          12
 AtmWgt=  15.9949146  31.9720718  12.0000000  12.0000000  12.0000000  12.0000000  12.0000000  12.0000000  12.0000000  12.0000000
 NucSpn=           0           0           0           0           0           0           0           0           0           0
 AtZEff=  -0.0000000  -0.0000000  -0.0000000  -0.0000000  -0.0000000  -0.0000000  -0.0000000  -0.0000000  -0.0000000  -0.0000000
 NQMom=    0.0000000   0.0000000   0.0000000   0.0000000   0.0000000   0.0000000   0.0000000   0.0000000   0.0000000   0.0000000
 NMagM=    0.0000000   0.0000000   0.0000000   0.0000000   0.0000000   0.0000000   0.0000000   0.0000000   0.0000000   0.0000000
 AtZNuc=   8.0000000  16.0000000   6.0000000   6.0000000   6.0000000   6.0000000   6.0000000   6.0000000   6.0000000   6.0000000

  Atom        11          12          13          14          15          16          17          18          19          20
 IAtWgt=          12          12          12          12           1           1           1           1           1           1
 AtmWgt=  12.0000000  12.0000000  12.0000000  12.0000000   1.0078250   1.0078250   1.0078250   1.0078250   1.0078250   1.0078250
 NucSpn=           0           0           0           0           1           1           1           1           1           1
 AtZEff=  -0.0000000  -0.0000000  -0.0000000  -0.0000000  -0.0000000  -0.0000000  -0.0000000  -0.0000000  -0.0000000  -0.0000000
 NQMom=    0.0000000   0.0000000   0.0000000   0.0000000   0.0000000   0.0000000   0.0000000   0.0000000   0.0000000   0.0000000
 NMagM=    0.0000000   0.0000000   0.0000000   0.0000000   2.7928460   2.7928460   2.7928460   2.7928460   2.7928460   2.7928460
 AtZNuc=   6.0000000   6.0000000   6.0000000   6.0000000   1.0000000   1.0000000   1.0000000   1.0000000   1.0000000   1.0000000

  Atom        21          22          23          24          25
 IAtWgt=           1           1           1           1           1
 AtmWgt=   1.0078250   1.0078250   1.0078250   1.0078250   1.0078250
 NucSpn=           1           1           1           1           1
 AtZEff=  -0.0000000  -0.0000000  -0.0000000  -0.0000000  -0.0000000
 NQMom=    0.0000000   0.0000000   0.0000000   0.0000000   0.0000000
 NMagM=    2.7928460   2.7928460   2.7928460   2.7928460   2.7928460
 AtZNuc=   1.0000000   1.0000000   1.0000000   1.0000000   1.0000000
 Leave Link  101 at Sun Oct 13 23:12:36 2019, MaxMem= 10737418240 cpu:               8.4 elap:               0.4
 (Enter /apps/cent7/gaussian/g16-A.03/g16-haswell/g16/l103.exe)

 GradGradGradGradGradGradGradGradGradGradGradGradGradGradGradGradGradGrad
 Berny optimization.
 Initialization pass.
                           ----------------------------
                           !    Initial Parameters    !
                           ! (Angstroms and Degrees)  !
 --------------------------                            --------------------------
 ! Name  Definition              Value          Derivative Info.                !
 --------------------------------------------------------------------------------
 ! R1    R(1,2)                  1.5053         estimate D2E/DX2                !
 ! R2    R(1,25)                 0.96           estimate D2E/DX2                !
 ! R3    R(2,3)                  1.8145         estimate D2E/DX2                !
 ! R4    R(2,9)                  1.8145         estimate D2E/DX2                !
 ! R5    R(3,4)                  1.3892         estimate D2E/DX2                !
 ! R6    R(3,8)                  1.3861         estimate D2E/DX2                !
 ! R7    R(4,5)                  1.3902         estimate D2E/DX2                !
 ! R8    R(4,15)                 1.0848         estimate D2E/DX2                !
 ! R9    R(5,6)                  1.3926         estimate D2E/DX2                !
 ! R10   R(5,16)                 1.0833         estimate D2E/DX2                !
 ! R11   R(6,7)                  1.3915         estimate D2E/DX2                !
 ! R12   R(6,17)                 1.0834         estimate D2E/DX2                !
 ! R13   R(7,8)                  1.3918         estimate D2E/DX2                !
 ! R14   R(7,18)                 1.0835         estimate D2E/DX2                !
 ! R15   R(8,19)                 1.0845         estimate D2E/DX2                !
 ! R16   R(9,10)                 1.3892         estimate D2E/DX2                !
 ! R17   R(9,14)                 1.3861         estimate D2E/DX2                !
 ! R18   R(10,11)                1.3902         estimate D2E/DX2                !
 ! R19   R(10,20)                1.0848         estimate D2E/DX2                !
 ! R20   R(11,12)                1.3926         estimate D2E/DX2                !
 ! R21   R(11,21)                1.0833         estimate D2E/DX2                !
 ! R22   R(12,13)                1.3915         estimate D2E/DX2                !
 ! R23   R(12,22)                1.0834         estimate D2E/DX2                !
 ! R24   R(13,14)                1.3918         estimate D2E/DX2                !
 ! R25   R(13,23)                1.0835         estimate D2E/DX2                !
 ! R26   R(14,24)                1.0845         estimate D2E/DX2                !
 ! A1    A(2,1,25)             120.0            estimate D2E/DX2                !
 ! A2    A(1,2,3)              105.8211         estimate D2E/DX2                !
 ! A3    A(1,2,9)              105.821          estimate D2E/DX2                !
 ! A4    A(3,2,9)               96.5034         estimate D2E/DX2                !
 ! A5    A(2,3,4)              120.1542         estimate D2E/DX2                !
 ! A6    A(2,3,8)              117.9048         estimate D2E/DX2                !
 ! A7    A(4,3,8)              121.909          estimate D2E/DX2                !
 ! A8    A(3,4,5)              118.9021         estimate D2E/DX2                !
 ! A9    A(3,4,15)             120.6501         estimate D2E/DX2                !
 ! A10   A(5,4,15)             120.4458         estimate D2E/DX2                !
 ! A11   A(4,5,6)              119.9879         estimate D2E/DX2                !
 ! A12   A(4,5,16)             119.8564         estimate D2E/DX2                !
 ! A13   A(6,5,16)             120.1523         estimate D2E/DX2                !
 ! A14   A(5,6,7)              120.2658         estimate D2E/DX2                !
 ! A15   A(5,6,17)             119.8125         estimate D2E/DX2                !
 ! A16   A(7,6,17)             119.9189         estimate D2E/DX2                !
 ! A17   A(6,7,8)              120.239          estimate D2E/DX2                !
 ! A18   A(6,7,18)             120.0434         estimate D2E/DX2                !
 ! A19   A(8,7,18)             119.7167         estimate D2E/DX2                !
 ! A20   A(3,8,7)              118.678          estimate D2E/DX2                !
 ! A21   A(3,8,19)             119.0127         estimate D2E/DX2                !
 ! A22   A(7,8,19)             122.3046         estimate D2E/DX2                !
 ! A23   A(2,9,10)             120.1542         estimate D2E/DX2                !
 ! A24   A(2,9,14)             117.9048         estimate D2E/DX2                !
 ! A25   A(10,9,14)            121.9091         estimate D2E/DX2                !
 ! A26   A(9,10,11)            118.9021         estimate D2E/DX2                !
 ! A27   A(9,10,20)            120.6502         estimate D2E/DX2                !
 ! A28   A(11,10,20)           120.4457         estimate D2E/DX2                !
 ! A29   A(10,11,12)           119.9879         estimate D2E/DX2                !
 ! A30   A(10,11,21)           119.8564         estimate D2E/DX2                !
 ! A31   A(12,11,21)           120.1523         estimate D2E/DX2                !
 ! A32   A(11,12,13)           120.2658         estimate D2E/DX2                !
 ! A33   A(11,12,22)           119.8125         estimate D2E/DX2                !
 ! A34   A(13,12,22)           119.9188         estimate D2E/DX2                !
 ! A35   A(12,13,14)           120.239          estimate D2E/DX2                !
 ! A36   A(12,13,23)           120.0435         estimate D2E/DX2                !
 ! A37   A(14,13,23)           119.7166         estimate D2E/DX2                !
 ! A38   A(9,14,13)            118.678          estimate D2E/DX2                !
 ! A39   A(9,14,24)            119.0127         estimate D2E/DX2                !
 ! A40   A(13,14,24)           122.3047         estimate D2E/DX2                !
 ! D1    D(25,1,2,3)          -140.8461         estimate D2E/DX2                !
 ! D2    D(25,1,2,9)           -39.1539         estimate D2E/DX2                !
 ! D3    D(1,2,3,4)           -169.4649         estimate D2E/DX2                !
 ! D4    D(1,2,3,8)              8.5185         estimate D2E/DX2                !
 ! D5    D(9,2,3,4)             82.023          estimate D2E/DX2                !
 ! D6    D(9,2,3,8)            -99.9937         estimate D2E/DX2                !
 ! D7    D(1,2,9,10)           169.4657         estimate D2E/DX2                !
 ! D8    D(1,2,9,14)            -8.5176         estimate D2E/DX2                !
 ! D9    D(3,2,9,10)           -82.0221         estimate D2E/DX2                !
 ! D10   D(3,2,9,14)            99.9946         estimate D2E/DX2                !
 ! D11   D(2,3,4,5)            179.5044         estimate D2E/DX2                !
 ! D12   D(2,3,4,15)             0.0113         estimate D2E/DX2                !
 ! D13   D(8,3,4,5)              1.6039         estimate D2E/DX2                !
 ! D14   D(8,3,4,15)          -177.8892         estimate D2E/DX2                !
 ! D15   D(2,3,8,7)           -179.341          estimate D2E/DX2                !
 ! D16   D(2,3,8,19)            -0.1081         estimate D2E/DX2                !
 ! D17   D(4,3,8,7)             -1.3952         estimate D2E/DX2                !
 ! D18   D(4,3,8,19)           177.8377         estimate D2E/DX2                !
 ! D19   D(3,4,5,6)             -0.7607         estimate D2E/DX2                !
 ! D20   D(3,4,5,16)           179.901          estimate D2E/DX2                !
 ! D21   D(15,4,5,6)           178.7335         estimate D2E/DX2                !
 ! D22   D(15,4,5,16)           -0.6048         estimate D2E/DX2                !
 ! D23   D(4,5,6,7)             -0.2428         estimate D2E/DX2                !
 ! D24   D(4,5,6,17)          -179.6227         estimate D2E/DX2                !
 ! D25   D(16,5,6,7)           179.0936         estimate D2E/DX2                !
 ! D26   D(16,5,6,17)           -0.2863         estimate D2E/DX2                !
 ! D27   D(5,6,7,8)              0.4528         estimate D2E/DX2                !
 ! D28   D(5,6,7,18)          -179.2165         estimate D2E/DX2                !
 ! D29   D(17,6,7,8)           179.8321         estimate D2E/DX2                !
 ! D30   D(17,6,7,18)            0.1627         estimate D2E/DX2                !
 ! D31   D(6,7,8,3)              0.3488         estimate D2E/DX2                !
 ! D32   D(6,7,8,19)          -178.8575         estimate D2E/DX2                !
 ! D33   D(18,7,8,3)          -179.9807         estimate D2E/DX2                !
 ! D34   D(18,7,8,19)            0.8129         estimate D2E/DX2                !
 ! D35   D(2,9,10,11)         -179.5044         estimate D2E/DX2                !
 ! D36   D(2,9,10,20)           -0.0112         estimate D2E/DX2                !
 ! D37   D(14,9,10,11)          -1.6039         estimate D2E/DX2                !
 ! D38   D(14,9,10,20)         177.8893         estimate D2E/DX2                !
 ! D39   D(2,9,14,13)          179.3409         estimate D2E/DX2                !
 ! D40   D(2,9,14,24)            0.108          estimate D2E/DX2                !
 ! D41   D(10,9,14,13)           1.3951         estimate D2E/DX2                !
 ! D42   D(10,9,14,24)        -177.8378         estimate D2E/DX2                !
 ! D43   D(9,10,11,12)           0.7607         estimate D2E/DX2                !
 ! D44   D(9,10,11,21)        -179.901          estimate D2E/DX2                !
 ! D45   D(20,10,11,12)       -178.7336         estimate D2E/DX2                !
 ! D46   D(20,10,11,21)          0.6047         estimate D2E/DX2                !
 ! D47   D(10,11,12,13)          0.2427         estimate D2E/DX2                !
 ! D48   D(10,11,12,22)        179.6227         estimate D2E/DX2                !
 ! D49   D(21,11,12,13)       -179.0936         estimate D2E/DX2                !
 ! D50   D(21,11,12,22)          0.2864         estimate D2E/DX2                !
 ! D51   D(11,12,13,14)         -0.4528         estimate D2E/DX2                !
 ! D52   D(11,12,13,23)        179.2165         estimate D2E/DX2                !
 ! D53   D(22,12,13,14)       -179.8321         estimate D2E/DX2                !
 ! D54   D(22,12,13,23)         -0.1628         estimate D2E/DX2                !
 ! D55   D(12,13,14,9)          -0.3488         estimate D2E/DX2                !
 ! D56   D(12,13,14,24)        178.8575         estimate D2E/DX2                !
 ! D57   D(23,13,14,9)         179.9808         estimate D2E/DX2                !
 ! D58   D(23,13,14,24)         -0.8129         estimate D2E/DX2                !
 --------------------------------------------------------------------------------
 Trust Radius=3.00D-01 FncErr=1.00D-07 GrdErr=1.00D-06 EigMax=2.50D+02 EigMin=1.00D-04
 Number of steps in this run=    134 maximum allowed number of steps=    150.
 GradGradGradGradGradGradGradGradGradGradGradGradGradGradGradGradGradGrad

 Leave Link  103 at Sun Oct 13 23:12:36 2019, MaxMem= 10737418240 cpu:               0.3 elap:               0.0
 (Enter /apps/cent7/gaussian/g16-A.03/g16-haswell/g16/l202.exe)
                          Input orientation:                          
 ---------------------------------------------------------------------
 Center     Atomic      Atomic             Coordinates (Angstroms)
 Number     Number       Type             X           Y           Z
 ---------------------------------------------------------------------
      1          8           0        0.000004    2.543023    0.225703
      2         16           0        0.000000    1.257410    1.008809
      3          6           0       -1.353761    0.261496    0.324767
      4          6           0       -1.763416   -0.897572    0.971868
      5          6           0       -2.810084   -1.635205    0.430531
      6          6           0       -3.439667   -1.199891   -0.732874
      7          6           0       -3.028906   -0.024994   -1.355037
      8          6           0       -1.979289    0.719170   -0.824383
      9          6           0        1.353761    0.261492    0.324769
     10          6           0        1.763400   -0.897587    0.971860
     11          6           0        2.810067   -1.635221    0.430525
     12          6           0        3.439666   -1.199897   -0.732868
     13          6           0        3.028921   -0.024991   -1.355021
     14          6           0        1.979304    0.719175   -0.824369
     15          1           0       -1.281238   -1.218820    1.888983
     16          1           0       -3.141006   -2.542403    0.921527
     17          1           0       -4.259083   -1.773697   -1.148894
     18          1           0       -3.529606    0.317012   -2.252940
     19          1           0       -1.643805    1.648634   -1.271274
     20          1           0        1.281209   -1.218844    1.888965
     21          1           0        3.140977   -2.542428    0.921513
     22          1           0        4.259083   -1.773705   -1.148887
     23          1           0        3.529633    0.317024   -2.252915
     24          1           0        1.643831    1.648647   -1.271252
     25          1           0        0.831390    2.952957   -0.024000
 ---------------------------------------------------------------------
                    Distance matrix (angstroms):
                    1          2          3          4          5
     1  O    0.000000
     2  S    1.505342   0.000000
     3  C    2.654780   1.814505   0.000000
     4  C    3.937525   2.784771   1.389243   0.000000
     5  C    5.039458   4.074089   2.393645   1.390202   0.000000
     6  C    5.172969   4.571990   2.757764   2.409846   1.392618
     7  C    4.274078   4.050506   2.389546   2.788789   2.414315
     8  C    2.889069   2.750978   1.386108   2.426309   2.794300
     9  C    2.654780   1.814506   2.707522   3.388061   4.576707
    10  C    3.937526   2.784772   3.388052   3.526816   4.664105
    11  C    5.039457   4.074089   4.576700   4.664110   5.620151
    12  C    5.172967   4.571991   5.121641   5.483574   6.371999
    13  C    4.274076   4.050507   4.702304   5.398361   6.314663
    14  C    2.889066   2.750979   3.555180   4.455142   5.482346
    15  H    4.308079   2.923695   2.154847   1.084802   2.153562
    16  H    6.017614   4.930732   3.378197   2.146103   1.083326
    17  H    6.217991   5.655359   3.841170   3.390218   2.147874
    18  H    4.853550   4.897088   3.373716   3.872212   3.395568
    19  H    2.396452   2.837945   2.134391   3.395461   3.878137
    20  H    4.308082   2.923697   3.403115   3.195939   4.363378
    21  H    6.017614   4.930733   5.331113   5.173119   6.039805
    22  H    6.217989   5.655360   6.149611   6.444820   7.244782
    23  H    4.853545   4.897089   5.522234   6.315919   7.155703
    24  H    2.396445   2.837944   3.668381   4.808758   5.789396
    25  H    0.960000   2.152390   3.484320   4.748826   5.875216
                    6          7          8          9         10
     6  C    0.000000
     7  C    1.391472   0.000000
     8  C    2.413270   1.391786   0.000000
     9  C    5.121640   4.702297   3.555171   0.000000
    10  C    5.483558   5.398339   4.455122   1.389243   0.000000
    11  C    6.371984   6.314639   5.482325   2.393644   1.390201
    12  C    6.879333   6.603780   5.749458   2.757762   2.409846
    13  C    6.603793   6.057827   5.090925   2.389546   2.788789
    14  C    5.749472   5.090930   3.958593   1.386108   2.426308
    15  H    3.396072   3.873400   3.406675   3.403132   3.195955
    16  H    2.151413   3.395977   3.877583   5.331123   5.173118
    17  H    1.083406   2.147974   3.393693   6.149609   6.444802
    18  H    2.149345   1.083466   2.146157   5.522222   6.315893
    19  H    3.410145   2.174063   1.084511   3.668367   4.808736
    20  H    5.400099   5.525027   4.663583   2.154847   1.084802
    21  H    6.916956   7.041847   6.316906   3.378197   2.146102
    22  H    7.731305   7.497684   6.725847   3.841170   3.390219
    23  H    7.292647   6.628544   5.705317   3.373716   3.872213
    24  H    5.852006   4.964128   3.767044   2.134390   3.395461
    25  H    5.999215   5.053883   3.678360   2.763783   4.084981
                   11         12         13         14         15
    11  C    0.000000
    12  C    1.392618   0.000000
    13  C    2.414314   1.391470   0.000000
    14  C    2.794299   2.413269   1.391787   0.000000
    15  H    4.363401   5.400129   5.525057   4.663608   0.000000
    16  H    6.039812   6.916978   7.041877   6.316931   2.479230
    17  H    7.244765   7.731304   7.497697   6.725861   4.290005
    18  H    7.155673   7.292625   6.628537   5.705317   4.956759
    19  H    5.789370   5.851981   4.964111   3.767033   4.282636
    20  H    2.153561   3.396072   3.873400   3.406675   2.562447
    21  H    1.083326   2.151414   3.395976   3.877582   4.716346
    22  H    2.147875   1.083407   2.147974   3.393693   6.342847
    23  H    3.395569   2.149346   1.083467   2.146157   6.531356
    24  H    3.878136   3.410144   2.174064   1.084511   5.173537
    25  H    5.017284   4.954977   3.933057   2.635921   5.052368
                   16         17         18         19         20
    16  H    0.000000
    17  H    2.475409   0.000000
    18  H    4.290047   2.474291   0.000000
    19  H    4.961328   4.308945   2.508611   0.000000
    20  H    4.716326   6.342814   6.531322   5.173514   0.000000
    21  H    6.281983   7.722592   7.921504   6.728109   2.479229
    22  H    7.722618   8.518166   8.139638   6.824329   4.290006
    23  H    7.921542   8.139661   7.059239   5.431507   4.956760
    24  H    6.728138   6.824354   5.431520   3.287636   4.282636
    25  H    6.846381   7.037013   5.561894   3.063256   4.611475
                   21         22         23         24         25
    21  H    0.000000
    22  H    2.475410   0.000000
    23  H    4.290048   2.474292   0.000000
    24  H    4.961328   4.308945   2.508611   0.000000
    25  H    6.035516   5.946073   4.381406   1.979122   0.000000
 Stoichiometry    C12H11OS(1+)
 Framework group  C1[X(C12H11OS)]
 Deg. of freedom    69
 Full point group                 C1      NOp   1
 Largest Abelian subgroup         C1      NOp   1
 Largest concise Abelian subgroup C1      NOp   1
                         Standard orientation:                         
 ---------------------------------------------------------------------
 Center     Atomic      Atomic             Coordinates (Angstroms)
 Number     Number       Type             X           Y           Z
 ---------------------------------------------------------------------
      1          8           0       -0.009036    2.515237   -0.227964
      2         16           0       -0.000404    1.229019   -1.010029
      3          6           0        1.359952    0.242730   -0.325127
      4          6           0        1.777373   -0.914098   -0.971273
      5          6           0        2.828924   -1.644281   -0.429297
      6          6           0        3.455531   -1.203827    0.733780
      7          6           0        3.036899   -0.031198    1.354975
      8          6           0        1.982356    0.705504    0.823677
      9          6           0       -1.347510    0.224630   -0.325236
     10          6           0       -1.749364   -0.937685   -0.971404
     11          6           0       -2.791102   -1.681859   -0.429513
     12          6           0       -3.423648   -1.249811    0.733502
     13          6           0       -3.020793   -0.071683    1.354720
     14          6           0       -1.976149    0.679052    0.823506
     15          1           0        1.297394   -1.239304   -1.888146
     16          1           0        3.165924   -2.549644   -0.919545
     17          1           0        4.278745   -1.771807    1.150297
     18          1           0        3.535262    0.314873    2.252620
     19          1           0        1.640647    1.633067    1.269802
     20          1           0       -1.264995   -1.256454   -1.888229
     21          1           0       -3.115919   -2.591655   -0.919779
     22          1           0       -4.239231   -1.828746    1.149953
     23          1           0       -3.523820    0.267705    2.252316
     24          1           0       -1.646916    1.611107    1.269650
     25          1           0       -0.843154    2.919808    0.021374
 ---------------------------------------------------------------------
 Rotational constants (GHZ):           1.0447986           0.4364665           0.3827364
 Leave Link  202 at Sun Oct 13 23:12:36 2019, MaxMem= 10737418240 cpu:               0.9 elap:               0.1
 (Enter /apps/cent7/gaussian/g16-A.03/g16-haswell/g16/l301.exe)
 Standard basis: 6-311++G(d,p) (5D, 7F)
 Ernie: Thresh=  0.10000D-02 Tol=  0.10000D-05 Strict=F.
 There are   407 symmetry adapted cartesian basis functions of A   symmetry.
 There are   393 symmetry adapted basis functions of A   symmetry.
   393 basis functions,   617 primitive gaussians,   407 cartesian basis functions
    53 alpha electrons       53 beta electrons
       nuclear repulsion energy       947.1594890370 Hartrees.
 IExCor= 4336 DFT=T Ex+Corr=M062X ExCW=0 ScaHFX=  0.540000
 ScaDFX=  1.000000  1.000000  1.000000  1.000000 ScalE2=  1.000000  1.000000
 IRadAn=      5 IRanWt=     -1 IRanGd=            0 ICorTp=0 IEmpDi=  4
 NAtoms=   25 NActive=   25 NUniq=   25 SFac= 1.00D+00 NAtFMM=   60 NAOKFM=F Big=F
 Integral buffers will be    131072 words long.
 Raffenetti 2 integral format.
 Two-electron integral symmetry is turned on.
 Leave Link  301 at Sun Oct 13 23:12:36 2019, MaxMem= 10737418240 cpu:               1.4 elap:               0.1
 (Enter /apps/cent7/gaussian/g16-A.03/g16-haswell/g16/l302.exe)
 NPDir=0 NMtPBC=     1 NCelOv=     1 NCel=       1 NClECP=     1 NCelD=      1
         NCelK=      1 NCelE2=     1 NClLst=     1 CellRange=     0.0.
 One-electron integrals computed using PRISM.
 One-electron integral symmetry used in STVInt
 NBasis=   393 RedAO= T EigKep=  2.09D-06  NBF=   393
 NBsUse=   391 1.00D-06 EigRej=  8.52D-07 NBFU=   391
 Precomputing XC quadrature grid using
 IXCGrd= 4 IRadAn=           5 IRanWt=          -1 IRanGd=           0 AccXCQ= 0.00D+00.
 Generated NRdTot=       0 NPtTot=           0 NUsed=           0 NTot=          32
 NSgBfM=   406   406   406   406   406 MxSgAt=    25 MxSgA2=    25.
 Leave Link  302 at Sun Oct 13 23:12:36 2019, MaxMem= 10737418240 cpu:               7.1 elap:               0.3
 (Enter /apps/cent7/gaussian/g16-A.03/g16-haswell/g16/l303.exe)
 DipDrv:  MaxL=1.
 Leave Link  303 at Sun Oct 13 23:12:36 2019, MaxMem= 10737418240 cpu:               1.8 elap:               0.1
 (Enter /apps/cent7/gaussian/g16-A.03/g16-haswell/g16/l401.exe)
 ExpMin= 3.60D-02 ExpMax= 9.34D+04 ExpMxC= 3.17D+03 IAcc=3 IRadAn=         5 AccDes= 0.00D+00
 Harris functional with IExCor= 1009 and IRadAn=       5 diagonalized for initial guess.
 HarFok:  IExCor= 1009 AccDes= 0.00D+00 IRadAn=         5 IDoV= 1 UseB2=F ITyADJ=14
 ICtDFT=  3500011 ScaDFX=  1.000000  1.000000  1.000000  1.000000
 FoFCou: FMM=F IPFlag=           0 FMFlag=      100000 FMFlg1=           0
         NFxFlg=           0 DoJE=T BraDBF=F KetDBF=T FulRan=T
         wScrn=  0.000000 ICntrl=       500 IOpCl=  0 I1Cent=   200000004 NGrid=           0
         NMat0=    1 NMatS0=      1 NMatT0=    0 NMatD0=    1 NMtDS0=    0 NMtDT0=    0
 Petite list used in FoFCou.
 Harris En= -936.564591602521    
 JPrj=0 DoOrth=F DoCkMO=F.
 Leave Link  401 at Sun Oct 13 23:12:37 2019, MaxMem= 10737418240 cpu:              17.1 elap:               0.8
 (Enter /apps/cent7/gaussian/g16-A.03/g16-haswell/g16/l502.exe)
 Integral symmetry usage will be decided dynamically.
 Closed shell SCF:
 Using DIIS extrapolation, IDIIS=  1040.
 NGot= 10737418240 LenX= 10737073296 LenY= 10736907206
 Requested convergence on RMS density matrix=1.00D-08 within 128 cycles.
 Requested convergence on MAX density matrix=1.00D-06.
 Requested convergence on             energy=1.00D-06.
 No special actions if energy rises.
 Fock matrices will be formed incrementally for  20 cycles.

 Cycle   1  Pass 1  IDiag  1:
 FoFJK:  IHMeth= 1 ICntrl=       0 DoSepK=F KAlg= 0 I1Cent=           0 FoldK=F
 IRaf= 900000000 NMat=       1 IRICut=       1 DoRegI=T DoRafI=F ISym2E= 0 IDoP0=0 IntGTp=1.
 FoFCou: FMM=F IPFlag=           0 FMFlag=      100000 FMFlg1=           0
         NFxFlg=           0 DoJE=F BraDBF=F KetDBF=F FulRan=T
         wScrn=  0.000000 ICntrl=         0 IOpCl=  0 I1Cent=           0 NGrid=           0
         NMat0=    1 NMatS0=      1 NMatT0=    0 NMatD0=    1 NMtDS0=    0 NMtDT0=    0
 Symmetry not used in FoFCou.
 E= -936.429155025706    
 DIIS: error= 3.33D-02 at cycle   1 NSaved=   1.
 NSaved= 1 IEnMin= 1 EnMin= -936.429155025706     IErMin= 1 ErrMin= 3.33D-02
 ErrMax= 3.33D-02  0.00D+00 EMaxC= 1.00D-01 BMatC= 5.73D-01 BMatP= 5.73D-01
 IDIUse=3 WtCom= 6.67D-01 WtEn= 3.33D-01
 Coeff-Com:  0.100D+01
 Coeff-En:   0.100D+01
 Coeff:      0.100D+01
 Gap=     0.563 Goal=   None    Shift=    0.000
 GapD=    0.563 DampG=2.000 DampE=0.500 DampFc=1.0000 IDamp=-1.
 RMSDP=2.26D-01 MaxDP=2.51D+01              OVMax= 2.41D-01

 Cycle   2  Pass 1  IDiag  1:
 RMSU=  1.77D-01    CP:  2.87D+00
 E= -936.322600805657     Delta-E=        0.106554220049 Rises=F Damp=F
 DIIS: error= 2.69D-02 at cycle   2 NSaved=   2.
 NSaved= 2 IEnMin= 1 EnMin= -936.429155025706     IErMin= 2 ErrMin= 2.69D-02
 ErrMax= 2.69D-02  0.00D+00 EMaxC= 1.00D-01 BMatC= 6.00D-01 BMatP= 5.73D-01
 IDIUse=3 WtCom= 7.31D-01 WtEn= 2.69D-01
 Coeff-Com:  0.506D+00 0.494D+00
 Coeff-En:   0.552D+00 0.448D+00
 Coeff:      0.519D+00 0.481D+00
 Gap=     0.319 Goal=   None    Shift=    0.000
 RMSDP=1.85D-01 MaxDP=2.04D+01 DE= 1.07D-01 OVMax= 1.78D-01

 Cycle   3  Pass 1  IDiag  1:
 RMSU=  1.66D-02    CP:  1.40D+00  1.68D-01
 E= -936.883550551715     Delta-E=       -0.560949746058 Rises=F Damp=F
 DIIS: error= 9.55D-03 at cycle   3 NSaved=   3.
 NSaved= 3 IEnMin= 3 EnMin= -936.883550551715     IErMin= 3 ErrMin= 9.55D-03
 ErrMax= 9.55D-03  0.00D+00 EMaxC= 1.00D-01 BMatC= 1.34D-02 BMatP= 5.73D-01
 IDIUse=3 WtCom= 9.04D-01 WtEn= 9.55D-02
 Coeff-Com:  0.940D-01 0.148D+00 0.757D+00
 Coeff-En:   0.000D+00 0.000D+00 0.100D+01
 Coeff:      0.851D-01 0.134D+00 0.781D+00
 Gap=     0.288 Goal=   None    Shift=    0.000
 RMSDP=7.43D-03 MaxDP=7.37D-01 DE=-5.61D-01 OVMax= 5.48D-02

 Cycle   4  Pass 1  IDiag  1:
 RMSU=  3.30D-03    CP:  1.42D+00  2.04D-01  9.62D-01
 E= -936.890029399718     Delta-E=       -0.006478848003 Rises=F Damp=F
 DIIS: error= 8.01D-03 at cycle   4 NSaved=   4.
 NSaved= 4 IEnMin= 4 EnMin= -936.890029399718     IErMin= 4 ErrMin= 8.01D-03
 ErrMax= 8.01D-03  0.00D+00 EMaxC= 1.00D-01 BMatC= 7.56D-03 BMatP= 1.34D-02
 IDIUse=3 WtCom= 9.20D-01 WtEn= 8.01D-02
 Coeff-Com:  0.806D-02 0.335D-01 0.458D+00 0.500D+00
 Coeff-En:   0.000D+00 0.000D+00 0.366D+00 0.634D+00
 Coeff:      0.741D-02 0.308D-01 0.451D+00 0.511D+00
 Gap=     0.283 Goal=   None    Shift=    0.000
 RMSDP=1.68D-03 MaxDP=1.05D-01 DE=-6.48D-03 OVMax= 2.61D-02

 Cycle   5  Pass 1  IDiag  1:
 RMSU=  1.14D-03    CP:  1.42D+00  2.03D-01  9.80D-01  6.43D-01
 E= -936.897929328417     Delta-E=       -0.007899928699 Rises=F Damp=F
 DIIS: error= 8.90D-04 at cycle   5 NSaved=   5.
 NSaved= 5 IEnMin= 5 EnMin= -936.897929328417     IErMin= 5 ErrMin= 8.90D-04
 ErrMax= 8.90D-04  0.00D+00 EMaxC= 1.00D-01 BMatC= 1.98D-04 BMatP= 7.56D-03
 IDIUse=3 WtCom= 9.91D-01 WtEn= 8.90D-03
 Coeff-Com: -0.478D-02-0.316D-02 0.971D-01 0.194D+00 0.717D+00
 Coeff-En:   0.000D+00 0.000D+00 0.000D+00 0.000D+00 0.100D+01
 Coeff:     -0.474D-02-0.313D-02 0.962D-01 0.192D+00 0.720D+00
 Gap=     0.284 Goal=   None    Shift=    0.000
 RMSDP=1.16D-03 MaxDP=9.47D-02 DE=-7.90D-03 OVMax= 3.46D-03

 Cycle   6  Pass 1  IDiag  1:
 RMSU=  3.07D-04    CP:  1.41D+00  1.98D-01  1.01D+00  6.85D-01  8.14D-01
 E= -936.898122818335     Delta-E=       -0.000193489918 Rises=F Damp=F
 DIIS: error= 9.50D-05 at cycle   6 NSaved=   6.
 NSaved= 6 IEnMin= 6 EnMin= -936.898122818335     IErMin= 6 ErrMin= 9.50D-05
 ErrMax= 9.50D-05  0.00D+00 EMaxC= 1.00D-01 BMatC= 8.09D-06 BMatP= 1.98D-04
 IDIUse=1 WtCom= 1.00D+00 WtEn= 0.00D+00
 Coeff-Com: -0.177D-02-0.295D-02 0.135D-01 0.441D-01 0.242D+00 0.705D+00
 Coeff:     -0.177D-02-0.295D-02 0.135D-01 0.441D-01 0.242D+00 0.705D+00
 Gap=     0.284 Goal=   None    Shift=    0.000
 RMSDP=2.56D-04 MaxDP=2.25D-02 DE=-1.93D-04 OVMax= 7.59D-04

 Cycle   7  Pass 1  IDiag  1:
 RMSU=  1.11D-04    CP:  1.41D+00  1.98D-01  1.00D+00  6.82D-01  8.62D-01
                    CP:  1.02D+00
 E= -936.898129624678     Delta-E=       -0.000006806342 Rises=F Damp=F
 DIIS: error= 4.54D-05 at cycle   7 NSaved=   7.
 NSaved= 7 IEnMin= 7 EnMin= -936.898129624678     IErMin= 7 ErrMin= 4.54D-05
 ErrMax= 4.54D-05  0.00D+00 EMaxC= 1.00D-01 BMatC= 1.36D-06 BMatP= 8.09D-06
 IDIUse=1 WtCom= 1.00D+00 WtEn= 0.00D+00
 Coeff-Com: -0.190D-03-0.967D-03-0.717D-02-0.769D-02 0.890D-02 0.296D+00
 Coeff-Com:  0.711D+00
 Coeff:     -0.190D-03-0.967D-03-0.717D-02-0.769D-02 0.890D-02 0.296D+00
 Coeff:      0.711D+00
 Gap=     0.284 Goal=   None    Shift=    0.000
 RMSDP=1.08D-04 MaxDP=8.59D-03 DE=-6.81D-06 OVMax= 3.68D-04

 Cycle   8  Pass 1  IDiag  1:
 RMSU=  2.88D-05    CP:  1.41D+00  1.97D-01  1.00D+00  6.88D-01  8.66D-01
                    CP:  1.08D+00  8.27D-01
 E= -936.898131010212     Delta-E=       -0.000001385535 Rises=F Damp=F
 DIIS: error= 2.13D-05 at cycle   8 NSaved=   8.
 NSaved= 8 IEnMin= 8 EnMin= -936.898131010212     IErMin= 8 ErrMin= 2.13D-05
 ErrMax= 2.13D-05  0.00D+00 EMaxC= 1.00D-01 BMatC= 1.39D-07 BMatP= 1.36D-06
 IDIUse=1 WtCom= 1.00D+00 WtEn= 0.00D+00
 Coeff-Com:  0.721D-04-0.147D-03-0.474D-02-0.825D-02-0.190D-01 0.457D-01
 Coeff-Com:  0.287D+00 0.699D+00
 Coeff:      0.721D-04-0.147D-03-0.474D-02-0.825D-02-0.190D-01 0.457D-01
 Coeff:      0.287D+00 0.699D+00
 Gap=     0.284 Goal=   None    Shift=    0.000
 RMSDP=2.05D-05 MaxDP=1.39D-03 DE=-1.39D-06 OVMax= 1.62D-04

 Cycle   9  Pass 1  IDiag  1:
 RMSU=  7.66D-06    CP:  1.41D+00  1.97D-01  1.00D+00  6.87D-01  8.71D-01
                    CP:  1.10D+00  9.25D-01  8.13D-01
 E= -936.898131163383     Delta-E=       -0.000000153171 Rises=F Damp=F
 DIIS: error= 1.06D-05 at cycle   9 NSaved=   9.
 NSaved= 9 IEnMin= 9 EnMin= -936.898131163383     IErMin= 9 ErrMin= 1.06D-05
 ErrMax= 1.06D-05  0.00D+00 EMaxC= 1.00D-01 BMatC= 1.84D-08 BMatP= 1.39D-07
 IDIUse=1 WtCom= 1.00D+00 WtEn= 0.00D+00
 Coeff-Com:  0.468D-04 0.377D-04-0.130D-02-0.285D-02-0.868D-02-0.106D-01
 Coeff-Com:  0.511D-01 0.309D+00 0.663D+00
 Coeff:      0.468D-04 0.377D-04-0.130D-02-0.285D-02-0.868D-02-0.106D-01
 Coeff:      0.511D-01 0.309D+00 0.663D+00
 Gap=     0.284 Goal=   None    Shift=    0.000
 RMSDP=4.13D-06 MaxDP=2.25D-04 DE=-1.53D-07 OVMax= 5.73D-05

 Cycle  10  Pass 1  IDiag  1:
 RMSU=  2.30D-06    CP:  1.41D+00  1.97D-01  1.00D+00  6.87D-01  8.72D-01
                    CP:  1.10D+00  9.33D-01  8.69D-01  1.01D+00
 E= -936.898131184020     Delta-E=       -0.000000020637 Rises=F Damp=F
 DIIS: error= 2.83D-06 at cycle  10 NSaved=  10.
 NSaved=10 IEnMin=10 EnMin= -936.898131184020     IErMin=10 ErrMin= 2.83D-06
 ErrMax= 2.83D-06  0.00D+00 EMaxC= 1.00D-01 BMatC= 2.25D-09 BMatP= 1.84D-08
 IDIUse=1 WtCom= 1.00D+00 WtEn= 0.00D+00
 Coeff-Com:  0.108D-04 0.398D-04 0.163D-03-0.496D-04-0.108D-02-0.115D-01
 Coeff-Com: -0.198D-01 0.357D-01 0.292D+00 0.704D+00
 Coeff:      0.108D-04 0.398D-04 0.163D-03-0.496D-04-0.108D-02-0.115D-01
 Coeff:     -0.198D-01 0.357D-01 0.292D+00 0.704D+00
 Gap=     0.284 Goal=   None    Shift=    0.000
 RMSDP=1.88D-06 MaxDP=1.94D-04 DE=-2.06D-08 OVMax= 1.92D-05

 Cycle  11  Pass 1  IDiag  1:
 RMSU=  1.02D-06    CP:  1.41D+00  1.97D-01  1.00D+00  6.87D-01  8.72D-01
                    CP:  1.10D+00  9.36D-01  8.83D-01  1.07D+00  9.86D-01
 E= -936.898131186629     Delta-E=       -0.000000002609 Rises=F Damp=F
 DIIS: error= 6.51D-07 at cycle  11 NSaved=  11.
 NSaved=11 IEnMin=11 EnMin= -936.898131186629     IErMin=11 ErrMin= 6.51D-07
 ErrMax= 6.51D-07  0.00D+00 EMaxC= 1.00D-01 BMatC= 9.71D-11 BMatP= 2.25D-09
 IDIUse=1 WtCom= 1.00D+00 WtEn= 0.00D+00
 Coeff-Com:  0.273D-06 0.361D-05 0.129D-03 0.182D-03 0.336D-03-0.129D-02
 Coeff-Com: -0.825D-02-0.172D-01 0.108D-01 0.168D+00 0.847D+00
 Coeff:      0.273D-06 0.361D-05 0.129D-03 0.182D-03 0.336D-03-0.129D-02
 Coeff:     -0.825D-02-0.172D-01 0.108D-01 0.168D+00 0.847D+00
 Gap=     0.284 Goal=   None    Shift=    0.000
 RMSDP=8.43D-07 MaxDP=1.03D-04 DE=-2.61D-09 OVMax= 4.82D-06

 Cycle  12  Pass 1  IDiag  1:
 RMSU=  2.52D-07    CP:  1.41D+00  1.97D-01  1.00D+00  6.87D-01  8.72D-01
                    CP:  1.10D+00  9.36D-01  8.80D-01  1.10D+00  1.06D+00
                    CP:  9.58D-01
 E= -936.898131186773     Delta-E=       -0.000000000144 Rises=F Damp=F
 DIIS: error= 2.54D-07 at cycle  12 NSaved=  12.
 NSaved=12 IEnMin=12 EnMin= -936.898131186773     IErMin=12 ErrMin= 2.54D-07
 ErrMax= 2.54D-07  0.00D+00 EMaxC= 1.00D-01 BMatC= 1.65D-11 BMatP= 9.71D-11
 IDIUse=1 WtCom= 1.00D+00 WtEn= 0.00D+00
 Coeff-Com: -0.686D-06-0.219D-05 0.390D-04 0.760D-04 0.222D-03 0.542D-03
 Coeff-Com: -0.128D-02-0.101D-01-0.225D-01 0.124D-02 0.337D+00 0.695D+00
 Coeff:     -0.686D-06-0.219D-05 0.390D-04 0.760D-04 0.222D-03 0.542D-03
 Coeff:     -0.128D-02-0.101D-01-0.225D-01 0.124D-02 0.337D+00 0.695D+00
 Gap=     0.284 Goal=   None    Shift=    0.000
 RMSDP=2.00D-07 MaxDP=1.67D-05 DE=-1.44D-10 OVMax= 1.96D-06

 Cycle  13  Pass 1  IDiag  1:
 RMSU=  6.88D-08    CP:  1.41D+00  1.97D-01  1.00D+00  6.87D-01  8.72D-01
                    CP:  1.10D+00  9.36D-01  8.80D-01  1.11D+00  1.07D+00
                    CP:  1.03D+00  9.66D-01
 E= -936.898131186769     Delta-E=        0.000000000004 Rises=F Damp=F
 DIIS: error= 6.56D-08 at cycle  13 NSaved=  13.
 NSaved=13 IEnMin=12 EnMin= -936.898131186773     IErMin=13 ErrMin= 6.56D-08
 ErrMax= 6.56D-08  0.00D+00 EMaxC= 1.00D-01 BMatC= 1.98D-12 BMatP= 1.65D-11
 IDIUse=1 WtCom= 1.00D+00 WtEn= 0.00D+00
 Coeff-Com: -0.284D-06-0.116D-05-0.340D-05 0.327D-05 0.371D-04 0.322D-03
 Coeff-Com:  0.806D-03-0.748D-03-0.911D-02-0.262D-01-0.197D-01 0.249D+00
 Coeff-Com:  0.806D+00
 Coeff:     -0.284D-06-0.116D-05-0.340D-05 0.327D-05 0.371D-04 0.322D-03
 Coeff:      0.806D-03-0.748D-03-0.911D-02-0.262D-01-0.197D-01 0.249D+00
 Coeff:      0.806D+00
 Gap=     0.284 Goal=   None    Shift=    0.000
 RMSDP=1.03D-07 MaxDP=7.13D-06 DE= 4.32D-12 OVMax= 8.36D-07

 Cycle  14  Pass 1  IDiag  1:
 RMSU=  2.98D-08    CP:  1.41D+00  1.97D-01  1.00D+00  6.87D-01  8.72D-01
                    CP:  1.10D+00  9.36D-01  8.79D-01  1.11D+00  1.08D+00
                    CP:  1.07D+00  1.02D+00  1.03D+00
 E= -936.898131186799     Delta-E=       -0.000000000030 Rises=F Damp=F
 DIIS: error= 1.64D-08 at cycle  14 NSaved=  14.
 NSaved=14 IEnMin=14 EnMin= -936.898131186799     IErMin=14 ErrMin= 1.64D-08
 ErrMax= 1.64D-08  0.00D+00 EMaxC= 1.00D-01 BMatC= 1.10D-13 BMatP= 1.98D-12
 IDIUse=1 WtCom= 1.00D+00 WtEn= 0.00D+00
 Coeff-Com: -0.279D-07-0.105D-06-0.420D-05-0.537D-05-0.855D-05 0.301D-04
 Coeff-Com:  0.291D-03 0.577D-03-0.481D-03-0.587D-02-0.293D-01 0.519D-02
 Coeff-Com:  0.198D+00 0.831D+00
 Coeff:     -0.279D-07-0.105D-06-0.420D-05-0.537D-05-0.855D-05 0.301D-04
 Coeff:      0.291D-03 0.577D-03-0.481D-03-0.587D-02-0.293D-01 0.519D-02
 Coeff:      0.198D+00 0.831D+00
 Gap=     0.284 Goal=   None    Shift=    0.000
 RMSDP=2.54D-08 MaxDP=1.59D-06 DE=-3.05D-11 OVMax= 2.27D-07

 Cycle  15  Pass 1  IDiag  1:
 RMSU=  1.23D-08    CP:  1.41D+00  1.97D-01  1.00D+00  6.87D-01  8.72D-01
                    CP:  1.10D+00  9.36D-01  8.79D-01  1.11D+00  1.07D+00
                    CP:  1.07D+00  1.06D+00  9.65D-01  1.12D+00
 E= -936.898131186776     Delta-E=        0.000000000023 Rises=F Damp=F
 DIIS: error= 1.01D-08 at cycle  15 NSaved=  15.
 NSaved=15 IEnMin=14 EnMin= -936.898131186799     IErMin=15 ErrMin= 1.01D-08
 ErrMax= 1.01D-08  0.00D+00 EMaxC= 1.00D-01 BMatC= 2.04D-14 BMatP= 1.10D-13
 IDIUse=1 WtCom= 1.00D+00 WtEn= 0.00D+00
 Coeff-Com:  0.743D-08 0.591D-07-0.116D-05-0.208D-05-0.614D-05-0.204D-04
 Coeff-Com:  0.227D-04 0.227D-03 0.620D-03 0.448D-03-0.870D-02-0.228D-01
 Coeff-Com: -0.976D-02 0.284D+00 0.756D+00
 Coeff:      0.743D-08 0.591D-07-0.116D-05-0.208D-05-0.614D-05-0.204D-04
 Coeff:      0.227D-04 0.227D-03 0.620D-03 0.448D-03-0.870D-02-0.228D-01
 Coeff:     -0.976D-02 0.284D+00 0.756D+00
 Gap=     0.284 Goal=   None    Shift=    0.000
 RMSDP=8.81D-09 MaxDP=6.83D-07 DE= 2.32D-11 OVMax= 9.67D-08

 SCF Done:  E(RM062X) =  -936.898131187     A.U. after   15 cycles
            NFock= 15  Conv=0.88D-08     -V/T= 2.0025
 KE= 9.345330238324D+02 PE=-4.075947081694D+03 EE= 1.257356437638D+03
 Leave Link  502 at Sun Oct 13 23:13:14 2019, MaxMem= 10737418240 cpu:             867.1 elap:              36.3
 (Enter /apps/cent7/gaussian/g16-A.03/g16-haswell/g16/l601.exe)
 Copying SCF densities to generalized density rwf, IOpCl= 0 IROHF=0.

 **********************************************************************

            Population analysis using the SCF density.

 **********************************************************************

 Orbital symmetries:
       Occupied  (A) (A) (A) (A) (A) (A) (A) (A) (A) (A) (A) (A)
                 (A) (A) (A) (A) (A) (A) (A) (A) (A) (A) (A) (A)
                 (A) (A) (A) (A) (A) (A) (A) (A) (A) (A) (A) (A)
                 (A) (A) (A) (A) (A) (A) (A) (A) (A) (A) (A) (A)
                 (A) (A) (A) (A) (A)
       Virtual   (A) (A) (A) (A) (A) (A) (A) (A) (A) (A) (A) (A)
                 (A) (A) (A) (A) (A) (A) (A) (A) (A) (A) (A) (A)
                 (A) (A) (A) (A) (A) (A) (A) (A) (A) (A) (A) (A)
                 (A) (A) (A) (A) (A) (A) (A) (A) (A) (A) (A) (A)
                 (A) (A) (A) (A) (A) (A) (A) (A) (A) (A) (A) (A)
                 (A) (A) (A) (A) (A) (A) (A) (A) (A) (A) (A) (A)
                 (A) (A) (A) (A) (A) (A) (A) (A) (A) (A) (A) (A)
                 (A) (A) (A) (A) (A) (A) (A) (A) (A) (A) (A) (A)
                 (A) (A) (A) (A) (A) (A) (A) (A) (A) (A) (A) (A)
                 (A) (A) (A) (A) (A) (A) (A) (A) (A) (A) (A) (A)
                 (A) (A) (A) (A) (A) (A) (A) (A) (A) (A) (A) (A)
                 (A) (A) (A) (A) (A) (A) (A) (A) (A) (A) (A) (A)
                 (A) (A) (A) (A) (A) (A) (A) (A) (A) (A) (A) (A)
                 (A) (A) (A) (A) (A) (A) (A) (A) (A) (A) (A) (A)
                 (A) (A) (A) (A) (A) (A) (A) (A) (A) (A) (A) (A)
                 (A) (A) (A) (A) (A) (A) (A) (A) (A) (A) (A) (A)
                 (A) (A) (A) (A) (A) (A) (A) (A) (A) (A) (A) (A)
                 (A) (A) (A) (A) (A) (A) (A) (A) (A) (A) (A) (A)
                 (A) (A) (A) (A) (A) (A) (A) (A) (A) (A) (A) (A)
                 (A) (A) (A) (A) (A) (A) (A) (A) (A) (A) (A) (A)
                 (A) (A) (A) (A) (A) (A) (A) (A) (A) (A) (A) (A)
                 (A) (A) (A) (A) (A) (A) (A) (A) (A) (A) (A) (A)
                 (A) (A) (A) (A) (A) (A) (A) (A) (A) (A) (A) (A)
                 (A) (A) (A) (A) (A) (A) (A) (A) (A) (A) (A) (A)
                 (A) (A) (A) (A) (A) (A) (A) (A) (A) (A) (A) (A)
                 (A) (A) (A) (A) (A) (A) (A) (A) (A) (A) (A) (A)
                 (A) (A) (A) (A) (A) (A) (A) (A) (A) (A) (A) (A)
                 (A) (A) (A) (A) (A) (A) (A) (A) (A) (A) (A) (A)
                 (A) (A)
 The electronic state is 1-A.
 Alpha  occ. eigenvalues --  -90.21104 -19.87754 -10.74764 -10.74343 -10.71480
 Alpha  occ. eigenvalues --  -10.71136 -10.70720 -10.70241 -10.69760 -10.69623
 Alpha  occ. eigenvalues --  -10.69229 -10.69013 -10.68839 -10.68562  -8.57013
 Alpha  occ. eigenvalues --   -6.49215  -6.48828  -6.48518  -1.44993  -1.14710
 Alpha  occ. eigenvalues --   -1.12279  -1.07576  -1.00818  -1.00450  -0.99738
 Alpha  occ. eigenvalues --   -0.97663  -0.87975  -0.85746  -0.84363  -0.84132
 Alpha  occ. eigenvalues --   -0.80435  -0.77197  -0.74916  -0.72070  -0.71144
 Alpha  occ. eigenvalues --   -0.68316  -0.67590  -0.67158  -0.66326  -0.64910
 Alpha  occ. eigenvalues --   -0.63967  -0.63141  -0.61781  -0.58992  -0.58117
 Alpha  occ. eigenvalues --   -0.56495  -0.55792  -0.55365  -0.53934  -0.46904
 Alpha  occ. eigenvalues --   -0.46612  -0.45615  -0.45340
 Alpha virt. eigenvalues --   -0.16908  -0.15198  -0.14346  -0.14059  -0.12047
 Alpha virt. eigenvalues --   -0.11146  -0.10086  -0.09817  -0.08872  -0.08510
 Alpha virt. eigenvalues --   -0.07947  -0.07268  -0.06786  -0.06252  -0.05698
 Alpha virt. eigenvalues --   -0.04802  -0.04327  -0.04043  -0.03952  -0.03163
 Alpha virt. eigenvalues --   -0.02100  -0.01669  -0.01239  -0.01121  -0.00877
 Alpha virt. eigenvalues --   -0.00322   0.00369   0.00885   0.01125   0.01313
 Alpha virt. eigenvalues --    0.02091   0.02545   0.02888   0.03062   0.03144
 Alpha virt. eigenvalues --    0.03783   0.04176   0.04245   0.04339   0.04499
 Alpha virt. eigenvalues --    0.04890   0.05172   0.05485   0.05727   0.06600
 Alpha virt. eigenvalues --    0.06670   0.06919   0.07168   0.07553   0.08078
 Alpha virt. eigenvalues --    0.08315   0.08601   0.08874   0.09280   0.09840
 Alpha virt. eigenvalues --    0.10367   0.10577   0.10843   0.11157   0.11892
 Alpha virt. eigenvalues --    0.12472   0.12512   0.12942   0.13137   0.14042
 Alpha virt. eigenvalues --    0.14395   0.15046   0.15361   0.15573   0.16643
 Alpha virt. eigenvalues --    0.17006   0.17525   0.17606   0.17927   0.18558
 Alpha virt. eigenvalues --    0.18656   0.19578   0.20247   0.20464   0.20677
 Alpha virt. eigenvalues --    0.20718   0.21332   0.23178   0.24493   0.24642
 Alpha virt. eigenvalues --    0.25549   0.25605   0.25894   0.26600   0.26638
 Alpha virt. eigenvalues --    0.27013   0.27614   0.29998   0.32374   0.32623
 Alpha virt. eigenvalues --    0.34655   0.36305   0.37701   0.40304   0.41311
 Alpha virt. eigenvalues --    0.42237   0.42904   0.44201   0.45040   0.45382
 Alpha virt. eigenvalues --    0.45700   0.46230   0.46640   0.46860   0.47345
 Alpha virt. eigenvalues --    0.48158   0.48609   0.48988   0.49679   0.50656
 Alpha virt. eigenvalues --    0.51200   0.52411   0.52558   0.53754   0.54467
 Alpha virt. eigenvalues --    0.56340   0.56494   0.57859   0.59111   0.59778
 Alpha virt. eigenvalues --    0.61019   0.61472   0.62954   0.63073   0.63605
 Alpha virt. eigenvalues --    0.64034   0.64383   0.65598   0.65909   0.67132
 Alpha virt. eigenvalues --    0.67966   0.69930   0.72107   0.73121   0.74206
 Alpha virt. eigenvalues --    0.74280   0.76224   0.76355   0.76677   0.77116
 Alpha virt. eigenvalues --    0.78404   0.79004   0.79218   0.79765   0.79946
 Alpha virt. eigenvalues --    0.81592   0.82696   0.83063   0.83800   0.84640
 Alpha virt. eigenvalues --    0.85702   0.88814   0.89505   0.90969   0.92062
 Alpha virt. eigenvalues --    0.92704   0.93798   0.94228   0.95927   0.97333
 Alpha virt. eigenvalues --    0.98666   0.99564   0.99745   1.02170   1.02755
 Alpha virt. eigenvalues --    1.03444   1.04276   1.06360   1.07200   1.08213
 Alpha virt. eigenvalues --    1.11290   1.16955   1.19648   1.22476   1.24232
 Alpha virt. eigenvalues --    1.27131   1.29125   1.33237   1.34970   1.40952
 Alpha virt. eigenvalues --    1.41382   1.41857   1.42784   1.43581   1.44523
 Alpha virt. eigenvalues --    1.44871   1.46244   1.47813   1.47964   1.48572
 Alpha virt. eigenvalues --    1.48781   1.51366   1.51490   1.54189   1.54679
 Alpha virt. eigenvalues --    1.55530   1.57059   1.57544   1.59752   1.60977
 Alpha virt. eigenvalues --    1.63065   1.64339   1.64913   1.65679   1.66934
 Alpha virt. eigenvalues --    1.67615   1.72575   1.73837   1.76152   1.77661
 Alpha virt. eigenvalues --    1.79627   1.80821   1.81159   1.81363   1.81977
 Alpha virt. eigenvalues --    1.83090   1.83481   1.84401   1.84798   1.85787
 Alpha virt. eigenvalues --    1.86808   1.87544   1.88455   1.89853   1.91251
 Alpha virt. eigenvalues --    1.91777   1.92820   1.94101   1.94650   1.95405
 Alpha virt. eigenvalues --    1.98134   1.98741   2.00436   2.07525   2.17708
 Alpha virt. eigenvalues --    2.18989   2.20733   2.21724   2.23008   2.24340
 Alpha virt. eigenvalues --    2.30492   2.31971   2.34054   2.36329   2.37363
 Alpha virt. eigenvalues --    2.39225   2.40294   2.41236   2.42272   2.50571
 Alpha virt. eigenvalues --    2.50757   2.52056   2.55084   2.58609   2.58679
 Alpha virt. eigenvalues --    2.59447   2.59884   2.60693   2.60963   2.62440
 Alpha virt. eigenvalues --    2.62797   2.63245   2.64261   2.65668   2.66721
 Alpha virt. eigenvalues --    2.69961   2.71906   2.72390   2.72627   2.73593
 Alpha virt. eigenvalues --    2.74127   2.75290   2.76308   2.79169   2.81742
 Alpha virt. eigenvalues --    2.82037   2.82463   2.84576   2.85431   2.86035
 Alpha virt. eigenvalues --    2.92404   2.95714   3.00312   3.01177   3.07976
 Alpha virt. eigenvalues --    3.09147   3.12259   3.15172   3.24475   3.28048
 Alpha virt. eigenvalues --    3.28683   3.30697   3.31965   3.39422   3.42489
 Alpha virt. eigenvalues --    3.43880   3.45317   3.52565   3.53392   3.66918
 Alpha virt. eigenvalues --    3.68373   3.69318   3.89268   3.90373   3.95390
 Alpha virt. eigenvalues --    3.96238   4.03662   4.04008   4.04872   4.05371
 Alpha virt. eigenvalues --    4.71185   4.71944   4.98182   5.03747   5.42487
 Alpha virt. eigenvalues --    8.07359  17.45642  17.48641  17.52238  23.51265
 Alpha virt. eigenvalues --   23.52084  23.87592  23.89024  23.90532  23.91407
 Alpha virt. eigenvalues --   24.00868  24.01732  24.02504  24.03349  24.12288
 Alpha virt. eigenvalues --   24.13096  49.80428 189.37221
          Condensed to atoms (all electrons):
               1          2          3          4          5          6
     1  O    7.834904   0.110644   0.442282   0.214148  -0.026244   0.014058
     2  S    0.110644  23.651107  -2.547900   5.064396   0.072803  -0.424471
     3  C    0.442282  -2.547900  24.699022 -10.408270  -1.788594  -0.171735
     4  C    0.214148   5.064396 -10.408270  32.673106  -0.525403  -1.782380
     5  C   -0.026244   0.072803  -1.788594  -0.525403   6.740406   0.254408
     6  C    0.014058  -0.424471  -0.171735  -1.782380   0.254408   6.862256
     7  C   -0.026253  -0.431947  -2.462590   3.053272  -0.227554  -0.053971
     8  C   -0.564277  -5.789562   0.617266 -21.903323   1.577877   0.860051
     9  C   -0.110973  -1.874224  -5.270448   1.842539   0.384972   0.142722
    10  C    0.152630  -0.745148   3.215541  -2.630311  -0.337244   0.083545
    11  C   -0.036448  -0.358915   0.990063  -1.184749  -0.017279   0.013299
    12  C    0.012404  -0.380919   0.275245  -0.266452  -0.004314  -0.024832
    13  C    0.077067  -0.388322   0.506945   0.075765  -0.054363   0.025267
    14  C   -0.133281  -0.267545  -1.395525   1.698892   0.117887   0.014564
    15  H    0.004713   0.090576  -0.281216   0.809725  -0.070496  -0.025716
    16  H   -0.000766   0.011303   0.006015  -0.069411   0.407731  -0.058675
    17  H    0.000699  -0.026065   0.064829  -0.062171  -0.077805   0.503682
    18  H   -0.000721   0.040881   0.089469   0.190580  -0.021318  -0.098564
    19  H   -0.022638  -0.163507  -0.145893  -0.433527   0.043395   0.032309
    20  H    0.007791   0.064024  -0.031330   0.075659  -0.013205   0.006780
    21  H   -0.000656   0.010850  -0.020964   0.009516   0.003481   0.002185
    22  H    0.000217  -0.023782   0.003401  -0.004966  -0.000665  -0.000224
    23  H   -0.000013   0.030531  -0.003218   0.007777   0.000182   0.000367
    24  H    0.055786  -0.287997   0.034058   0.108432  -0.009516   0.010157
    25  H    0.198767  -0.193798  -0.176819  -0.231835   0.000862   0.005793
               7          8          9         10         11         12
     1  O   -0.026253  -0.564277  -0.110973   0.152630  -0.036448   0.012404
     2  S   -0.431947  -5.789562  -1.874224  -0.745148  -0.358915  -0.380919
     3  C   -2.462590   0.617266  -5.270448   3.215541   0.990063   0.275245
     4  C    3.053272 -21.903323   1.842539  -2.630311  -1.184749  -0.266452
     5  C   -0.227554   1.577877   0.384972  -0.337244  -0.017279  -0.004314
     6  C   -0.053971   0.860051   0.142722   0.083545   0.013299  -0.024832
     7  C    7.966347  -2.045716   0.447446  -0.655809   0.005129   0.033396
     8  C   -2.045716  30.710637   0.374016   1.676659   0.715655   0.240216
     9  C    0.447446   0.374016  20.508142  -7.407385  -1.497876  -0.135232
    10  C   -0.655809   1.676659  -7.407385  25.448766  -0.879221  -0.737818
    11  C    0.005129   0.715655  -1.497876  -0.879221   7.529624   0.407268
    12  C    0.033396   0.240216  -0.135232  -0.737818   0.407268   6.918132
    13  C   -0.127946  -0.316005  -2.434930   2.619159  -0.610800   0.370826
    14  C    0.570158  -1.385415   0.981972 -14.664076   1.196291  -0.936231
    15  H    0.054837  -0.243426  -0.020868   0.005563  -0.004427   0.002817
    16  H    0.008521   0.037043  -0.011976  -0.001383   0.002134   0.002239
    17  H   -0.093542   0.019397   0.001803   0.003760   0.000646  -0.000185
    18  H    0.445241  -0.292997  -0.012957  -0.015075  -0.001825   0.000731
    19  H   -0.178133   1.105617   0.041361   0.154998   0.012833   0.003742
    20  H   -0.018158  -0.046606  -0.217840   0.768264  -0.150533  -0.029123
    21  H    0.000559  -0.006844   0.038879  -0.130792   0.408973  -0.055274
    22  H    0.001182   0.006651   0.043789   0.016536  -0.077529   0.498316
    23  H   -0.004860  -0.016164   0.023763   0.062293  -0.008540  -0.071083
    24  H    0.034551  -0.124461  -0.170614  -0.176839  -0.002117   0.078686
    25  H    0.004911   0.437642   0.205880   0.172708   0.010356   0.002065
              13         14         15         16         17         18
     1  O    0.077067  -0.133281   0.004713  -0.000766   0.000699  -0.000721
     2  S   -0.388322  -0.267545   0.090576   0.011303  -0.026065   0.040881
     3  C    0.506945  -1.395525  -0.281216   0.006015   0.064829   0.089469
     4  C    0.075765   1.698892   0.809725  -0.069411  -0.062171   0.190580
     5  C   -0.054363   0.117887  -0.070496   0.407731  -0.077805  -0.021318
     6  C    0.025267   0.014564  -0.025716  -0.058675   0.503682  -0.098564
     7  C   -0.127946   0.570158   0.054837   0.008521  -0.093542   0.445241
     8  C   -0.316005  -1.385415  -0.243426   0.037043   0.019397  -0.292997
     9  C   -2.434930   0.981972  -0.020868  -0.011976   0.001803  -0.012957
    10  C    2.619159 -14.664076   0.005563  -0.001383   0.003760  -0.015075
    11  C   -0.610800   1.196291  -0.004427   0.002134   0.000646  -0.001825
    12  C    0.370826  -0.936231   0.002817   0.002239  -0.000185   0.000731
    13  C    8.777342  -2.597776  -0.012982  -0.000765   0.001520  -0.000740
    14  C   -2.597776  22.993806   0.001662  -0.002544  -0.000071   0.014189
    15  H   -0.012982   0.001662   0.521999  -0.012758  -0.000359   0.001531
    16  H   -0.000765  -0.002544  -0.012758   0.436459  -0.012445   0.001344
    17  H    0.001520  -0.000071  -0.000359  -0.012445   0.450308  -0.012819
    18  H   -0.000740   0.014189   0.001531   0.001344  -0.012819   0.441632
    19  H   -0.006970  -0.197087  -0.003389   0.000904   0.001835  -0.020660
    20  H    0.066792  -0.183253   0.004614  -0.000659   0.000132  -0.000195
    21  H   -0.000634   0.072547  -0.000226  -0.000255   0.000014  -0.000016
    22  H   -0.068305  -0.062790  -0.000032   0.000016   0.000014  -0.000012
    23  H    0.402849  -0.087293  -0.000170  -0.000031  -0.000021  -0.000070
    24  H    0.059299   0.663349   0.001368  -0.000466   0.000600  -0.000143
    25  H   -0.010774  -0.255083  -0.002142   0.000053   0.000019  -0.001463
              19         20         21         22         23         24
     1  O   -0.022638   0.007791  -0.000656   0.000217  -0.000013   0.055786
     2  S   -0.163507   0.064024   0.010850  -0.023782   0.030531  -0.287997
     3  C   -0.145893  -0.031330  -0.020964   0.003401  -0.003218   0.034058
     4  C   -0.433527   0.075659   0.009516  -0.004966   0.007777   0.108432
     5  C    0.043395  -0.013205   0.003481  -0.000665   0.000182  -0.009516
     6  C    0.032309   0.006780   0.002185  -0.000224   0.000367   0.010157
     7  C   -0.178133  -0.018158   0.000559   0.001182  -0.004860   0.034551
     8  C    1.105617  -0.046606  -0.006844   0.006651  -0.016164  -0.124461
     9  C    0.041361  -0.217840   0.038879   0.043789   0.023763  -0.170614
    10  C    0.154998   0.768264  -0.130792   0.016536   0.062293  -0.176839
    11  C    0.012833  -0.150533   0.408973  -0.077529  -0.008540  -0.002117
    12  C    0.003742  -0.029123  -0.055274   0.498316  -0.071083   0.078686
    13  C   -0.006970   0.066792  -0.000634  -0.068305   0.402849   0.059299
    14  C   -0.197087  -0.183253   0.072547  -0.062790  -0.087293   0.663349
    15  H   -0.003389   0.004614  -0.000226  -0.000032  -0.000170   0.001368
    16  H    0.000904  -0.000659  -0.000255   0.000016  -0.000031  -0.000466
    17  H    0.001835   0.000132   0.000014   0.000014  -0.000021   0.000600
    18  H   -0.020660  -0.000195  -0.000016  -0.000012  -0.000070  -0.000143
    19  H    0.499295   0.000546  -0.000290   0.000187  -0.000385  -0.015722
    20  H    0.000546   0.514285  -0.014053   0.000691   0.000823  -0.000223
    21  H   -0.000290  -0.014053   0.433519  -0.012518   0.001581  -0.000541
    22  H    0.000187   0.000691  -0.012518   0.448282  -0.012418   0.004763
    23  H   -0.000385   0.000823   0.001581  -0.012418   0.437123  -0.026370
    24  H   -0.015722  -0.000223  -0.000541   0.004763  -0.026370   0.662101
    25  H    0.024473   0.000422  -0.000183   0.000104   0.000162  -0.015972
              25
     1  O    0.198767
     2  S   -0.193798
     3  C   -0.176819
     4  C   -0.231835
     5  C    0.000862
     6  C    0.005793
     7  C    0.004911
     8  C    0.437642
     9  C    0.205880
    10  C    0.172708
    11  C    0.010356
    12  C    0.002065
    13  C   -0.010774
    14  C   -0.255083
    15  H   -0.002142
    16  H    0.000053
    17  H    0.000019
    18  H   -0.001463
    19  H    0.024473
    20  H    0.000422
    21  H   -0.000183
    22  H    0.000104
    23  H    0.000162
    24  H   -0.015972
    25  H    0.475391
 Mulliken charges:
               1
     1  O   -0.203840
     2  S    0.756989
     3  C   -0.239634
     4  C   -0.321008
     5  C   -0.430002
     6  C   -0.190874
     7  C   -0.299071
     8  C    0.356068
     9  C    0.128037
    10  C    0.000677
    11  C   -0.462010
    12  C   -0.204618
    13  C   -0.351521
    14  C   -0.157346
    15  H    0.178802
    16  H    0.258375
    17  H    0.236227
    18  H    0.253977
    19  H    0.266705
    20  H    0.194356
    21  H    0.261142
    22  H    0.239094
    23  H    0.263184
    24  H    0.117830
    25  H    0.348463
 Sum of Mulliken charges =   1.00000
 Mulliken charges with hydrogens summed into heavy atoms:
               1
     1  O    0.144623
     2  S    0.756989
     3  C   -0.239634
     4  C   -0.142207
     5  C   -0.171627
     6  C    0.045353
     7  C   -0.045094
     8  C    0.622773
     9  C    0.128037
    10  C    0.195033
    11  C   -0.200869
    12  C    0.034476
    13  C   -0.088337
    14  C   -0.039516
 Electronic spatial extent (au):  <R**2>=           3061.1146
 Charge=              1.0000 electrons
 Dipole moment (field-independent basis, Debye):
    X=             -1.4816    Y=              1.1399    Z=              0.0534  Tot=              1.8701
 Quadrupole moment (field-independent basis, Debye-Ang):
   XX=            -55.4565   YY=            -65.7517   ZZ=            -76.5980
   XY=             -4.4117   XZ=             -0.2086   YZ=              5.4575
 Traceless Quadrupole moment (field-independent basis, Debye-Ang):
   XX=             10.4789   YY=              0.1836   ZZ=            -10.6626
   XY=             -4.4117   XZ=             -0.2086   YZ=              5.4575
 Octapole moment (field-independent basis, Debye-Ang**2):
  XXX=             -0.4408  YYY=             30.1180  ZZZ=              1.0746  XYY=            -17.3486
  XXY=            -45.9607  XXZ=             45.8053  XZZ=             -0.2753  YZZ=              4.2070
  YYZ=             -7.0652  XYZ=              0.2625
 Hexadecapole moment (field-independent basis, Debye-Ang**3):
 XXXX=          -2390.0522 YYYY=           -740.6218 ZZZZ=           -500.6139 XXXY=             -2.0641
 XXXZ=              0.2031 YYYX=            -48.4393 YYYZ=             25.9433 ZZZX=             -0.7427
 ZZZY=             18.6178 XXYY=           -464.8404 XXZZ=           -456.4550 YYZZ=           -213.0011
 XXYZ=             -0.8490 YYXZ=             -0.6855 ZZXY=              0.8225
 N-N= 9.471594890370D+02 E-N=-4.075947081069D+03  KE= 9.345330238324D+02
 No NMR shielding tensors so no spin-rotation constants.
 Leave Link  601 at Sun Oct 13 23:13:14 2019, MaxMem= 10737418240 cpu:               5.5 elap:               0.3
 (Enter /apps/cent7/gaussian/g16-A.03/g16-haswell/g16/l701.exe)
 ... and contract with generalized density number  0.
 Compute integral first derivatives.
 Leave Link  701 at Sun Oct 13 23:13:14 2019, MaxMem= 10737418240 cpu:               4.9 elap:               0.2
 (Enter /apps/cent7/gaussian/g16-A.03/g16-haswell/g16/l702.exe)
 L702 exits ... SP integral derivatives will be done elsewhere.
 Leave Link  702 at Sun Oct 13 23:13:14 2019, MaxMem= 10737418240 cpu:               0.9 elap:               0.1
 (Enter /apps/cent7/gaussian/g16-A.03/g16-haswell/g16/l703.exe)
 Integral derivatives from FoFJK, PRISM(SPDF).
 Compute integral first derivatives, UseDBF=F ICtDFT=           0.
 Calling FoFJK, ICntrl=      2127 FMM=F ISym2X=0 I1Cent= 0 IOpClX= 0 NMat=1 NMatS=1 NMatT=0.
 FoFJK:  IHMeth= 1 ICntrl=    2127 DoSepK=F KAlg= 0 I1Cent=           0 FoldK=F
 IRaf=         0 NMat=       1 IRICut=       1 DoRegI=T DoRafI=F ISym2E= 0 IDoP0=0 IntGTp=1.
 FoFCou: FMM=F IPFlag=           0 FMFlag=      100000 FMFlg1=         800
         NFxFlg=           0 DoJE=F BraDBF=F KetDBF=F FulRan=T
         wScrn=  0.000000 ICntrl=      2127 IOpCl=  0 I1Cent=           0 NGrid=           0
         NMat0=    1 NMatS0=      1 NMatT0=    0 NMatD0=    1 NMtDS0=    0 NMtDT0=    0
 Symmetry not used in FoFCou.
 Leave Link  703 at Sun Oct 13 23:13:21 2019, MaxMem= 10737418240 cpu:             151.6 elap:               6.4
 (Enter /apps/cent7/gaussian/g16-A.03/g16-haswell/g16/l716.exe)
 Dipole        =-5.82903815D-01 4.48453303D-01 2.10284388D-02
 ***** Axes restored to original set *****
 -------------------------------------------------------------------
 Center     Atomic                   Forces (Hartrees/Bohr)
 Number     Number              X              Y              Z
 -------------------------------------------------------------------
      1        8          -0.018729356    0.064178854   -0.049060016
      2       16           0.007580682   -0.097442274    0.058054328
      3        6          -0.010197613    0.013278557   -0.010747342
      4        6           0.006943896    0.001388099    0.009495904
      5        6           0.001107172    0.001735665   -0.001906397
      6        6           0.001059260    0.001080339    0.000216527
      7        6          -0.000190693   -0.000118974   -0.000828098
      8        6           0.002620943    0.003132724   -0.001156369
      9        6           0.007818401    0.007932196   -0.003164886
     10        6          -0.005001439    0.000406310    0.006696923
     11        6          -0.001121249    0.001518776   -0.001474362
     12        6          -0.001322516    0.001014850    0.000239817
     13        6           0.000982619    0.001287340   -0.001921496
     14        6          -0.001642908    0.001205980    0.002213570
     15        1          -0.001182842   -0.000857404    0.000367089
     16        1           0.001062731    0.000737492    0.000497640
     17        1           0.000254689    0.000372147    0.000159135
     18        1           0.000612963    0.000385464    0.000507124
     19        1          -0.003377760   -0.001100304   -0.002981425
     20        1           0.000943225   -0.000611100    0.000067827
     21        1          -0.000766395    0.000686710    0.000389293
     22        1          -0.000348509    0.000511476   -0.000046708
     23        1          -0.000530711    0.000236177    0.000391511
     24        1           0.003991186   -0.003300300   -0.007686228
     25        1           0.009434223    0.002341201    0.001676636
 -------------------------------------------------------------------
 Cartesian Forces:  Max     0.097442274 RMS     0.016655634
 Leave Link  716 at Sun Oct 13 23:13:21 2019, MaxMem= 10737418240 cpu:               0.6 elap:               0.0
 (Enter /apps/cent7/gaussian/g16-A.03/g16-haswell/g16/l103.exe)

 GradGradGradGradGradGradGradGradGradGradGradGradGradGradGradGradGradGrad
 Berny optimization.
 FormGI is forming the generalized inverse of G from B-inverse, IUseBI=4.
 GSVD:  received Info=                   1 from GESDD.
 Internal  Forces:  Max     0.081433472 RMS     0.008427641
 Search for a local minimum.
 Step number   1 out of a maximum of  134
 All quantities printed in internal units (Hartrees-Bohrs-Radians)
 RMS Force = .84276D-02 SwitMx=.10000D-02 MixMth= 1
 Mixed Optimization -- RFO/linear search
 Second derivative matrix not updated -- first step.
 ITU=  0
     Eigenvalues ---    0.00230   0.00230   0.01651   0.01651   0.02193
     Eigenvalues ---    0.02193   0.02197   0.02197   0.02200   0.02200
     Eigenvalues ---    0.02204   0.02204   0.02213   0.02213   0.02225
     Eigenvalues ---    0.02225   0.02232   0.02232   0.02251   0.02251
     Eigenvalues ---    0.03871   0.08291   0.14663   0.15998   0.15998
     Eigenvalues ---    0.15999   0.15999   0.15999   0.15999   0.16000
     Eigenvalues ---    0.16000   0.16000   0.16000   0.16000   0.20010
     Eigenvalues ---    0.21998   0.21998   0.22000   0.22000   0.23495
     Eigenvalues ---    0.23495   0.24985   0.24985   0.25006   0.25007
     Eigenvalues ---    0.35420   0.35420   0.35455   0.35455   0.35579
     Eigenvalues ---    0.35579   0.35586   0.35586   0.35595   0.35595
     Eigenvalues ---    0.42761   0.42761   0.42911   0.42911   0.46972
     Eigenvalues ---    0.46972   0.47167   0.47167   0.47286   0.47286
     Eigenvalues ---    0.47740   0.47740   0.55473   0.74934
 RFO step:  Lambda=-2.03896841D-02 EMin= 2.30000000D-03
 Linear search not attempted -- first point.
 Iteration  1 RMS(Cart)=  0.11144995 RMS(Int)=  0.00379354
 Iteration  2 RMS(Cart)=  0.00893533 RMS(Int)=  0.00034289
 Iteration  3 RMS(Cart)=  0.00004323 RMS(Int)=  0.00034242
 Iteration  4 RMS(Cart)=  0.00000004 RMS(Int)=  0.00034242
 ITry= 1 IFail=0 DXMaxC= 3.99D-01 DCOld= 1.00D+10 DXMaxT= 3.00D-01 DXLimC= 3.00D+00 Rises=F
 Variable       Old X    -DE/DX   Delta X   Delta X   Delta X     New X
                                 (Linear)    (Quad)   (Total)
    R1        2.84468   0.08143   0.00000   0.10579   0.10579   2.95048
    R2        1.81414   0.00873   0.00000   0.01518   0.01518   1.82931
    R3        3.42892  -0.00763   0.00000  -0.02822  -0.02822   3.40070
    R4        3.42892  -0.00211   0.00000  -0.00778  -0.00778   3.42114
    R5        2.62529  -0.00188   0.00000  -0.00361  -0.00360   2.62169
    R6        2.61937   0.00328   0.00000   0.00690   0.00691   2.62628
    R7        2.62710  -0.00247   0.00000  -0.00516  -0.00517   2.62193
    R8        2.04998   0.00004   0.00000   0.00010   0.00010   2.05008
    R9        2.63167   0.00089   0.00000   0.00148   0.00147   2.63313
   R10        2.04719  -0.00072   0.00000  -0.00191  -0.00191   2.04528
   R11        2.62950  -0.00048   0.00000  -0.00116  -0.00117   2.62833
   R12        2.04734  -0.00045   0.00000  -0.00120  -0.00120   2.04614
   R13        2.63010  -0.00216   0.00000  -0.00427  -0.00426   2.62583
   R14        2.04745  -0.00058   0.00000  -0.00154  -0.00154   2.04591
   R15        2.04943  -0.00076   0.00000  -0.00202  -0.00202   2.04741
   R16        2.62529  -0.00099   0.00000  -0.00168  -0.00168   2.62361
   R17        2.61936   0.00625   0.00000   0.01299   0.01302   2.63239
   R18        2.62710  -0.00216   0.00000  -0.00457  -0.00459   2.62251
   R19        2.04998  -0.00018   0.00000  -0.00049  -0.00049   2.04949
   R20        2.63167   0.00022   0.00000  -0.00005  -0.00008   2.63158
   R21        2.04719  -0.00063   0.00000  -0.00168  -0.00168   2.04551
   R22        2.62950  -0.00148   0.00000  -0.00333  -0.00334   2.62616
   R23        2.04734  -0.00052   0.00000  -0.00137  -0.00137   2.04597
   R24        2.63010  -0.00204   0.00000  -0.00398  -0.00395   2.62614
   R25        2.04746  -0.00049   0.00000  -0.00131  -0.00131   2.04614
   R26        2.04943  -0.00089   0.00000  -0.00239  -0.00239   2.04704
    A1        2.09440  -0.00681   0.00000  -0.03774  -0.03774   2.05666
    A2        1.84693  -0.01772   0.00000  -0.10540  -0.10508   1.74185
    A3        1.84692  -0.00177   0.00000  -0.00988  -0.00773   1.83919
    A4        1.68430   0.01612   0.00000   0.06363   0.06347   1.74777
    A5        2.09709  -0.01474   0.00000  -0.05514  -0.05517   2.04191
    A6        2.05783   0.00849   0.00000   0.03080   0.03078   2.08861
    A7        2.12771   0.00626   0.00000   0.02462   0.02464   2.15235
    A8        2.07523  -0.00503   0.00000  -0.02035  -0.02034   2.05490
    A9        2.10574   0.00397   0.00000   0.01828   0.01827   2.12402
   A10        2.10218   0.00105   0.00000   0.00209   0.00208   2.10426
   A11        2.09418   0.00146   0.00000   0.00551   0.00549   2.09967
   A12        2.09189  -0.00193   0.00000  -0.00943  -0.00942   2.08247
   A13        2.09705   0.00047   0.00000   0.00389   0.00390   2.10095
   A14        2.09903   0.00182   0.00000   0.00697   0.00694   2.10598
   A15        2.09112  -0.00079   0.00000  -0.00281  -0.00280   2.08832
   A16        2.09298  -0.00103   0.00000  -0.00417  -0.00415   2.08883
   A17        2.09857  -0.00082   0.00000  -0.00303  -0.00304   2.09553
   A18        2.09515   0.00110   0.00000   0.00533   0.00533   2.10049
   A19        2.08945  -0.00028   0.00000  -0.00230  -0.00230   2.08716
   A20        2.07132  -0.00369   0.00000  -0.01387  -0.01385   2.05747
   A21        2.07716   0.00652   0.00000   0.03287   0.03286   2.11002
   A22        2.13462  -0.00283   0.00000  -0.01895  -0.01896   2.11566
   A23        2.09709  -0.01476   0.00000  -0.05525  -0.05537   2.04171
   A24        2.05783   0.01286   0.00000   0.04697   0.04686   2.10468
   A25        2.12771   0.00193   0.00000   0.00903   0.00902   2.13673
   A26        2.07523  -0.00270   0.00000  -0.01080  -0.01079   2.06444
   A27        2.10574   0.00245   0.00000   0.01148   0.01148   2.11722
   A28        2.10217   0.00025   0.00000  -0.00071  -0.00072   2.10146
   A29        2.09418   0.00161   0.00000   0.00541   0.00539   2.09957
   A30        2.09189  -0.00171   0.00000  -0.00773  -0.00772   2.08417
   A31        2.09705   0.00010   0.00000   0.00230   0.00230   2.09936
   A32        2.09903   0.00150   0.00000   0.00471   0.00471   2.10374
   A33        2.09112  -0.00038   0.00000  -0.00029  -0.00030   2.09083
   A34        2.09298  -0.00111   0.00000  -0.00436  -0.00437   2.08861
   A35        2.09857  -0.00074   0.00000  -0.00318  -0.00313   2.09543
   A36        2.09516   0.00089   0.00000   0.00451   0.00447   2.09962
   A37        2.08945  -0.00015   0.00000  -0.00128  -0.00133   2.08812
   A38        2.07132  -0.00158   0.00000  -0.00490  -0.00499   2.06633
   A39        2.07716   0.00957   0.00000   0.05130   0.05106   2.12822
   A40        2.13462  -0.00798   0.00000  -0.04598  -0.04619   2.08843
    D1       -2.45823  -0.00754   0.00000  -0.05029  -0.05092  -2.50915
    D2       -0.68336   0.00335   0.00000  -0.02066  -0.02003  -0.70339
    D3       -2.95772   0.00094   0.00000   0.04617   0.04515  -2.91257
    D4        0.14868   0.00139   0.00000   0.05582   0.05463   0.20331
    D5        1.43157   0.00119   0.00000   0.05788   0.05907   1.49064
    D6       -1.74522   0.00164   0.00000   0.06753   0.06855  -1.67667
    D7        2.95773   0.00425   0.00000  -0.07760  -0.07763   2.88011
    D8       -0.14866   0.00334   0.00000  -0.10145  -0.10144  -0.25010
    D9       -1.43156  -0.00951   0.00000  -0.17014  -0.17016  -1.60172
   D10        1.74523  -0.01041   0.00000  -0.19400  -0.19397   1.55127
   D11        3.13294   0.00084   0.00000   0.01727   0.01709  -3.13315
   D12        0.00020   0.00070   0.00000   0.01426   0.01412   0.01432
   D13        0.02799   0.00034   0.00000   0.00718   0.00719   0.03518
   D14       -3.10475   0.00020   0.00000   0.00417   0.00422  -3.10053
   D15       -3.13009  -0.00028   0.00000  -0.01229  -0.01257   3.14052
   D16       -0.00189  -0.00018   0.00000  -0.00835  -0.00853  -0.01042
   D17       -0.02435  -0.00026   0.00000  -0.00415  -0.00414  -0.02849
   D18        3.10385  -0.00016   0.00000  -0.00021  -0.00010   3.10375
   D19       -0.01328  -0.00021   0.00000  -0.00608  -0.00606  -0.01933
   D20        3.13987  -0.00011   0.00000  -0.00277  -0.00272   3.13714
   D21        3.11949  -0.00005   0.00000  -0.00299  -0.00304   3.11645
   D22       -0.01056   0.00004   0.00000   0.00032   0.00029  -0.01027
   D23       -0.00424   0.00011   0.00000   0.00256   0.00262  -0.00161
   D24       -3.13501   0.00013   0.00000   0.00360   0.00364  -3.13137
   D25        3.12577  -0.00001   0.00000  -0.00085  -0.00083   3.12494
   D26       -0.00500   0.00002   0.00000   0.00019   0.00018  -0.00481
   D27        0.00790  -0.00000   0.00000   0.00063   0.00066   0.00856
   D28       -3.12792   0.00001   0.00000   0.00043   0.00040  -3.12752
   D29        3.13866  -0.00003   0.00000  -0.00040  -0.00035   3.13831
   D30        0.00284  -0.00002   0.00000  -0.00060  -0.00061   0.00223
   D31        0.00609   0.00001   0.00000  -0.00014  -0.00023   0.00585
   D32       -3.12165  -0.00017   0.00000  -0.00464  -0.00470  -3.12636
   D33       -3.14126  -0.00000   0.00000   0.00008   0.00005  -3.14121
   D34        0.01419  -0.00018   0.00000  -0.00441  -0.00442   0.00977
   D35       -3.13294  -0.00074   0.00000  -0.01506  -0.01478   3.13547
   D36       -0.00020  -0.00086   0.00000  -0.01847  -0.01814  -0.01833
   D37       -0.02799   0.00041   0.00000   0.01048   0.01025  -0.01774
   D38        3.10475   0.00029   0.00000   0.00707   0.00689   3.11165
   D39        3.13009   0.00016   0.00000   0.01107   0.01196  -3.14114
[...]
 0.00860047,-0.00154957,0.00406819,0.00375440,0.00012620,0.00000925,0.0
 0015007,0.00005003,-0.00002252,-0.00005215,0.00001427,-0.00001272,0.00
 001650,0.00000548,-0.00000235,0.00000065,-0.00000334,0.00000568,0.0000
 0526,0.00000219,-0.00002014,0.00000029,-0.00069847,-0.00057268,-0.0005
 5448,0.00200455,-0.00136740,-0.00128681,0.13225042,0.04376832,0.118240
 81,0.00019128,-0.00014237,0.00022451,-0.00065490,0.00006046,-0.0014133
 9,-0.00012547,-0.00328795,-0.00426124,-0.00089294,-0.00043479,0.000628
 11,0.00225496,-0.00462655,-0.00183296,0.00965459,-0.00763141,0.0095466
 5,-0.10332924,0.06118439,-0.09696702,-0.00659503,0.01328235,-0.0183546
 1,0.00010511,0.00000633,-0.00005767,-0.00001731,0.00002341,0.00009352,
 -0.00001179,0.00002039,0.00001832,-0.00000892,0.00000312,0.00000237,-0
 .00001047,-0.00000335,0.00002353,-0.00008235,0.00003559,-0.00006537,-0
 .00031454,0.00033619,0.00040395,0.00020754,-0.00029558,0.00061850,-0.0
 0113340,0.00147649,0.00172346,0.10176198,0.00014104,-0.00010033,0.0001
 7193,-0.00069072,0.00053666,-0.00068371,-0.00382968,0.00162377,0.00014
 600,-0.00053159,-0.00083949,-0.00077775,-0.00447872,-0.00283713,0.0028
 0802,0.01271749,-0.00911945,0.02036951,0.06126815,-0.14012921,0.120374
 31,-0.00680967,0.00967494,-0.00991903,-0.00016199,-0.00009561,-0.00008
 451,-0.00003444,-0.00000742,0.00006237,0.00000030,0.00004091,0.0000024
 2,-0.00000472,0.00000242,0.00000786,-0.00002104,0.00003398,-0.00000831
 ,0.00002663,-0.00002730,-0.00001363,0.00034680,-0.00015374,-0.00022370
 ,0.00072947,-0.00051422,0.00087053,0.00118285,-0.00007673,-0.00153437,
 -0.06140341,0.14221666,0.00003411,-0.00007823,0.00007771,-0.00009520,0
 .00063900,-0.00003783,-0.00452490,0.00035467,0.00295376,0.00082904,-0.
 00058945,-0.00018192,-0.00211092,0.00275964,0.00395617,-0.00372942,0.0
 0196640,-0.00009259,-0.09693966,0.12012978,-0.20610544,-0.00489422,0.0
 0832787,-0.00592408,-0.00022166,-0.00009809,-0.00008137,-0.00002419,-0
 .00001893,0.00006795,-0.00000298,0.00003968,0.00000381,-0.00000874,0.0
 0000410,-0.00000120,-0.00000731,0.00002911,-0.00000402,0.00000509,-0.0
 0003133,-0.00002268,0.00039959,-0.00025840,-0.00045451,-0.00007448,-0.
 00009616,-0.00022200,0.00190227,-0.00130473,-0.00154006,0.10748296,-0.
 13040467,0.20916137,-0.00316748,-0.00076821,-0.00211093,-0.00019782,0.
 00192443,0.00103054,0.00899382,0.01193977,-0.00153082,0.00112043,0.000
 22483,-0.00483800,-0.00132349,0.00060560,-0.00029903,-0.00062692,-0.00
 324325,-0.00550613,-0.00320074,-0.02138416,0.00675887,-0.09245213,-0.1
 0423823,0.01839821,-0.00051573,-0.00024617,-0.00043239,-0.00009071,-0.
 00007259,0.00011739,-0.00001727,0.00005883,-0.00002195,-0.00000885,0.0
 0001084,-0.00004960,0.00006580,-0.00002649,0.00007402,-0.00005126,-0.0
 0002551,-0.00006798,0.00061696,0.00050830,-0.00050864,-0.00028842,0.00
 020170,0.00039476,-0.00032505,-0.00088153,0.00049756,-0.00096010,0.001
 59807,0.00206769,0.09216959,-0.00195424,-0.00047175,-0.00234550,-0.000
 31362,-0.00223714,-0.00078747,-0.00505969,-0.01006710,0.00339522,0.000
 58206,0.00143698,0.00335562,0.00026211,0.00025477,-0.00078388,-0.00273
 237,0.00210996,0.00102378,-0.00189549,-0.00305508,0.00341942,-0.104032
 12,-0.28899690,0.06809147,0.00029125,0.00005589,0.00048255,0.00004727,
 -0.00001198,-0.00015680,0.00002809,-0.00002209,-0.00001494,-0.00000314
 ,0.00000735,0.00006357,-0.00010418,0.00005543,-0.00014060,0.00019737,0
 .00005246,0.00020432,-0.00058319,-0.00017235,0.00013589,0.00018563,-0.
 00020954,-0.00024455,0.00012794,-0.00027699,0.00009998,0.00128887,-0.0
 0028359,-0.00139710,0.11398681,0.30185274,-0.00029752,-0.00155429,-0.0
 0067616,0.00115496,0.00190666,-0.00174160,0.00856655,0.01846875,-0.002
 34664,-0.00490895,0.00346164,-0.00068070,-0.00005885,-0.00059753,-0.00
 093978,-0.00562550,0.00089167,0.00201689,-0.00600446,-0.01395608,0.008
 63629,0.01842687,0.06680223,-0.06441392,0.00043535,-0.00000547,0.00043
 019,-0.00002875,0.00006307,-0.00031111,0.00007084,-0.00008936,-0.00006
 871,0.00003964,0.00000911,0.00004399,-0.00000606,-0.00001624,-0.000035
 09,0.00007308,-0.00003351,0.00018135,0.00024840,0.00109809,0.00029008,
 0.00040382,-0.00026919,-0.00036018,-0.00012310,-0.00079009,0.00009728,
 0.00220371,-0.00121686,-0.00159199,-0.01418755,-0.07380814,0.06150706,
 0.00005892,-0.00051323,0.00024867,0.00009675,-0.00104295,-0.00225666,-
 0.00021135,0.00003397,0.00027579,0.00003847,0.00002335,-0.00000011,0.0
 0002617,-0.00001793,0.00002217,0.00001907,0.00002376,0.00000281,0.0000
 3807,-0.00003720,-0.00000389,0.00005095,0.00010319,0.00010134,0.002677
 61,-0.00510922,-0.02388590,-0.05546415,0.00881142,0.00620437,0.0053409
 7,0.00470307,0.02530746,-0.00304180,0.00484554,0.00144781,-0.00117214,
 -0.00005940,0.00008065,-0.00320457,0.00344944,-0.00253695,-0.00002494,
 -0.00003576,-0.00000159,0.00000828,-0.00000044,0.00000080,-0.00000125,
 -0.00000029,0.00000488,0.00001787,0.00000119,0.00000063,-0.00000946,-0
 .00000812,-0.00001416,0.05409369,0.00040192,-0.00110573,-0.00018310,-0
 .00107992,-0.00173087,0.00139352,-0.00016343,0.00053941,-0.00011906,0.
 00007796,0.00013657,-0.00013842,-0.00001567,-0.00003262,-0.00000157,-0
 .00001227,0.00000286,-0.00002569,-0.00003686,-0.00000450,-0.00004348,-
 0.00013316,-0.00019729,0.00003924,-0.00078305,0.00278570,0.00731840,0.
 00903016,-0.05117690,-0.05671018,-0.00051369,0.00279684,-0.01287528,0.
 00483159,0.00533525,-0.00194159,0.00009512,-0.00141277,0.00039018,0.00
 320912,0.00510346,-0.00005885,-0.00003601,0.00000612,0.00002321,-0.000
 01711,-0.00000284,-0.00000754,-0.00000052,-0.00000102,0.00000823,-0.00
 001372,-0.00001624,-0.00001441,-0.00000096,-0.00000580,0.00001264,-0.0
 1305917,0.04271088,0.00012214,0.00036287,0.00016371,0.00022857,0.00061
 908,-0.00040992,-0.00032703,-0.00055684,0.00013732,0.00002998,0.000041
 38,0.00002275,0.00000062,0.00001238,-0.00002981,0.00000618,-0.00000090
 ,0.00000375,-0.00000347,-0.00008377,0.00006599,0.00023229,0.00017764,0
 .00009532,0.00261714,-0.00356108,-0.01152175,0.00549981,-0.05707541,-0
 .33507297,-0.00200739,-0.00141309,-0.00636454,0.00137783,-0.00181050,0
 .00081454,0.00050398,0.00015380,0.00061116,-0.00324396,0.00043777,0.00
 077582,-0.00003801,-0.00001187,0.00000138,0.00000867,0.00000202,0.0000
 0611,0.00000201,0.00000103,0.00000147,0.00002378,0.00001371,0.00000695
 ,-0.00000686,-0.00001054,-0.00001500,-0.00515705,0.06199952,0.35117473
 ,-0.00002810,0.00036432,0.00009971,-0.00047954,0.00006449,-0.00062958,
 -0.00007798,0.00008207,0.00015974,-0.00003023,0.00005794,-0.00007297,-
 0.00001351,-0.00002923,-0.00002988,-0.00001328,-0.00000978,0.00000831,
 0.00000403,-0.00001000,-0.00002994,-0.00004653,-0.00006993,0.00002895,
 -0.00083335,0.00399600,0.00218403,-0.01462028,0.00496522,-0.01471263,-
 0.23892521,0.05995768,-0.13250254,0.00572885,-0.00011165,0.00287181,0.
 00222404,0.00244888,0.00061990,0.00000651,-0.00043846,0.00070918,-0.00
 001030,0.00001516,0.00000984,-0.00000982,-0.00000329,-0.00000939,-0.00
 000266,0.00000232,0.00000405,-0.00000827,-0.00000498,-0.00000436,-0.00
 000020,0.00000820,0.00001468,0.00006994,-0.00177219,0.00026360,0.24734
 485,-0.00009815,0.00003018,0.00012510,0.00066830,0.00036152,-0.0000088
 5,0.00030220,-0.00024799,-0.00008819,0.00001038,0.00000492,0.00000810,
 -0.00003852,-0.00000562,0.00000006,0.00001666,-0.00002969,0.00003739,0
 .00002777,0.00005869,0.00003348,-0.00002143,0.00002703,-0.00002703,0.0
 0370253,0.00530644,-0.00234753,0.01027389,0.00065349,0.00785760,0.0599
 5091,-0.05853197,0.03543909,-0.00533611,0.00567021,-0.00421723,0.00241
 920,0.00615095,-0.00262153,-0.00046314,-0.00112467,-0.00019597,-0.0000
 0031,0.00000103,-0.00000533,0.00000165,0.00000022,-0.00000415,0.000001
 44,-0.00000250,-0.00000392,0.00000190,0.00000457,0.00000553,0.00002058
 ,-0.00000881,-0.00002070,-0.00182258,-0.00327396,0.00073264,-0.0674528
 9,0.04901012,-0.00000466,-0.00023684,-0.00009968,0.00083821,-0.0002239
 8,0.00039991,0.00014862,-0.00009488,-0.00017385,0.00002498,-0.00002945
 ,0.00005824,0.00000286,0.00001658,0.00001541,0.00001250,0.00000556,0.0
 0000505,0.00000063,0.00001630,0.00002277,0.00001358,0.00005230,-0.0000
 0537,0.00196978,-0.00223074,0.00022467,0.01312533,-0.00409202,0.011477
 44,-0.13278132,0.03553272,-0.15249754,-0.02485877,0.00763418,-0.011393
 22,0.00045026,-0.00254859,-0.00497311,0.00102250,-0.00032304,-0.000876
 67,0.00000433,-0.00000856,-0.00000425,0.00000610,0.00000307,0.00000610
 ,0.00000211,-0.00000219,-0.00000291,0.00000681,0.00000293,0.00000324,0
 .00000351,-0.00000833,-0.00001525,-0.00004277,0.00087844,0.00047120,0.
 14071214,-0.03563259,0.15706205,0.00016980,-0.00025329,-0.00004850,-0.
 00054919,-0.00016816,0.00024096,-0.00000960,0.00005830,-0.00000681,0.0
 0000770,0.00001365,0.00000518,0.00000815,-0.00000712,-0.00000435,0.000
 00494,0.00000216,-0.00000089,0.00000068,0.00001000,0.00001614,-0.00001
 823,-0.00001683,0.00000856,0.00049291,-0.00053293,-0.00109010,0.002383
 20,0.00215679,-0.00125414,0.00515469,-0.00030131,-0.00240889,-0.246295
 97,0.10398010,0.09542878,-0.01335291,0.01014504,0.01139146,-0.00169633
 ,0.00320823,-0.00347708,-0.00000275,0.00000041,0.00000552,-0.00000348,
 0.00000147,0.00000206,-0.00000146,-0.00000029,0.00000139,0.00000169,-0
 .00000285,-0.00000201,0.00000274,-0.00001694,-0.00000478,0.00008485,-0
 .00024756,-0.00017178,-0.00019573,-0.00155145,0.00048183,0.25440821,0.
 00018137,-0.00035898,-0.00010763,-0.00026550,-0.00091912,0.00016953,0.
 00004371,0.00018271,-0.00003773,-0.00001936,-0.00002326,-0.00000645,0.
 00003214,-0.00000916,0.00001340,-0.00000560,0.00003185,-0.00001618,-0.
 00003031,-0.00001310,-0.00002551,-0.00003776,-0.00003634,-0.00002480,-
 0.00071931,-0.00014660,0.00048445,0.00238712,0.00661415,-0.00199965,0.
 00492507,0.00322422,-0.00120873,0.10402439,-0.09792981,-0.05273121,0.0
 0456783,0.00272142,-0.00378928,0.00318685,0.00617199,-0.00031749,0.000
 00509,0.00000744,0.00000491,-0.00000473,0.00000067,0.00000205,-0.00000
 231,0.00000112,0.00000150,0.00000048,-0.00000665,-0.00000737,-0.000006
 34,-0.00000215,0.00000850,-0.00000090,-0.00039413,0.00009407,-0.001633
 36,-0.00324737,0.00069729,-0.11505115,0.08769152,-0.00002286,0.0000982
 0,0.00006405,0.00010817,0.00015352,-0.00014566,-0.00003732,-0.00006435
 ,0.00002415,0.00001014,0.00002438,0.00000013,-0.00000650,0.00000363,-0
 .00000133,0.00000565,-0.00000541,0.00000330,0.00001238,-0.00000288,0.0
 0001977,0.00001086,0.00002506,0.00003667,-0.00099304,0.00025991,-0.001
 09500,-0.00045074,-0.00228052,-0.00541738,0.02516189,-0.01309011,-0.00
 704789,0.09536246,-0.05279257,-0.10917235,-0.01609773,0.00812114,0.011
 88298,-0.00427276,0.00005844,-0.00129544,-0.00000121,-0.00000490,-0.00
 000577,0.00000207,0.00000023,0.00000059,-0.00000028,-0.00000079,0.0000
 0047,0.00000204,0.00000214,0.00000190,0.00000646,-0.00001087,-0.000004
 35,0.00126907,-0.00054719,-0.00041203,0.00011263,0.00085981,0.00076490
 ,-0.10007230,0.05814498,0.11088234,0.00004373,0.00014577,-0.00010373,-
 0.00048112,0.00055265,0.00168668,0.00017855,0.00001489,-0.00006628,0.0
 0000315,0.00004970,-0.00006540,-0.00001057,-0.00001538,-0.00001641,-0.
 00002820,-0.00001486,-0.00002381,-0.00002772,-0.00001044,-0.00002679,0
 .00000309,-0.00007704,0.00002074,-0.00191205,0.00439146,0.00125155,-0.
 00142875,-0.00000602,-0.00000797,-0.00280532,0.00369448,-0.00330305,0.
 00521668,-0.00534823,-0.02527957,-0.05644575,0.00740156,0.00465980,0.0
 0268519,0.00551543,0.02615259,0.00000008,0.00001811,0.00000891,-0.0000
 1650,0.00000007,0.00000328,-0.00000778,0.00000246,0.00000407,-0.000023
 54,0.00000369,0.00000130,0.00000724,0.00001122,0.00002280,-0.00002468,
 -0.00035789,0.00006239,0.00013396,-0.00035946,-0.00117746,0.00011218,-
 0.00152654,0.00066724,0.05467066,-0.00023639,-0.00012273,0.00021821,0.
 00068961,0.00006980,-0.00091476,-0.00013871,0.00003528,-0.00009215,-0.
 00001276,0.00001046,0.00003143,0.00003117,-0.00001076,0.00001032,0.000
 00883,0.00002952,-0.00001536,-0.00002454,-0.00000859,0.00000099,0.0000
 2040,0.00001796,0.00003841,0.00412950,0.00569117,-0.00161580,-0.000027
 45,-0.00112973,0.00035834,0.00368840,0.00581133,-0.00003294,0.00014656
 ,0.00572482,0.00770401,0.00724759,-0.05510105,-0.05954218,0.00043609,0
 .00144946,-0.01310763,0.00000061,-0.00000461,0.00000802,-0.00000471,0.
 00000303,0.00000865,-0.00000177,0.00000212,-0.00000214,0.00001122,-0.0
 0000199,-0.00000157,0.00001233,-0.00000665,-0.00002310,-0.00036942,-0.
 00075681,0.00012945,-0.00010085,-0.00010915,0.00041482,-0.00161912,-0.
 00307819,0.00055565,-0.01212028,0.04494122,0.00000528,-0.00008780,-0.0
 0000864,-0.00017500,0.00004415,-0.00018780,-0.00001361,-0.00002580,0.0
 0003276,0.00000776,-0.00001870,0.00001514,-0.00000365,0.00000858,0.000
 00289,0.00000913,-0.00000581,0.00001425,0.00001779,0.00000944,0.000014
 32,-0.00000967,0.00002876,-0.00003029,0.00125930,-0.00176958,0.0012947
 1,-0.00031578,0.00048533,0.00063382,-0.00310027,-0.00009289,0.00009590
 ,0.00255065,-0.00401440,-0.01097346,0.00489273,-0.05958623,-0.33885015
 ,-0.00162651,-0.00134457,-0.00642335,0.00000202,-0.00000559,-0.0000090
 2,0.00000704,0.00000029,-0.00000144,0.00000157,-0.00000173,-0.00000015
 ,0.00000251,0.00000275,0.00000281,0.00000116,-0.00000335,-0.00000458,0
 .00007449,0.00012855,-0.00008299,0.00025285,-0.00016477,-0.00054728,0.
 00029071,0.00072154,0.00048568,-0.00448927,0.06489587,0.35411278,0.000
 00228,-0.00055184,-0.00018617,-0.00061796,-0.00069102,0.00020627,-0.00
 065203,0.00064171,0.00214199,0.00021753,0.00021470,-0.00004828,-0.0000
 6628,-0.00004574,-0.00010328,-0.00003491,-0.00019047,-0.00006250,-0.00
 016061,0.00015920,-0.00018054,-0.00111393,0.00029963,0.00023307,0.0041
 8656,-0.00090634,0.00098211,0.00221123,0.00157454,0.00118113,-0.000509
 49,-0.00010405,0.00126090,-0.00173430,0.00428398,0.00199982,-0.0125802
 1,0.00476818,-0.01534422,-0.23944682,0.05617381,-0.13210744,0.00005015
 ,0.00002683,-0.00004113,-0.00001100,-0.00000352,-0.00000690,-0.0000066
 6,0.00000828,-0.00000106,0.00001693,-0.00000738,-0.00003439,0.00010261
 ,0.00011294,0.00003199,0.00042836,0.00031008,0.00019495,-0.00015269,-0
 .00030141,-0.00000078,-0.00072335,-0.00009173,-0.00074870,0.00020558,-
 0.00181523,0.00033571,0.25034564,0.00051957,-0.00098913,-0.00024016,-0
 .00149661,-0.00106245,0.00040966,0.00043702,0.00033618,-0.00047882,-0.
 00009528,-0.00032754,0.00000127,-0.00002574,-0.00017732,0.00008698,-0.
 00001526,0.00001867,-0.00009057,-0.00008908,-0.00004536,0.00004860,0.0
 0042824,0.00010637,-0.00019911,-0.00614525,0.00376138,-0.00310916,0.00
 229750,0.00481638,-0.00248916,-0.00042549,-0.00127807,-0.00004439,0.00
 434167,0.00567231,-0.00273727,0.01029129,0.00276807,0.00766820,0.05563
 683,-0.05404137,0.03111434,-0.00000941,-0.00000958,0.00006162,-0.00001
 143,-0.00000184,0.00000772,-0.00002860,-0.00001166,0.00001951,0.000012
 67,0.00000455,0.00000737,0.00023013,-0.00032792,-0.00010529,-0.0000312
 3,0.00081747,-0.00036385,-0.00033163,-0.00075139,0.00018652,0.00022231
 ,-0.00044744,0.00047571,-0.00193030,-0.00354923,0.00080285,-0.06384200
 ,0.04494343,0.00009748,-0.00011892,-0.00003465,-0.00187341,0.00115391,
 -0.00053543,0.00008578,-0.00038137,0.00001857,0.00033723,0.00059046,-0
 .00003006,-0.00016910,0.00000488,-0.00022303,0.00000107,-0.00027663,0.
 00008924,0.00021633,0.00010531,0.00011191,0.00029016,-0.00009991,0.000
 25917,-0.02284700,0.00661774,-0.01290867,0.00152732,-0.00275344,-0.004
 72976,0.00065678,-0.00002675,-0.00015360,0.00231511,-0.00267854,-0.000
 51552,0.01172649,-0.00342523,0.01239564,-0.13204981,0.03146174,-0.1490
 9579,-0.00002504,-0.00002031,-0.00000790,-0.00001047,0.00000142,-0.000
 01582,-0.00001510,-0.00000669,0.00001324,-0.00005705,0.00001903,0.0000
 0577,0.00008326,-0.00009739,0.00004769,-0.00121033,0.00025158,-0.00040
 262,-0.00000109,0.00019845,0.00002987,0.00063483,-0.00010993,0.0004463
 8,0.00006228,0.00096699,0.00039827,0.14020903,-0.03122967,0.15482014,0
 .00284622,-0.00715613,-0.00480923,-0.00455609,-0.00199553,-0.00262273,
 0.00030394,-0.00398747,0.00122323,-0.00116720,-0.00002694,-0.00106506,
 -0.00011431,-0.00034825,0.00033517,-0.00003901,-0.00002088,-0.00011375
 ,-0.00019538,0.00006143,0.00003059,-0.00022783,-0.00033043,0.00013795,
 0.00069426,0.00364069,-0.00024611,0.00030351,0.00018341,0.00062107,-0.
 00054335,-0.00018312,0.00016958,-0.00014771,0.00011558,-0.00017501,0.0
 0000614,-0.00028145,0.00016370,-0.00062127,0.00028250,-0.00020134,0.00
 009112,-0.00002497,-0.00001501,-0.00011418,-0.00003132,-0.00008896,0.0
 0000991,-0.00000146,-0.00002297,-0.00004369,-0.00003448,-0.00004825,0.
 00015644,-0.00042664,-0.00043301,0.00010439,0.00028724,-0.00021837,-0.
 00006449,0.00004806,0.00003970,0.00001725,0.00004087,-0.00002764,-0.00
 004811,0.00004893,0.00002305,0.00004337,0.00006010,0.00001525,0.003306
 07,-0.00980532,-0.21406560,-0.21453062,-0.00040214,-0.02371449,-0.0224
 4727,-0.00055288,-0.00259345,0.00244302,-0.00049684,-0.00021471,-0.000
 52089,0.00010665,-0.00016559,0.00033678,0.00011573,0.00012150,0.000007
 05,-0.00003622,-0.00012140,-0.00002436,0.00098480,0.00045503,0.0001095
 7,0.00086741,-0.00357506,0.00192216,-0.00058276,-0.00017376,-0.0000008
 3,0.00043949,0.00006008,-0.00044214,0.00018318,-0.00006767,0.00046451,
 -0.00011945,0.00039368,0.00010589,-0.00041085,-0.00007724,0.00010155,-
 0.00005853,-0.00014467,-0.00001617,-0.00001141,0.00000432,-0.00002741,
 0.00000117,0.00003105,-0.00000120,0.00009529,0.00007064,0.00003730,-0.
 00042878,0.00033024,-0.00023652,0.00011291,-0.00012306,0.00011049,0.00
 000597,0.00005373,-0.00000949,-0.00002946,-0.00003478,0.00001682,-0.00
 003507,0.00009335,-0.00000688,-0.00002316,-0.00022451,-0.00014671,0.01
 008028,0.24368235,-0.00884540,-0.25779284,-0.33480688,0.00157965,0.018
 48953,0.01223518,-0.00040455,0.00326873,-0.00194926,0.00110110,0.00010
 388,0.00109302,0.00004826,0.00026274,-0.00032685,0.00000693,-0.0000741
 8,0.00000971,0.00005314,-0.00002230,0.00016099,-0.00043766,0.00017512,
 -0.00032140,0.00028982,0.00297851,-0.00078496,-0.00000371,0.00010218,0
 .00081427,-0.00024942,-0.00022157,0.00003871,-0.00002085,0.00007080,0.
 00007174,-0.00034696,-0.00011656,0.00005464,-0.00032708,-0.00001707,-0
 .00035774,-0.00007506,-0.00004028,0.00007294,0.00008873,0.00003562,0.0
 0009069,-0.00000427,-0.00001509,0.00001937,0.00000457,0.00001304,0.000
 01826,0.00012646,-0.00046237,-0.00004573,0.00006846,0.00022285,-0.0000
 4056,-0.00005904,0.00004054,0.00004827,0.00003424,0.00003975,-0.000016
 10,-0.00004391,0.00000649,0.00001580,0.00008838,0.00019710,0.00001698,
 0.00732818,0.23275536,0.32388891\\-0.00000060,0.00000052,-0.00000074,-
 0.00000187,0.00000015,-0.00000011,0.00000103,-0.00000151,0.00000066,-0
 .00000019,0.00000077,-0.00000084,-0.00000062,-0.00000028,-0.00000210,0
 .00000046,-0.00000181,-0.00000141,0.00000168,0.00000025,-0.00000174,-0
 .00000148,-0.00000034,-0.00000278,0.00000067,0.00000046,0.00000143,-0.
 00000264,0.00000167,0.00000136,0.00000055,0.00000024,0.00000073,0.0000
 0137,0.00000030,0.00000402,-0.00000069,0.00000079,0.00000156,0.0000010
 9,-0.00000066,-0.00000033,-0.00000058,0.00000005,-0.00000058,0.0000004
 2,-0.00000052,-0.00000126,0.00000090,-0.00000098,-0.00000235,0.0000007
 3,-0.00000132,-0.00000240,0.00000012,-0.00000062,-0.00000154,-0.000001
 23,0.00000098,0.00000142,-0.00000079,0.00000136,0.00000305,0.00000067,
 0.00000050,0.00000271,0.00000171,-0.00000038,0.00000171,0.00000070,-0.
 00000027,0.00000030,-0.00000140,0.00000064,-0.00000077\\\@


 A DANDELION FROM A LOVER MEANS MORE THAN AN ORCHID FROM A FRIEND.
 Job cpu time:       0 days  2 hours 13 minutes  3.9 seconds.
 Elapsed time:       0 days  0 hours  5 minutes 34.1 seconds.
 File lengths (MBytes):  RWF=    361 Int=      0 D2E=      0 Chk=     14 Scr=      1
 Normal termination of Gaussian 16 at Sun Oct 13 23:34:57 2019.
real 1341.59
user 31736.08
sys 89.65
Machine:
brown-a076
brown-a076
brown-a076
brown-a076
brown-a076
brown-a076
brown-a076
brown-a076
brown-a076
brown-a076
brown-a076
brown-a076
brown-a076
brown-a076
brown-a076
brown-a076
brown-a076
brown-a076
brown-a076
brown-a076
brown-a076
brown-a076
brown-a076
brown-a076
