Title Card Required                                                     
Freq      RM062X                                                      6-311++G(d,p)       
Number of atoms                            I               17
Info1-9                                    I   N=           9
          44          44        1002           0           0         100
           6          18        -502
Full Title                                 C   N=           2
Title Card Required     
Route                                      C   N=           6
#P opt freq m062x/6-311++g(d,p) geom=connectivity temperatur
e=0.001     
Charge                                     I                0
Multiplicity                               I                1
Number of electrons                        I               74
Number of alpha electrons                  I               37
Number of beta electrons                   I               37
Number of basis functions                  I              262
Number of independent functions            I              261
Number of point charges in /Mol/           I                0
Number of translation vectors              I                0
Atomic numbers                             I   N=          17
           8          16           6           6           6           6
           6           6           6           1           1           1
           1           1           1           1           1
Nuclear charges                            R   N=          17
  8.00000000E+00  1.60000000E+01  6.00000000E+00  6.00000000E+00  6.00000000E+00
  6.00000000E+00  6.00000000E+00  6.00000000E+00  6.00000000E+00  1.00000000E+00
  1.00000000E+00  1.00000000E+00  1.00000000E+00  1.00000000E+00  1.00000000E+00
  1.00000000E+00  1.00000000E+00
Current cartesian coordinates              R   N=          51
  4.11700644E+00  2.43362639E+00 -5.12089034E-01  3.15885358E+00 -2.18024366E-01
 -8.90981722E-01  3.89048875E+00 -1.90366137E+00  2.01058324E+00 -2.22109598E-01
 -1.02518467E-01 -3.91379756E-01 -1.69190674E+00 -2.24805440E+00 -7.68741889E-01
 -4.28730811E+00 -2.09360814E+00 -3.98614999E-01 -5.37957947E+00  1.91699718E-01
  3.20954951E-01 -3.88360296E+00  2.32567363E+00  6.62920618E-01 -1.28039414E+00
  2.19153914E+00  3.01044521E-01  5.93783628E+00 -2.10473735E+00  2.08016062E+00
  3.22020727E+00 -7.61156735E-01  3.58754035E+00  2.98110982E+00 -3.75145379E+00
  1.98272347E+00 -8.29943571E-01 -4.01180199E+00 -1.36426924E+00 -5.45841654E+00
 -3.74824729E+00 -6.84588983E-01 -7.40459363E+00  3.08326895E-01  5.98848785E-01
 -4.74312101E+00  4.10313507E+00  1.20513326E+00 -5.43137252E-02  3.81889330E+00
  5.26271453E-01
Number of symbols in /Mol/                 I                0
Force Field                                I                0
Atom Types                                 C   N=          17
                                                            
                                                            
                                                            
                        
Int Atom Types                             I   N=          17
           0           0           0           0           0           0
           0           0           0           0           0           0
           0           0           0           0           0
MM charges                                 R   N=          17
  0.00000000E+00  0.00000000E+00  0.00000000E+00  0.00000000E+00  0.00000000E+00
  0.00000000E+00  0.00000000E+00  0.00000000E+00  0.00000000E+00  0.00000000E+00
  0.00000000E+00  0.00000000E+00  0.00000000E+00  0.00000000E+00  0.00000000E+00
  0.00000000E+00  0.00000000E+00
Integer atomic weights                     I   N=          17
          16          32          12          12          12          12
          12          12          12           1           1           1
           1           1           1           1           1
Real atomic weights                        R   N=          17
  1.59949146E+01  3.19720718E+01  1.20000000E+01  1.20000000E+01  1.20000000E+01
  1.20000000E+01  1.20000000E+01  1.20000000E+01  1.20000000E+01  1.00782504E+00
  1.00782504E+00  1.00782504E+00  1.00782504E+00  1.00782504E+00  1.00782504E+00
  1.00782504E+00  1.00782504E+00
Atom fragment info                         I   N=          17
           0           0           0           0           0           0
           0           0           0           0           0           0
           0           0           0           0           0
Atom residue num                           I   N=          17
           0           0           0           0           0           0
           0           0           0           0           0           0
           0           0           0           0           0
Nuclear spins                              I   N=          17
           0           0           0           0           0           0
           0           0           0           1           1           1
           1           1           1           1           1
Nuclear ZEff                               R   N=          17
 -5.60000000E+00 -1.36000000E+01 -3.60000000E+00 -3.60000000E+00 -3.60000000E+00
 -3.60000000E+00 -3.60000000E+00 -3.60000000E+00 -3.60000000E+00 -1.00000000E+00
 -1.00000000E+00 -1.00000000E+00 -1.00000000E+00 -1.00000000E+00 -1.00000000E+00
 -1.00000000E+00 -1.00000000E+00
Nuclear ZNuc                               R   N=          17
  8.00000000E+00  1.60000000E+01  6.00000000E+00  6.00000000E+00  6.00000000E+00
  6.00000000E+00  6.00000000E+00  6.00000000E+00  6.00000000E+00  1.00000000E+00
  1.00000000E+00  1.00000000E+00  1.00000000E+00  1.00000000E+00  1.00000000E+00
  1.00000000E+00  1.00000000E+00
Nuclear QMom                               R   N=          17
  0.00000000E+00  0.00000000E+00  0.00000000E+00  0.00000000E+00  0.00000000E+00
  0.00000000E+00  0.00000000E+00  0.00000000E+00  0.00000000E+00  0.00000000E+00
  0.00000000E+00  0.00000000E+00  0.00000000E+00  0.00000000E+00  0.00000000E+00
  0.00000000E+00  0.00000000E+00
Nuclear GFac                               R   N=          17
  0.00000000E+00  0.00000000E+00  0.00000000E+00  0.00000000E+00  0.00000000E+00
  0.00000000E+00  0.00000000E+00  0.00000000E+00  0.00000000E+00  2.79284600E+00
  2.79284600E+00  2.79284600E+00  2.79284600E+00  2.79284600E+00  2.79284600E+00
  2.79284600E+00  2.79284600E+00
MicOpt                                     I   N=          17
          -1          -1          -1          -1          -1          -1
          -1          -1          -1          -1          -1          -1
          -1          -1          -1          -1          -1
Number of residues                         I                0
Number of secondary structures             I                0
Redundant internal dimensions              I   N=           4
          78          17          27          34
Redundant internal coordinate indices      I   N=         312
           1           2           0           0           2           3
           0           0           2           4           0           0
           3          10           0           0           3          11
           0           0           3          12           0           0
           4           5           0           0           4           9
           0           0           5           6           0           0
           5          13           0           0           6           7
           0           0           6          14           0           0
           7           8           0           0           7          15
           0           0           8           9           0           0
           8          16           0           0           9          17
           0           0           1           2           3           0
           1           2           4           0           3           2
           4           0           2           3          10           0
           2           3          11           0           2           3
          12           0          10           3          11           0
          10           3          12           0          11           3
          12           0           2           4           5           0
           2           4           9           0           5           4
           9           0           4           5           6           0
           4           5          13           0           6           5
          13           0           5           6           7           0
           5           6          14           0           7           6
          14           0           6           7           8           0
           6           7          15           0           8           7
          15           0           7           8           9           0
           7           8          16           0           9           8
          16           0           4           9           8           0
           4           9          17           0           8           9
          17           0           1           2           3          10
           1           2           3          11           1           2
           3          12           4           2           3          10
           4           2           3          11           4           2
           3          12           1           2           4           5
           1           2           4           9           3           2
           4           5           3           2           4           9
           2           4           5           6           2           4
           5          13           9           4           5           6
           9           4           5          13           2           4
           9           8           2           4           9          17
           5           4           9           8           5           4
           9          17           4           5           6           7
           4           5           6          14          13           5
           6           7          13           5           6          14
           5           6           7           8           5           6
           7          15          14           6           7           8
          14           6           7          15           6           7
           8           9           6           7           8          16
          15           7           8           9          15           7
           8          16           7           8           9           4
           7           8           9          17          16           8
           9           4          16           8           9          17
Redundant internal coordinates             R   N=          78
  2.84479671E+00  3.43449288E+00  3.41962801E+00  2.05837424E+00  2.05946300E+00
  2.05963176E+00  2.62793270E+00  2.61956445E+00  2.62620560E+00  2.05144799E+00
  2.63314824E+00  2.04721928E+00  2.62844648E+00  2.04731757E+00  2.63166155E+00
  2.04747039E+00  2.04994681E+00  1.84751839E+00  1.85673498E+00  1.67474994E+00
  1.86333700E+00  1.88104126E+00  1.91222405E+00  1.93053599E+00  1.93047936E+00
  1.94373838E+00  2.09950392E+00  2.05739579E+00  2.12585032E+00  2.07657111E+00
  2.10437705E+00  2.10217202E+00  2.09382374E+00  2.09222460E+00  2.09710779E+00
  2.09912287E+00  2.09073894E+00  2.09328647E+00  2.09870061E+00  2.09478618E+00
  2.08968969E+00  2.07214438E+00  2.07444024E+00  2.13656723E+00 -1.20758657E+00
  8.66877057E-01  2.98450689E+00 -3.10879731E+00 -1.03433369E+00  1.08329614E+00
  3.06918322E+00 -4.12753128E-02 -1.32065777E+00  1.85206900E+00 -3.12859762E+00
  7.84432901E-04 -1.93871213E-02  3.10999493E+00  3.12758546E+00 -5.43090003E-03
  1.76248623E-02 -3.11539150E+00  8.34472226E-03 -3.14144442E+00 -3.12105319E+00
  1.23429802E-02  3.88986690E-03  3.13622935E+00 -3.12948314E+00  2.85634507E-03
 -5.64972060E-03  3.13141290E+00 -3.13797566E+00 -9.13042611E-04 -4.90363707E-03
  3.12779113E+00  3.14120581E+00 -9.28473476E-03
ZRed-IntVec                                I   N=          78
           0           0           0           0           0           0
           0           0           0           0           0           0
           0           0           0           0           0           0
           0           0           0           0           0           0
           0           0           0           0           0           0
           0           0           0           0           0           0
           0           0           0           0           0           0
           0           0           0           0           0           0
           0           0           0           0           0           0
           0           0           0           0           0           0
           0           0           0           0           0           0
           0           0           0           0           0           0
           0           0           0           0           0           0
ZRed-FPVec                                 R   N=          78
  0.00000000E+00  0.00000000E+00  0.00000000E+00  0.00000000E+00  0.00000000E+00
  0.00000000E+00  0.00000000E+00  0.00000000E+00  0.00000000E+00  0.00000000E+00
  0.00000000E+00  0.00000000E+00  0.00000000E+00  0.00000000E+00  0.00000000E+00
  0.00000000E+00  0.00000000E+00  0.00000000E+00  0.00000000E+00  0.00000000E+00
  0.00000000E+00  0.00000000E+00  0.00000000E+00  0.00000000E+00  0.00000000E+00
  0.00000000E+00  0.00000000E+00  0.00000000E+00  0.00000000E+00  0.00000000E+00
  0.00000000E+00  0.00000000E+00  0.00000000E+00  0.00000000E+00  0.00000000E+00
  0.00000000E+00  0.00000000E+00  0.00000000E+00  0.00000000E+00  0.00000000E+00
  0.00000000E+00  0.00000000E+00  0.00000000E+00  0.00000000E+00  0.00000000E+00
  0.00000000E+00  0.00000000E+00  0.00000000E+00  0.00000000E+00  0.00000000E+00
  0.00000000E+00  0.00000000E+00  0.00000000E+00  0.00000000E+00  0.00000000E+00
  0.00000000E+00  0.00000000E+00  0.00000000E+00  0.00000000E+00  0.00000000E+00
  0.00000000E+00  0.00000000E+00  0.00000000E+00  0.00000000E+00  0.00000000E+00
  0.00000000E+00  0.00000000E+00  0.00000000E+00  0.00000000E+00  0.00000000E+00
  0.00000000E+00  0.00000000E+00  0.00000000E+00  0.00000000E+00  0.00000000E+00
  0.00000000E+00  0.00000000E+00  0.00000000E+00
ZRed-Constraint1                           R   N=          78
  2.84479671E+00  3.43449288E+00  3.41962801E+00  2.05837424E+00  2.05946300E+00
  2.05963176E+00  2.62793270E+00  2.61956445E+00  2.62620560E+00  2.05144799E+00
  2.63314824E+00  2.04721928E+00  2.62844648E+00  2.04731757E+00  2.63166155E+00
  2.04747039E+00  2.04994681E+00  1.84751839E+00  1.85673498E+00  1.67474994E+00
  1.86333700E+00  1.88104126E+00  1.91222405E+00  1.93053599E+00  1.93047936E+00
  1.94373838E+00  2.09950392E+00  2.05739579E+00  2.12585032E+00  2.07657111E+00
  2.10437705E+00  2.10217202E+00  2.09382374E+00  2.09222460E+00  2.09710779E+00
  2.09912287E+00  2.09073894E+00  2.09328647E+00  2.09870061E+00  2.09478618E+00
  2.08968969E+00  2.07214438E+00  2.07444024E+00  2.13656723E+00 -1.20758657E+00
  8.66877057E-01  2.98450689E+00 -3.10879731E+00 -1.03433369E+00  1.08329614E+00
  3.06918322E+00 -4.12753128E-02 -1.32065777E+00  1.85206900E+00 -3.12859762E+00
  7.84432901E-04 -1.93871213E-02  3.10999493E+00  3.12758546E+00 -5.43090003E-03
  1.76248623E-02 -3.11539150E+00  8.34472226E-03 -3.14144442E+00 -3.12105319E+00
  1.23429802E-02  3.88986690E-03  3.13622935E+00 -3.12948314E+00  2.85634507E-03
 -5.64972060E-03  3.13141290E+00 -3.13797566E+00 -9.13042611E-04 -4.90363707E-03
  3.12779113E+00  3.14120581E+00 -9.28473476E-03
ZRed-Constraint2                           R   N=          78
  3.03107128E+00  3.45976829E+00  3.34354133E+00  2.05987396E+00  2.05976126E+00
  2.05975267E+00  2.66477776E+00  2.66900335E+00  2.65718612E+00  2.05973297E+00
  2.66027270E+00  2.05981738E+00  2.65963107E+00  2.05976001E+00  2.66217930E+00
  2.05967375E+00  2.05987870E+00  1.82647223E+00  1.85178968E+00  1.86038251E+00
  1.91063433E+00  1.91060218E+00  1.91060634E+00  1.91066489E+00  1.91066884E+00
  1.91062284E+00  2.07100927E+00  2.12681962E+00  2.08535288E+00  2.10020464E+00
  2.09404088E+00  2.08893978E+00  2.09480862E+00  2.09319703E+00  2.09517965E+00
  2.09394036E+00  2.09479685E+00  2.09444809E+00  2.09462822E+00  2.09337379E+00
  2.09518330E+00  2.09743146E+00  2.09515203E+00  2.09060181E+00 -1.36570491E+00
  7.28710613E-01  2.82305749E+00  2.96016440E+00 -1.22860539E+00  8.65741489E-01
  2.20924439E+00 -9.29476830E-01 -2.13416920E+00  1.01029489E+00 -3.13720524E+00
  4.50606608E-03  1.58574452E-03 -3.13988826E+00  3.13948462E+00 -2.20987336E-03
  7.86390064E-04 -3.14090810E+00 -1.92995011E-03  3.13970289E+00  3.13954440E+00
 -2.00806919E-03 -1.07179380E-04  3.14145468E+00  3.14144524E+00 -1.78211010E-04
  2.47315952E-03 -3.13914658E+00 -3.13908870E+00  2.47686769E-03 -2.81479944E-03
  3.13887943E+00  3.13880497E+00 -2.68611333E-03
SymInf integers                            I   N=          26
           1           1           1           1           1           0
           0           0           0           0           0           0
           0           0           0           0           0           0
           0           0           0           0           0           0
           0           0
RotTr to input orientation                 R   N=          12
 -3.34377816E-01 -9.42109502E-01 -2.49231269E-02 -9.35593992E-01  3.28651524E-01
  1.29042852E-01 -1.13381473E-01  6.64669946E-02 -9.91325769E-01 -9.77628490E-01
 -9.28591113E-02 -3.01519768E-01
Number of contracted shells                I              101
Number of primitive shells                 I              184
Pure/Cartesian d shells                    I                0
Pure/Cartesian f shells                    I                0
Highest angular momentum                   I                2
Largest degree of contraction              I                6
Shell types                                I   N=         101
           0          -1          -1          -1          -1          -2
           0           0           0           0           0           0
          -1           1           1           1           1           1
          -2           0          -1          -1          -1          -1
          -2           0          -1          -1          -1          -1
          -2           0          -1          -1          -1          -1
          -2           0          -1          -1          -1          -1
          -2           0          -1          -1          -1          -1
          -2           0          -1          -1          -1          -1
          -2           0          -1          -1          -1          -1
          -2           0           0           0           0           1
           0           0           0           0           1           0
           0           0           0           1           0           0
           0           0           1           0           0           0
           0           1           0           0           0           0
           1           0           0           0           0           1
           0           0           0           0           1
Number of primitives per shell             I   N=         101
           6           3           1           1           1           1
           6           3           1           1           1           1
           1           4           2           1           1           1
           1           6           3           1           1           1
           1           6           3           1           1           1
           1           6           3           1           1           1
           1           6           3           1           1           1
           1           6           3           1           1           1
           1           6           3           1           1           1
           1           6           3           1           1           1
           1           3           1           1           1           1
           3           1           1           1           1           3
           1           1           1           1           3           1
           1           1           1           3           1           1
           1           1           3           1           1           1
           1           3           1           1           1           1
           3           1           1           1           1
Shell to atom map                          I   N=         101
           1           1           1           1           1           1
           2           2           2           2           2           2
           2           2           2           2           2           2
           2           3           3           3           3           3
           3           4           4           4           4           4
           4           5           5           5           5           5
           5           6           6           6           6           6
           6           7           7           7           7           7
           7           8           8           8           8           8
           8           9           9           9           9           9
           9          10          10          10          10          10
          11          11          11          11          11          12
          12          12          12          12          13          13
          13          13          13          14          14          14
          14          14          15          15          15          15
          15          16          16          16          16          16
          17          17          17          17          17
Primitive exponents                        R   N=         184
  8.58850000E+03  1.29723000E+03  2.99296000E+02  8.73771000E+01  2.56789000E+01
  3.74004000E+00  4.21175000E+01  9.62837000E+00  2.85332000E+00  9.05661000E-01
  2.55611000E-01  8.45000000E-02  1.29200000E+00  9.34134000E+04  1.39617000E+04
  3.16991000E+03  9.02456000E+02  2.97158000E+02  1.08702000E+02  1.08702000E+02
  4.31553000E+01  1.81079000E+01  5.56009000E+00  2.13183000E+00  4.20403000E-01
  1.36045000E-01  4.05000000E-02  4.95040000E+02  1.17221000E+02  3.77749000E+01
  1.40584000E+01  5.56574000E+00  2.26297000E+00  8.07994000E-01  2.77460000E-01
  7.71410000E-02  6.50000000E-01  4.56324000E+03  6.82024000E+02  1.54973000E+02
  4.44553000E+01  1.30290000E+01  1.82773000E+00  2.09642000E+01  4.80331000E+00
  1.45933000E+00  4.83456000E-01  1.45585000E-01  4.38000000E-02  6.26000000E-01
  4.56324000E+03  6.82024000E+02  1.54973000E+02  4.44553000E+01  1.30290000E+01
  1.82773000E+00  2.09642000E+01  4.80331000E+00  1.45933000E+00  4.83456000E-01
  1.45585000E-01  4.38000000E-02  6.26000000E-01  4.56324000E+03  6.82024000E+02
  1.54973000E+02  4.44553000E+01  1.30290000E+01  1.82773000E+00  2.09642000E+01
  4.80331000E+00  1.45933000E+00  4.83456000E-01  1.45585000E-01  4.38000000E-02
  6.26000000E-01  4.56324000E+03  6.82024000E+02  1.54973000E+02  4.44553000E+01
  1.30290000E+01  1.82773000E+00  2.09642000E+01  4.80331000E+00  1.45933000E+00
  4.83456000E-01  1.45585000E-01  4.38000000E-02  6.26000000E-01  4.56324000E+03
  6.82024000E+02  1.54973000E+02  4.44553000E+01  1.30290000E+01  1.82773000E+00
  2.09642000E+01  4.80331000E+00  1.45933000E+00  4.83456000E-01  1.45585000E-01
  4.38000000E-02  6.26000000E-01  4.56324000E+03  6.82024000E+02  1.54973000E+02
  4.44553000E+01  1.30290000E+01  1.82773000E+00  2.09642000E+01  4.80331000E+00
  1.45933000E+00  4.83456000E-01  1.45585000E-01  4.38000000E-02  6.26000000E-01
  4.56324000E+03  6.82024000E+02  1.54973000E+02  4.44553000E+01  1.30290000E+01
  1.82773000E+00  2.09642000E+01  4.80331000E+00  1.45933000E+00  4.83456000E-01
  1.45585000E-01  4.38000000E-02  6.26000000E-01  3.38650000E+01  5.09479000E+00
  1.15879000E+00  3.25840000E-01  1.02741000E-01  3.60000000E-02  7.50000000E-01
  3.38650000E+01  5.09479000E+00  1.15879000E+00  3.25840000E-01  1.02741000E-01
  3.60000000E-02  7.50000000E-01  3.38650000E+01  5.09479000E+00  1.15879000E+00
  3.25840000E-01  1.02741000E-01  3.60000000E-02  7.50000000E-01  3.38650000E+01
  5.09479000E+00  1.15879000E+00  3.25840000E-01  1.02741000E-01  3.60000000E-02
  7.50000000E-01  3.38650000E+01  5.09479000E+00  1.15879000E+00  3.25840000E-01
  1.02741000E-01  3.60000000E-02  7.50000000E-01  3.38650000E+01  5.09479000E+00
  1.15879000E+00  3.25840000E-01  1.02741000E-01  3.60000000E-02  7.50000000E-01
  3.38650000E+01  5.09479000E+00  1.15879000E+00  3.25840000E-01  1.02741000E-01
  3.60000000E-02  7.50000000E-01  3.38650000E+01  5.09479000E+00  1.15879000E+00
  3.25840000E-01  1.02741000E-01  3.60000000E-02  7.50000000E-01
Contraction coefficients                   R   N=         184
  1.89515008E-03  1.43859006E-02  7.07320031E-02  2.40001011E-01  5.94797026E-01
  2.80802012E-01  1.13889012E-01  9.20811101E-01 -3.27447036E-03  1.00000000E+00
  1.00000000E+00  1.00000000E+00  1.00000000E+00  7.42999957E-04  5.79299966E-03
  2.99539983E-02  1.19027993E-01  3.68431979E-01  5.77298966E-01  1.43186060E-01
  6.24465262E-01  2.83366119E-01  1.00000000E+00  1.00000000E+00  1.00000000E+00
  1.00000000E+00  1.00000000E+00  8.30900251E-03  6.40240194E-02  2.77614084E-01
  7.45076225E-01  6.13711672E-01  4.43817763E-01  1.00000000E+00  1.00000000E+00
  1.00000000E+00  1.00000000E+00  1.96665025E-03  1.52306019E-02  7.61269097E-02
  2.60801033E-01  6.16462078E-01  2.21006028E-01  1.14660081E-01  9.19999648E-01
 -3.03068213E-03  1.00000000E+00  1.00000000E+00  1.00000000E+00  1.00000000E+00
  1.96665025E-03  1.52306019E-02  7.61269097E-02  2.60801033E-01  6.16462078E-01
  2.21006028E-01  1.14660081E-01  9.19999648E-01 -3.03068213E-03  1.00000000E+00
  1.00000000E+00  1.00000000E+00  1.00000000E+00  1.96665025E-03  1.52306019E-02
  7.61269097E-02  2.60801033E-01  6.16462078E-01  2.21006028E-01  1.14660081E-01
  9.19999648E-01 -3.03068213E-03  1.00000000E+00  1.00000000E+00  1.00000000E+00
  1.00000000E+00  1.96665025E-03  1.52306019E-02  7.61269097E-02  2.60801033E-01
  6.16462078E-01  2.21006028E-01  1.14660081E-01  9.19999648E-01 -3.03068213E-03
  1.00000000E+00  1.00000000E+00  1.00000000E+00  1.00000000E+00  1.96665025E-03
  1.52306019E-02  7.61269097E-02  2.60801033E-01  6.16462078E-01  2.21006028E-01
  1.14660081E-01  9.19999648E-01 -3.03068213E-03  1.00000000E+00  1.00000000E+00
  1.00000000E+00  1.00000000E+00  1.96665025E-03  1.52306019E-02  7.61269097E-02
  2.60801033E-01  6.16462078E-01  2.21006028E-01  1.14660081E-01  9.19999648E-01
 -3.03068213E-03  1.00000000E+00  1.00000000E+00  1.00000000E+00  1.00000000E+00
  1.96665025E-03  1.52306019E-02  7.61269097E-02  2.60801033E-01  6.16462078E-01
  2.21006028E-01  1.14660081E-01  9.19999648E-01 -3.03068213E-03  1.00000000E+00
  1.00000000E+00  1.00000000E+00  1.00000000E+00  2.54938145E-02  1.90373109E-01
  8.52161486E-01  1.00000000E+00  1.00000000E+00  1.00000000E+00  1.00000000E+00
  2.54938145E-02  1.90373109E-01  8.52161486E-01  1.00000000E+00  1.00000000E+00
  1.00000000E+00  1.00000000E+00  2.54938145E-02  1.90373109E-01  8.52161486E-01
  1.00000000E+00  1.00000000E+00  1.00000000E+00  1.00000000E+00  2.54938145E-02
  1.90373109E-01  8.52161486E-01  1.00000000E+00  1.00000000E+00  1.00000000E+00
  1.00000000E+00  2.54938145E-02  1.90373109E-01  8.52161486E-01  1.00000000E+00
  1.00000000E+00  1.00000000E+00  1.00000000E+00  2.54938145E-02  1.90373109E-01
  8.52161486E-01  1.00000000E+00  1.00000000E+00  1.00000000E+00  1.00000000E+00
  2.54938145E-02  1.90373109E-01  8.52161486E-01  1.00000000E+00  1.00000000E+00
  1.00000000E+00  1.00000000E+00  2.54938145E-02  1.90373109E-01  8.52161486E-01
  1.00000000E+00  1.00000000E+00  1.00000000E+00  1.00000000E+00
P(S=P) Contraction coefficients            R   N=         184
  0.00000000E+00  0.00000000E+00  0.00000000E+00  0.00000000E+00  0.00000000E+00
  0.00000000E+00  3.65113974E-02  2.37152983E-01  8.19701941E-01  1.00000000E+00
  1.00000000E+00  1.00000000E+00  0.00000000E+00  0.00000000E+00  0.00000000E+00
  0.00000000E+00  0.00000000E+00  0.00000000E+00  0.00000000E+00  0.00000000E+00
  0.00000000E+00  0.00000000E+00  0.00000000E+00  0.00000000E+00  0.00000000E+00
  0.00000000E+00  1.00000000E+00  0.00000000E+00  0.00000000E+00  0.00000000E+00
  0.00000000E+00  0.00000000E+00  0.00000000E+00  0.00000000E+00  0.00000000E+00
  0.00000000E+00  0.00000000E+00  0.00000000E+00  0.00000000E+00  0.00000000E+00
  0.00000000E+00  0.00000000E+00  0.00000000E+00  4.02486927E-02  2.37593957E-01
  8.15853851E-01  1.00000000E+00  1.00000000E+00  1.00000000E+00  0.00000000E+00
  0.00000000E+00  0.00000000E+00  0.00000000E+00  0.00000000E+00  0.00000000E+00
  0.00000000E+00  4.02486927E-02  2.37593957E-01  8.15853851E-01  1.00000000E+00
  1.00000000E+00  1.00000000E+00  0.00000000E+00  0.00000000E+00  0.00000000E+00
  0.00000000E+00  0.00000000E+00  0.00000000E+00  0.00000000E+00  4.02486927E-02
  2.37593957E-01  8.15853851E-01  1.00000000E+00  1.00000000E+00  1.00000000E+00
  0.00000000E+00  0.00000000E+00  0.00000000E+00  0.00000000E+00  0.00000000E+00
  0.00000000E+00  0.00000000E+00  4.02486927E-02  2.37593957E-01  8.15853851E-01
  1.00000000E+00  1.00000000E+00  1.00000000E+00  0.00000000E+00  0.00000000E+00
  0.00000000E+00  0.00000000E+00  0.00000000E+00  0.00000000E+00  0.00000000E+00
  4.02486927E-02  2.37593957E-01  8.15853851E-01  1.00000000E+00  1.00000000E+00
  1.00000000E+00  0.00000000E+00  0.00000000E+00  0.00000000E+00  0.00000000E+00
  0.00000000E+00  0.00000000E+00  0.00000000E+00  4.02486927E-02  2.37593957E-01