 Entering Gaussian System, Link 0=/apps/cent7/gaussian/g16-A.03/g16-haswell/g16/g16
 Initial command:
 /apps/cent7/gaussian/g16-A.03/g16-haswell/g16/l1.exe "/scratch/brown/finej/gaussian/Gau-452340.inp" -scrdir="/scratch/brown/finej/gaussian/"
 Entering Link 1 = /apps/cent7/gaussian/g16-A.03/g16-haswell/g16/l1.exe PID=    452342.
  
 Copyright (c) 1988,1990,1992,1993,1995,1998,2003,2009,2016,
            Gaussian, Inc.  All Rights Reserved.
  
 This is part of the Gaussian(R) 16 program.  It is based on
 the Gaussian(R) 09 system (copyright 2009, Gaussian, Inc.),
 the Gaussian(R) 03 system (copyright 2003, Gaussian, Inc.),
 the Gaussian(R) 98 system (copyright 1998, Gaussian, Inc.),
 the Gaussian(R) 94 system (copyright 1995, Gaussian, Inc.),
 the Gaussian 92(TM) system (copyright 1992, Gaussian, Inc.),
 the Gaussian 90(TM) system (copyright 1990, Gaussian, Inc.),
 the Gaussian 88(TM) system (copyright 1988, Gaussian, Inc.),
 the Gaussian 86(TM) system (copyright 1986, Carnegie Mellon
 University), and the Gaussian 82(TM) system (copyright 1983,
 Carnegie Mellon University). Gaussian is a federally registered
 trademark of Gaussian, Inc.
  
 This software contains proprietary and confidential information,
 including trade secrets, belonging to Gaussian, Inc.
  
 This software is provided under written license and may be
 used, copied, transmitted, or stored only in accord with that
 written license.
  
 The following legend is applicable only to US Government
 contracts under FAR:
  
                    RESTRICTED RIGHTS LEGEND
  
 Use, reproduction and disclosure by the US Government is
 subject to restrictions as set forth in subparagraphs (a)
 and (c) of the Commercial Computer Software - Restricted
 Rights clause in FAR 52.227-19.
  
 Gaussian, Inc.
 340 Quinnipiac St., Bldg. 40, Wallingford CT 06492
  
  
 ---------------------------------------------------------------
 Warning -- This program may not be used in any manner that
 competes with the business of Gaussian, Inc. or will provide
 assistance to any competitor of Gaussian, Inc.  The licensee
 of this program is prohibited from giving any competitor of
 Gaussian, Inc. access to this program.  By using this program,
 the user acknowledges that Gaussian, Inc. is engaged in the
 business of creating and licensing software in the field of
 computational chemistry and represents and warrants to the
 licensee that it is not a competitor of Gaussian, Inc. and that
 it will not use this program in any manner prohibited above.
 ---------------------------------------------------------------
  

 Cite this work as:
 Gaussian 16, Revision A.03,
 M. J. Frisch, G. W. Trucks, H. B. Schlegel, G. E. Scuseria, 
 M. A. Robb, J. R. Cheeseman, G. Scalmani, V. Barone, 
 G. A. Petersson, H. Nakatsuji, X. Li, M. Caricato, A. V. Marenich, 
 J. Bloino, B. G. Janesko, R. Gomperts, B. Mennucci, H. P. Hratchian, 
 J. V. Ortiz, A. F. Izmaylov, J. L. Sonnenberg, D. Williams-Young, 
 F. Ding, F. Lipparini, F. Egidi, J. Goings, B. Peng, A. Petrone, 
 T. Henderson, D. Ranasinghe, V. G. Zakrzewski, J. Gao, N. Rega, 
 G. Zheng, W. Liang, M. Hada, M. Ehara, K. Toyota, R. Fukuda, 
 J. Hasegawa, M. Ishida, T. Nakajima, Y. Honda, O. Kitao, H. Nakai, 
 T. Vreven, K. Throssell, J. A. Montgomery, Jr., J. E. Peralta, 
 F. Ogliaro, M. J. Bearpark, J. J. Heyd, E. N. Brothers, K. N. Kudin, 
 V. N. Staroverov, T. A. Keith, R. Kobayashi, J. Normand, 
 K. Raghavachari, A. P. Rendell, J. C. Burant, S. S. Iyengar, 
 J. Tomasi, M. Cossi, J. M. Millam, M. Klene, C. Adamo, R. Cammi, 
 J. W. Ochterski, R. L. Martin, K. Morokuma, O. Farkas, 
 J. B. Foresman, and D. J. Fox, Gaussian, Inc., Wallingford CT, 2016.
 
 ******************************************
 Gaussian 16:  ES64L-G16RevA.03 25-Dec-2016
                13-Oct-2019 
 ******************************************
 %chk=33.chk
 %nprocshared=24
 Will use up to   24 processors via shared memory.
 %mem=80GB
 -------------------------------------------------------------------
 #P opt freq m062x/6-311++g(d,p) geom=connectivity temperature=0.001
 -------------------------------------------------------------------
 1/18=20,19=15,26=3,38=1,57=2,112=-1000/1,3;
 2/9=110,12=2,17=6,18=5,40=1/2;
 3/5=4,6=6,7=1111,11=2,25=1,30=1,71=1,74=-55/1,2,3;
 4//1;
 5/5=2,38=5/2;
 6/7=2,8=2,9=2,10=2,28=1/1;
 7//1,2,3,16;
 1/18=20,19=15,26=3/3(2);
 2/9=110/2;
 99//99;
 2/9=110/2;
 3/5=4,6=6,7=1111,11=2,25=1,30=1,71=1,74=-55/1,2,3;
 4/5=5,16=3,69=1/1;
 5/5=2,38=5/2;
 7//1,2,3,16;
 1/18=20,19=15,26=3/3(-5);
 2/9=110/2;
 6/7=2,8=2,9=2,10=2,19=2,28=1/1;
 99/9=1/99;
 Leave Link    1 at Sun Oct 13 23:13:54 2019, MaxMem= 10737418240 cpu:               1.7 elap:               0.1
 (Enter /apps/cent7/gaussian/g16-A.03/g16-haswell/g16/l101.exe)
 -------------------
 Title Card Required
 -------------------
 Symbolic Z-matrix:
 Charge =  0 Multiplicity = 1
 O                    -1.8215   -1.9115    0.9391 
 S                    -0.4547   -1.741     0.1172 
 C                    -0.8543   -2.3237   -1.5718 
 C                    -0.1689    0.0009   -0.0037 
 C                     1.0742    0.5134    0.4212 
 C                     1.3369    1.8927    0.3457 
 C                     0.3577    2.7697   -0.1581 
 C                    -0.8845    2.2654   -0.5864 
 C                    -1.149     0.8839   -0.5082 
 H                    -0.8583   -3.4136   -1.5887 
 H                    -1.8373   -1.9522   -1.8612 
 H                    -0.1052   -1.9522   -2.271 
 H                     1.837    -0.1609    0.8104 
 H                     2.2994    2.282     0.6776 
 H                     0.5613    3.8389   -0.2165 
 H                    -1.6414    2.9446   -0.9785 
 H                    -2.1133    0.4977   -0.8386 
 
 ITRead=  0  0  0  0  0  0  0  0  0  0  0  0  0  0  0  0  0
 MicOpt= -1 -1 -1 -1 -1 -1 -1 -1 -1 -1 -1 -1 -1 -1 -1 -1 -1
 NAtoms=     17 NQM=       17 NQMF=       0 NMMI=      0 NMMIF=      0
                NMic=       0 NMicF=      0.
                    Isotopes and Nuclear Properties:
 (Nuclear quadrupole moments (NQMom) in fm**2, nuclear magnetic moments (NMagM)
  in nuclear magnetons)

  Atom         1           2           3           4           5           6           7           8           9          10
 IAtWgt=          16          32          12          12          12          12          12          12          12           1
 AtmWgt=  15.9949146  31.9720718  12.0000000  12.0000000  12.0000000  12.0000000  12.0000000  12.0000000  12.0000000   1.0078250
 NucSpn=           0           0           0           0           0           0           0           0           0           1
 AtZEff=  -0.0000000  -0.0000000  -0.0000000  -0.0000000  -0.0000000  -0.0000000  -0.0000000  -0.0000000  -0.0000000  -0.0000000
 NQMom=    0.0000000   0.0000000   0.0000000   0.0000000   0.0000000   0.0000000   0.0000000   0.0000000   0.0000000   0.0000000
 NMagM=    0.0000000   0.0000000   0.0000000   0.0000000   0.0000000   0.0000000   0.0000000   0.0000000   0.0000000   2.7928460
 AtZNuc=   8.0000000  16.0000000   6.0000000   6.0000000   6.0000000   6.0000000   6.0000000   6.0000000   6.0000000   1.0000000

  Atom        11          12          13          14          15          16          17
 IAtWgt=           1           1           1           1           1           1           1
 AtmWgt=   1.0078250   1.0078250   1.0078250   1.0078250   1.0078250   1.0078250   1.0078250
 NucSpn=           1           1           1           1           1           1           1
 AtZEff=  -0.0000000  -0.0000000  -0.0000000  -0.0000000  -0.0000000  -0.0000000  -0.0000000
 NQMom=    0.0000000   0.0000000   0.0000000   0.0000000   0.0000000   0.0000000   0.0000000
 NMagM=    2.7928460   2.7928460   2.7928460   2.7928460   2.7928460   2.7928460   2.7928460
 AtZNuc=   1.0000000   1.0000000   1.0000000   1.0000000   1.0000000   1.0000000   1.0000000
 Leave Link  101 at Sun Oct 13 23:13:54 2019, MaxMem= 10737418240 cpu:              13.9 elap:               0.6
 (Enter /apps/cent7/gaussian/g16-A.03/g16-haswell/g16/l103.exe)

 GradGradGradGradGradGradGradGradGradGradGradGradGradGradGradGradGradGrad
 Berny optimization.
 Initialization pass.
                           ----------------------------
                           !    Initial Parameters    !
                           ! (Angstroms and Degrees)  !
 --------------------------                            --------------------------
 ! Name  Definition              Value          Derivative Info.                !
 --------------------------------------------------------------------------------
 ! R1    R(1,2)                  1.604          estimate D2E/DX2                !
 ! R2    R(2,3)                  1.8308         estimate D2E/DX2                !
 ! R3    R(2,4)                  1.7693         estimate D2E/DX2                !
 ! R4    R(3,10)                 1.09           estimate D2E/DX2                !
 ! R5    R(3,11)                 1.09           estimate D2E/DX2                !
 ! R6    R(3,12)                 1.09           estimate D2E/DX2                !
 ! R7    R(4,5)                  1.4101         estimate D2E/DX2                !
 ! R8    R(4,9)                  1.4124         estimate D2E/DX2                !
 ! R9    R(5,6)                  1.4061         estimate D2E/DX2                !
 ! R10   R(5,13)                 1.09           estimate D2E/DX2                !
 ! R11   R(6,7)                  1.4078         estimate D2E/DX2                !
 ! R12   R(6,14)                 1.09           estimate D2E/DX2                !
 ! R13   R(7,8)                  1.4074         estimate D2E/DX2                !
 ! R14   R(7,15)                 1.09           estimate D2E/DX2                !
 ! R15   R(8,9)                  1.4088         estimate D2E/DX2                !
 ! R16   R(8,16)                 1.0899         estimate D2E/DX2                !
 ! R17   R(9,17)                 1.09           estimate D2E/DX2                !
 ! A1    A(1,2,3)              104.6492         estimate D2E/DX2                !
 ! A2    A(1,2,4)              106.0997         estimate D2E/DX2                !
 ! A3    A(3,2,4)              106.5921         estimate D2E/DX2                !
 ! A4    A(2,3,10)             109.4713         estimate D2E/DX2                !
 ! A5    A(2,3,11)             109.4694         estimate D2E/DX2                !
 ! A6    A(2,3,12)             109.4697         estimate D2E/DX2                !
 ! A7    A(10,3,11)            109.473          estimate D2E/DX2                !
 ! A8    A(10,3,12)            109.4733         estimate D2E/DX2                !
 ! A9    A(11,3,12)            109.4706         estimate D2E/DX2                !
 ! A10   A(2,4,5)              118.6601         estimate D2E/DX2                !
 ! A11   A(2,4,9)              121.8578         estimate D2E/DX2                !
 ! A12   A(5,4,9)              119.4819         estimate D2E/DX2                !
 ! A13   A(4,5,6)              120.3329         estimate D2E/DX2                !
 ! A14   A(4,5,13)             119.9797         estimate D2E/DX2                !
 ! A15   A(6,5,13)             119.6874         estimate D2E/DX2                !
 ! A16   A(5,6,7)              120.0237         estimate D2E/DX2                !
 ! A17   A(5,6,14)             119.9314         estimate D2E/DX2                !
 ! A18   A(7,6,14)             120.045          estimate D2E/DX2                !
 ! A19   A(6,7,8)              119.9739         estimate D2E/DX2                !
 ! A20   A(6,7,15)             120.023          estimate D2E/DX2                !
 ! A21   A(8,7,15)             120.003          estimate D2E/DX2                !
 ! A22   A(7,8,9)              120.0134         estimate D2E/DX2                !
 ! A23   A(7,8,16)             119.9415         estimate D2E/DX2                !
 ! A24   A(9,8,16)             120.0452         estimate D2E/DX2                !
 ! A25   A(4,9,8)              120.174          estimate D2E/DX2                !
 ! A26   A(4,9,17)             120.0434         estimate D2E/DX2                !
 ! A27   A(8,9,17)             119.7827         estimate D2E/DX2                !
 ! D1    D(1,2,3,10)           -78.2491         estimate D2E/DX2                !
 ! D2    D(1,2,3,11)            41.752          estimate D2E/DX2                !
 ! D3    D(1,2,3,12)           161.7493         estimate D2E/DX2                !
 ! D4    D(4,2,3,10)           169.6049         estimate D2E/DX2                !
 ! D5    D(4,2,3,11)           -70.3939         estimate D2E/DX2                !
 ! D6    D(4,2,3,12)            49.6033         estimate D2E/DX2                !
 ! D7    D(1,2,4,5)            126.5804         estimate D2E/DX2                !
 ! D8    D(1,2,4,9)            -53.2551         estimate D2E/DX2                !
 ! D9    D(3,2,4,5)           -122.2789         estimate D2E/DX2                !
 ! D10   D(3,2,4,9)             57.8856         estimate D2E/DX2                !
 ! D11   D(2,4,5,6)           -179.7486         estimate D2E/DX2                !
 ! D12   D(2,4,5,13)             0.2582         estimate D2E/DX2                !
 ! D13   D(9,4,5,6)              0.0909         estimate D2E/DX2                !
 ! D14   D(9,4,5,13)          -179.9023         estimate D2E/DX2                !
 ! D15   D(2,4,9,8)            179.8792         estimate D2E/DX2                !
 ! D16   D(2,4,9,17)            -0.1266         estimate D2E/DX2                !
 ! D17   D(5,4,9,8)              0.0451         estimate D2E/DX2                !
 ! D18   D(5,4,9,17)          -179.9608         estimate D2E/DX2                !
 ! D19   D(4,5,6,7)             -0.1106         estimate D2E/DX2                !
 ! D20   D(4,5,6,14)           179.8917         estimate D2E/DX2                !
 ! D21   D(13,5,6,7)           179.8826         estimate D2E/DX2                !
 ! D22   D(13,5,6,14)           -0.1151         estimate D2E/DX2                !
 ! D23   D(5,6,7,8)             -0.0061         estimate D2E/DX2                !
 ! D24   D(5,6,7,15)           179.9921         estimate D2E/DX2                !
 ! D25   D(14,6,7,8)           179.9916         estimate D2E/DX2                !
 ! D26   D(14,6,7,15)           -0.0102         estimate D2E/DX2                !
 ! D27   D(6,7,8,9)              0.1417         estimate D2E/DX2                !
 ! D28   D(6,7,8,16)          -179.8599         estimate D2E/DX2                !
 ! D29   D(15,7,8,9)          -179.8565         estimate D2E/DX2                !
 ! D30   D(15,7,8,16)            0.1419         estimate D2E/DX2                !
 ! D31   D(7,8,9,4)             -0.1613         estimate D2E/DX2                !
 ! D32   D(7,8,9,17)           179.8445         estimate D2E/DX2                !
 ! D33   D(16,8,9,4)           179.8403         estimate D2E/DX2                !
 ! D34   D(16,8,9,17)           -0.1539         estimate D2E/DX2                !
 --------------------------------------------------------------------------------
 Trust Radius=3.00D-01 FncErr=1.00D-07 GrdErr=1.00D-06 EigMax=2.50D+02 EigMin=1.00D-04
 Number of steps in this run=     88 maximum allowed number of steps=    102.
 GradGradGradGradGradGradGradGradGradGradGradGradGradGradGradGradGradGrad

 Leave Link  103 at Sun Oct 13 23:13:54 2019, MaxMem= 10737418240 cpu:               0.4 elap:               0.0
 (Enter /apps/cent7/gaussian/g16-A.03/g16-haswell/g16/l202.exe)
                          Input orientation:                          
 ---------------------------------------------------------------------
 Center     Atomic      Atomic             Coordinates (Angstroms)
 Number     Number       Type             X           Y           Z
 ---------------------------------------------------------------------
      1          8           0       -1.821500   -1.911500    0.939100
      2         16           0       -0.454700   -1.741000    0.117200
      3          6           0       -0.854300   -2.323700   -1.571800
      4          6           0       -0.168900    0.000900   -0.003700
      5          6           0        1.074200    0.513400    0.421200
      6          6           0        1.336900    1.892700    0.345700
      7          6           0        0.357700    2.769700   -0.158100
      8          6           0       -0.884500    2.265400   -0.586400
      9          6           0       -1.149000    0.883900   -0.508200
     10          1           0       -0.858300   -3.413600   -1.588700
     11          1           0       -1.837300   -1.952200   -1.861200
     12          1           0       -0.105200   -1.952200   -2.271000
     13          1           0        1.837000   -0.160900    0.810400
     14          1           0        2.299400    2.282000    0.677600
     15          1           0        0.561300    3.838900   -0.216500
     16          1           0       -1.641400    2.944600   -0.978500
     17          1           0       -2.113300    0.497700   -0.838600
 ---------------------------------------------------------------------
                    Distance matrix (angstroms):
                    1          2          3          4          5
     1  O    0.000000
     2  S    1.603974   0.000000
     3  C    2.722132   1.830831   0.000000
     4  C    2.697635   1.769326   2.886603   0.000000
     5  C    3.812275   2.740852   3.967404   1.410140   0.000000
     6  C    4.979915   4.057810   5.124080   2.443035   1.406122
     7  C    5.278863   4.591536   5.423119   2.822658   2.437181
     8  C    4.544405   4.090357   4.693801   2.445319   2.814475
     9  C    3.218881   2.786266   3.392166   1.412376   2.437965
    10  H    3.094161   2.422928   1.090038   3.827049   4.816179
    11  H    2.800640   2.422861   1.089979   3.169931   4.445826
    12  H    3.640341   2.422861   1.089974   2.993210   3.836419
    13  H    4.057806   2.868646   4.194720   2.170846   1.089964
    14  H    5.885205   4.907509   6.018147   3.429299   2.166749
    15  H    6.330896   5.681452   6.466715   3.912636   3.424716
    16  H    5.224111   4.956174   5.359712   3.432763   3.904405
    17  H    3.008257   2.945553   3.175368   2.173605   3.427462
                    6          7          8          9         10
     6  C    0.000000
     7  C    1.407756   0.000000
     8  C    2.437690   1.407416   0.000000
     9  C    2.815408   2.439048   1.408765   0.000000
    10  H    6.059507   6.462079   5.766830   4.440776   0.000000
    11  H    5.452450   5.478587   4.507892   3.216804   1.779996
    12  H    4.869294   5.193743   4.607964   3.498635   1.779995
    13  H    2.164098   3.422680   3.904426   3.427318   4.858022
    14  H    1.090008   2.169434   3.425666   3.905415   6.895436
    15  H    2.169175   1.089978   2.168655   3.426695   7.516446
    16  H    3.424948   2.167959   1.089932   2.170282   6.435239
    17  H    3.905441   3.425041   2.167560   1.090041   4.175637
                   11         12         13         14         15
    11  H    0.000000
    12  H    1.779918   0.000000
    13  H    4.883307   4.059054   0.000000
    14  H    6.440981   5.692521   2.489821   0.000000
    15  H    6.480367   6.180779   4.322075   2.498869   0.000000
    16  H    4.979577   5.292364   4.994353   4.325692   2.496458
    17  H    2.669063   3.476528   4.331030   4.995449   4.324825
                   16         17
    16  H    0.000000
    17  H    2.495913   0.000000
 Stoichiometry    C7H8OS
 Framework group  C1[X(C7H8OS)]
 Deg. of freedom    45
 Full point group                 C1      NOp   1
 Largest Abelian subgroup         C1      NOp   1
 Largest concise Abelian subgroup C1      NOp   1
                         Standard orientation:                         
 ---------------------------------------------------------------------
 Center     Atomic      Atomic             Coordinates (Angstroms)
 Number     Number       Type             X           Y           Z
 ---------------------------------------------------------------------
      1          8           0        2.157760    0.246715   -1.413136
      2         16           0        1.616441   -0.496423   -0.098811
      3          6           0        2.362512    0.426451    1.295327
      4          6           0       -0.123733   -0.182193   -0.039069
      5          6           0       -1.005285   -1.277167    0.072248
      6          6           0       -2.395063   -1.068206    0.117333
      7          6           0       -2.913223    0.239170    0.053652
      8          6           0       -2.039610    1.337261   -0.055047
      9          6           0       -0.647305    1.127988   -0.103113
     10          1           0        3.402337    0.122890    1.416974
     11          1           0        2.317957    1.495691    1.088460
     12          1           0        1.811404    0.210186    2.210507
     13          1           0       -0.609963   -2.291600    0.123890
     14          1           0       -3.070590   -1.919481    0.201666
     15          1           0       -3.990539    0.401128    0.088471
     16          1           0       -2.441261    2.349399   -0.102008
     17          1           0        0.025752    1.981015   -0.189881
 ---------------------------------------------------------------------
 Rotational constants (GHZ):           3.0868543           0.8771903           0.8170411
 Leave Link  202 at Sun Oct 13 23:13:54 2019, MaxMem= 10737418240 cpu:               0.5 elap:               0.0
 (Enter /apps/cent7/gaussian/g16-A.03/g16-haswell/g16/l301.exe)
 Standard basis: 6-311++G(d,p) (5D, 7F)
 Ernie: Thresh=  0.10000D-02 Tol=  0.10000D-05 Strict=F.
 There are   271 symmetry adapted cartesian basis functions of A   symmetry.
 There are   262 symmetry adapted basis functions of A   symmetry.
   262 basis functions,   410 primitive gaussians,   271 cartesian basis functions
    37 alpha electrons       37 beta electrons
       nuclear repulsion energy       498.5308925431 Hartrees.
 IExCor= 4336 DFT=T Ex+Corr=M062X ExCW=0 ScaHFX=  0.540000
 ScaDFX=  1.000000  1.000000  1.000000  1.000000 ScalE2=  1.000000  1.000000
 IRadAn=      5 IRanWt=     -1 IRanGd=            0 ICorTp=0 IEmpDi=  4
 NAtoms=   17 NActive=   17 NUniq=   17 SFac= 1.00D+00 NAtFMM=   60 NAOKFM=F Big=F
 Integral buffers will be    131072 words long.
 Raffenetti 2 integral format.
 Two-electron integral symmetry is turned on.
 Leave Link  301 at Sun Oct 13 23:13:54 2019, MaxMem= 10737418240 cpu:               1.4 elap:               0.1
 (Enter /apps/cent7/gaussian/g16-A.03/g16-haswell/g16/l302.exe)
 NPDir=0 NMtPBC=     1 NCelOv=     1 NCel=       1 NClECP=     1 NCelD=      1
         NCelK=      1 NCelE2=     1 NClLst=     1 CellRange=     0.0.
 One-electron integrals computed using PRISM.
 One-electron integral symmetry used in STVInt
 NBasis=   262 RedAO= T EigKep=  2.81D-06  NBF=   262
 NBsUse=   261 1.00D-06 EigRej=  9.71D-07 NBFU=   261
 Precomputing XC quadrature grid using
 IXCGrd= 4 IRadAn=           5 IRanWt=          -1 IRanGd=           0 AccXCQ= 0.00D+00.
 Generated NRdTot=       0 NPtTot=           0 NUsed=           0 NTot=          32
 NSgBfM=   271   271   271   271   271 MxSgAt=    17 MxSgA2=    17.
 Leave Link  302 at Sun Oct 13 23:13:55 2019, MaxMem= 10737418240 cpu:               4.3 elap:               0.2
 (Enter /apps/cent7/gaussian/g16-A.03/g16-haswell/g16/l303.exe)
 DipDrv:  MaxL=1.
 Leave Link  303 at Sun Oct 13 23:13:55 2019, MaxMem= 10737418240 cpu:               1.0 elap:               0.1
 (Enter /apps/cent7/gaussian/g16-A.03/g16-haswell/g16/l401.exe)
 ExpMin= 3.60D-02 ExpMax= 9.34D+04 ExpMxC= 3.17D+03 IAcc=3 IRadAn=         5 AccDes= 0.00D+00
 Harris functional with IExCor= 1009 and IRadAn=       5 diagonalized for initial guess.
 HarFok:  IExCor= 1009 AccDes= 0.00D+00 IRadAn=         5 IDoV= 1 UseB2=F ITyADJ=14
 ICtDFT=  3500011 ScaDFX=  1.000000  1.000000  1.000000  1.000000
 FoFCou: FMM=F IPFlag=           0 FMFlag=      100000 FMFlg1=           0
         NFxFlg=           0 DoJE=T BraDBF=F KetDBF=T FulRan=T
         wScrn=  0.000000 ICntrl=       500 IOpCl=  0 I1Cent=   200000004 NGrid=           0
         NMat0=    1 NMatS0=      1 NMatT0=    0 NMatD0=    1 NMtDS0=    0 NMtDT0=    0
 Petite list used in FoFCou.
 Harris En= -744.577565076534    
 JPrj=0 DoOrth=F DoCkMO=F.
 Leave Link  401 at Sun Oct 13 23:13:55 2019, MaxMem= 10737418240 cpu:               9.9 elap:               0.5
 (Enter /apps/cent7/gaussian/g16-A.03/g16-haswell/g16/l502.exe)
 Integral symmetry usage will be decided dynamically.
 Closed shell SCF:
 Using DIIS extrapolation, IDIIS=  1040.
 NGot= 10737418240 LenX= 10737262166 LenY= 10737188284
 Requested convergence on RMS density matrix=1.00D-08 within 128 cycles.
 Requested convergence on MAX density matrix=1.00D-06.
 Requested convergence on             energy=1.00D-06.
 No special actions if energy rises.
 Fock matrices will be formed incrementally for  20 cycles.

 Cycle   1  Pass 1  IDiag  1:
 FoFJK:  IHMeth= 1 ICntrl=       0 DoSepK=F KAlg= 0 I1Cent=           0 FoldK=F
 IRaf= 950000000 NMat=       1 IRICut=       1 DoRegI=T DoRafI=F ISym2E= 0 IDoP0=0 IntGTp=1.
 FoFCou: FMM=F IPFlag=           0 FMFlag=      100000 FMFlg1=           0
         NFxFlg=           0 DoJE=F BraDBF=F KetDBF=F FulRan=T
         wScrn=  0.000000 ICntrl=         0 IOpCl=  0 I1Cent=           0 NGrid=           0
         NMat0=    1 NMatS0=      1 NMatT0=    0 NMatD0=    1 NMtDS0=    0 NMtDT0=    0
 Symmetry not used in FoFCou.
 E= -744.479651934685    
 DIIS: error= 4.85D-02 at cycle   1 NSaved=   1.
 NSaved= 1 IEnMin= 1 EnMin= -744.479651934685     IErMin= 1 ErrMin= 4.85D-02
 ErrMax= 4.85D-02  0.00D+00 EMaxC= 1.00D-01 BMatC= 4.83D-01 BMatP= 4.83D-01
 IDIUse=3 WtCom= 5.15D-01 WtEn= 4.85D-01
 Coeff-Com:  0.100D+01
 Coeff-En:   0.100D+01
 Coeff:      0.100D+01
 Gap=     0.341 Goal=   None    Shift=    0.000
 GapD=    0.341 DampG=1.000 DampE=0.500 DampFc=0.5000 IDamp=-1.
 Damping current iteration by 5.00D-01
 RMSDP=2.65D-01 MaxDP=2.64D+01              OVMax= 2.76D-01

 Cycle   2  Pass 1  IDiag  1:
 RMSU=  6.91D-02    CP:  3.00D+00
 E= -744.596678612789     Delta-E=       -0.117026678105 Rises=F Damp=T
 DIIS: error= 1.76D-02 at cycle   2 NSaved=   2.
 NSaved= 2 IEnMin= 2 EnMin= -744.596678612789     IErMin= 2 ErrMin= 1.76D-02
 ErrMax= 1.76D-02  0.00D+00 EMaxC= 1.00D-01 BMatC= 5.77D-02 BMatP= 4.83D-01
 IDIUse=3 WtCom= 8.24D-01 WtEn= 1.76D-01
 Coeff-Com:  0.127D+00 0.873D+00
 Coeff-En:   0.278D+00 0.722D+00
 Coeff:      0.153D+00 0.847D+00
 Gap=     0.323 Goal=   None    Shift=    0.000
 RMSDP=8.90D-02 MaxDP=8.89D+00 DE=-1.17D-01 OVMax= 2.05D-01

 Cycle   3  Pass 1  IDiag  1:
 RMSU=  1.37D-02    CP:  1.71D+00  3.31D-01
 E= -744.798116409397     Delta-E=       -0.201437796608 Rises=F Damp=F
 DIIS: error= 2.11D-02 at cycle   3 NSaved=   3.
 NSaved= 3 IEnMin= 3 EnMin= -744.798116409397     IErMin= 2 ErrMin= 1.76D-02
 ErrMax= 2.11D-02  0.00D+00 EMaxC= 1.00D-01 BMatC= 4.85D-02 BMatP= 5.77D-02
 IDIUse=3 WtCom= 7.89D-01 WtEn= 2.11D-01
 Coeff-Com: -0.179D-01 0.478D+00 0.540D+00
 Coeff-En:   0.000D+00 0.000D+00 0.100D+01
 Coeff:     -0.141D-01 0.377D+00 0.637D+00
 Gap=     0.282 Goal=   None    Shift=    0.000
 RMSDP=3.45D-02 MaxDP=3.63D+00 DE=-2.01D-01 OVMax= 7.60D-02

 Cycle   4  Pass 1  IDiag  1:
 RMSU=  6.39D-03    CP:  2.26D+00  5.63D-01  9.87D-01
 E= -744.830054833708     Delta-E=       -0.031938424311 Rises=F Damp=F
 DIIS: error= 7.00D-03 at cycle   4 NSaved=   4.
 NSaved= 4 IEnMin= 4 EnMin= -744.830054833708     IErMin= 4 ErrMin= 7.00D-03
 ErrMax= 7.00D-03  0.00D+00 EMaxC= 1.00D-01 BMatC= 1.09D-02 BMatP= 4.85D-02
 IDIUse=3 WtCom= 9.30D-01 WtEn= 7.00D-02
 Coeff-Com: -0.971D-02 0.505D-01 0.338D+00 0.621D+00
 Coeff-En:   0.000D+00 0.000D+00 0.200D+00 0.800D+00
 Coeff:     -0.903D-02 0.470D-01 0.328D+00 0.634D+00
 Gap=     0.266 Goal=   None    Shift=    0.000
 RMSDP=1.02D-02 MaxDP=1.11D+00 DE=-3.19D-02 OVMax= 2.82D-02

 Cycle   5  Pass 1  IDiag  1:
 RMSU=  1.79D-03    CP:  2.10D+00  4.94D-01  1.12D+00  7.60D-01
 E= -744.839200246335     Delta-E=       -0.009145412628 Rises=F Damp=F
 DIIS: error= 6.44D-04 at cycle   5 NSaved=   5.
 NSaved= 5 IEnMin= 5 EnMin= -744.839200246335     IErMin= 5 ErrMin= 6.44D-04
 ErrMax= 6.44D-04  0.00D+00 EMaxC= 1.00D-01 BMatC= 1.03D-04 BMatP= 1.09D-02
 IDIUse=3 WtCom= 9.94D-01 WtEn= 6.44D-03
 Coeff-Com: -0.588D-03-0.705D-02 0.436D-01 0.156D+00 0.808D+00
 Coeff-En:   0.000D+00 0.000D+00 0.000D+00 0.000D+00 0.100D+01
 Coeff:     -0.585D-03-0.701D-02 0.433D-01 0.155D+00 0.809D+00
 Gap=     0.262 Goal=   None    Shift=    0.000
 RMSDP=4.28D-04 MaxDP=2.40D-02 DE=-9.15D-03 OVMax= 3.29D-03

 Cycle   6  Pass 1  IDiag  1:
 RMSU=  2.25D-04    CP:  2.10D+00  4.90D-01  1.12D+00  7.71D-01  9.43D-01
 E= -744.839302094646     Delta-E=       -0.000101848310 Rises=F Damp=F
 DIIS: error= 3.19D-04 at cycle   6 NSaved=   6.
 NSaved= 6 IEnMin= 6 EnMin= -744.839302094646     IErMin= 6 ErrMin= 3.19D-04
 ErrMax= 3.19D-04  0.00D+00 EMaxC= 1.00D-01 BMatC= 1.19D-05 BMatP= 1.03D-04
 IDIUse=3 WtCom= 9.97D-01 WtEn= 3.19D-03
 Coeff-Com:  0.858D-03-0.651D-02-0.623D-02 0.166D-01 0.296D+00 0.700D+00
 Coeff-En:   0.000D+00 0.000D+00 0.000D+00 0.000D+00 0.000D+00 0.100D+01
 Coeff:      0.855D-03-0.649D-02-0.621D-02 0.166D-01 0.295D+00 0.701D+00
 Gap=     0.263 Goal=   None    Shift=    0.000
 RMSDP=2.66D-04 MaxDP=2.10D-02 DE=-1.02D-04 OVMax= 1.78D-03

 Cycle   7  Pass 1  IDiag  1:
 RMSU=  7.32D-05    CP:  2.10D+00  4.88D-01  1.12D+00  7.80D-01  9.91D-01
                    CP:  1.14D+00
 E= -744.839314979898     Delta-E=       -0.000012885253 Rises=F Damp=F
 DIIS: error= 1.64D-04 at cycle   7 NSaved=   7.
 NSaved= 7 IEnMin= 7 EnMin= -744.839314979898     IErMin= 7 ErrMin= 1.64D-04
 ErrMax= 1.64D-04  0.00D+00 EMaxC= 1.00D-01 BMatC= 2.82D-06 BMatP= 1.19D-05
 IDIUse=3 WtCom= 9.98D-01 WtEn= 1.64D-03
 Coeff-Com:  0.615D-03-0.196D-02-0.108D-01-0.193D-01 0.248D-02 0.338D+00
 Coeff-Com:  0.691D+00
 Coeff-En:   0.000D+00 0.000D+00 0.000D+00 0.000D+00 0.000D+00 0.000D+00
 Coeff-En:   0.100D+01
 Coeff:      0.614D-03-0.196D-02-0.108D-01-0.193D-01 0.248D-02 0.337D+00
 Coeff:      0.691D+00
 Gap=     0.263 Goal=   None    Shift=    0.000
 RMSDP=3.69D-04 MaxDP=3.82D-02 DE=-1.29D-05 OVMax= 7.01D-04

 Cycle   8  Pass 1  IDiag  1:
 RMSU=  5.37D-05    CP:  2.09D+00  4.85D-01  1.13D+00  7.82D-01  1.02D+00
                    CP:  1.23D+00  9.51D-01
 E= -744.839318686086     Delta-E=       -0.000003706188 Rises=F Damp=F
 DIIS: error= 4.10D-05 at cycle   8 NSaved=   8.
 NSaved= 8 IEnMin= 8 EnMin= -744.839318686086     IErMin= 8 ErrMin= 4.10D-05
 ErrMax= 4.10D-05  0.00D+00 EMaxC= 1.00D-01 BMatC= 3.16D-07 BMatP= 2.82D-06
 IDIUse=1 WtCom= 1.00D+00 WtEn= 0.00D+00
 Coeff-Com:  0.174D-03-0.861D-04-0.441D-02-0.111D-01-0.379D-01 0.512D-01
 Coeff-Com:  0.298D+00 0.704D+00
 Coeff:      0.174D-03-0.861D-04-0.441D-02-0.111D-01-0.379D-01 0.512D-01
 Coeff:      0.298D+00 0.704D+00
 Gap=     0.263 Goal=   None    Shift=    0.000
 RMSDP=1.00D-04 MaxDP=9.88D-03 DE=-3.71D-06 OVMax= 2.39D-04

 Cycle   9  Pass 1  IDiag  1:
 RMSU=  1.22D-05    CP:  2.09D+00  4.84D-01  1.13D+00  7.82D-01  1.02D+00
                    CP:  1.27D+00  1.10D+00  1.03D+00
 E= -744.839319108418     Delta-E=       -0.000000422332 Rises=F Damp=F
 DIIS: error= 1.06D-05 at cycle   9 NSaved=   9.
 NSaved= 9 IEnMin= 9 EnMin= -744.839319108418     IErMin= 9 ErrMin= 1.06D-05
 ErrMax= 1.06D-05  0.00D+00 EMaxC= 1.00D-01 BMatC= 2.60D-08 BMatP= 3.16D-07
 IDIUse=1 WtCom= 1.00D+00 WtEn= 0.00D+00
 Coeff-Com: -0.173D-04 0.205D-03-0.354D-03-0.141D-02-0.145D-01-0.218D-01
 Coeff-Com:  0.179D-01 0.208D+00 0.812D+00
 Coeff:     -0.173D-04 0.205D-03-0.354D-03-0.141D-02-0.145D-01-0.218D-01
 Coeff:      0.179D-01 0.208D+00 0.812D+00
 Gap=     0.263 Goal=   None    Shift=    0.000
 RMSDP=5.29D-05 MaxDP=5.03D-03 DE=-4.22D-07 OVMax= 7.70D-05

 Cycle  10  Pass 1  IDiag  1:
 RMSU=  3.34D-06    CP:  2.09D+00  4.84D-01  1.13D+00  7.82D-01  1.02D+00
                    CP:  1.28D+00  1.17D+00  1.12D+00  1.14D+00
 E= -744.839319145524     Delta-E=       -0.000000037106 Rises=F Damp=F
 DIIS: error= 5.11D-06 at cycle  10 NSaved=  10.
 NSaved=10 IEnMin=10 EnMin= -744.839319145524     IErMin=10 ErrMin= 5.11D-06
 ErrMax= 5.11D-06  0.00D+00 EMaxC= 1.00D-01 BMatC= 4.63D-09 BMatP= 2.60D-08
 IDIUse=1 WtCom= 1.00D+00 WtEn= 0.00D+00
 Coeff-Com: -0.201D-04 0.707D-04 0.326D-03 0.722D-03-0.194D-02-0.132D-01
 Coeff-Com: -0.259D-01-0.375D-02 0.340D+00 0.704D+00
 Coeff:     -0.201D-04 0.707D-04 0.326D-03 0.722D-03-0.194D-02-0.132D-01
 Coeff:     -0.259D-01-0.375D-02 0.340D+00 0.704D+00
 Gap=     0.263 Goal=   None    Shift=    0.000
 RMSDP=8.71D-06 MaxDP=7.61D-04 DE=-3.71D-08 OVMax= 2.00D-05

 Cycle  11  Pass 1  IDiag  1:
 RMSU=  1.12D-06    CP:  2.09D+00  4.84D-01  1.13D+00  7.82D-01  1.02D+00
                    CP:  1.29D+00  1.18D+00  1.14D+00  1.19D+00  1.04D+00
 E= -744.839319150516     Delta-E=       -0.000000004992 Rises=F Damp=F
 DIIS: error= 8.17D-07 at cycle  11 NSaved=  11.
 NSaved=11 IEnMin=11 EnMin= -744.839319150516     IErMin=11 ErrMin= 8.17D-07
 ErrMax= 8.17D-07  0.00D+00 EMaxC= 1.00D-01 BMatC= 2.47D-10 BMatP= 4.63D-09
 IDIUse=1 WtCom= 1.00D+00 WtEn= 0.00D+00
 Coeff-Com:  0.203D-05-0.606D-05 0.109D-03 0.287D-03 0.604D-03-0.912D-03
 Coeff-Com: -0.790D-02-0.209D-01 0.209D-01 0.206D+00 0.802D+00
 Coeff:      0.203D-05-0.606D-05 0.109D-03 0.287D-03 0.604D-03-0.912D-03
 Coeff:     -0.790D-02-0.209D-01 0.209D-01 0.206D+00 0.802D+00
 Gap=     0.263 Goal=   None    Shift=    0.000
 RMSDP=4.42D-06 MaxDP=4.51D-04 DE=-4.99D-09 OVMax= 6.36D-06

 Cycle  12  Pass 1  IDiag  1:
 RMSU=  3.72D-07    CP:  2.09D+00  4.84D-01  1.13D+00  7.82D-01  1.02D+00
                    CP:  1.29D+00  1.18D+00  1.15D+00  1.21D+00  1.01D+00
                    CP:  1.19D+00
 E= -744.839319150754     Delta-E=       -0.000000000238 Rises=F Damp=F
 DIIS: error= 3.64D-07 at cycle  12 NSaved=  12.
 NSaved=12 IEnMin=12 EnMin= -744.839319150754     IErMin=12 ErrMin= 3.64D-07
 ErrMax= 3.64D-07  0.00D+00 EMaxC= 1.00D-01 BMatC= 3.21D-11 BMatP= 2.47D-10
 IDIUse=1 WtCom= 1.00D+00 WtEn= 0.00D+00
 Coeff-Com:  0.297D-05-0.843D-05 0.267D-04 0.680D-04 0.368D-03 0.515D-03
 Coeff-Com: -0.154D-02-0.776D-02-0.148D-01 0.390D-01 0.337D+00 0.648D+00
 Coeff:      0.297D-05-0.843D-05 0.267D-04 0.680D-04 0.368D-03 0.515D-03
 Coeff:     -0.154D-02-0.776D-02-0.148D-01 0.390D-01 0.337D+00 0.648D+00
 Gap=     0.263 Goal=   None    Shift=    0.000
 RMSDP=3.93D-07 MaxDP=3.88D-05 DE=-2.38D-10 OVMax= 2.19D-06

 Cycle  13  Pass 1  IDiag  1:
 RMSU=  8.37D-08    CP:  2.09D+00  4.84D-01  1.13D+00  7.82D-01  1.02D+00
                    CP:  1.29D+00  1.18D+00  1.15D+00  1.21D+00  1.02D+00
                    CP:  1.19D+00  1.01D+00
 E= -744.839319150784     Delta-E=       -0.000000000029 Rises=F Damp=F
 DIIS: error= 1.70D-07 at cycle  13 NSaved=  13.
 NSaved=13 IEnMin=13 EnMin= -744.839319150784     IErMin=13 ErrMin= 1.70D-07
 ErrMax= 1.70D-07  0.00D+00 EMaxC= 1.00D-01 BMatC= 4.09D-12 BMatP= 3.21D-11
 IDIUse=1 WtCom= 1.00D+00 WtEn= 0.00D+00
 Coeff-Com:  0.112D-05-0.314D-05 0.905D-06-0.283D-05 0.856D-04 0.302D-03
 Coeff-Com:  0.240D-03-0.535D-03-0.880D-02-0.702D-02 0.540D-01 0.291D+00
 Coeff-Com:  0.671D+00
 Coeff:      0.112D-05-0.314D-05 0.905D-06-0.283D-05 0.856D-04 0.302D-03
 Coeff:      0.240D-03-0.535D-03-0.880D-02-0.702D-02 0.540D-01 0.291D+00
 Coeff:      0.671D+00
 Gap=     0.263 Goal=   None    Shift=    0.000
 RMSDP=8.09D-08 MaxDP=4.18D-06 DE=-2.93D-11 OVMax= 1.26D-06

 Cycle  14  Pass 1  IDiag  1:
 RMSU=  3.43D-08    CP:  2.09D+00  4.84D-01  1.13D+00  7.82D-01  1.02D+00
                    CP:  1.29D+00  1.18D+00  1.15D+00  1.21D+00  1.02D+00
                    CP:  1.20D+00  1.04D+00  1.22D+00
 E= -744.839319150791     Delta-E=       -0.000000000008 Rises=F Damp=F
 DIIS: error= 4.70D-08 at cycle  14 NSaved=  14.
 NSaved=14 IEnMin=14 EnMin= -744.839319150791     IErMin=14 ErrMin= 4.70D-08
 ErrMax= 4.70D-08  0.00D+00 EMaxC= 1.00D-01 BMatC= 2.89D-13 BMatP= 4.09D-12
 IDIUse=1 WtCom= 1.00D+00 WtEn= 0.00D+00
 Coeff-Com:  0.417D-07-0.189D-06-0.241D-05-0.730D-05-0.613D-05 0.624D-04
 Coeff-Com:  0.253D-03 0.547D-03-0.169D-02-0.631D-02-0.153D-01 0.193D-01
 Coeff-Com:  0.214D+00 0.789D+00
 Coeff:      0.417D-07-0.189D-06-0.241D-05-0.730D-05-0.613D-05 0.624D-04
 Coeff:      0.253D-03 0.547D-03-0.169D-02-0.631D-02-0.153D-01 0.193D-01
 Coeff:      0.214D+00 0.789D+00
 Gap=     0.263 Goal=   None    Shift=    0.000
 RMSDP=6.59D-08 MaxDP=3.29D-06 DE=-7.96D-12 OVMax= 3.88D-07

 Cycle  15  Pass 1  IDiag  1:
 RMSU=  1.19D-08    CP:  2.09D+00  4.84D-01  1.13D+00  7.82D-01  1.02D+00
                    CP:  1.29D+00  1.18D+00  1.15D+00  1.21D+00  1.02D+00
                    CP:  1.22D+00  1.09D+00  1.36D+00  1.11D+00
 E= -744.839319150794     Delta-E=       -0.000000000003 Rises=F Damp=F
 DIIS: error= 1.68D-08 at cycle  15 NSaved=  15.
 NSaved=15 IEnMin=15 EnMin= -744.839319150794     IErMin=15 ErrMin= 1.68D-08
 ErrMax= 1.68D-08  0.00D+00 EMaxC= 1.00D-01 BMatC= 6.45D-14 BMatP= 2.89D-13
 IDIUse=1 WtCom= 1.00D+00 WtEn= 0.00D+00
 Coeff-Com: -0.160D-06 0.360D-06-0.115D-05-0.183D-05-0.130D-04-0.172D-04
 Coeff-Com:  0.540D-04 0.208D-03 0.612D-03-0.110D-02-0.126D-01-0.374D-01
 Coeff-Com: -0.187D-01 0.316D+00 0.753D+00
 Coeff:     -0.160D-06 0.360D-06-0.115D-05-0.183D-05-0.130D-04-0.172D-04
 Coeff:      0.540D-04 0.208D-03 0.612D-03-0.110D-02-0.126D-01-0.374D-01
 Coeff:     -0.187D-01 0.316D+00 0.753D+00
 Gap=     0.263 Goal=   None    Shift=    0.000
 RMSDP=3.13D-08 MaxDP=2.44D-06 DE=-2.96D-12 OVMax= 1.69D-07

 Cycle  16  Pass 1  IDiag  1:
 RMSU=  3.69D-09    CP:  2.09D+00  4.84D-01  1.13D+00  7.82D-01  1.02D+00
                    CP:  1.29D+00  1.18D+00  1.15D+00  1.21D+00  1.02D+00
                    CP:  1.22D+00  1.10D+00  1.43D+00  1.25D+00  1.23D+00
 E= -744.839319150791     Delta-E=        0.000000000003 Rises=F Damp=F
 DIIS: error= 4.31D-09 at cycle  16 NSaved=  16.
 NSaved=16 IEnMin=15 EnMin= -744.839319150794     IErMin=16 ErrMin= 4.31D-09
 ErrMax= 4.31D-09  0.00D+00 EMaxC= 1.00D-01 BMatC= 4.89D-15 BMatP= 6.45D-14
 IDIUse=1 WtCom= 1.00D+00 WtEn= 0.00D+00
 Coeff-Com: -0.453D-07 0.133D-06-0.470D-07 0.409D-06-0.326D-05-0.120D-04
 Coeff-Com: -0.174D-04-0.336D-04 0.366D-03 0.671D-03-0.307D-03-0.116D-01
 Coeff-Com: -0.381D-01-0.561D-01 0.138D+00 0.967D+00
 Coeff:     -0.453D-07 0.133D-06-0.470D-07 0.409D-06-0.326D-05-0.120D-04
 Coeff:     -0.174D-04-0.336D-04 0.366D-03 0.671D-03-0.307D-03-0.116D-01
 Coeff:     -0.381D-01-0.561D-01 0.138D+00 0.967D+00
 Gap=     0.263 Goal=   None    Shift=    0.000
 RMSDP=1.92D-08 MaxDP=1.75D-06 DE= 3.18D-12 OVMax= 8.79D-08

 Cycle  17  Pass 1  IDiag  1:
 RMSU=  1.12D-09    CP:  2.09D+00  4.84D-01  1.13D+00  7.82D-01  1.02D+00
                    CP:  1.29D+00  1.18D+00  1.15D+00  1.21D+00  1.02D+00
                    CP:  1.22D+00  1.11D+00  1.46D+00  1.32D+00  1.42D+00
                    CP:  1.31D+00
 E= -744.839319150787     Delta-E=        0.000000000005 Rises=F Damp=F
 DIIS: error= 1.21D-09 at cycle  17 NSaved=  17.
 NSaved=17 IEnMin=15 EnMin= -744.839319150794     IErMin=17 ErrMin= 1.21D-09
 ErrMax= 1.21D-09  0.00D+00 EMaxC= 1.00D-01 BMatC= 2.76D-16 BMatP= 4.89D-15
 IDIUse=1 WtCom= 1.00D+00 WtEn= 0.00D+00
 Large coefficients: NSaved= 17 BigCof=    0.00 CofMax=   10.00 Det=-1.63D-15
 Inversion failed.  Reducing to 16 matrices.
 Large coefficients: NSaved= 16 BigCof=    0.00 CofMax=   10.00 Det=-1.85D-15
 Inversion failed.  Reducing to 15 matrices.
 Coeff-Com:  0.105D-06 0.166D-06 0.478D-06-0.157D-05-0.625D-05-0.966D-05
 Coeff-Com:  0.159D-05 0.116D-03 0.814D-03 0.103D-02-0.277D-02-0.259D-01
 Coeff-Com: -0.477D-01 0.641D-01 0.101D+01
 Coeff:      0.105D-06 0.166D-06 0.478D-06-0.157D-05-0.625D-05-0.966D-05
 Coeff:      0.159D-05 0.116D-03 0.814D-03 0.103D-02-0.277D-02-0.259D-01
 Coeff:     -0.477D-01 0.641D-01 0.101D+01
 Gap=     0.263 Goal=   None    Shift=    0.000
 RMSDP=3.42D-09 MaxDP=3.26D-07 DE= 4.55D-12 OVMax= 2.58D-08

 SCF Done:  E(RM062X) =  -744.839319151     A.U. after   17 cycles
            NFock= 17  Conv=0.34D-08     -V/T= 2.0030
 KE= 7.425772201457D+02 PE=-2.750056531245D+03 EE= 7.641090994051D+02
 Leave Link  502 at Sun Oct 13 23:14:10 2019, MaxMem= 10737418240 cpu:             361.5 elap:              15.2
 (Enter /apps/cent7/gaussian/g16-A.03/g16-haswell/g16/l601.exe)
 Copying SCF densities to generalized density rwf, IOpCl= 0 IROHF=0.

 **********************************************************************

            Population analysis using the SCF density.

 **********************************************************************

 Orbital symmetries:
       Occupied  (A) (A) (A) (A) (A) (A) (A) (A) (A) (A) (A) (A)
                 (A) (A) (A) (A) (A) (A) (A) (A) (A) (A) (A) (A)
                 (A) (A) (A) (A) (A) (A) (A) (A) (A) (A) (A) (A)
                 (A)
       Virtual   (A) (A) (A) (A) (A) (A) (A) (A) (A) (A) (A) (A)
                 (A) (A) (A) (A) (A) (A) (A) (A) (A) (A) (A) (A)
                 (A) (A) (A) (A) (A) (A) (A) (A) (A) (A) (A) (A)
                 (A) (A) (A) (A) (A) (A) (A) (A) (A) (A) (A) (A)
                 (A) (A) (A) (A) (A) (A) (A) (A) (A) (A) (A) (A)
                 (A) (A) (A) (A) (A) (A) (A) (A) (A) (A) (A) (A)
                 (A) (A) (A) (A) (A) (A) (A) (A) (A) (A) (A) (A)
                 (A) (A) (A) (A) (A) (A) (A) (A) (A) (A) (A) (A)
                 (A) (A) (A) (A) (A) (A) (A) (A) (A) (A) (A) (A)
                 (A) (A) (A) (A) (A) (A) (A) (A) (A) (A) (A) (A)
                 (A) (A) (A) (A) (A) (A) (A) (A) (A) (A) (A) (A)
                 (A) (A) (A) (A) (A) (A) (A) (A) (A) (A) (A) (A)
                 (A) (A) (A) (A) (A) (A) (A) (A) (A) (A) (A) (A)
                 (A) (A) (A) (A) (A) (A) (A) (A) (A) (A) (A) (A)
                 (A) (A) (A) (A) (A) (A) (A) (A) (A) (A) (A) (A)
                 (A) (A) (A) (A) (A) (A) (A) (A) (A) (A) (A) (A)
                 (A) (A) (A) (A) (A) (A) (A) (A) (A) (A) (A) (A)
                 (A) (A) (A) (A) (A) (A) (A) (A) (A) (A) (A) (A)
                 (A) (A) (A) (A) (A) (A) (A) (A)
 The electronic state is 1-A.
 Alpha  occ. eigenvalues --  -90.00160 -19.57216 -10.59403 -10.57975 -10.57949
 Alpha  occ. eigenvalues --  -10.57750 -10.57438 -10.57250 -10.57211  -8.35785
 Alpha  occ. eigenvalues --   -6.27831  -6.27805  -6.27416  -1.08184  -0.98183
 Alpha  occ. eigenvalues --   -0.89664  -0.86543  -0.85038  -0.75724  -0.71275
 Alpha  occ. eigenvalues --   -0.67914  -0.61018  -0.55603  -0.54883  -0.52787
 Alpha  occ. eigenvalues --   -0.51847  -0.51116  -0.50529  -0.47593  -0.45311
 Alpha  occ. eigenvalues --   -0.43425  -0.43267  -0.40902  -0.34005  -0.33013
 Alpha  occ. eigenvalues --   -0.31817  -0.28932
 Alpha virt. eigenvalues --   -0.02645  -0.00951  -0.00670   0.00113   0.00552
 Alpha virt. eigenvalues --    0.01979   0.02523   0.02812   0.04583   0.04783
 Alpha virt. eigenvalues --    0.05508   0.06439   0.07341   0.07786   0.08142
 Alpha virt. eigenvalues --    0.08388   0.09502   0.10173   0.10615   0.11098
 Alpha virt. eigenvalues --    0.11857   0.12176   0.12586   0.12731   0.13154
 Alpha virt. eigenvalues --    0.13374   0.13505   0.14052   0.14848   0.15346
 Alpha virt. eigenvalues --    0.15880   0.16182   0.16658   0.17175   0.17490
 Alpha virt. eigenvalues --    0.17883   0.18473   0.19163   0.20372   0.21304
 Alpha virt. eigenvalues --    0.21975   0.22609   0.22849   0.23814   0.25268
 Alpha virt. eigenvalues --    0.25619   0.26256   0.27998   0.28827   0.29509
 Alpha virt. eigenvalues --    0.29925   0.31112   0.32431   0.32795   0.33290
 Alpha virt. eigenvalues --    0.34823   0.35613   0.36791   0.37078   0.38017
 Alpha virt. eigenvalues --    0.38060   0.40821   0.41594   0.42830   0.45301
 Alpha virt. eigenvalues --    0.50039   0.53414   0.53666   0.55565   0.56263
 Alpha virt. eigenvalues --    0.56452   0.57691   0.57958   0.58475   0.59618
 Alpha virt. eigenvalues --    0.60340   0.63276   0.64284   0.65142   0.65673
 Alpha virt. eigenvalues --    0.67657   0.69915   0.70598   0.71233   0.72063
 Alpha virt. eigenvalues --    0.74172   0.74954   0.75747   0.77456   0.79145
 Alpha virt. eigenvalues --    0.82378   0.82681   0.85524   0.86713   0.88846
 Alpha virt. eigenvalues --    0.90043   0.90613   0.90784   0.92155   0.93203
 Alpha virt. eigenvalues --    0.94030   0.95515   1.00012   1.01197   1.02993
 Alpha virt. eigenvalues --    1.03738   1.05199   1.06641   1.11113   1.14110
 Alpha virt. eigenvalues --    1.15895   1.16096   1.18524   1.20650   1.25405
 Alpha virt. eigenvalues --    1.27969   1.30381   1.31420   1.32110   1.38867
 Alpha virt. eigenvalues --    1.47887   1.51281   1.53098   1.53484   1.56770
 Alpha virt. eigenvalues --    1.58074   1.58823   1.60014   1.61453   1.64222
 Alpha virt. eigenvalues --    1.65641   1.66490   1.67665   1.70122   1.71799
 Alpha virt. eigenvalues --    1.74617   1.75248   1.76378   1.77905   1.79219
 Alpha virt. eigenvalues --    1.84246   1.87896   1.90311   1.92134   1.92538
 Alpha virt. eigenvalues --    1.93307   1.94690   1.95483   1.97311   2.00666
 Alpha virt. eigenvalues --    2.01755   2.02774   2.03592   2.07356   2.07845
 Alpha virt. eigenvalues --    2.11376   2.20530   2.22895   2.28724   2.31850
 Alpha virt. eigenvalues --    2.33064   2.40998   2.46451   2.47222   2.48276
 Alpha virt. eigenvalues --    2.50503   2.54295   2.56166   2.57355   2.60691
 Alpha virt. eigenvalues --    2.62881   2.64046   2.70094   2.71012   2.72333
 Alpha virt. eigenvalues --    2.72738   2.74443   2.76699   2.81296   2.82060
 Alpha virt. eigenvalues --    2.83261   2.84892   2.88677   2.92762   2.93621
 Alpha virt. eigenvalues --    2.96100   2.98914   3.00198   3.03358   3.05906
 Alpha virt. eigenvalues --    3.11292   3.16385   3.20170   3.33003   3.36059
 Alpha virt. eigenvalues --    3.38679   3.47588   3.49743   3.53593   3.58890
 Alpha virt. eigenvalues --    3.76671   3.76958   3.81023   4.00709   4.05816
 Alpha virt. eigenvalues --    4.15017   4.15995   4.81191   5.21869   5.24534
 Alpha virt. eigenvalues --    5.27688   8.18158  17.55669  17.59964  17.65085
 Alpha virt. eigenvalues --   23.62334  23.96437  23.98278  23.99610  24.07651
 Alpha virt. eigenvalues --   24.09923  24.18698  50.04669 189.47004
          Condensed to atoms (all electrons):
               1          2          3          4          5          6
     1  O    8.407912   0.307600  -0.220825   0.444100   0.362709  -0.004719
     2  S    0.307600  17.632401  -0.470040  -3.139162   2.778885   0.158141
     3  C   -0.220825  -0.470040   6.131920   0.443888  -0.609599  -0.130220
     4  C    0.444100  -3.139162   0.443888  21.410855  -6.582170  -1.957099
     5  C    0.362709   2.778885  -0.609599  -6.582170  31.654647  -1.718906
     6  C   -0.004719   0.158141  -0.130220  -1.957099  -1.718906   7.525261
     7  C   -0.020844  -0.087884   0.057788   0.042537  -2.431279   0.523662
     8  C   -0.050711   0.138365  -0.032597  -1.604667   1.365441   0.067307
     9  C   -0.784266  -1.655925   0.522631  -2.870689 -19.078843   1.444061
    10  H   -0.001545  -0.086970   0.409649  -0.015094  -0.061042   0.007670
    11  H    0.011292  -0.067188   0.360044   0.146984   0.135551   0.002492
    12  H    0.022886   0.070423   0.228924  -0.098910   0.067756   0.026442
    13  H    0.006137  -0.046029   0.014949   0.022537   0.427320  -0.092962
    14  H    0.000015   0.028541  -0.005512  -0.103707  -0.014192   0.476366
    15  H   -0.000172  -0.007174   0.001775   0.055159   0.011411  -0.081478
    16  H    0.001557   0.011976  -0.003516   0.088208   0.125727  -0.005628
    17  H    0.000344   0.039179  -0.015055  -0.008873   0.023921   0.015315
               7          8          9         10         11         12
     1  O   -0.020844  -0.050711  -0.784266  -0.001545   0.011292   0.022886
     2  S   -0.087884   0.138365  -1.655925  -0.086970  -0.067188   0.070423
     3  C    0.057788  -0.032597   0.522631   0.409649   0.360044   0.228924
     4  C    0.042537  -1.604667  -2.870689  -0.015094   0.146984  -0.098910
     5  C   -2.431279   1.365441 -19.078843  -0.061042   0.135551   0.067756
     6  C    0.523662   0.067307   1.444061   0.007670   0.002492   0.026442
     7  C    6.375893  -0.006753   1.430860   0.002262  -0.010921  -0.008084
     8  C   -0.006753   6.281469  -0.187349   0.001202  -0.015361   0.002713
     9  C    1.430860  -0.187349  26.808795   0.099841  -0.243015  -0.008307
    10  H    0.002262   0.001202   0.099841   0.483080  -0.027048  -0.036289
    11  H   -0.010921  -0.015361  -0.243015  -0.027048   0.541467  -0.039273
    12  H   -0.008084   0.002713  -0.008307  -0.036289  -0.039273   0.608597
    13  H    0.014235  -0.013490  -0.019417   0.000869   0.001117  -0.003153
    14  H   -0.037135   0.041788  -0.063441  -0.000022   0.000295   0.000779
    15  H    0.445255  -0.100664   0.004195  -0.000003  -0.000152  -0.000308
    16  H   -0.094726   0.408316  -0.213165  -0.000130   0.001735  -0.000019
    17  H   -0.018105  -0.123155   0.382124   0.001185  -0.009383   0.004571
              13         14         15         16         17
     1  O    0.006137   0.000015  -0.000172   0.001557   0.000344
     2  S   -0.046029   0.028541  -0.007174   0.011976   0.039179
     3  C    0.014949  -0.005512   0.001775  -0.003516  -0.015055
     4  C    0.022537  -0.103707   0.055159   0.088208  -0.008873
     5  C    0.427320  -0.014192   0.011411   0.125727   0.023921
     6  C   -0.092962   0.476366  -0.081478  -0.005628   0.015315
     7  C    0.014235  -0.037135   0.445255  -0.094726  -0.018105
     8  C   -0.013490   0.041788  -0.100664   0.408316  -0.123155
     9  C   -0.019417  -0.063441   0.004195  -0.213165   0.382124
    10  H    0.000869  -0.000022  -0.000003  -0.000130   0.001185
    11  H    0.001117   0.000295  -0.000152   0.001735  -0.009383
    12  H   -0.003153   0.000779  -0.000308  -0.000019   0.004571
    13  H    0.492356  -0.019933   0.001729   0.000246  -0.002396
    14  H   -0.019933   0.489227  -0.014691   0.001449   0.001163
    15  H    0.001729  -0.014691   0.492537  -0.010126   0.000050
    16  H    0.000246   0.001449  -0.010126   0.480654  -0.010384
    17  H   -0.002396   0.001163   0.000050  -0.010384   0.495421
 Mulliken charges:
               1
     1  O   -0.481470
     2  S    0.394861
     3  C   -0.684205
     4  C   -0.273896
     5  C   -0.457338
     6  C   -0.255705
     7  C   -0.176759
     8  C   -0.171855
     9  C    0.431910
    10  H    0.222386
    11  H    0.211363
    12  H    0.161255
    13  H    0.215885
    14  H    0.219009
    15  H    0.202657
    16  H    0.217825
    17  H    0.224077
 Sum of Mulliken charges =  -0.00000
 Mulliken charges with hydrogens summed into heavy atoms:
               1
     1  O   -0.481470
     2  S    0.394861
     3  C   -0.089201
     4  C   -0.273896
     5  C   -0.241453
     6  C   -0.036696
     7  C    0.025898
     8  C    0.045970
     9  C    0.655987
 Electronic spatial extent (au):  <R**2>=           1491.2425
 Charge=              0.0000 electrons
 Dipole moment (field-independent basis, Debye):
    X=             -3.0887    Y=             -0.2056    Z=              4.4675  Tot=              5.4352
 Quadrupole moment (field-independent basis, Debye-Ang):
   XX=            -57.3559   YY=            -55.0647   ZZ=            -68.4472
   XY=             -0.5732   XZ=             10.8846   YZ=              1.1580
 Traceless Quadrupole moment (field-independent basis, Debye-Ang):
   XX=              2.9334   YY=              5.2246   ZZ=             -8.1580
   XY=             -0.5732   XZ=             10.8846   YZ=              1.1580
 Octapole moment (field-independent basis, Debye-Ang**2):
  XXX=            -18.6453  YYY=              2.9533  ZZZ=              9.2303  XYY=             -5.6110
  XXY=             -1.4318  XXZ=             26.6474  XZZ=              2.5971  YZZ=             -1.8748
  YYZ=             -0.8571  XYZ=              4.7871
 Hexadecapole moment (field-independent basis, Debye-Ang**3):
 XXXX=          -1313.5310 YYYY=           -329.5599 ZZZZ=           -245.2723 XXXY=             -9.2204
 XXXZ=             59.3480 YYYX=              4.8135 YYYZ=             -1.8903 ZZZX=             20.7795
 ZZZY=              1.4308 XXYY=           -279.1712 XXZZ=           -314.9601 YYZZ=           -107.8955
 XXYZ=              4.3973 YYXZ=             -0.6929 ZZXY=             -2.3039
 N-N= 4.985308925431D+02 E-N=-2.750056531287D+03  KE= 7.425772201457D+02
 No NMR shielding tensors so no spin-rotation constants.
 Leave Link  601 at Sun Oct 13 23:14:11 2019, MaxMem= 10737418240 cpu:               3.4 elap:               0.2
 (Enter /apps/cent7/gaussian/g16-A.03/g16-haswell/g16/l701.exe)
 ... and contract with generalized density number  0.
 Compute integral first derivatives.
 Leave Link  701 at Sun Oct 13 23:14:11 2019, MaxMem= 10737418240 cpu:               3.6 elap:               0.2
 (Enter /apps/cent7/gaussian/g16-A.03/g16-haswell/g16/l702.exe)
 L702 exits ... SP integral derivatives will be done elsewhere.
 Leave Link  702 at Sun Oct 13 23:14:11 2019, MaxMem= 10737418240 cpu:               0.5 elap:               0.0
 (Enter /apps/cent7/gaussian/g16-A.03/g16-haswell/g16/l703.exe)
 Integral derivatives from FoFJK, PRISM(SPDF).
 Compute integral first derivatives, UseDBF=F ICtDFT=           0.
 Calling FoFJK, ICntrl=      2127 FMM=F ISym2X=0 I1Cent= 0 IOpClX= 0 NMat=1 NMatS=1 NMatT=0.
 FoFJK:  IHMeth= 1 ICntrl=    2127 DoSepK=F KAlg= 0 I1Cent=           0 FoldK=F
 IRaf=         0 NMat=       1 IRICut=       1 DoRegI=T DoRafI=F ISym2E= 0 IDoP0=0 IntGTp=1.
 FoFCou: FMM=F IPFlag=           0 FMFlag=      100000 FMFlg1=         800
         NFxFlg=           0 DoJE=F BraDBF=F KetDBF=F FulRan=T
         wScrn=  0.000000 ICntrl=      2127 IOpCl=  0 I1Cent=           0 NGrid=           0
         NMat0=    1 NMatS0=      1 NMatT0=    0 NMatD0=    1 NMtDS0=    0 NMtDT0=    0
 Symmetry not used in FoFCou.
 Leave Link  703 at Sun Oct 13 23:14:13 2019, MaxMem= 10737418240 cpu:              49.9 elap:               2.1
 (Enter /apps/cent7/gaussian/g16-A.03/g16-haswell/g16/l716.exe)
 Dipole        =-1.21519508D+00-8.08907973D-02 1.75765079D+00
 ***** Axes restored to original set *****
 -------------------------------------------------------------------
 Center     Atomic                   Forces (Hartrees/Bohr)
 Number     Number              X              Y              Z
 -------------------------------------------------------------------
      1        8           0.047277789    0.006576129   -0.032998233
      2       16          -0.046610711   -0.028273470    0.040136374
      3        6           0.000238220    0.014654663   -0.004540324
      4        6           0.002544609    0.030876217   -0.017096459
      5        6          -0.005923003    0.001338882   -0.002777935
      6        6          -0.011278072   -0.001511013   -0.003834023
      7        6          -0.000253652   -0.011673751    0.001498134
      8        6           0.006985950   -0.010523064    0.004394141
      9        6           0.007110427    0.004692982    0.002319275
     10        1           0.000892769    0.001618552    0.007179168
     11        1          -0.000775165    0.000986688    0.002869981
     12        1           0.002004598    0.000253267    0.000784892
     13        1          -0.003364904    0.001414426   -0.001499140
     14        1          -0.004334500   -0.002310804   -0.001194246
     15        1          -0.000765850   -0.004605317    0.000245384
     16        1           0.002842943   -0.003673661    0.001720858
     17        1           0.003408553    0.000159275    0.002792153
 -------------------------------------------------------------------
 Cartesian Forces:  Max     0.047277789 RMS     0.014140970
 Leave Link  716 at Sun Oct 13 23:14:13 2019, MaxMem= 10737418240 cpu:               0.6 elap:               0.0
 (Enter /apps/cent7/gaussian/g16-A.03/g16-haswell/g16/l103.exe)

 GradGradGradGradGradGradGradGradGradGradGradGradGradGradGradGradGradGrad
 Berny optimization.
 FormGI is forming the generalized inverse of G from B-inverse, IUseBI=4.
 Internal  Forces:  Max     0.057897960 RMS     0.009533089
 Search for a local minimum.
 Step number   1 out of a maximum of   88
 All quantities printed in internal units (Hartrees-Bohrs-Radians)
 RMS Force = .95331D-02 SwitMx=.10000D-02 MixMth= 1
 Mixed Optimization -- RFO/linear search
 Second derivative matrix not updated -- first step.
 ITU=  0
     Eigenvalues ---    0.00230   0.00776   0.01581   0.01942   0.01951
     Eigenvalues ---    0.01977   0.01981   0.01981   0.01988   0.01992
     Eigenvalues ---    0.01998   0.05940   0.07239   0.07239   0.16000
     Eigenvalues ---    0.16000   0.16000   0.16000   0.16000   0.16000
     Eigenvalues ---    0.16000   0.16000   0.16099   0.22000   0.22000
     Eigenvalues ---    0.23479   0.23831   0.25000   0.25000   0.28690
     Eigenvalues ---    0.34808   0.34808   0.34812   0.34815   0.34815
     Eigenvalues ---    0.34816   0.34817   0.34820   0.40337   0.40457
     Eigenvalues ---    0.43862   0.44154   0.44318   0.44507   0.50457
 RFO step:  Lambda=-1.96865094D-02 EMin= 2.30000000D-03
 Linear search not attempted -- first point.
 Iteration  1 RMS(Cart)=  0.10979614 RMS(Int)=  0.00361896
 Iteration  2 RMS(Cart)=  0.00506041 RMS(Int)=  0.00104549
 Iteration  3 RMS(Cart)=  0.00001613 RMS(Int)=  0.00104545
 Iteration  4 RMS(Cart)=  0.00000008 RMS(Int)=  0.00104545
 ITry= 1 IFail=0 DXMaxC= 4.97D-01 DCOld= 1.00D+10 DXMaxT= 3.00D-01 DXLimC= 3.00D+00 Rises=F
 Variable       Old X    -DE/DX   Delta X   Delta X   Delta X     New X
                                 (Linear)    (Quad)   (Total)
    R1        3.03107  -0.05790   0.00000  -0.11044  -0.11044   2.92063
    R2        3.45977  -0.01190   0.00000  -0.04612  -0.04612   3.41365
    R3        3.34354   0.00455   0.00000   0.01485   0.01485   3.35839
    R4        2.05987  -0.00173   0.00000  -0.00471  -0.00471   2.05516
    R5        2.05976   0.00027   0.00000   0.00074   0.00074   2.06050
    R6        2.05975   0.00096   0.00000   0.00261   0.00261   2.06236
    R7        2.66478  -0.01838   0.00000  -0.04003  -0.03998   2.62480
    R8        2.66900  -0.01828   0.00000  -0.04030  -0.04024   2.62876
    R9        2.65719  -0.01532   0.00000  -0.03271  -0.03272   2.62447
   R10        2.05973  -0.00377   0.00000  -0.01024  -0.01024   2.04949
   R11        2.66027  -0.01578   0.00000  -0.03385  -0.03391   2.62637
   R12        2.05982  -0.00502   0.00000  -0.01364  -0.01364   2.04618
   R13        2.65963  -0.01305   0.00000  -0.02811  -0.02816   2.63147
   R14        2.05976  -0.00467   0.00000  -0.01271  -0.01271   2.04705
   R15        2.66218  -0.01974   0.00000  -0.04295  -0.04293   2.61925
   R16        2.05967  -0.00488   0.00000  -0.01327  -0.01327   2.04640
   R17        2.05988  -0.00392   0.00000  -0.01065  -0.01065   2.04923
    A1        1.82647   0.00304   0.00000  -0.02351  -0.02748   1.79899
    A2        1.85179   0.00687   0.00000  -0.00741  -0.01345   1.83834
    A3        1.86038  -0.03573   0.00000  -0.15057  -0.15293   1.70745
    A4        1.91063  -0.01024   0.00000  -0.06160  -0.06215   1.84849
    A5        1.91060  -0.00239   0.00000  -0.01221  -0.01263   1.89797
    A6        1.91061   0.00039   0.00000   0.00570   0.00556   1.91616
    A7        1.91066   0.00464   0.00000   0.01874   0.01783   1.92849
    A8        1.91067   0.00441   0.00000   0.02236   0.02212   1.93278
    A9        1.91062   0.00319   0.00000   0.02701   0.02695   1.93757
   A10        2.07101  -0.00371   0.00000  -0.01380  -0.01400   2.05700
   A11        2.12682  -0.00294   0.00000  -0.01093  -0.01113   2.11568
   A12        2.08535   0.00665   0.00000   0.02466   0.02465   2.11000
   A13        2.10020  -0.00386   0.00000  -0.01530  -0.01524   2.08496
   A14        2.09404   0.00072   0.00000   0.00091   0.00087   2.09491
   A15        2.08894   0.00314   0.00000   0.01440   0.01436   2.10330
   A16        2.09481  -0.00063   0.00000  -0.00131  -0.00135   2.09346
   A17        2.09320  -0.00029   0.00000  -0.00269  -0.00267   2.09053
   A18        2.09518   0.00091   0.00000   0.00400   0.00402   2.09920
   A19        2.09394   0.00103   0.00000   0.00532   0.00524   2.09918
   A20        2.09480  -0.00061   0.00000  -0.00320  -0.00317   2.09163
   A21        2.09445  -0.00042   0.00000  -0.00212  -0.00209   2.09236
   A22        2.09463  -0.00008   0.00000  -0.00012  -0.00013   2.09450
   A23        2.09337   0.00090   0.00000   0.00485   0.00484   2.09821
   A24        2.09518  -0.00082   0.00000  -0.00473  -0.00473   2.09045
   A25        2.09743  -0.00311   0.00000  -0.01324  -0.01320   2.08424
   A26        2.09515   0.00000   0.00000  -0.00201  -0.00212   2.09303
   A27        2.09060   0.00311   0.00000   0.01526   0.01514   2.10574
    D1       -1.36570  -0.00186   0.00000  -0.01712  -0.01567  -1.38138
    D2        0.72871  -0.00391   0.00000  -0.03937  -0.03727   0.69144
    D3        2.82306  -0.00123   0.00000  -0.01028  -0.00863   2.81443
    D4        2.96016   0.00357   0.00000   0.06198   0.05997   3.02013
    D5       -1.22861   0.00152   0.00000   0.03973   0.03837  -1.19024
    D6        0.86574   0.00420   0.00000   0.06883   0.06702   0.93276
    D7        2.20924   0.00518   0.00000   0.07972   0.07861   2.28786
    D8       -0.92948   0.00627   0.00000   0.11077   0.10920  -0.82027
    D9       -2.13417  -0.00361   0.00000  -0.01390  -0.01233  -2.14650
   D10        1.01029  -0.00252   0.00000   0.01715   0.01826   1.02856
   D11       -3.13721   0.00090   0.00000   0.02428   0.02434  -3.11287
   D12        0.00451   0.00068   0.00000   0.01899   0.01909   0.02359
   D13        0.00159  -0.00019   0.00000  -0.00608  -0.00621  -0.00462
   D14       -3.13989  -0.00040   0.00000  -0.01137  -0.01146   3.13184
   D15        3.13948  -0.00089   0.00000  -0.02414  -0.02423   3.11525
   D16       -0.00221  -0.00008   0.00000  -0.00389  -0.00409  -0.00630
   D17        0.00079   0.00023   0.00000   0.00722   0.00735   0.00813
   D18       -3.14091   0.00103   0.00000   0.02747   0.02749  -3.11342
   D19       -0.00193  -0.00001   0.00000   0.00012   0.00012  -0.00181
   D20        3.13970  -0.00012   0.00000  -0.00273  -0.00272   3.13698
   D21        3.13954   0.00020   0.00000   0.00539   0.00540  -3.13824
   D22       -0.00201   0.00010   0.00000   0.00254   0.00255   0.00054
   D23       -0.00011   0.00018   0.00000   0.00477   0.00478   0.00468
   D24        3.14145  -0.00005   0.00000  -0.00137  -0.00138   3.14007
   D25        3.14145   0.00029   0.00000   0.00762   0.00764  -3.13410
   D26       -0.00018   0.00006   0.00000   0.00148   0.00148   0.00130
   D27        0.00247  -0.00013   0.00000  -0.00360  -0.00361  -0.00114
   D28       -3.13915  -0.00040   0.00000  -0.01065  -0.01070   3.13334
   D29       -3.13909   0.00010   0.00000   0.00255   0.00256  -3.13653
   D30        0.00248  -0.00017   0.00000  -0.00451  -0.00453  -0.00205
   D31       -0.00281  -0.00007   0.00000  -0.00240  -0.00239  -0.00521
   D32        3.13888  -0.00087   0.00000  -0.02260  -0.02268   3.11620
   D33        3.13880   0.00020   0.00000   0.00466   0.00467  -3.13971
   D34       -0.00269  -0.00060   0.00000  -0.01554  -0.01562  -0.01831
         Item               Value     Threshold  Converged?
 Maximum Force            0.057898     0.000450     NO 
 RMS     Force            0.009533     0.000300     NO 
 Maximum Displacement     0.496844     0.001800     NO 
 RMS     Displacement     0.112426     0.001200     NO 
 Predicted change in Energy=-1.056668D-02
 Lowest energy point so far.  Saving SCF results.
 GradGradGradGradGradGradGradGradGradGradGradGradGradGradGradGradGradGrad

 Leave Link  103 at Sun Oct 13 23:14:13 2019, MaxMem= 10737418240 cpu:               1.2 elap:               0.1
 (Enter /apps/cent7/gaussian/g16-A.03/g16-haswell/g16/l202.exe)
                          Input orientation:                          
 ---------------------------------------------------------------------
 Center     Atomic      Atomic             Coordinates (Angstroms)
 Number     Number       Type             X           Y           Z
 ---------------------------------------------------------------------
      1          8           0       -1.828068   -1.886498    0.882078
      2         16           0       -0.448709   -1.773386    0.194151
      3          6           0       -0.820419   -2.154845   -1.531970
      4          6           0       -0.161792   -0.030239    0.000517
      5          6           0        1.065453    0.474989    0.410261
      6          6           0        1.312287    1.837708    0.306068
      7          6           0        0.335241    2.682515   -0.207024
      8          6           0       -0.894062    2.169327   -0.612670
      9          6           0       -1.146964    0.810664   -0.506856
     10          1           0       -0.898746   -3.238134   -1.587711
     11          1           0       -1.770095   -1.689282   -1.797058
     12          1           0       -0.014524   -1.792162   -2.172322
     13          1           0        1.820197   -0.192149    0.812168
     14          1           0        2.265616    2.237696    0.627948
     15          1           0        0.529058    3.745344   -0.286218
     16          1           0       -1.657504    2.829452   -1.005208
     17          1           0       -2.108868    0.403100   -0.797656
 ---------------------------------------------------------------------
                    Distance matrix (angstroms):
                    1          2          3          4          5
     1  O    0.000000
     2  S    1.545532   0.000000
     3  C    2.629637   1.806425   0.000000
     4  C    2.645623   1.777182   2.701159   0.000000
     5  C    3.764531   2.719297   3.774228   1.388984   0.000000
     6  C    4.905438   4.019158   4.885417   2.399061   1.388807
     7  C    5.171260   4.542090   5.146950   2.765710   2.405706
     8  C    4.422257   4.048986   4.421426   2.397980   2.785115
     9  C    3.109296   2.767000   3.154637   1.391082   2.418382
    10  H    2.964863   2.350117   1.087546   3.654608   4.651585
    11  H    2.687009   2.391244   1.090370   2.927514   4.194836
    12  H    3.553477   2.406048   1.091356   2.801302   3.602229
    13  H    4.023126   2.833759   4.039803   2.147853   1.084546
    14  H    5.816512   4.862563   5.786474   3.380756   2.143576
    15  H    6.215995   5.625226   6.179419   3.848963   3.386447
    16  H    5.082433   4.907726   5.081477   3.380306   3.868016
    17  H    2.853526   2.911512   2.956755   2.148480   3.397138
                    6          7          8          9         10
     6  C    0.000000
     7  C    1.389814   0.000000
     8  C    2.412887   1.392514   0.000000
     9  C    2.786320   2.406379   1.386045   0.000000
    10  H    5.851430   6.203475   5.494666   4.197931   0.000000
    11  H    5.134576   5.106198   4.130263   2.881430   1.789418
    12  H    4.591165   4.899742   4.347355   3.291033   1.792890
    13  H    2.152771   3.392276   3.869616   3.398456   4.736042
    14  H    1.082790   2.149742   3.395198   3.869096   6.701272
    15  H    2.145537   1.083255   2.148411   3.386750   7.245790
    16  H    3.394505   2.151679   1.082911   2.141147   6.142526
    17  H    3.870479   3.393855   2.151635   1.084404   3.917545
                   11         12         13         14         15
    11  H    0.000000
    12  H    1.798177   0.000000
    13  H    4.683979   3.851418   0.000000
    14  H    6.130968   5.411128   2.477192   0.000000
    15  H    6.091297   5.875103   4.286880   2.474740   0.000000
    16  H    4.588971   5.041910   4.952507   4.290483   2.477268
    17  H    2.343423   3.330940   4.287587   4.953201   4.288452
                   16         17
    16  H    0.000000
    17  H    2.476690   0.000000
 Stoichiometry    C7H8OS
 Framework group  C1[X(C7H8OS)]
 Deg. of freedom    45
 Full point group                 C1      NOp   1
 RotChk:  IX=0 Diff= 3.67D-02
 Largest Abelian subgroup         C1      NOp   1
 Largest concise Abelian subgroup C1      NOp   1
                         Standard orientation:                         
 ---------------------------------------------------------------------
 Center     Atomic      Atomic             Coordinates (Angstroms)
 Number     Number       Type             X           Y           Z
 ---------------------------------------------------------------------
      1          8           0        2.151499    0.297924   -1.313955
      2         16           0        1.631342   -0.528702   -0.116126
      3          6           0        2.137705    0.456420    1.310865
      4          6           0       -0.112042   -0.193304   -0.035521
      5          6           0       -0.977014   -1.275157    0.067897
      6          6           0       -2.347644   -1.053305    0.098564
      7          6           0       -2.842285    0.243594    0.028095
      8          6           0       -1.969176    1.323100   -0.078883
      9          6           0       -0.600566    1.106801   -0.114132
     10          1           0        3.193369    0.242628    1.461267
     11          1           0        1.991272    1.511525    1.078015
     12          1           0        1.555644    0.164469    2.186666
     13          1           0       -0.581172   -2.283581    0.119181
     14          1           0       -3.026778   -1.893189    0.174761
     15          1           0       -3.911719    0.414587    0.050731
     16          1           0       -2.355830    2.332695   -0.141428
     17          1           0        0.087887    1.937810   -0.220845
 ---------------------------------------------------------------------
 Rotational constants (GHZ):           3.1556252           0.9290648           0.8562795
 Leave Link  202 at Sun Oct 13 23:14:13 2019, MaxMem= 10737418240 cpu:               0.4 elap:               0.0
 (Enter /apps/cent7/gaussian/g16-A.03/g16-haswell/g16/l301.exe)
 Standard basis: 6-311++G(d,p) (5D, 7F)
 Ernie: Thresh=  0.10000D-02 Tol=  0.10000D-05 Strict=F.
 There are   271 symmetry adapted cartesian basis functions of A   symmetry.
 There are   262 symmetry adapted basis functions of A   symmetry.
   262 basis functions,   410 primitive gaussians,   271 cartesian basis functions
    37 alpha electrons       37 beta electrons
       nuclear repulsion energy       508.1060389367 Hartrees.
 IExCor= 4336 DFT=T Ex+Corr=M062X ExCW=0 ScaHFX=  0.540000
 ScaDFX=  1.000000  1.000000  1.000000  1.000000 ScalE2=  1.000000  1.000000
 IRadAn=      5 IRanWt=     -1 IRanGd=            0 ICorTp=0 IEmpDi=  4
 NAtoms=   17 NActive=   17 NUniq=   17 SFac= 1.00D+00 NAtFMM=   60 NAOKFM=F Big=F
 Integral buffers will be    131072 words long.
 Raffenetti 2 integral format.
 Two-electron integral symmetry is turned on.
 Leave Link  301 at Sun Oct 13 23:14:13 2019, MaxMem= 10737418240 cpu:               1.2 elap:               0.1
 (Enter /apps/cent7/gaussian/g16-A.03/g16-haswell/g16/l302.exe)
 NPDir=0 NMtPBC=     1 NCelOv=     1 NCel=       1 NClECP=     1 NCelD=      1
         NCelK=      1 NCelE2=     1 NClLst=     1 CellRange=     0.0.
 One-electron integrals computed using PRISM.
 One-electron integral symmetry used in STVInt
 NBasis=   262 RedAO= T EigKep=  2.32D-06  NBF=   262
 NBsUse=   261 1.00D-06 EigRej=  8.66D-07 NBFU=   261
 Precomputing XC quadrature grid using
 IXCGrd= 4 IRadAn=           5 IRanWt=          -1 IRanGd=           0 AccXCQ= 0.00D+00.
 Generated NRdTot=       0 NPtTot=           0 NUsed=           0 NTot=          32
 NSgBfM=   271   271   271   271   271 MxSgAt=    17 MxSgA2=    17.
 Leave Link  302 at Sun Oct 13 23:14:14 2019, MaxMem= 10737418240 cpu:               4.5 elap:               0.2
 (Enter /apps/cent7/gaussian/g16-A.03/g16-haswell/g16/l303.exe)
 DipDrv:  MaxL=1.
 Leave Link  303 at Sun Oct 13 23:14:14 2019, MaxMem= 10737418240 cpu:               0.9 elap:               0.1
 (Enter /apps/cent7/gaussian/g16-A.03/g16-haswell/g16/l401.exe)
 Initial guess from the checkpoint file:  "33.chk"
 B after Tr=     0.000000   -0.000000   -0.000000
         Rot=    0.999952   -0.001343    0.009529   -0.001953 Ang=  -1.13 deg.
 Guess basis will be translated and rotated to current coordinates.
 JPrj=2 DoOrth=T DoCkMO=T.
 Generating alternative initial guess.
 ExpMin= 3.60D-02 ExpMax= 9.34D+04 ExpMxC= 3.17D+03 IAcc=3 IRadAn=         5 AccDes= 0.00D+00
 Harris functional with IExCor= 1009 and IRadAn=       5 diagonalized for initial guess.
 HarFok:  IExCor= 1009 AccDes= 0.00D+00 IRadAn=         5 IDoV= 1 UseB2=F ITyADJ=14
 ICtDFT=  3500011 ScaDFX=  1.000000  1.000000  1.000000  1.000000
 FoFCou: FMM=F IPFlag=           0 FMFlag=      100000 FMFlg1=           0
         NFxFlg=           0 DoJE=T BraDBF=F KetDBF=T FulRan=T
         wScrn=  0.000000 ICntrl=       500 IOpCl=  0 I1Cent=   200000004 NGrid=           0
         NMat0=    1 NMatS0=      1 NMatT0=    0 NMatD0=    1 NMtDS0=    0 NMtDT0=    0
 Petite list used in FoFCou.
 Harris En= -744.596360232348    
 Leave Link  401 at Sun Oct 13 23:14:14 2019, MaxMem= 10737418240 cpu:              11.7 elap:               0.5
 (Enter /apps/cent7/gaussian/g16-A.03/g16-haswell/g16/l502.exe)
 Integral symmetry usage will be decided dynamically.
 Closed shell SCF:
 Using DIIS extrapolation, IDIIS=  1040.
 NGot= 10737418240 LenX= 10737262166 LenY= 10737188284
 Requested convergence on RMS density matrix=1.00D-08 within 128 cycles.
 Requested convergence on MAX density matrix=1.00D-06.
 Requested convergence on             energy=1.00D-06.
 No special actions if energy rises.
 Fock matrices will be formed incrementally for  20 cycles.

 Cycle   1  Pass 1  IDiag  1:
 FoFJK:  IHMeth= 1 ICntrl=       0 DoSepK=F KAlg= 0 I1Cent=           0 FoldK=F
 IRaf= 950000000 NMat=       1 IRICut=       1 DoRegI=T DoRafI=F ISym2E= 0 IDoP0=0 IntGTp=1.
 FoFCou: FMM=F IPFlag=           0 FMFlag=      100000 FMFlg1=           0
         NFxFlg=           0 DoJE=F BraDBF=F KetDBF=F FulRan=T
         wScrn=  0.000000 ICntrl=         0 IOpCl=  0 I1Cent=           0 NGrid=           0
         NMat0=    1 NMatS0=      1 NMatT0=    0 NMatD0=    1 NMtDS0=    0 NMtDT0=    0
 Symmetry not used in FoFCou.
 E= -744.834848662541    
 DIIS: error= 3.34D-03 at cycle   1 NSaved=   1.
 NSaved= 1 IEnMin= 1 EnMin= -744.834848662541     IErMin= 1 ErrMin= 3.34D-03
 ErrMax= 3.34D-03  0.00D+00 EMaxC= 1.00D-01 BMatC= 9.68D-03 BMatP= 9.68D-03
 IDIUse=3 WtCom= 9.67D-01 WtEn= 3.34D-02
 Coeff-Com:  0.100D+01
 Coeff-En:   0.100D+01
 Coeff:      0.100D+01
 Gap=     0.450 Goal=   None    Shift=    0.000
 GapD=    0.450 DampG=2.000 DampE=1.000 DampFc=2.0000 IDamp=-1.
 RMSDP=5.82D-02 MaxDP=6.37D+00              OVMax= 3.42D-02

 Cycle   2  Pass 1  IDiag  1:
 RMSU=  2.06D-02    CP:  1.46D+00
 E= -744.849486753138     Delta-E=       -0.014638090597 Rises=F Damp=F
 DIIS: error= 1.14D-03 at cycle   2 NSaved=   2.
 NSaved= 2 IEnMin= 2 EnMin= -744.849486753138     IErMin= 2 ErrMin= 1.14D-03
 ErrMax= 1.14D-03  0.00D+00 EMaxC= 1.00D-01 BMatC= 8.29D-04 BMatP= 9.68D-03
 IDIUse=3 WtCom= 9.89D-01 WtEn= 1.14D-02
 Coeff-Com:  0.108D-01 0.989D+00
 Coeff-En:   0.000D+00 0.100D+01
 Coeff:      0.107D-01 0.989D+00
 Gap=     0.276 Goal=   None    Shift=    0.000
 RMSDP=2.42D-02 MaxDP=2.64D+00 DE=-1.46D-02 OVMax= 1.56D-02

 Cycle   3  Pass 1  IDiag  1:
 RMSU=  3.61D-03    CP:  1.66D+00  1.21D+00
 E= -744.849613829971     Delta-E=       -0.000127076833 Rises=F Damp=F
 DIIS: error= 2.63D-03 at cycle   3 NSaved=   3.
 NSaved= 3 IEnMin= 3 EnMin= -744.849613829971     IErMin= 2 ErrMin= 1.14D-03
 ErrMax= 2.63D-03  0.00D+00 EMaxC= 1.00D-01 BMatC= 1.27D-03 BMatP= 8.29D-04
 IDIUse=3 WtCom= 1.63D-01 WtEn= 8.37D-01
 Coeff-Com: -0.687D-01 0.601D+00 0.468D+00
 Coeff-En:   0.000D+00 0.456D+00 0.544D+00
 Coeff:     -0.112D-01 0.480D+00 0.531D+00
 Gap=     0.283 Goal=   None    Shift=    0.000
 RMSDP=9.47D-03 MaxDP=1.01D+00 DE=-1.27D-04 OVMax= 1.00D-02

 Cycle   4  Pass 1  IDiag  1:
 RMSU=  9.12D-04    CP:  1.58D+00  1.16D+00  4.87D-01
 E= -744.850456332735     Delta-E=       -0.000842502764 Rises=F Damp=F
 DIIS: error= 9.07D-04 at cycle   4 NSaved=   4.
 NSaved= 4 IEnMin= 4 EnMin= -744.850456332735     IErMin= 4 ErrMin= 9.07D-04
 ErrMax= 9.07D-04  0.00D+00 EMaxC= 1.00D-01 BMatC= 2.14D-04 BMatP= 8.29D-04
 IDIUse=3 WtCom= 9.91D-01 WtEn= 9.07D-03
 Coeff-Com: -0.271D-01 0.653D-01 0.309D+00 0.652D+00
 Coeff-En:   0.000D+00 0.000D+00 0.135D+00 0.865D+00
 Coeff:     -0.269D-01 0.647D-01 0.308D+00 0.654D+00
 Gap=     0.280 Goal=   None    Shift=    0.000
 RMSDP=5.81D-03 MaxDP=6.38D-01 DE=-8.43D-04 OVMax= 3.71D-03

 Cycle   5  Pass 1  IDiag  1:
 RMSU=  1.90D-04    CP:  1.63D+00  1.20D+00  7.42D-01  9.45D-01
 E= -744.850625495698     Delta-E=       -0.000169162963 Rises=F Damp=F
 DIIS: error= 1.07D-04 at cycle   5 NSaved=   5.
 NSaved= 5 IEnMin= 5 EnMin= -744.850625495698     IErMin= 5 ErrMin= 1.07D-04
 ErrMax= 1.07D-04  0.00D+00 EMaxC= 1.00D-01 BMatC= 4.40D-06 BMatP= 2.14D-04
 IDIUse=3 WtCom= 9.99D-01 WtEn= 1.07D-03
 Coeff-Com: -0.783D-03-0.548D-01 0.520D-01 0.243D+00 0.761D+00
 Coeff-En:   0.000D+00 0.000D+00 0.000D+00 0.000D+00 0.100D+01
 Coeff:     -0.782D-03-0.548D-01 0.519D-01 0.243D+00 0.761D+00
 Gap=     0.280 Goal=   None    Shift=    0.000
 RMSDP=4.97D-04 MaxDP=5.20D-02 DE=-1.69D-04 OVMax= 7.97D-04

 Cycle   6  Pass 1  IDiag  1:
 RMSU=  1.24D-04    CP:  1.63D+00  1.21D+00  7.71D-01  9.94D-01  8.04D-01
 E= -744.850631017387     Delta-E=       -0.000005521690 Rises=F Damp=F
 DIIS: error= 4.19D-05 at cycle   6 NSaved=   6.
 NSaved= 6 IEnMin= 6 EnMin= -744.850631017387     IErMin= 6 ErrMin= 4.19D-05
 ErrMax= 4.19D-05  0.00D+00 EMaxC= 1.00D-01 BMatC= 4.49D-07 BMatP= 4.40D-06
 IDIUse=1 WtCom= 1.00D+00 WtEn= 0.00D+00
 Coeff-Com:  0.196D-02-0.268D-01-0.776D-02 0.360D-01 0.293D+00 0.703D+00
 Coeff:      0.196D-02-0.268D-01-0.776D-02 0.360D-01 0.293D+00 0.703D+00
 Gap=     0.280 Goal=   None    Shift=    0.000
 RMSDP=4.38D-05 MaxDP=2.39D-03 DE=-5.52D-06 OVMax= 2.52D-04

 Cycle   7  Pass 1  IDiag  1:
 RMSU=  2.63D-05    CP:  1.63D+00  1.20D+00  7.73D-01  1.02D+00  8.57D-01
                    CP:  9.35D-01
 E= -744.850631560749     Delta-E=       -0.000000543362 Rises=F Damp=F
 DIIS: error= 1.98D-05 at cycle   7 NSaved=   7.
 NSaved= 7 IEnMin= 7 EnMin= -744.850631560749     IErMin= 7 ErrMin= 1.98D-05
 ErrMax= 1.98D-05  0.00D+00 EMaxC= 1.00D-01 BMatC= 7.71D-08 BMatP= 4.49D-07
 IDIUse=1 WtCom= 1.00D+00 WtEn= 0.00D+00
 Coeff-Com:  0.956D-03-0.545D-02-0.107D-01-0.136D-01 0.428D-01 0.315D+00
 Coeff-Com:  0.671D+00
 Coeff:      0.956D-03-0.545D-02-0.107D-01-0.136D-01 0.428D-01 0.315D+00
 Coeff:      0.671D+00
 Gap=     0.280 Goal=   None    Shift=    0.000
 RMSDP=6.10D-05 MaxDP=6.80D-03 DE=-5.43D-07 OVMax= 1.20D-04

 Cycle   8  Pass 1  IDiag  1:
 RMSU=  6.42D-06    CP:  1.63D+00  1.20D+00  7.76D-01  1.02D+00  8.59D-01
                    CP:  1.02D+00  1.19D+00
 E= -744.850631663952     Delta-E=       -0.000000103202 Rises=F Damp=F
 DIIS: error= 6.54D-06 at cycle   8 NSaved=   8.
 NSaved= 8 IEnMin= 8 EnMin= -744.850631663952     IErMin= 8 ErrMin= 6.54D-06
 ErrMax= 6.54D-06  0.00D+00 EMaxC= 1.00D-01 BMatC= 9.43D-09 BMatP= 7.71D-08
 IDIUse=1 WtCom= 1.00D+00 WtEn= 0.00D+00
 Coeff-Com:  0.663D-05 0.282D-02-0.305D-02-0.117D-01-0.361D-01-0.130D-01
 Coeff-Com:  0.241D+00 0.820D+00
 Coeff:      0.663D-05 0.282D-02-0.305D-02-0.117D-01-0.361D-01-0.130D-01
 Coeff:      0.241D+00 0.820D+00
 Gap=     0.280 Goal=   None    Shift=    0.000
 RMSDP=8.64D-06 MaxDP=5.39D-04 DE=-1.03D-07 OVMax= 8.12D-05

 Cycle   9  Pass 1  IDiag  1:
 RMSU=  3.18D-06    CP:  1.63D+00  1.21D+00  7.75D-01  1.02D+00  8.61D-01
                    CP:  1.07D+00  1.33D+00  1.18D+00
 E= -744.850631680524     Delta-E=       -0.000000016573 Rises=F Damp=F
[...]
 1\1\GINC-BROWN-A291\Freq\RM062X\6-311++G(d,p)\C7H8O1S1\FINEJ\13-Oct-20
 19\0\\#P Geom=AllCheck Guess=TCheck SCRF=Check GenChk RM062X/6-311++G(
 d,p) Freq\\Title Card Required\\0,1\O,-2.4199744459,-1.6964108978,0.22
 09636079\S,-0.9148817496,-1.6932189054,0.2512905822\C,-0.3838812175,-2
 .2490715766,-1.3955883586\C,-0.4037987742,0.0299968149,0.0416840614\C,
 0.9411601223,0.3763401614,0.1125169029\C,1.3017309528,1.7101379454,-0.
 0368701518\C,0.3203850992,2.6774404352,-0.2438857443\C,-1.0213580584,2
 .3147897495,-0.2972848637\C,-1.3938616752,0.9809223455,-0.1509420176\H
 ,-0.6507722224,-3.3022849867,-1.4728204865\H,-0.9255422153,-1.66074291
 49,-2.1359817092\H,0.6935333208,-2.1180457254,-1.4951592577\H,1.697593
 5717,-0.381073793,0.2931143805\H,2.3453145967,1.9961608036,0.015603965
 1\H,0.6042866169,3.7170543398,-0.3549937651\H,-1.7818149971,3.07149452
 34,-0.449009916\H,-2.4300189249,0.6606116811,-0.1741372295\\Version=ES
 64L-G16RevA.03\State=1-A\HF=-744.8566148\RMSD=5.775e-09\RMSF=8.771e-06
 \ZeroPoint=0.133775\Thermal=0.133775\Dipole=1.519477,0.5536352,-0.6313
 036\DipoleDeriv=-1.1756261,-0.3562865,0.3163491,-0.0177376,-0.5806109,
 0.0112448,-0.1031883,-0.0158588,-0.5075937,1.1778808,0.4662249,-0.3687
 195,0.1307039,0.7960869,-0.0270479,-0.1151926,-0.0323277,0.7002002,-0.
 1090475,-0.0610024,0.0376163,-0.0543763,-0.136544,0.0341073,0.0940617,
 -0.0367065,-0.21932,-0.1281028,0.0129936,0.0215218,0.0113908,0.0472749
 ,0.0134277,0.0679957,0.1377433,-0.1756643,-0.0071966,-0.0005509,0.0183
 551,-0.1356709,-0.1584743,-0.0456647,0.0477056,0.0210039,-0.0907697,0.
 0617422,0.0074014,0.0122343,0.0671782,-0.0495171,-0.0024553,-0.0029765
 ,-0.0304866,-0.1297439,-0.0301413,0.0081557,0.0041711,0.0219603,0.0391
 407,-0.0339462,0.0056204,-0.014419,-0.1229986,0.0331261,-0.0214012,0.0
 113476,-0.124959,0.0467271,-0.0296865,0.0200768,-0.0397067,-0.118229,-
 0.0574312,-0.1049996,-0.0063792,0.0447152,-0.2215189,-0.0047912,-0.019
 1558,-0.0065242,-0.0884095,0.100861,-0.0229176,0.0054345,-0.0245192,-0
 .0508341,-0.0252941,0.0104869,-0.0624855,0.0610256,0.0503888,0.0438071
 ,-0.0184384,0.065015,0.0520826,0.0352662,0.0264364,-0.005242,-0.012265
 4,-0.0409176,-0.0146049,0.0198757,-0.0307241,0.1031797,-0.0072585,0.00
 52427,-0.0114516,0.0311607,0.0360259,0.0538882,-0.0127706,0.0811213,0.
 0105384,0.0271083,-0.0118583,0.0277979,0.1245144,-0.0555354,-0.0446876
 ,-0.0138144,-0.0414703,0.0415112,0.0042543,-0.0103617,0.010225,0.13917
 23,0.0666285,-0.0381467,-0.001597,-0.0378029,-0.0570558,0.020826,0.000
 1258,0.0233105,0.1377353,0.0074788,0.0603603,-0.0177073,0.053656,-0.02
 07208,0.0188462,-0.0130922,0.026701,0.1347577,0.0698664,0.0117661,-0.0
 074791,-0.0084805,0.1387345,0.0110636,-0.0019267,0.0084268,0.136428\Po
 lar=106.5776577,7.60673,127.2790597,-0.6600904,1.2074326,69.4657345\Qu
 adrupole=-2.5466926,4.5432189,-1.9965263,-4.9147157,1.5646973,2.136830
 6\PG=C01 [X(C7H8O1S1)]\NImag=0\\0.46781194,0.01094293,0.04548727,-0.00
 673248,0.00144596,0.03708819,-0.42721900,0.01972693,-0.03609658,0.5360
 2977,0.00099716,-0.05065449,-0.00008390,-0.00574259,0.27751574,-0.0076
 7398,0.00141097,-0.05359568,0.01313621,0.00419313,0.26720317,-0.019789
 13,0.00861585,0.03630337,-0.05059257,-0.00497957,-0.01176963,0.5693753
 6,-0.00464820,0.00499153,-0.00239711,0.00447211,-0.04978731,-0.0031814
 7,0.02174553,0.55467196,0.00264412,0.00175927,0.00984442,0.02285902,-0
 .03277385,-0.14129035,0.05648952,-0.06268719,0.39213790,-0.02003111,-0
 .03376783,0.00720265,-0.05874766,0.01303930,-0.00447637,0.00556883,0.0
 0500548,-0.00302440,0.68099052,-0.00025352,0.00315758,0.00192974,-0.02
 208072,-0.13239686,0.00419341,0.00146847,-0.01626376,-0.00264893,-0.04
 048940,0.52284256,0.00533996,-0.00554745,0.00462466,-0.00341413,0.0389
 0961,-0.04737791,-0.00316404,-0.02609815,0.00266097,0.04670975,-0.0468
 4740,0.14681006,0.00183670,0.00173629,-0.00008636,-0.00278116,-0.01309
 185,0.00105608,0.00006701,0.00128165,0.00041166,-0.32375648,-0.0730488
 9,-0.01164247,0.69483091,-0.00777132,-0.00547535,0.00143409,-0.0202953
 9,-0.00750104,-0.00181912,0.00024554,-0.00108903,-0.00009199,-0.013907
 05,-0.12664610,0.00950844,-0.03370176,0.70133425,0.00093372,0.00173482
 ,0.00126560,0.00400938,-0.00080139,0.00065018,0.00012866,-0.00097432,-
 0.00075540,-0.02314450,0.00409822,-0.06461131,0.05478028,-0.08140065,0
 .15204013,-0.00194020,-0.00222741,0.00072482,-0.00413595,0.00122554,-0
 .00078847,0.00039782,0.00032448,-0.00001534,0.00410527,-0.03693920,0.0
 0424580,-0.14267812,-0.09312830,0.00580127,0.74394061,0.00135445,-0.00
 083310,-0.00020956,-0.00135312,0.00668390,0.00025800,0.00045313,0.0003
 1552,0.00015878,-0.09925412,0.00287235,-0.00739587,-0.01633342,-0.3291
 4601,0.03408689,0.02981208,0.66814116,-0.00078143,-0.00023483,0.000072
 31,0.00037221,-0.00048849,0.00468677,0.00019304,0.00122454,0.00010224,
 0.01253891,-0.00283771,0.00983710,-0.00412081,0.02762454,-0.06782131,0
 .04704128,-0.06776535,0.15140945,0.00053934,-0.00070473,-0.00033696,-0
 .00189598,0.00291024,0.00006134,0.00014319,0.00020483,0.00046313,-0.07
 830474,0.01787261,-0.00867811,0.06581518,0.06128711,-0.00345613,-0.234
 71363,0.06205349,-0.02256167,0.67598881,-0.00047695,-0.00004946,-0.000
 05135,0.00153264,-0.00112292,-0.00036438,-0.00065426,-0.00059209,0.000
 16751,0.02041620,-0.00598892,0.00240037,0.00325177,-0.04958671,0.00814
 462,0.13764169,-0.22994990,0.03276338,0.02830898,0.73870671,0.00020307
 ,-0.00002478,-0.00005435,-0.00002947,0.00048844,-0.00060850,-0.0000875
 9,-0.00009746,-0.00001962,-0.00872749,0.00118772,-0.00805139,0.0043018
 1,0.01248628,0.00610257,-0.03205106,0.02640917,-0.07118412,0.03808935,
 -0.07612043,0.15252553,0.00193670,-0.00300553,0.00103852,-0.00410164,0
 .00366760,-0.00183595,-0.00034450,-0.00043820,-0.00064205,0.06366570,0
 .00621075,0.00449136,-0.04272083,-0.03970540,0.00301428,-0.04957187,0.
 06174459,-0.01275441,-0.33024140,-0.09088876,-0.00793579,0.71048806,-0
 .00107599,0.00153671,0.00008772,0.00428946,-0.00109572,0.00091371,-0.0
 0000313,-0.00025924,-0.00048126,0.06521810,-0.05141674,0.01295997,-0.0
 4067723,-0.04067714,0.00188289,0.00457761,0.06616700,-0.00748016,-0.01
 531429,-0.14627191,0.00947197,-0.03616484,0.70066371,-0.00020190,0.000
 26498,0.00028755,-0.00127097,-0.00151626,0.00565024,0.00039361,0.00221
 356,-0.00000283,-0.00349747,0.00772256,0.00521562,0.00241608,0.0014910
 5,-0.00505409,-0.00505621,-0.00256326,0.00640562,-0.01715488,0.0034184
 2,-0.06621390,0.04588885,-0.07550028,0.15306805,-0.00347874,0.00312435
 ,-0.00121890,0.01567094,-0.00417520,0.00095263,-0.00059415,-0.00216680
 ,0.00025488,-0.24095376,0.13344278,-0.02902129,-0.04752948,0.00554266,
 -0.00473041,-0.00646177,0.02096557,-0.00290108,0.00875429,-0.03821056,
 0.00526420,-0.14487219,-0.09361470,0.00610470,0.73915690,0.00178535,0.
 00151704,-0.00142176,0.01157069,-0.03566762,0.00757623,-0.00050023,-0.
 00022972,0.00228172,0.07428713,-0.21130954,0.02302176,0.06027359,0.061
 67447,-0.00356175,0.01913903,-0.07516988,0.01092647,-0.09473638,0.0067
 0718,-0.00733540,-0.01746182,-0.32225026,0.03279478,0.03421257,0.67003
 209,-0.00079896,0.00014084,0.00023014,0.00172143,0.00536563,0.00110553
 ,-0.00049099,-0.00121868,-0.00054818,-0.02162182,0.02828386,-0.0651410
 6,-0.01361107,-0.00754166,0.00688955,-0.00249868,0.01079551,-0.0072690
 4,0.01263997,-0.00311519,0.00801420,-0.00386857,0.02730097,-0.06841997
 ,0.03615853,-0.06631696,0.14812586,-0.00018547,-0.00089662,-0.00116510
 ,0.00148450,0.00869771,0.00213334,-0.06417810,-0.06688260,-0.00654333,
 -0.00021285,0.00026834,0.00204207,-0.00009282,-0.00024047,-0.00019445,
 0.00001986,0.00042450,-0.00030581,0.00040410,-0.00001611,0.00006190,-0
 .00022110,-0.00039182,-0.00017140,0.00010150,0.00057166,-0.00008013,0.
 06304784,0.00135951,0.00113311,0.00077487,-0.00230227,-0.00732948,-0.0
 0084192,-0.06753077,-0.31244247,-0.01547465,-0.00039116,-0.00061196,-0
 .00187899,0.00043877,0.00011861,-0.00004984,0.00007763,-0.00005539,0.0
 0013126,0.00000787,-0.00008611,0.00001611,-0.00020607,-0.00002324,0.00
 006153,-0.00021593,0.00055049,-0.00029721,0.07294290,0.33224083,-0.000
 52441,0.00231763,0.00164859,-0.00729407,-0.02602928,-0.00360679,-0.005
 71587,-0.01801991,-0.04498745,0.00251346,-0.00140148,-0.00541713,0.000
 09450,-0.00043167,0.00026697,-0.00003414,0.00016762,0.00030975,0.00011
 714,-0.00028462,-0.00002783,-0.00005352,-0.00017549,0.00066176,-0.0006
 6459,-0.00062821,-0.00019905,0.00477995,0.01968517,0.04877102,0.000509
 88,-0.00041600,-0.00290767,0.00457619,-0.00222115,0.01059197,-0.116694
 06,0.07564520,-0.09584899,-0.00031342,-0.00100104,-0.00042521,-0.00038
 441,0.00003629,0.00009880,0.00002606,-0.00018798,0.00001690,-0.0001245
 4,-0.00002264,0.00002886,0.00004276,0.00007826,0.00003761,0.00010833,-
 0.00027566,-0.00012948,0.00420758,-0.00483232,0.00679087,0.11911706,-0
 .00124906,-0.00061863,0.00266105,-0.00345039,0.00286613,-0.01333627,0.
 07609668,-0.12996887,0.10570656,-0.00077308,0.00186903,-0.00050256,-0.
 00027590,-0.00004262,0.00003438,-0.00007775,0.00008251,0.00007396,0.00
 012700,-0.00001497,-0.00003106,-0.00012986,-0.00018968,0.00013865,0.00
 034000,0.00035949,0.00030304,0.01523615,-0.01283708,0.02050848,-0.0830
 6336,0.13648119,0.00120595,-0.00018348,0.00759681,-0.01230975,0.007352
 36,-0.03159829,-0.09802943,0.10890374,-0.17025692,0.00083918,0.0022171
 2,0.00211160,-0.00037068,-0.00047207,0.00033174,-0.00009954,0.00036756
 ,-0.00029465,0.00031963,-0.00009669,-0.00000132,-0.00008141,-0.0003704
 6,-0.00012065,0.00000348,-0.00025688,0.00029057,0.00249089,-0.00254026
 ,0.00332871,0.10282904,-0.11123690,0.18388415,-0.00060714,-0.00004825,
 0.00233139,-0.00538443,-0.00005350,-0.00122969,-0.32275502,-0.03443541
 ,0.02273508,0.00030078,-0.00037148,-0.00009832,-0.00014768,-0.00057808
 ,-0.00024612,0.00010671,0.00041456,-0.00029911,0.00038383,-0.00009410,
 0.00008028,-0.00026022,-0.00035374,0.00007283,-0.00016438,0.00050955,-
 0.00020453,-0.00454626,0.00069871,0.00014043,-0.01113491,-0.00300585,0
 .00311268,0.34399627,0.00216878,0.00023719,-0.00356579,0.00892153,-0.0
 0115410,0.00153699,-0.03438729,-0.04846896,0.00408746,-0.00016168,0.00
 010667,-0.00005592,0.00000453,-0.00063741,0.00026673,-0.00021869,-0.00
 027990,0.00000342,-0.00015587,0.00005737,-0.00000536,0.00009580,0.0001
 3271,-0.00007068,0.00002834,-0.00019667,-0.00003654,-0.02986575,-0.000
 57671,0.00451677,0.01617338,0.00195327,-0.00366809,0.03762471,0.048813
 27,0.00531798,-0.00223191,-0.00722429,0.02095371,0.00474112,0.00309693
 ,0.02591929,0.00376738,-0.04693895,-0.00088826,0.00084621,0.00044589,0
 .00046156,-0.00052709,0.00019670,-0.00030502,-0.00035376,0.00005012,-0
 .00034045,0.00021270,-0.00007065,0.00025457,0.00032881,-0.00008986,0.0
 0008453,-0.00047590,0.00008828,-0.00356295,0.00046225,-0.00018965,-0.0
 2111954,-0.00409929,0.00473018,-0.02644906,-0.00254656,0.04637851,0.00
 016380,-0.00037830,0.00043192,-0.00034899,0.00137978,-0.00053974,-0.00
 037459,-0.00015078,0.00022421,-0.01575915,0.02152583,-0.00470947,-0.19
 499232,0.13622059,-0.03440816,0.00976002,-0.00719161,0.00146723,0.0008
 7447,-0.00239617,-0.00035385,-0.00024372,-0.00106962,0.00019428,-0.004
 85401,-0.00312762,-0.00056493,0.00014389,-0.00004470,-0.00011240,0.000
 10280,0.00008452,0.00002766,0.00018202,-0.00021567,-0.00032261,0.20509
 630,0.00079777,-0.00024900,0.00017018,-0.00064039,0.00065416,-0.000623
 28,0.00003326,-0.00008022,-0.00014917,-0.00541552,0.01002354,-0.001722
 71,0.13419342,-0.19373657,0.03538405,0.02311349,-0.01487896,0.00454475
 ,-0.00306234,-0.00447705,0.00145987,-0.00099523,-0.00040461,-0.0002149
 6,-0.00227865,0.00054171,0.00084415,0.00004125,-0.00002786,0.00003480,
 -0.00002183,-0.00000573,0.00005438,-0.00021375,-0.00012575,-0.00028154
 ,-0.14611846,0.20233987,0.00005040,0.00015689,-0.00014105,-0.00078496,
 -0.00026160,-0.00190502,-0.00025968,-0.00021032,-0.00003336,-0.0003067
 5,0.00068362,0.00170271,-0.03463111,0.03618628,-0.04539907,-0.00264389
 ,0.00166425,0.00356295,-0.00023266,0.00139407,0.00742574,0.00022006,-0
 .00016718,-0.00105718,-0.00049544,0.00052501,0.00698256,0.00039534,-0.
 00004444,-0.00018082,0.00001180,-0.00004874,0.00006084,0.00001853,-0.0
 0049719,-0.00042830,0.03828365,-0.03872962,0.03446895,-0.00022430,-0.0
 0009431,0.00003288,0.00016457,0.00047061,-0.00010513,-0.00001620,-0.00
 006737,-0.00000416,0.00159369,-0.00151011,-0.00030030,-0.00320842,0.00
 057961,-0.00065160,-0.32474819,-0.07287833,-0.01508459,-0.01533196,-0.
 00863913,-0.00049157,-0.00111230,0.00373059,-0.00121364,0.00051182,0.0
 0061240,0.00005647,0.00000895,-0.00001173,-0.00003137,-0.00000564,0.00
 000355,0.00000092,-0.00000152,-0.00000772,0.00000162,0.00050888,-0.000
 20149,0.00044940,0.34206119,-0.00082520,-0.00049783,0.00003413,-0.0005
 1374,0.00076607,-0.00005238,0.00003604,-0.00005081,0.00000799,-0.00133
 081,-0.00535036,0.00161488,-0.02971897,-0.00337571,-0.00164600,-0.0728
 1338,-0.07854191,-0.00089679,0.02198805,0.01030907,0.00104337,0.003361
 77,-0.00264328,0.00156012,0.00052712,-0.00124883,0.00010396,0.00001908
 ,-0.00000555,-0.00004423,0.00000029,0.00000004,-0.00001271,0.00000887,
 -0.00002558,-0.00003788,0.00045574,0.00088054,-0.00067839,0.07825978,0
 .07883225,0.00016451,-0.00005056,-0.00026952,-0.00001410,0.00004987,0.
 00048047,-0.00003844,-0.00003312,-0.00000443,0.00004453,0.00156532,0.0
 0731197,0.00312024,0.00077583,0.00384273,-0.01529671,-0.00068074,-0.03
 965881,-0.00430735,-0.00167493,0.00357334,-0.00118979,0.00156871,0.007
 01929,-0.00003870,0.00025683,-0.00113294,-0.00002139,0.00000620,-0.000
 01355,-0.00002384,0.00001755,-0.00000077,0.00000871,0.00000764,0.00004
 183,0.00043730,-0.00076102,-0.00416061,0.01687734,-0.00025130,0.027790
 64,0.00022807,-0.00018965,0.00006760,-0.00022860,-0.00005835,0.0000685
 2,0.00000201,0.00002369,0.00002018,-0.00151876,0.00062898,-0.00017169,
 -0.00255878,0.00347885,-0.00128147,0.01004800,0.02227344,-0.00230059,-
 0.07883061,-0.07204059,0.00615343,-0.00225394,-0.02988732,0.00333630,-
 0.00564662,-0.00133141,-0.00081125,0.00001214,0.00000201,-0.00000041,0
 .00000219,0.00001374,0.00000736,0.00001718,-0.00001424,-0.00003135,0.0
 0033091,0.00114522,-0.00013136,0.00067967,-0.00051333,0.00045444,0.078
 91980,-0.00007972,-0.00014591,-0.00000638,-0.00004470,0.00008230,-0.00
 006116,0.00005251,-0.00002299,-0.00003239,0.00061560,0.00070634,-0.000
 15015,0.00363225,-0.00110127,0.00137924,-0.00841675,-0.01521183,0.0017
 2752,-0.07205475,-0.32248438,0.03079117,0.00080398,-0.00326285,0.00098
 302,-0.00151067,0.00160193,0.00065888,-0.00000675,-0.00000093,-0.00000
 391,-0.00000844,0.00000285,0.00001176,-0.00000531,0.00001286,0.0000130
 7,-0.00043371,-0.00081615,0.00007246,0.00026105,0.00061015,-0.00058851
 ,0.07725367,0.33973624,0.00005047,-0.00006923,-0.00008478,-0.00016102,
 -0.00006845,-0.00074766,-0.00000153,-0.00019434,-0.00001926,-0.0000776
 4,-0.00000569,-0.00067164,-0.00130646,0.00140127,0.00682276,0.00155164
 ,0.00428330,0.00331132,0.00605133,0.03071501,-0.04248187,-0.00033039,-
 0.00130398,0.00400464,-0.00082342,0.00049637,0.00743545,0.00004354,-0.
 00000992,-0.00006868,-0.00000848,-0.00001728,0.00003227,0.00003019,-0.
 00000775,-0.00001208,0.00005140,0.00023107,0.00000841,0.00036702,-0.00
 064066,-0.00392893,-0.00584276,-0.03420528,0.03048233,-0.00010058,0.00
 018543,-0.00003306,0.00039491,-0.00058981,0.00009910,-0.00002109,-0.00
 002878,0.00002093,0.00119947,-0.00245249,-0.00010387,-0.00037561,-0.00
 107546,0.00018968,-0.00473212,-0.00278141,-0.00056584,-0.01506795,0.02
 282706,-0.00427730,-0.20012098,0.13995853,-0.02940915,0.00969783,-0.00
 781519,0.00140188,-0.00000449,0.00000599,-0.00002475,0.00000609,0.0000
 0704,-0.00002014,-0.00000159,-0.00000428,0.00000033,0.00002319,0.00011
 618,0.00007325,-0.00083471,0.00112174,-0.00023702,0.00081946,-0.000240
 61,0.00039629,0.20865357,-0.00061724,0.00033432,-0.00012546,0.00151091
 ,-0.00061410,0.00022730,-0.00006758,-0.00018215,0.00008914,-0.00212044
 ,-0.00484520,0.00141460,-0.00107351,-0.00036494,-0.00016952,-0.0024574
 3,0.00095684,0.00067257,-0.00781947,0.00973643,-0.00128294,0.14033722,
 -0.19794972,0.03041470,0.02202298,-0.01571558,0.00420436,0.00003139,0.
 00000346,-0.00009572,0.00000870,0.00001749,-0.00001860,0.00000912,0.00
 000415,-0.00001341,0.00011477,0.00000831,-0.00014486,-0.00046501,0.000
 32283,-0.00009134,0.00049269,0.00049065,-0.00056434,-0.14979057,0.2068
 2781,0.00004826,0.00003104,0.00006223,-0.00035176,-0.00007593,0.000083
 05,0.00007104,0.00010791,-0.00000705,-0.00041389,0.00152587,0.00715848
 ,0.00039872,-0.00004797,-0.00107754,-0.00063180,0.00066838,0.00761387,
 -0.00042341,0.00093122,0.00376372,-0.02926457,0.03041512,-0.04541371,-
 0.00237313,0.00171705,0.00383271,0.00003373,0.00001741,0.00003882,-0.0
 0000767,-0.00003434,0.00000981,0.00001255,0.00000856,-0.00000732,0.000
 09461,-0.00015357,-0.00114927,0.00001042,0.00002093,0.00003750,0.00029
 412,-0.00062871,-0.00408529,0.03223052,-0.03386604,0.03323425,0.000549
 24,-0.00260314,0.00044395,-0.00288491,-0.00147592,0.00031976,-0.000194
 82,0.00011517,-0.00004447,-0.01782632,-0.00327089,-0.00110003,-0.00132
 368,0.00301258,-0.00084323,0.00057748,0.00048418,0.00004578,0.00160761
 ,-0.00053907,-0.00022878,-0.00006855,0.00070015,-0.00046864,-0.3194465
 2,-0.07771365,-0.00729788,0.00001074,0.00000156,0.00001919,-0.00004197
 ,0.00011658,0.00007416,0.00001636,0.00001411,0.00002566,-0.00061350,-0
 .00049294,-0.00001659,-0.00004553,-0.00006305,0.00006027,-0.00002211,0
 .00018234,0.00000983,0.00046462,-0.00011654,0.00027227,0.33924187,-0.0
 0240876,0.00012904,-0.00067643,0.00439905,-0.00124465,-0.00002976,-0.0
 0062416,-0.00054136,0.00008099,0.01902927,0.01325137,0.00036957,0.0031
 0926,-0.00374741,0.00159163,0.00036735,-0.00115239,0.00001091,-0.00091
 235,-0.00489234,0.00154332,-0.02722601,-0.00205573,-0.00119794,-0.0780
 3384,-0.08119630,0.00052504,0.00006714,-0.00004972,-0.00011595,0.00010
 831,0.00004558,-0.00005080,-0.00010604,0.00014758,0.00019580,0.0013454
 0,0.00035377,0.00009975,-0.00004239,0.00001890,-0.00011641,-0.00127739
 ,-0.00019699,-0.00004010,0.00055663,0.00096940,-0.00063692,0.08164852,
 0.08016128,0.00075471,-0.00092016,-0.00135083,-0.00132515,0.00099899,-
 0.00222616,0.00005867,-0.00110505,0.00011827,-0.00366988,-0.00051246,0
 .00339139,-0.00127196,0.00142442,0.00630979,0.00005604,0.00010911,-0.0
 0113355,-0.00025027,0.00156029,0.00730846,0.00304882,0.00054892,0.0040
 5942,-0.00655596,0.00040063,-0.04028460,0.00006381,-0.00001759,-0.0003
 3465,0.00006504,-0.00013723,-0.00010408,-0.00001586,0.00002632,-0.0000
 6734,-0.00020112,-0.00008737,0.00024252,0.00008629,-0.00012504,-0.0009
 2822,0.00016892,0.00003936,0.00000301,0.00025915,-0.00065044,-0.004094
 26,0.00872874,-0.00155271,0.02909084\\0.00000955,-0.00000255,0.0000005
 8,-0.00000559,-0.00000553,-0.00000342,-0.00001706,0.00000690,0.0000021
 7,0.00003051,-0.00000693,-0.00000522,-0.00001274,-0.00002047,0.0000088
 3,0.00000106,0.00002160,-0.00000585,0.00001101,0.00000049,0.00000249,-
 0.00001176,-0.00000950,0.00000708,-0.00001332,0.00001494,-0.00000450,0
 .00000918,0.00000205,0.00000510,0.00000574,-0.00000576,-0.00000188,0.0
 0000565,0.00000049,0.00000315,0.00000164,0.00000590,-0.00000050,-0.000
 00245,0.00000034,0.00000057,-0.00000759,0.00000155,-0.00000242,-0.0000
 0138,0.00000100,-0.00000690,-0.00000243,-0.00000452,0.00000073\\\@


 The cat could very well be man's best friend
 but would never stoop to admitting it.
                               -- Doug Larson
 Job cpu time:       0 days  0 hours 39 minutes 19.2 seconds.
 Elapsed time:       0 days  0 hours  1 minutes 39.0 seconds.
 File lengths (MBytes):  RWF=    120 Int=      0 D2E=      0 Chk=      7 Scr=      1
 Normal termination of Gaussian 16 at Sun Oct 13 23:18:18 2019.
real 264.71
user 6156.00
sys 26.46
Machine:
brown-a291
brown-a291
brown-a291
brown-a291
brown-a291
brown-a291
brown-a291
brown-a291
brown-a291
brown-a291
brown-a291
brown-a291
brown-a291
brown-a291
brown-a291
brown-a291
brown-a291
brown-a291
brown-a291
brown-a291
brown-a291
brown-a291
brown-a291
brown-a291
