 Entering Gaussian System, Link 0=/apps/cent7/gaussian/g16-A.03/g16-haswell/g16/g16
 Initial command:
 /apps/cent7/gaussian/g16-A.03/g16-haswell/g16/l1.exe "/scratch/brown/finej/gaussian/Gau-409896.inp" -scrdir="/scratch/brown/finej/gaussian/"
 Entering Link 1 = /apps/cent7/gaussian/g16-A.03/g16-haswell/g16/l1.exe PID=    409897.
  
 Copyright (c) 1988,1990,1992,1993,1995,1998,2003,2009,2016,
            Gaussian, Inc.  All Rights Reserved.
  
 This is part of the Gaussian(R) 16 program.  It is based on
 the Gaussian(R) 09 system (copyright 2009, Gaussian, Inc.),
 the Gaussian(R) 03 system (copyright 2003, Gaussian, Inc.),
 the Gaussian(R) 98 system (copyright 1998, Gaussian, Inc.),
 the Gaussian(R) 94 system (copyright 1995, Gaussian, Inc.),
 the Gaussian 92(TM) system (copyright 1992, Gaussian, Inc.),
 the Gaussian 90(TM) system (copyright 1990, Gaussian, Inc.),
 the Gaussian 88(TM) system (copyright 1988, Gaussian, Inc.),
 the Gaussian 86(TM) system (copyright 1986, Carnegie Mellon
 University), and the Gaussian 82(TM) system (copyright 1983,
 Carnegie Mellon University). Gaussian is a federally registered
 trademark of Gaussian, Inc.
  
 This software contains proprietary and confidential information,
 including trade secrets, belonging to Gaussian, Inc.
  
 This software is provided under written license and may be
 used, copied, transmitted, or stored only in accord with that
 written license.
  
 The following legend is applicable only to US Government
 contracts under FAR:
  
                    RESTRICTED RIGHTS LEGEND
  
 Use, reproduction and disclosure by the US Government is
 subject to restrictions as set forth in subparagraphs (a)
 and (c) of the Commercial Computer Software - Restricted
 Rights clause in FAR 52.227-19.
  
 Gaussian, Inc.
 340 Quinnipiac St., Bldg. 40, Wallingford CT 06492
  
  
 ---------------------------------------------------------------
 Warning -- This program may not be used in any manner that
 competes with the business of Gaussian, Inc. or will provide
 assistance to any competitor of Gaussian, Inc.  The licensee
 of this program is prohibited from giving any competitor of
 Gaussian, Inc. access to this program.  By using this program,
 the user acknowledges that Gaussian, Inc. is engaged in the
 business of creating and licensing software in the field of
 computational chemistry and represents and warrants to the
 licensee that it is not a competitor of Gaussian, Inc. and that
 it will not use this program in any manner prohibited above.
 ---------------------------------------------------------------
  

 Cite this work as:
 Gaussian 16, Revision A.03,
 M. J. Frisch, G. W. Trucks, H. B. Schlegel, G. E. Scuseria, 
 M. A. Robb, J. R. Cheeseman, G. Scalmani, V. Barone, 
 G. A. Petersson, H. Nakatsuji, X. Li, M. Caricato, A. V. Marenich, 
 J. Bloino, B. G. Janesko, R. Gomperts, B. Mennucci, H. P. Hratchian, 
 J. V. Ortiz, A. F. Izmaylov, J. L. Sonnenberg, D. Williams-Young, 
 F. Ding, F. Lipparini, F. Egidi, J. Goings, B. Peng, A. Petrone, 
 T. Henderson, D. Ranasinghe, V. G. Zakrzewski, J. Gao, N. Rega, 
 G. Zheng, W. Liang, M. Hada, M. Ehara, K. Toyota, R. Fukuda, 
 J. Hasegawa, M. Ishida, T. Nakajima, Y. Honda, O. Kitao, H. Nakai, 
 T. Vreven, K. Throssell, J. A. Montgomery, Jr., J. E. Peralta, 
 F. Ogliaro, M. J. Bearpark, J. J. Heyd, E. N. Brothers, K. N. Kudin, 
 V. N. Staroverov, T. A. Keith, R. Kobayashi, J. Normand, 
 K. Raghavachari, A. P. Rendell, J. C. Burant, S. S. Iyengar, 
 J. Tomasi, M. Cossi, J. M. Millam, M. Klene, C. Adamo, R. Cammi, 
 J. W. Ochterski, R. L. Martin, K. Morokuma, O. Farkas, 
 J. B. Foresman, and D. J. Fox, Gaussian, Inc., Wallingford CT, 2016.
 
 ******************************************
 Gaussian 16:  ES64L-G16RevA.03 25-Dec-2016
                13-Oct-2019 
 ******************************************
 %chk=33_p.chk
 %nprocshared=24
 Will use up to   24 processors via shared memory.
 %mem=80GB
 -------------------------------------------------------------------
 #P opt freq m062x/6-311++g(d,p) geom=connectivity temperature=0.001
 -------------------------------------------------------------------
 1/18=20,19=15,26=3,38=1,57=2,112=-1000/1,3;
 2/9=110,12=2,17=6,18=5,40=1/2;
 3/5=4,6=6,7=1111,11=2,25=1,30=1,71=1,74=-55/1,2,3;
 4//1;
 5/5=2,38=5/2;
 6/7=2,8=2,9=2,10=2,28=1/1;
 7//1,2,3,16;
 1/18=20,19=15,26=3/3(2);
 2/9=110/2;
 99//99;
 2/9=110/2;
 3/5=4,6=6,7=1111,11=2,25=1,30=1,71=1,74=-55/1,2,3;
 4/5=5,16=3,69=1/1;
 5/5=2,38=5/2;
 7//1,2,3,16;
 1/18=20,19=15,26=3/3(-5);
 2/9=110/2;
 6/7=2,8=2,9=2,10=2,19=2,28=1/1;
 99/9=1/99;
 Leave Link    1 at Sun Oct 13 23:14:02 2019, MaxMem= 10737418240 cpu:               1.0 elap:               0.0
 (Enter /apps/cent7/gaussian/g16-A.03/g16-haswell/g16/l101.exe)
 -------------------
 Title Card Required
 -------------------
 Symbolic Z-matrix:
 Charge =  1 Multiplicity = 1
 O                    -1.8215   -1.9115    0.9391 
 S                    -0.4547   -1.741     0.1172 
 C                    -0.8543   -2.3237   -1.5718 
 C                    -0.1689    0.0009   -0.0037 
 C                     1.0742    0.5134    0.4212 
 C                     1.3369    1.8927    0.3457 
 C                     0.3577    2.7697   -0.1581 
 C                    -0.8845    2.2654   -0.5864 
 C                    -1.149     0.8839   -0.5082 
 H                    -0.8583   -3.4136   -1.5887 
 H                    -1.8373   -1.9522   -1.8612 
 H                    -0.1052   -1.9522   -2.271 
 H                     1.837    -0.1609    0.8104 
 H                     2.2994    2.282     0.6776 
 H                     0.5613    3.8389   -0.2165 
 H                    -1.6414    2.9446   -0.9785 
 H                    -2.1133    0.4977   -0.8386 
 H                    -1.79544  -2.10642   1.87874 
 
 ITRead=  0  0  0  0  0  0  0  0  0  0  0  0  0  0  0  0  0  0
 MicOpt= -1 -1 -1 -1 -1 -1 -1 -1 -1 -1 -1 -1 -1 -1 -1 -1 -1 -1
 NAtoms=     18 NQM=       18 NQMF=       0 NMMI=      0 NMMIF=      0
                NMic=       0 NMicF=      0.
                    Isotopes and Nuclear Properties:
 (Nuclear quadrupole moments (NQMom) in fm**2, nuclear magnetic moments (NMagM)
  in nuclear magnetons)

  Atom         1           2           3           4           5           6           7           8           9          10
 IAtWgt=          16          32          12          12          12          12          12          12          12           1
 AtmWgt=  15.9949146  31.9720718  12.0000000  12.0000000  12.0000000  12.0000000  12.0000000  12.0000000  12.0000000   1.0078250
 NucSpn=           0           0           0           0           0           0           0           0           0           1
 AtZEff=  -0.0000000  -0.0000000  -0.0000000  -0.0000000  -0.0000000  -0.0000000  -0.0000000  -0.0000000  -0.0000000  -0.0000000
 NQMom=    0.0000000   0.0000000   0.0000000   0.0000000   0.0000000   0.0000000   0.0000000   0.0000000   0.0000000   0.0000000
 NMagM=    0.0000000   0.0000000   0.0000000   0.0000000   0.0000000   0.0000000   0.0000000   0.0000000   0.0000000   2.7928460
 AtZNuc=   8.0000000  16.0000000   6.0000000   6.0000000   6.0000000   6.0000000   6.0000000   6.0000000   6.0000000   1.0000000

  Atom        11          12          13          14          15          16          17          18
 IAtWgt=           1           1           1           1           1           1           1           1
 AtmWgt=   1.0078250   1.0078250   1.0078250   1.0078250   1.0078250   1.0078250   1.0078250   1.0078250
 NucSpn=           1           1           1           1           1           1           1           1
 AtZEff=  -0.0000000  -0.0000000  -0.0000000  -0.0000000  -0.0000000  -0.0000000  -0.0000000  -0.0000000
 NQMom=    0.0000000   0.0000000   0.0000000   0.0000000   0.0000000   0.0000000   0.0000000   0.0000000
 NMagM=    2.7928460   2.7928460   2.7928460   2.7928460   2.7928460   2.7928460   2.7928460   2.7928460
 AtZNuc=   1.0000000   1.0000000   1.0000000   1.0000000   1.0000000   1.0000000   1.0000000   1.0000000
 Leave Link  101 at Sun Oct 13 23:14:03 2019, MaxMem= 10737418240 cpu:              13.9 elap:               0.6
 (Enter /apps/cent7/gaussian/g16-A.03/g16-haswell/g16/l103.exe)

 GradGradGradGradGradGradGradGradGradGradGradGradGradGradGradGradGradGrad
 Berny optimization.
 Initialization pass.
                           ----------------------------
                           !    Initial Parameters    !
                           ! (Angstroms and Degrees)  !
 --------------------------                            --------------------------
 ! Name  Definition              Value          Derivative Info.                !
 --------------------------------------------------------------------------------
 ! R1    R(1,2)                  1.604          estimate D2E/DX2                !
 ! R2    R(1,18)                 0.96           estimate D2E/DX2                !
 ! R3    R(2,3)                  1.8308         estimate D2E/DX2                !
 ! R4    R(2,4)                  1.7693         estimate D2E/DX2                !
 ! R5    R(3,10)                 1.09           estimate D2E/DX2                !
 ! R6    R(3,11)                 1.09           estimate D2E/DX2                !
 ! R7    R(3,12)                 1.09           estimate D2E/DX2                !
 ! R8    R(4,5)                  1.4101         estimate D2E/DX2                !
 ! R9    R(4,9)                  1.4124         estimate D2E/DX2                !
 ! R10   R(5,6)                  1.4061         estimate D2E/DX2                !
 ! R11   R(5,13)                 1.09           estimate D2E/DX2                !
 ! R12   R(6,7)                  1.4078         estimate D2E/DX2                !
 ! R13   R(6,14)                 1.09           estimate D2E/DX2                !
 ! R14   R(7,8)                  1.4074         estimate D2E/DX2                !
 ! R15   R(7,15)                 1.09           estimate D2E/DX2                !
 ! R16   R(8,9)                  1.4088         estimate D2E/DX2                !
 ! R17   R(8,16)                 1.0899         estimate D2E/DX2                !
 ! R18   R(9,17)                 1.09           estimate D2E/DX2                !
 ! A1    A(2,1,18)             120.0            estimate D2E/DX2                !
 ! A2    A(1,2,3)              104.6492         estimate D2E/DX2                !
 ! A3    A(1,2,4)              106.0997         estimate D2E/DX2                !
 ! A4    A(3,2,4)              106.5921         estimate D2E/DX2                !
 ! A5    A(2,3,10)             109.4713         estimate D2E/DX2                !
 ! A6    A(2,3,11)             109.4694         estimate D2E/DX2                !
 ! A7    A(2,3,12)             109.4697         estimate D2E/DX2                !
 ! A8    A(10,3,11)            109.473          estimate D2E/DX2                !
 ! A9    A(10,3,12)            109.4733         estimate D2E/DX2                !
 ! A10   A(11,3,12)            109.4706         estimate D2E/DX2                !
 ! A11   A(2,4,5)              118.6601         estimate D2E/DX2                !
 ! A12   A(2,4,9)              121.8578         estimate D2E/DX2                !
 ! A13   A(5,4,9)              119.4819         estimate D2E/DX2                !
 ! A14   A(4,5,6)              120.3329         estimate D2E/DX2                !
 ! A15   A(4,5,13)             119.9797         estimate D2E/DX2                !
 ! A16   A(6,5,13)             119.6874         estimate D2E/DX2                !
 ! A17   A(5,6,7)              120.0237         estimate D2E/DX2                !
 ! A18   A(5,6,14)             119.9314         estimate D2E/DX2                !
 ! A19   A(7,6,14)             120.045          estimate D2E/DX2                !
 ! A20   A(6,7,8)              119.9739         estimate D2E/DX2                !
 ! A21   A(6,7,15)             120.023          estimate D2E/DX2                !
 ! A22   A(8,7,15)             120.003          estimate D2E/DX2                !
 ! A23   A(7,8,9)              120.0134         estimate D2E/DX2                !
 ! A24   A(7,8,16)             119.9415         estimate D2E/DX2                !
 ! A25   A(9,8,16)             120.0452         estimate D2E/DX2                !
 ! A26   A(4,9,8)              120.174          estimate D2E/DX2                !
 ! A27   A(4,9,17)             120.0434         estimate D2E/DX2                !
 ! A28   A(8,9,17)             119.7827         estimate D2E/DX2                !
 ! D1    D(18,1,2,3)           148.9498         estimate D2E/DX2                !
 ! D2    D(18,1,2,4)           -98.5526         estimate D2E/DX2                !
 ! D3    D(1,2,3,10)           -78.2491         estimate D2E/DX2                !
 ! D4    D(1,2,3,11)            41.752          estimate D2E/DX2                !
 ! D5    D(1,2,3,12)           161.7493         estimate D2E/DX2                !
 ! D6    D(4,2,3,10)           169.6049         estimate D2E/DX2                !
 ! D7    D(4,2,3,11)           -70.3939         estimate D2E/DX2                !
 ! D8    D(4,2,3,12)            49.6033         estimate D2E/DX2                !
 ! D9    D(1,2,4,5)            126.5804         estimate D2E/DX2                !
 ! D10   D(1,2,4,9)            -53.2551         estimate D2E/DX2                !
 ! D11   D(3,2,4,5)           -122.2789         estimate D2E/DX2                !
 ! D12   D(3,2,4,9)             57.8856         estimate D2E/DX2                !
 ! D13   D(2,4,5,6)           -179.7486         estimate D2E/DX2                !
 ! D14   D(2,4,5,13)             0.2582         estimate D2E/DX2                !
 ! D15   D(9,4,5,6)              0.0909         estimate D2E/DX2                !
 ! D16   D(9,4,5,13)          -179.9023         estimate D2E/DX2                !
 ! D17   D(2,4,9,8)            179.8792         estimate D2E/DX2                !
 ! D18   D(2,4,9,17)            -0.1266         estimate D2E/DX2                !
 ! D19   D(5,4,9,8)              0.0451         estimate D2E/DX2                !
 ! D20   D(5,4,9,17)          -179.9608         estimate D2E/DX2                !
 ! D21   D(4,5,6,7)             -0.1106         estimate D2E/DX2                !
 ! D22   D(4,5,6,14)           179.8917         estimate D2E/DX2                !
 ! D23   D(13,5,6,7)           179.8826         estimate D2E/DX2                !
 ! D24   D(13,5,6,14)           -0.1151         estimate D2E/DX2                !
 ! D25   D(5,6,7,8)             -0.0061         estimate D2E/DX2                !
 ! D26   D(5,6,7,15)           179.9921         estimate D2E/DX2                !
 ! D27   D(14,6,7,8)           179.9916         estimate D2E/DX2                !
 ! D28   D(14,6,7,15)           -0.0102         estimate D2E/DX2                !
 ! D29   D(6,7,8,9)              0.1417         estimate D2E/DX2                !
 ! D30   D(6,7,8,16)          -179.8599         estimate D2E/DX2                !
 ! D31   D(15,7,8,9)          -179.8565         estimate D2E/DX2                !
 ! D32   D(15,7,8,16)            0.1419         estimate D2E/DX2                !
 ! D33   D(7,8,9,4)             -0.1613         estimate D2E/DX2                !
 ! D34   D(7,8,9,17)           179.8445         estimate D2E/DX2                !
 ! D35   D(16,8,9,4)           179.8403         estimate D2E/DX2                !
 ! D36   D(16,8,9,17)           -0.1539         estimate D2E/DX2                !
 --------------------------------------------------------------------------------
 Trust Radius=3.00D-01 FncErr=1.00D-07 GrdErr=1.00D-06 EigMax=2.50D+02 EigMin=1.00D-04
 Number of steps in this run=     92 maximum allowed number of steps=    108.
 GradGradGradGradGradGradGradGradGradGradGradGradGradGradGradGradGradGrad

 Leave Link  103 at Sun Oct 13 23:14:03 2019, MaxMem= 10737418240 cpu:               0.2 elap:               0.0
 (Enter /apps/cent7/gaussian/g16-A.03/g16-haswell/g16/l202.exe)
                          Input orientation:                          
 ---------------------------------------------------------------------
 Center     Atomic      Atomic             Coordinates (Angstroms)
 Number     Number       Type             X           Y           Z
 ---------------------------------------------------------------------
      1          8           0       -1.821500   -1.911500    0.939100
      2         16           0       -0.454700   -1.741000    0.117200
      3          6           0       -0.854300   -2.323700   -1.571800
      4          6           0       -0.168900    0.000900   -0.003700
      5          6           0        1.074200    0.513400    0.421200
      6          6           0        1.336900    1.892700    0.345700
      7          6           0        0.357700    2.769700   -0.158100
      8          6           0       -0.884500    2.265400   -0.586400
      9          6           0       -1.149000    0.883900   -0.508200
     10          1           0       -0.858300   -3.413600   -1.588700
     11          1           0       -1.837300   -1.952200   -1.861200
     12          1           0       -0.105200   -1.952200   -2.271000
     13          1           0        1.837000   -0.160900    0.810400
     14          1           0        2.299400    2.282000    0.677600
     15          1           0        0.561300    3.838900   -0.216500
     16          1           0       -1.641400    2.944600   -0.978500
     17          1           0       -2.113300    0.497700   -0.838600
     18          1           0       -1.795440   -2.106425    1.878741
 ---------------------------------------------------------------------
                    Distance matrix (angstroms):
                    1          2          3          4          5
     1  O    0.000000
     2  S    1.603974   0.000000
     3  C    2.722132   1.830831   0.000000
     4  C    2.697635   1.769326   2.886603   0.000000
     5  C    3.812275   2.740852   3.967404   1.410140   0.000000
     6  C    4.979915   4.057810   5.124080   2.443035   1.406122
     7  C    5.278863   4.591536   5.423119   2.822658   2.437181
     8  C    4.544405   4.090357   4.693801   2.445319   2.814475
     9  C    3.218881   2.786266   3.392166   1.412376   2.437965
    10  H    3.094161   2.422928   1.090038   3.827049   4.816179
    11  H    2.800640   2.422861   1.089979   3.169931   4.445826
    12  H    3.640341   2.422861   1.089974   2.993210   3.836419
    13  H    4.057806   2.868646   4.194720   2.170846   1.089964
    14  H    5.885205   4.907509   6.018147   3.429299   2.166749
    15  H    6.330896   5.681452   6.466715   3.912636   3.424716
    16  H    5.224111   4.956174   5.359712   3.432763   3.904405
    17  H    3.008257   2.945553   3.175368   2.173605   3.427462
    18  H    0.960000   2.243690   3.583181   3.260374   4.150029
                    6          7          8          9         10
     6  C    0.000000
     7  C    1.407756   0.000000
     8  C    2.437690   1.407416   0.000000
     9  C    2.815408   2.439048   1.408765   0.000000
    10  H    6.059507   6.462079   5.766830   4.440776   0.000000
    11  H    5.452450   5.478587   4.507892   3.216804   1.779996
    12  H    4.869294   5.193743   4.607964   3.498635   1.779995
    13  H    2.164098   3.422680   3.904426   3.427318   4.858022
    14  H    1.090008   2.169434   3.425666   3.905415   6.895436
    15  H    2.169175   1.089978   2.168655   3.426695   7.516446
    16  H    3.424948   2.167959   1.089932   2.170282   6.435239
    17  H    3.905441   3.425041   2.167560   1.090041   4.175637
    18  H    5.306107   5.706254   5.100940   3.880389   3.822314
                   11         12         13         14         15
    11  H    0.000000
    12  H    1.779918   0.000000
    13  H    4.883307   4.059054   0.000000
    14  H    6.440981   5.692521   2.489821   0.000000
    15  H    6.480367   6.180779   4.322075   2.498869   0.000000
    16  H    4.979577   5.292364   4.994353   4.325692   2.496458
    17  H    2.669063   3.476528   4.331030   4.995449   4.324825
    18  H    3.743354   4.483419   4.256882   6.121171   6.729870
                   16         17         18
    16  H    0.000000
    17  H    2.495913   0.000000
    18  H    5.805205   3.777095   0.000000
 Stoichiometry    C7H9OS(1+)
 Framework group  C1[X(C7H9OS)]
 Deg. of freedom    48
 Full point group                 C1      NOp   1
 Largest Abelian subgroup         C1      NOp   1
 Largest concise Abelian subgroup C1      NOp   1
                         Standard orientation:                         
 ---------------------------------------------------------------------
 Center     Atomic      Atomic             Coordinates (Angstroms)
 Number     Number       Type             X           Y           Z
 ---------------------------------------------------------------------
      1          8           0        2.154020    0.223609   -1.345929
      2         16           0        1.588148   -0.489787   -0.025479
      3          6           0        2.303542    0.468143    1.361071
      4          6           0       -0.153672   -0.179498   -0.008285
      5          6           0       -1.034502   -1.274187    0.111251
      6          6           0       -2.425435   -1.068423    0.123355
      7          6           0       -2.945531    0.235500    0.018192
      8          6           0       -2.072701    1.333345   -0.098960
      9          6           0       -0.679180    1.127206   -0.113987
     10          1           0        3.341466    0.170700    1.510818
     11          1           0        2.260451    1.532036    1.127991
     12          1           0        1.734605    0.271975    2.269847
     13          1           0       -0.637720   -2.285909    0.194944
     14          1           0       -3.100357   -1.919500    0.214277
     15          1           0       -4.023740    0.394977    0.027446
     16          1           0       -2.475898    2.342864   -0.178048
     17          1           0       -0.006683    1.979968   -0.207433
     18          1           0        2.310221   -0.291901   -2.140568
 ---------------------------------------------------------------------
 Rotational constants (GHZ):           3.0032939           0.8621983           0.8098235
 Leave Link  202 at Sun Oct 13 23:14:03 2019, MaxMem= 10737418240 cpu:               0.3 elap:               0.0
 (Enter /apps/cent7/gaussian/g16-A.03/g16-haswell/g16/l301.exe)
 Standard basis: 6-311++G(d,p) (5D, 7F)
 Ernie: Thresh=  0.10000D-02 Tol=  0.10000D-05 Strict=F.
 There are   278 symmetry adapted cartesian basis functions of A   symmetry.
 There are   269 symmetry adapted basis functions of A   symmetry.
   269 basis functions,   419 primitive gaussians,   278 cartesian basis functions
    37 alpha electrons       37 beta electrons
       nuclear repulsion energy       512.8532942667 Hartrees.
 IExCor= 4336 DFT=T Ex+Corr=M062X ExCW=0 ScaHFX=  0.540000
 ScaDFX=  1.000000  1.000000  1.000000  1.000000 ScalE2=  1.000000  1.000000
 IRadAn=      5 IRanWt=     -1 IRanGd=            0 ICorTp=0 IEmpDi=  4
 NAtoms=   18 NActive=   18 NUniq=   18 SFac= 1.00D+00 NAtFMM=   60 NAOKFM=F Big=F
 Integral buffers will be    131072 words long.
 Raffenetti 2 integral format.
 Two-electron integral symmetry is turned on.
 Leave Link  301 at Sun Oct 13 23:14:03 2019, MaxMem= 10737418240 cpu:               1.3 elap:               0.1
 (Enter /apps/cent7/gaussian/g16-A.03/g16-haswell/g16/l302.exe)
 NPDir=0 NMtPBC=     1 NCelOv=     1 NCel=       1 NClECP=     1 NCelD=      1
         NCelK=      1 NCelE2=     1 NClLst=     1 CellRange=     0.0.
 One-electron integrals computed using PRISM.
 One-electron integral symmetry used in STVInt
 NBasis=   269 RedAO= T EigKep=  2.73D-06  NBF=   269
 NBsUse=   268 1.00D-06 EigRej=  9.49D-07 NBFU=   268
 Precomputing XC quadrature grid using
 IXCGrd= 4 IRadAn=           5 IRanWt=          -1 IRanGd=           0 AccXCQ= 0.00D+00.
 Generated NRdTot=       0 NPtTot=           0 NUsed=           0 NTot=          32
 NSgBfM=   278   278   278   278   278 MxSgAt=    18 MxSgA2=    18.
 Leave Link  302 at Sun Oct 13 23:14:03 2019, MaxMem= 10737418240 cpu:               4.6 elap:               0.2
 (Enter /apps/cent7/gaussian/g16-A.03/g16-haswell/g16/l303.exe)
 DipDrv:  MaxL=1.
 Leave Link  303 at Sun Oct 13 23:14:03 2019, MaxMem= 10737418240 cpu:               0.9 elap:               0.1
 (Enter /apps/cent7/gaussian/g16-A.03/g16-haswell/g16/l401.exe)
 ExpMin= 3.60D-02 ExpMax= 9.34D+04 ExpMxC= 3.17D+03 IAcc=3 IRadAn=         5 AccDes= 0.00D+00
 Harris functional with IExCor= 1009 and IRadAn=       5 diagonalized for initial guess.
 HarFok:  IExCor= 1009 AccDes= 0.00D+00 IRadAn=         5 IDoV= 1 UseB2=F ITyADJ=14
 ICtDFT=  3500011 ScaDFX=  1.000000  1.000000  1.000000  1.000000
 FoFCou: FMM=F IPFlag=           0 FMFlag=      100000 FMFlg1=           0
         NFxFlg=           0 DoJE=T BraDBF=F KetDBF=T FulRan=T
         wScrn=  0.000000 ICntrl=       500 IOpCl=  0 I1Cent=   200000004 NGrid=           0
         NMat0=    1 NMatS0=      1 NMatT0=    0 NMatD0=    1 NMtDS0=    0 NMtDT0=    0
 Petite list used in FoFCou.
 Harris En= -744.962773571892    
 JPrj=0 DoOrth=F DoCkMO=F.
 Leave Link  401 at Sun Oct 13 23:14:04 2019, MaxMem= 10737418240 cpu:              10.3 elap:               0.5
 (Enter /apps/cent7/gaussian/g16-A.03/g16-haswell/g16/l502.exe)
 Integral symmetry usage will be decided dynamically.
 Closed shell SCF:
 Using DIIS extrapolation, IDIIS=  1040.
 NGot= 10737418240 LenX= 10737254227 LenY= 10737176502
 Requested convergence on RMS density matrix=1.00D-08 within 128 cycles.
 Requested convergence on MAX density matrix=1.00D-06.
 Requested convergence on             energy=1.00D-06.
 No special actions if energy rises.
 Fock matrices will be formed incrementally for  20 cycles.

 Cycle   1  Pass 1  IDiag  1:
 FoFJK:  IHMeth= 1 ICntrl=       0 DoSepK=F KAlg= 0 I1Cent=           0 FoldK=F
 IRaf= 950000000 NMat=       1 IRICut=       1 DoRegI=T DoRafI=F ISym2E= 0 IDoP0=0 IntGTp=1.
 FoFCou: FMM=F IPFlag=           0 FMFlag=      100000 FMFlg1=           0
         NFxFlg=           0 DoJE=F BraDBF=F KetDBF=F FulRan=T
         wScrn=  0.000000 ICntrl=         0 IOpCl=  0 I1Cent=           0 NGrid=           0
         NMat0=    1 NMatS0=      1 NMatT0=    0 NMatD0=    1 NMtDS0=    0 NMtDT0=    0
 Symmetry not used in FoFCou.
 E= -744.884872452163    
 DIIS: error= 2.31D-02 at cycle   1 NSaved=   1.
 NSaved= 1 IEnMin= 1 EnMin= -744.884872452163     IErMin= 1 ErrMin= 2.31D-02
 ErrMax= 2.31D-02  0.00D+00 EMaxC= 1.00D-01 BMatC= 4.19D-01 BMatP= 4.19D-01
 IDIUse=3 WtCom= 7.69D-01 WtEn= 2.31D-01
 Coeff-Com:  0.100D+01
 Coeff-En:   0.100D+01
 Coeff:      0.100D+01
 Gap=     0.543 Goal=   None    Shift=    0.000
 GapD=    0.543 DampG=2.000 DampE=0.500 DampFc=1.0000 IDamp=-1.
 RMSDP=5.40D-02 MaxDP=4.21D+00              OVMax= 2.60D-01

 Cycle   2  Pass 1  IDiag  1:
 RMSU=  3.63D-02    CP:  1.86D+00
 E= -744.840493890723     Delta-E=        0.044378561441 Rises=F Damp=F
 DIIS: error= 3.08D-02 at cycle   2 NSaved=   2.
 NSaved= 2 IEnMin= 1 EnMin= -744.884872452163     IErMin= 1 ErrMin= 2.31D-02
 ErrMax= 3.08D-02  0.00D+00 EMaxC= 1.00D-01 BMatC= 4.09D-01 BMatP= 4.19D-01
 IDIUse=3 WtCom= 6.92D-01 WtEn= 3.08D-01
 Coeff-Com:  0.497D+00 0.503D+00
 Coeff-En:   0.533D+00 0.467D+00
 Coeff:      0.508D+00 0.492D+00
 Gap=     0.289 Goal=   None    Shift=    0.000
 RMSDP=4.35D-02 MaxDP=3.73D+00 DE= 4.44D-02 OVMax= 1.91D-01

 Cycle   3  Pass 1  IDiag  1:
 RMSU=  6.09D-03    CP:  1.11D+00  3.09D-01
 E= -745.198113569359     Delta-E=       -0.357619678637 Rises=F Damp=F
 DIIS: error= 6.38D-03 at cycle   3 NSaved=   3.
 NSaved= 3 IEnMin= 3 EnMin= -745.198113569359     IErMin= 3 ErrMin= 6.38D-03
 ErrMax= 6.38D-03  0.00D+00 EMaxC= 1.00D-01 BMatC= 7.56D-03 BMatP= 4.09D-01
 IDIUse=3 WtCom= 9.36D-01 WtEn= 6.38D-02
 Coeff-Com:  0.872D-01 0.143D+00 0.770D+00
 Coeff-En:   0.000D+00 0.000D+00 0.100D+01
 Coeff:      0.816D-01 0.134D+00 0.785D+00
 Gap=     0.270 Goal=   None    Shift=    0.000
 RMSDP=4.52D-03 MaxDP=3.00D-01 DE=-3.58D-01 OVMax= 4.90D-02

 Cycle   4  Pass 1  IDiag  1:
 RMSU=  1.70D-03    CP:  1.17D+00  3.87D-01  9.99D-01
 E= -745.202181342994     Delta-E=       -0.004067773635 Rises=F Damp=F
 DIIS: error= 5.15D-03 at cycle   4 NSaved=   4.
 NSaved= 4 IEnMin= 4 EnMin= -745.202181342994     IErMin= 4 ErrMin= 5.15D-03
 ErrMax= 5.15D-03  0.00D+00 EMaxC= 1.00D-01 BMatC= 3.60D-03 BMatP= 7.56D-03
 IDIUse=3 WtCom= 9.49D-01 WtEn= 5.15D-02
 Coeff-Com:  0.471D-02 0.292D-01 0.441D+00 0.525D+00
 Coeff-En:   0.000D+00 0.000D+00 0.323D+00 0.677D+00
 Coeff:      0.446D-02 0.277D-01 0.435D+00 0.533D+00
 Gap=     0.269 Goal=   None    Shift=    0.000
 RMSDP=1.17D-03 MaxDP=6.33D-02 DE=-4.07D-03 OVMax= 2.00D-02

 Cycle   5  Pass 1  IDiag  1:
 RMSU=  6.74D-04    CP:  1.16D+00  3.76D-01  1.05D+00  7.00D-01
 E= -745.205732689257     Delta-E=       -0.003551346263 Rises=F Damp=F
 DIIS: error= 6.65D-04 at cycle   5 NSaved=   5.
 NSaved= 5 IEnMin= 5 EnMin= -745.205732689257     IErMin= 5 ErrMin= 6.65D-04
 ErrMax= 6.65D-04  0.00D+00 EMaxC= 1.00D-01 BMatC= 9.23D-05 BMatP= 3.60D-03
 IDIUse=3 WtCom= 9.93D-01 WtEn= 6.65D-03
 Coeff-Com: -0.409D-02-0.174D-02 0.101D+00 0.196D+00 0.708D+00
 Coeff-En:   0.000D+00 0.000D+00 0.000D+00 0.000D+00 0.100D+01
 Coeff:     -0.406D-02-0.173D-02 0.100D+00 0.195D+00 0.710D+00
 Gap=     0.271 Goal=   None    Shift=    0.000
 RMSDP=2.95D-04 MaxDP=1.88D-02 DE=-3.55D-03 OVMax= 3.85D-03

 Cycle   6  Pass 1  IDiag  1:
 RMSU=  1.28D-04    CP:  1.16D+00  3.70D-01  1.05D+00  7.09D-01  9.23D-01
 E= -745.205824262419     Delta-E=       -0.000091573163 Rises=F Damp=F
 DIIS: error= 1.93D-04 at cycle   6 NSaved=   6.
 NSaved= 6 IEnMin= 6 EnMin= -745.205824262419     IErMin= 6 ErrMin= 1.93D-04
 ErrMax= 1.93D-04  0.00D+00 EMaxC= 1.00D-01 BMatC= 7.52D-06 BMatP= 9.23D-05
 IDIUse=3 WtCom= 9.98D-01 WtEn= 1.93D-03
 Coeff-Com: -0.180D-02-0.307D-02 0.115D-01 0.422D-01 0.277D+00 0.674D+00
 Coeff-En:   0.000D+00 0.000D+00 0.000D+00 0.000D+00 0.000D+00 0.100D+01
 Coeff:     -0.180D-02-0.306D-02 0.115D-01 0.421D-01 0.276D+00 0.675D+00
 Gap=     0.271 Goal=   None    Shift=    0.000
 RMSDP=6.74D-05 MaxDP=3.16D-03 DE=-9.16D-05 OVMax= 8.55D-04

 Cycle   7  Pass 1  IDiag  1:
 RMSU=  4.62D-05    CP:  1.15D+00  3.70D-01  1.06D+00  7.22D-01  9.51D-01
                    CP:  1.03D+00
 E= -745.205832518402     Delta-E=       -0.000008255983 Rises=F Damp=F
 DIIS: error= 3.36D-05 at cycle   7 NSaved=   7.
 NSaved= 7 IEnMin= 7 EnMin= -745.205832518402     IErMin= 7 ErrMin= 3.36D-05
 ErrMax= 3.36D-05  0.00D+00 EMaxC= 1.00D-01 BMatC= 8.02D-07 BMatP= 7.52D-06
 IDIUse=1 WtCom= 1.00D+00 WtEn= 0.00D+00
 Coeff-Com: -0.699D-04-0.107D-02-0.107D-01-0.133D-01 0.282D-02 0.239D+00
 Coeff-Com:  0.784D+00
 Coeff:     -0.699D-04-0.107D-02-0.107D-01-0.133D-01 0.282D-02 0.239D+00
 Coeff:      0.784D+00
 Gap=     0.271 Goal=   None    Shift=    0.000
 RMSDP=6.42D-05 MaxDP=4.20D-03 DE=-8.26D-06 OVMax= 4.42D-04

 Cycle   8  Pass 1  IDiag  1:
 RMSU=  2.00D-05    CP:  1.15D+00  3.69D-01  1.06D+00  7.20D-01  9.71D-01
                    CP:  1.15D+00  9.41D-01
 E= -745.205833488307     Delta-E=       -0.000000969905 Rises=F Damp=F
 DIIS: error= 2.81D-05 at cycle   8 NSaved=   8.
 NSaved= 8 IEnMin= 8 EnMin= -745.205833488307     IErMin= 8 ErrMin= 2.81D-05
 ErrMax= 2.81D-05  0.00D+00 EMaxC= 1.00D-01 BMatC= 1.11D-07 BMatP= 8.02D-07
 IDIUse=1 WtCom= 1.00D+00 WtEn= 0.00D+00
 Coeff-Com:  0.125D-03-0.150D-03-0.567D-02-0.102D-01-0.248D-01 0.305D-01
 Coeff-Com:  0.320D+00 0.690D+00
 Coeff:      0.125D-03-0.150D-03-0.567D-02-0.102D-01-0.248D-01 0.305D-01
 Coeff:      0.320D+00 0.690D+00
 Gap=     0.271 Goal=   None    Shift=    0.000
 RMSDP=1.05D-05 MaxDP=5.79D-04 DE=-9.70D-07 OVMax= 1.36D-04

 Cycle   9  Pass 1  IDiag  1:
 RMSU=  5.31D-06    CP:  1.15D+00  3.69D-01  1.06D+00  7.23D-01  9.74D-01
                    CP:  1.18D+00  1.02D+00  9.60D-01
 E= -745.205833607879     Delta-E=       -0.000000119572 Rises=F Damp=F
 DIIS: error= 5.86D-06 at cycle   9 NSaved=   9.
 NSaved= 9 IEnMin= 9 EnMin= -745.205833607879     IErMin= 9 ErrMin= 5.86D-06
 ErrMax= 5.86D-06  0.00D+00 EMaxC= 1.00D-01 BMatC= 1.30D-08 BMatP= 1.11D-07
 IDIUse=1 WtCom= 1.00D+00 WtEn= 0.00D+00
 Coeff-Com:  0.534D-04 0.639D-04-0.831D-03-0.218D-02-0.857D-02-0.190D-01
 Coeff-Com:  0.124D-01 0.271D+00 0.747D+00
 Coeff:      0.534D-04 0.639D-04-0.831D-03-0.218D-02-0.857D-02-0.190D-01
 Coeff:      0.124D-01 0.271D+00 0.747D+00
 Gap=     0.271 Goal=   None    Shift=    0.000
 RMSDP=9.87D-06 MaxDP=6.55D-04 DE=-1.20D-07 OVMax= 5.74D-05

 Cycle  10  Pass 1  IDiag  1:
 RMSU=  1.71D-06    CP:  1.15D+00  3.68D-01  1.06D+00  7.22D-01  9.77D-01
                    CP:  1.19D+00  1.05D+00  1.09D+00  7.99D-01
 E= -745.205833623776     Delta-E=       -0.000000015897 Rises=F Damp=F
 DIIS: error= 1.66D-06 at cycle  10 NSaved=  10.
 NSaved=10 IEnMin=10 EnMin= -745.205833623776     IErMin=10 ErrMin= 1.66D-06
 ErrMax= 1.66D-06  0.00D+00 EMaxC= 1.00D-01 BMatC= 7.99D-10 BMatP= 1.30D-08
 IDIUse=1 WtCom= 1.00D+00 WtEn= 0.00D+00
 Coeff-Com:  0.765D-05 0.326D-04 0.313D-03 0.289D-03-0.646D-03-0.783D-02
 Coeff-Com: -0.256D-01 0.118D-01 0.209D+00 0.813D+00
 Coeff:      0.765D-05 0.326D-04 0.313D-03 0.289D-03-0.646D-03-0.783D-02
 Coeff:     -0.256D-01 0.118D-01 0.209D+00 0.813D+00
 Gap=     0.271 Goal=   None    Shift=    0.000
 RMSDP=1.49D-06 MaxDP=7.83D-05 DE=-1.59D-08 OVMax= 1.59D-05

 Cycle  11  Pass 1  IDiag  1:
 RMSU=  3.49D-07    CP:  1.15D+00  3.68D-01  1.06D+00  7.22D-01  9.77D-01
                    CP:  1.19D+00  1.05D+00  1.11D+00  8.92D-01  1.10D+00
 E= -745.205833624911     Delta-E=       -0.000000001135 Rises=F Damp=F
 DIIS: error= 9.12D-07 at cycle  11 NSaved=  11.
 NSaved=11 IEnMin=11 EnMin= -745.205833624911     IErMin=11 ErrMin= 9.12D-07
 ErrMax= 9.12D-07  0.00D+00 EMaxC= 1.00D-01 BMatC= 1.49D-10 BMatP= 7.99D-10
 IDIUse=1 WtCom= 1.00D+00 WtEn= 0.00D+00
 Coeff-Com: -0.136D-05 0.471D-05 0.203D-03 0.310D-03 0.493D-03-0.709D-03
 Coeff-Com: -0.110D-01-0.231D-01 0.104D-01 0.331D+00 0.692D+00
 Coeff:     -0.136D-05 0.471D-05 0.203D-03 0.310D-03 0.493D-03-0.709D-03
 Coeff:     -0.110D-01-0.231D-01 0.104D-01 0.331D+00 0.692D+00
 Gap=     0.271 Goal=   None    Shift=    0.000
 RMSDP=6.14D-07 MaxDP=4.58D-05 DE=-1.14D-09 OVMax= 8.18D-06

 Cycle  12  Pass 1  IDiag  1:
 RMSU=  1.33D-07    CP:  1.15D+00  3.68D-01  1.06D+00  7.22D-01  9.77D-01
                    CP:  1.19D+00  1.05D+00  1.12D+00  9.06D-01  1.18D+00
                    CP:  1.07D+00
 E= -745.205833625096     Delta-E=       -0.000000000185 Rises=F Damp=F
 DIIS: error= 4.47D-07 at cycle  12 NSaved=  12.
 NSaved=12 IEnMin=12 EnMin= -745.205833625096     IErMin=12 ErrMin= 4.47D-07
 ErrMax= 4.47D-07  0.00D+00 EMaxC= 1.00D-01 BMatC= 2.77D-11 BMatP= 1.49D-10
 IDIUse=1 WtCom= 1.00D+00 WtEn= 0.00D+00
 Coeff-Com: -0.186D-05-0.385D-05 0.440D-04 0.968D-04 0.334D-03 0.118D-02
 Coeff-Com: -0.868D-03-0.136D-01-0.332D-01 0.712D-02 0.323D+00 0.715D+00
 Coeff:     -0.186D-05-0.385D-05 0.440D-04 0.968D-04 0.334D-03 0.118D-02
 Coeff:     -0.868D-03-0.136D-01-0.332D-01 0.712D-02 0.323D+00 0.715D+00
 Gap=     0.271 Goal=   None    Shift=    0.000
 RMSDP=1.82D-07 MaxDP=1.10D-05 DE=-1.85D-10 OVMax= 2.78D-06

 Cycle  13  Pass 1  IDiag  1:
 RMSU=  5.83D-08    CP:  1.15D+00  3.68D-01  1.06D+00  7.22D-01  9.77D-01
                    CP:  1.19D+00  1.04D+00  1.12D+00  9.15D-01  1.23D+00
                    CP:  1.19D+00  1.11D+00
 E= -745.205833625131     Delta-E=       -0.000000000035 Rises=F Damp=F
 DIIS: error= 8.70D-08 at cycle  13 NSaved=  13.
 NSaved=13 IEnMin=13 EnMin= -745.205833625131     IErMin=13 ErrMin= 8.70D-08
 ErrMax= 8.70D-08  0.00D+00 EMaxC= 1.00D-01 BMatC= 1.50D-12 BMatP= 2.77D-11
 IDIUse=1 WtCom= 1.00D+00 WtEn= 0.00D+00
 Coeff-Com: -0.252D-06-0.994D-06-0.816D-05-0.903D-05 0.199D-04 0.337D-03
 Coeff-Com:  0.903D-03-0.164D-03-0.860D-02-0.386D-01 0.537D-02 0.194D+00
 Coeff-Com:  0.847D+00
 Coeff:     -0.252D-06-0.994D-06-0.816D-05-0.903D-05 0.199D-04 0.337D-03
 Coeff:      0.903D-03-0.164D-03-0.860D-02-0.386D-01 0.537D-02 0.194D+00
 Coeff:      0.847D+00
 Gap=     0.271 Goal=   None    Shift=    0.000
 RMSDP=8.64D-08 MaxDP=7.89D-06 DE=-3.48D-11 OVMax= 7.31D-07

 Cycle  14  Pass 1  IDiag  1:
 RMSU=  2.74D-08    CP:  1.15D+00  3.68D-01  1.06D+00  7.22D-01  9.77D-01
                    CP:  1.19D+00  1.04D+00  1.12D+00  9.14D-01  1.24D+00
                    CP:  1.25D+00  1.20D+00  9.11D-01
 E= -745.205833625128     Delta-E=        0.000000000003 Rises=F Damp=F
 DIIS: error= 2.40D-08 at cycle  14 NSaved=  14.
 NSaved=14 IEnMin=13 EnMin= -745.205833625131     IErMin=14 ErrMin= 2.40D-08
 ErrMax= 2.40D-08  0.00D+00 EMaxC= 1.00D-01 BMatC= 1.27D-13 BMatP= 1.50D-12
 IDIUse=1 WtCom= 1.00D+00 WtEn= 0.00D+00
 Coeff-Com:  0.309D-07-0.695D-07-0.573D-05-0.989D-05-0.158D-04 0.214D-04
 Coeff-Com:  0.328D-03 0.905D-03-0.258D-03-0.109D-01-0.193D-01-0.524D-03
 Coeff-Com:  0.235D+00 0.794D+00
 Coeff:      0.309D-07-0.695D-07-0.573D-05-0.989D-05-0.158D-04 0.214D-04
 Coeff:      0.328D-03 0.905D-03-0.258D-03-0.109D-01-0.193D-01-0.524D-03
 Coeff:      0.235D+00 0.794D+00
 Gap=     0.271 Goal=   None    Shift=    0.000
 RMSDP=1.98D-08 MaxDP=1.24D-06 DE= 2.50D-12 OVMax= 2.60D-07

 Cycle  15  Pass 1  IDiag  1:
 RMSU=  5.22D-09    CP:  1.15D+00  3.68D-01  1.06D+00  7.22D-01  9.77D-01
                    CP:  1.19D+00  1.04D+00  1.12D+00  9.15D-01  1.24D+00
                    CP:  1.26D+00  1.22D+00  9.68D-01  1.06D+00
 E= -745.205833625135     Delta-E=       -0.000000000007 Rises=F Damp=F
 DIIS: error= 9.11D-09 at cycle  15 NSaved=  15.
 NSaved=15 IEnMin=15 EnMin= -745.205833625135     IErMin=15 ErrMin= 9.11D-09
 ErrMax= 9.11D-09  0.00D+00 EMaxC= 1.00D-01 BMatC= 2.57D-14 BMatP= 1.27D-13
 IDIUse=1 WtCom= 1.00D+00 WtEn= 0.00D+00
 Coeff-Com:  0.242D-07 0.567D-07-0.112D-05-0.260D-05-0.732D-05-0.294D-04
 Coeff-Com:  0.130D-04 0.297D-03 0.753D-03 0.377D-03-0.730D-02-0.233D-01
 Coeff-Com: -0.907D-02 0.311D+00 0.727D+00
 Coeff:      0.242D-07 0.567D-07-0.112D-05-0.260D-05-0.732D-05-0.294D-04
 Coeff:      0.130D-04 0.297D-03 0.753D-03 0.377D-03-0.730D-02-0.233D-01
 Coeff:     -0.907D-02 0.311D+00 0.727D+00
 Gap=     0.271 Goal=   None    Shift=    0.000
 RMSDP=6.97D-09 MaxDP=4.80D-07 DE=-6.82D-12 OVMax= 7.16D-08

 SCF Done:  E(RM062X) =  -745.205833625     A.U. after   15 cycles
            NFock= 15  Conv=0.70D-08     -V/T= 2.0029
 KE= 7.430635530368D+02 PE=-2.766130927160D+03 EE= 7.650082462313D+02
 Leave Link  502 at Sun Oct 13 23:14:18 2019, MaxMem= 10737418240 cpu:             338.6 elap:              14.2
 (Enter /apps/cent7/gaussian/g16-A.03/g16-haswell/g16/l601.exe)
 Copying SCF densities to generalized density rwf, IOpCl= 0 IROHF=0.

 **********************************************************************

            Population analysis using the SCF density.

 **********************************************************************

 Orbital symmetries:
       Occupied  (A) (A) (A) (A) (A) (A) (A) (A) (A) (A) (A) (A)
                 (A) (A) (A) (A) (A) (A) (A) (A) (A) (A) (A) (A)
                 (A) (A) (A) (A) (A) (A) (A) (A) (A) (A) (A) (A)
                 (A)
       Virtual   (A) (A) (A) (A) (A) (A) (A) (A) (A) (A) (A) (A)
                 (A) (A) (A) (A) (A) (A) (A) (A) (A) (A) (A) (A)
                 (A) (A) (A) (A) (A) (A) (A) (A) (A) (A) (A) (A)
                 (A) (A) (A) (A) (A) (A) (A) (A) (A) (A) (A) (A)
                 (A) (A) (A) (A) (A) (A) (A) (A) (A) (A) (A) (A)
                 (A) (A) (A) (A) (A) (A) (A) (A) (A) (A) (A) (A)
                 (A) (A) (A) (A) (A) (A) (A) (A) (A) (A) (A) (A)
                 (A) (A) (A) (A) (A) (A) (A) (A) (A) (A) (A) (A)
                 (A) (A) (A) (A) (A) (A) (A) (A) (A) (A) (A) (A)
                 (A) (A) (A) (A) (A) (A) (A) (A) (A) (A) (A) (A)
                 (A) (A) (A) (A) (A) (A) (A) (A) (A) (A) (A) (A)
                 (A) (A) (A) (A) (A) (A) (A) (A) (A) (A) (A) (A)
                 (A) (A) (A) (A) (A) (A) (A) (A) (A) (A) (A) (A)
                 (A) (A) (A) (A) (A) (A) (A) (A) (A) (A) (A) (A)
                 (A) (A) (A) (A) (A) (A) (A) (A) (A) (A) (A) (A)
                 (A) (A) (A) (A) (A) (A) (A) (A) (A) (A) (A) (A)
                 (A) (A) (A) (A) (A) (A) (A) (A) (A) (A) (A) (A)
                 (A) (A) (A) (A) (A) (A) (A) (A) (A) (A) (A) (A)
                 (A) (A) (A) (A) (A) (A) (A) (A) (A) (A) (A) (A)
                 (A) (A) (A)
 The electronic state is 1-A.
 Alpha  occ. eigenvalues --  -90.21788 -19.86498 -10.76297 -10.75661 -10.72588
 Alpha  occ. eigenvalues --  -10.72457 -10.70865 -10.70661 -10.70578  -8.57526
 Alpha  occ. eigenvalues --   -6.49701  -6.49406  -6.49092  -1.39893  -1.14484
 Alpha  occ. eigenvalues --   -1.09531  -1.01159  -1.00434  -0.95181  -0.86397
 Alpha  occ. eigenvalues --   -0.85214  -0.80438  -0.76081  -0.72579  -0.71857
 Alpha  occ. eigenvalues --   -0.68473  -0.67841  -0.67660  -0.66503  -0.64763
 Alpha  occ. eigenvalues --   -0.61894  -0.60077  -0.57806  -0.56589  -0.54369
 Alpha  occ. eigenvalues --   -0.47907  -0.46676
 Alpha virt. eigenvalues --   -0.19547  -0.14711  -0.14249  -0.12220  -0.11914
 Alpha virt. eigenvalues --   -0.10447  -0.09505  -0.09192  -0.08134  -0.07932
 Alpha virt. eigenvalues --   -0.07254  -0.06797  -0.05637  -0.05370  -0.04845
 Alpha virt. eigenvalues --   -0.04318  -0.03081  -0.01969  -0.01742  -0.01486
 Alpha virt. eigenvalues --   -0.00943   0.00059   0.00248   0.01332   0.01685
 Alpha virt. eigenvalues --    0.01975   0.02696   0.02947   0.03059   0.03287
 Alpha virt. eigenvalues --    0.03837   0.04104   0.04344   0.04524   0.04940
 Alpha virt. eigenvalues --    0.05614   0.06534   0.06982   0.07859   0.08158
 Alpha virt. eigenvalues --    0.08746   0.09361   0.10195   0.10496   0.10974
 Alpha virt. eigenvalues --    0.11392   0.12367   0.13264   0.13931   0.15078
 Alpha virt. eigenvalues --    0.15494   0.16670   0.17393   0.17651   0.18479
 Alpha virt. eigenvalues --    0.18917   0.19590   0.19859   0.20383   0.22216
 Alpha virt. eigenvalues --    0.22881   0.25055   0.25431   0.26118   0.27168
 Alpha virt. eigenvalues --    0.28102   0.31475   0.37278   0.37915   0.39663
 Alpha virt. eigenvalues --    0.40056   0.41759   0.43062   0.43721   0.44409
 Alpha virt. eigenvalues --    0.45389   0.45522   0.46221   0.47709   0.49368
 Alpha virt. eigenvalues --    0.50532   0.50803   0.51268   0.54175   0.54876
 Alpha virt. eigenvalues --    0.55703   0.57012   0.57825   0.59728   0.61588
 Alpha virt. eigenvalues --    0.62141   0.63359   0.63620   0.66141   0.69036
 Alpha virt. eigenvalues --    0.71532   0.72910   0.74618   0.75509   0.75979
 Alpha virt. eigenvalues --    0.77444   0.77827   0.78407   0.79384   0.79940
 Alpha virt. eigenvalues --    0.81835   0.83904   0.89280   0.89543   0.90458
 Alpha virt. eigenvalues --    0.91409   0.95086   0.96789   0.97142   0.99228
 Alpha virt. eigenvalues --    1.01086   1.02710   1.04561   1.06132   1.09287
 Alpha virt. eigenvalues --    1.14467   1.18232   1.23687   1.27840   1.32530
 Alpha virt. eigenvalues --    1.37511   1.39537   1.39733   1.40987   1.42223
 Alpha virt. eigenvalues --    1.43701   1.45293   1.45849   1.46510   1.48809
 Alpha virt. eigenvalues --    1.51725   1.52536   1.53592   1.54655   1.56497
 Alpha virt. eigenvalues --    1.58646   1.60278   1.62598   1.63354   1.65713
 Alpha virt. eigenvalues --    1.71528   1.73359   1.74719   1.74902   1.77787
 Alpha virt. eigenvalues --    1.79073   1.80331   1.81749   1.84440   1.84741
 Alpha virt. eigenvalues --    1.86627   1.88262   1.89199   1.92256   1.94195
 Alpha virt. eigenvalues --    1.94374   1.96130   2.04113   2.06670   2.15104
 Alpha virt. eigenvalues --    2.17759   2.18590   2.27299   2.31811   2.33146
 Alpha virt. eigenvalues --    2.35024   2.36935   2.37677   2.39632   2.40236
 Alpha virt. eigenvalues --    2.42103   2.47072   2.49355   2.50346   2.57387
 Alpha virt. eigenvalues --    2.58357   2.59699   2.60750   2.62424   2.63361
 Alpha virt. eigenvalues --    2.67634   2.69190   2.69488   2.70542   2.73341
 Alpha virt. eigenvalues --    2.75193   2.79560   2.80361   2.82308   2.88144
 Alpha virt. eigenvalues --    2.95453   2.97288   3.01654   3.03496   3.15384
 Alpha virt. eigenvalues --    3.20132   3.21420   3.25093   3.36020   3.40475
 Alpha virt. eigenvalues --    3.44752   3.59458   3.59931   3.65937   3.69763
 Alpha virt. eigenvalues --    3.87100   3.93063   4.01310   4.02025   4.67077
 Alpha virt. eigenvalues --    4.93252   4.97687   5.40414   7.97496  17.36022
 Alpha virt. eigenvalues --   17.39239  17.43997  23.47841  23.80500  23.81716
 Alpha virt. eigenvalues --   23.85330  23.93314  23.96005  24.04884  49.79876
 Alpha virt. eigenvalues --  189.26604
          Condensed to atoms (all electrons):
               1          2          3          4          5          6
     1  O    7.975176   0.132202  -0.110696   0.337379   0.131593  -0.019955
     2  S    0.132202  17.210430  -0.237976  -1.420667   0.081573  -0.053125
     3  C   -0.110696  -0.237976   5.826355   0.221399  -0.169326  -0.051108
     4  C    0.337379  -1.420667   0.221399  13.982199  -2.018397  -1.462717
     5  C    0.131593   0.081573  -0.169326  -2.018397  15.734452   0.533514
     6  C   -0.019955  -0.053125  -0.051108  -1.462717   0.533514   6.264926
     7  C   -0.003766   0.024042   0.015416  -0.294583  -1.061829   0.617763
     8  C   -0.053469  -0.017377  -0.013975  -1.648000   0.312932   0.029083
     9  C   -0.425668   0.040363   0.114308  -1.335128  -7.820515   0.076346
    10  H    0.001263  -0.111576   0.407431   0.005954  -0.026099  -0.001628
    11  H    0.008885   0.062651   0.303708   0.045253   0.098122   0.010928
    12  H    0.017078  -0.062954   0.350558   0.027799  -0.007166  -0.005520
    13  H    0.002906  -0.015894   0.003107  -0.138003   0.582316  -0.016889
    14  H   -0.000446   0.007314  -0.001613   0.014640  -0.117792   0.422667
    15  H    0.000074  -0.005227   0.000815   0.036043   0.013330  -0.058081
    16  H   -0.000686   0.009860  -0.002859   0.025988   0.047382  -0.002798
    17  H    0.003189  -0.007669   0.004883   0.025672  -0.029098  -0.005496
    18  H    0.254490   0.011963   0.008289   0.012406  -0.130691  -0.013714
               7          8          9         10         11         12
     1  O   -0.003766  -0.053469  -0.425668   0.001263   0.008885   0.017078
     2  S    0.024042  -0.017377   0.040363  -0.111576   0.062651  -0.062954
     3  C    0.015416  -0.013975   0.114308   0.407431   0.303708   0.350558
     4  C   -0.294583  -1.648000  -1.335128   0.005954   0.045253   0.027799
     5  C   -1.061829   0.312932  -7.820515  -0.026099   0.098122  -0.007166
     6  C    0.617763   0.029083   0.076346  -0.001628   0.010928  -0.005520
     7  C    6.044212   0.345255   0.109203   0.000610  -0.012081   0.005713
     8  C    0.345255   6.243713   0.721759   0.006220  -0.014386   0.004248
     9  C    0.109203   0.721759  13.957460   0.057634  -0.174574   0.015646
    10  H    0.000610   0.006220   0.057634   0.426776  -0.021252  -0.022534
    11  H   -0.012081  -0.014386  -0.174574  -0.021252   0.501653  -0.035904
    12  H    0.005713   0.004248   0.015646  -0.022534  -0.035904   0.476301
    13  H   -0.000895   0.005161  -0.110264   0.000881   0.000717   0.000515
    14  H   -0.005607   0.003218   0.011961   0.000008   0.000405  -0.000744
    15  H    0.423753  -0.073897  -0.006125  -0.000000  -0.000388   0.000200
    16  H   -0.045993   0.397453  -0.097017   0.000063   0.002527  -0.000819
    17  H   -0.000954  -0.124023   0.433589   0.001565  -0.019345   0.001279
    18  H    0.001975   0.000470   0.119098   0.002885  -0.002241  -0.003268
              13         14         15         16         17         18
     1  O    0.002906  -0.000446   0.000074  -0.000686   0.003189   0.254490
     2  S   -0.015894   0.007314  -0.005227   0.009860  -0.007669   0.011963
     3  C    0.003107  -0.001613   0.000815  -0.002859   0.004883   0.008289
     4  C   -0.138003   0.014640   0.036043   0.025988   0.025672   0.012406
     5  C    0.582316  -0.117792   0.013330   0.047382  -0.029098  -0.130691
     6  C   -0.016889   0.422667  -0.058081  -0.002798  -0.005496  -0.013714
     7  C   -0.000895  -0.005607   0.423753  -0.045993  -0.000954   0.001975
     8  C    0.005161   0.003218  -0.073897   0.397453  -0.124023   0.000470
     9  C   -0.110264   0.011961  -0.006125  -0.097017   0.433589   0.119098
    10  H    0.000881   0.000008  -0.000000   0.000063   0.001565   0.002885
    11  H    0.000717   0.000405  -0.000388   0.002527  -0.019345  -0.002241
    12  H    0.000515  -0.000744   0.000200  -0.000819   0.001279  -0.003268
    13  H    0.455366  -0.011271   0.000613   0.001008  -0.001697  -0.000406
    14  H   -0.011271   0.422461  -0.007955   0.000158  -0.000138  -0.000137
    15  H    0.000613  -0.007955   0.436068  -0.007957   0.002282   0.000062
    16  H    0.001008   0.000158  -0.007957   0.428419  -0.014117  -0.000267
    17  H   -0.001697  -0.000138   0.002282  -0.014117   0.492568   0.000262
    18  H   -0.000406  -0.000137   0.000062  -0.000267   0.000262   0.367776
 Mulliken charges:
               1
     1  O   -0.249550
     2  S    0.352066
     3  C   -0.668718
     4  C   -0.417237
     5  C   -0.154301
     6  C   -0.264195
     7  C   -0.162233
     8  C   -0.124387
     9  C    0.311923
    10  H    0.271800
    11  H    0.245322
    12  H    0.239572
    13  H    0.242728
    14  H    0.262871
    15  H    0.246388
    16  H    0.259655
    17  H    0.237248
    18  H    0.371047
 Sum of Mulliken charges =   1.00000
 Mulliken charges with hydrogens summed into heavy atoms:
               1
     1  O    0.121498
     2  S    0.352066
     3  C    0.087976
     4  C   -0.417237
     5  C    0.088427
     6  C   -0.001325
     7  C    0.084154
     8  C    0.135268
     9  C    0.549172
 Electronic spatial extent (au):  <R**2>=           1488.6491
 Charge=              1.0000 electrons
 Dipole moment (field-independent basis, Debye):
    X=              2.8725    Y=             -0.5651    Z=              0.4930  Tot=              2.9687
 Quadrupole moment (field-independent basis, Debye-Ang):
   XX=            -27.9978   YY=            -49.4815   ZZ=            -51.1979
   XY=             -1.4198   XZ=              0.8075   YZ=              2.6683
 Traceless Quadrupole moment (field-independent basis, Debye-Ang):
   XX=             14.8946   YY=             -6.5891   ZZ=             -8.3055
   XY=             -1.4198   XZ=              0.8075   YZ=              2.6683
 Octapole moment (field-independent basis, Debye-Ang**2):
  XXX=              6.7015  YYY=              3.2767  ZZZ=            -13.2141  XYY=             -5.9131
  XXY=             -2.0994  XXZ=              2.8426  XZZ=             38.9475  YZZ=             -3.8983
  YYZ=             -0.8057  XYZ=             10.5568
 Hexadecapole moment (field-independent basis, Debye-Ang**3):
 XXXX=          -1061.2860 YYYY=           -298.2161 ZZZZ=           -164.5334 XXXY=            -11.9794
 XXXZ=              2.3196 YYYX=              5.0826 YYYZ=             -2.8382 ZZZX=            -34.5025
 ZZZY=             13.7270 XXYY=           -247.2491 XXZZ=           -221.1623 YYZZ=           -100.4350
 XXYZ=             15.0681 YYXZ=             -1.8547 ZZXY=             -7.3895
 N-N= 5.128532942667D+02 E-N=-2.766130925875D+03  KE= 7.430635530368D+02
 No NMR shielding tensors so no spin-rotation constants.
 Leave Link  601 at Sun Oct 13 23:14:18 2019, MaxMem= 10737418240 cpu:               3.6 elap:               0.2
 (Enter /apps/cent7/gaussian/g16-A.03/g16-haswell/g16/l701.exe)
 ... and contract with generalized density number  0.
 Compute integral first derivatives.
 Leave Link  701 at Sun Oct 13 23:14:18 2019, MaxMem= 10737418240 cpu:               3.1 elap:               0.2
 (Enter /apps/cent7/gaussian/g16-A.03/g16-haswell/g16/l702.exe)
 L702 exits ... SP integral derivatives will be done elsewhere.
 Leave Link  702 at Sun Oct 13 23:14:18 2019, MaxMem= 10737418240 cpu:               0.8 elap:               0.1
 (Enter /apps/cent7/gaussian/g16-A.03/g16-haswell/g16/l703.exe)
 Integral derivatives from FoFJK, PRISM(SPDF).
 Compute integral first derivatives, UseDBF=F ICtDFT=           0.
 Calling FoFJK, ICntrl=      2127 FMM=F ISym2X=0 I1Cent= 0 IOpClX= 0 NMat=1 NMatS=1 NMatT=0.
 FoFJK:  IHMeth= 1 ICntrl=    2127 DoSepK=F KAlg= 0 I1Cent=           0 FoldK=F
 IRaf=         0 NMat=       1 IRICut=       1 DoRegI=T DoRafI=F ISym2E= 0 IDoP0=0 IntGTp=1.
 FoFCou: FMM=F IPFlag=           0 FMFlag=      100000 FMFlg1=         800
         NFxFlg=           0 DoJE=F BraDBF=F KetDBF=F FulRan=T
         wScrn=  0.000000 ICntrl=      2127 IOpCl=  0 I1Cent=           0 NGrid=           0
         NMat0=    1 NMatS0=      1 NMatT0=    0 NMatD0=    1 NMtDS0=    0 NMtDT0=    0
 Symmetry not used in FoFCou.
 Leave Link  703 at Sun Oct 13 23:14:21 2019, MaxMem= 10737418240 cpu:              52.5 elap:               2.2
 (Enter /apps/cent7/gaussian/g16-A.03/g16-haswell/g16/l716.exe)
 Dipole        = 1.13011019D+00-2.22308834D-01 1.93975743D-01
 ***** Axes restored to original set *****
 -------------------------------------------------------------------
 Center     Atomic                   Forces (Hartrees/Bohr)
 Number     Number              X              Y              Z
 -------------------------------------------------------------------
      1        8          -0.024179902    0.004917239   -0.026991791
      2       16           0.032485233   -0.003336732    0.003691812
      3        6          -0.016801343    0.002623707    0.004987860
      4        6          -0.004109970    0.026503616   -0.007181232
      5        6           0.000537742   -0.002334428    0.001602595
      6        6          -0.011091459   -0.003383979   -0.004672669
      7        6          -0.000198729   -0.012788615    0.001614124
      8        6           0.005533395   -0.011968246    0.004207287
      9        6           0.001994269    0.004274912   -0.001474730
     10        1           0.001155673    0.000726940    0.006408135
     11        1          -0.000734557    0.001817357    0.001427495
     12        1           0.004459113    0.004211570    0.007201606
     13        1          -0.002321527    0.002456677   -0.000924227
     14        1          -0.004428520   -0.003286079   -0.001338900
     15        1          -0.000860516   -0.004793245    0.000283969
     16        1           0.002685176   -0.004492210    0.001849238
     17        1           0.002554514    0.002139074    0.001662827
     18        1           0.013321407   -0.003287558    0.007646602
 -------------------------------------------------------------------
 Cartesian Forces:  Max     0.032485233 RMS     0.009176444
 Leave Link  716 at Sun Oct 13 23:14:21 2019, MaxMem= 10737418240 cpu:               0.6 elap:               0.0
 (Enter /apps/cent7/gaussian/g16-A.03/g16-haswell/g16/l103.exe)

 GradGradGradGradGradGradGradGradGradGradGradGradGradGradGradGradGradGrad
 Berny optimization.
 FormGI is forming the generalized inverse of G from B-inverse, IUseBI=4.
 Internal  Forces:  Max     0.023761731 RMS     0.007431278
 Search for a local minimum.
 Step number   1 out of a maximum of   92
 All quantities printed in internal units (Hartrees-Bohrs-Radians)
 RMS Force = .74313D-02 SwitMx=.10000D-02 MixMth= 1
 Mixed Optimization -- RFO/linear search
 Second derivative matrix not updated -- first step.
 ITU=  0
     Eigenvalues ---    0.00230   0.00776   0.01581   0.01942   0.01951
     Eigenvalues ---    0.01977   0.01981   0.01981   0.01988   0.01992
     Eigenvalues ---    0.01998   0.02566   0.05626   0.07239   0.07239
     Eigenvalues ---    0.15990   0.16000   0.16000   0.16000   0.16000
     Eigenvalues ---    0.16000   0.16000   0.16000   0.16000   0.16000
     Eigenvalues ---    0.19727   0.22000   0.22000   0.23479   0.23831
     Eigenvalues ---    0.25000   0.28690   0.34808   0.34808   0.34812
     Eigenvalues ---    0.34815   0.34815   0.34816   0.34817   0.34820
     Eigenvalues ---    0.40337   0.40457   0.43862   0.44154   0.44318
     Eigenvalues ---    0.44507   0.50457   0.55473
 RFO step:  Lambda=-2.12141824D-02 EMin= 2.30000000D-03
 Linear search not attempted -- first point.
 Iteration  1 RMS(Cart)=  0.09119907 RMS(Int)=  0.00329488
 Iteration  2 RMS(Cart)=  0.00484883 RMS(Int)=  0.00170378
 Iteration  3 RMS(Cart)=  0.00001869 RMS(Int)=  0.00170374
 Iteration  4 RMS(Cart)=  0.00000017 RMS(Int)=  0.00170374
 ITry= 1 IFail=0 DXMaxC= 3.37D-01 DCOld= 1.00D+10 DXMaxT= 3.00D-01 DXLimC= 3.00D+00 Rises=F
 Variable       Old X    -DE/DX   Delta X   Delta X   Delta X     New X
                                 (Linear)    (Quad)   (Total)
    R1        3.03107  -0.00084   0.00000  -0.00159  -0.00159   3.02948
    R2        1.81414   0.00852   0.00000   0.01478   0.01478   1.82892
    R3        3.45977  -0.01886   0.00000  -0.07267  -0.07267   3.38710
    R4        3.34354  -0.00882   0.00000  -0.02863  -0.02863   3.31492
    R5        2.05987  -0.00083   0.00000  -0.00225  -0.00225   2.05763
    R6        2.05976   0.00090   0.00000   0.00244   0.00244   2.06220
    R7        2.05975  -0.00012   0.00000  -0.00032  -0.00032   2.05943
    R8        2.66478  -0.01490   0.00000  -0.03197  -0.03192   2.63286
    R9        2.66900  -0.01436   0.00000  -0.03119  -0.03113   2.63788
   R10        2.65719  -0.01863   0.00000  -0.03971  -0.03971   2.61747
   R11        2.05973  -0.00348   0.00000  -0.00941  -0.00941   2.05032
   R12        2.66027  -0.01394   0.00000  -0.03017  -0.03023   2.63004
   R13        2.05982  -0.00549   0.00000  -0.01487  -0.01487   2.04495
   R14        2.65963  -0.01108   0.00000  -0.02415  -0.02421   2.63542
   R15        2.05976  -0.00488   0.00000  -0.01321  -0.01321   2.04655
   R16        2.66218  -0.02297   0.00000  -0.04974  -0.04974   2.61244
   R17        2.05967  -0.00533   0.00000  -0.01442  -0.01442   2.04525
   R18        2.05988  -0.00352   0.00000  -0.00953  -0.00953   2.05034
    A1        2.09440  -0.02376   0.00000  -0.13113  -0.13113   1.96327
    A2        1.82647  -0.01832   0.00000  -0.14163  -0.14625   1.68023
    A3        1.85179   0.00337   0.00000  -0.03361  -0.04374   1.80805
    A4        1.86038  -0.00427   0.00000  -0.05601  -0.06142   1.79897
    A5        1.91063  -0.00696   0.00000  -0.03832  -0.03920   1.87143
    A6        1.91060   0.00084   0.00000   0.00805   0.00791   1.91851
    A7        1.91061  -0.01253   0.00000  -0.07265  -0.07369   1.83692
    A8        1.91066   0.00475   0.00000   0.03320   0.03317   1.94383
    A9        1.91067   0.00808   0.00000   0.03771   0.03565   1.94632
   A10        1.91062   0.00582   0.00000   0.03200   0.03173   1.94235
   A11        2.07101  -0.00991   0.00000  -0.03746  -0.03752   2.03349
   A12        2.12682  -0.00251   0.00000  -0.01015  -0.01021   2.11661
   A13        2.08535   0.01242   0.00000   0.04761   0.04772   2.13307
   A14        2.10020  -0.00824   0.00000  -0.03220  -0.03215   2.06806
   A15        2.09404   0.00448   0.00000   0.01810   0.01808   2.11212
   A16        2.08894   0.00376   0.00000   0.01409   0.01407   2.10301
   A17        2.09481  -0.00042   0.00000  -0.00083  -0.00091   2.09390
   A18        2.09320  -0.00126   0.00000  -0.00769  -0.00766   2.08553
   A19        2.09518   0.00168   0.00000   0.00853   0.00856   2.10374
   A20        2.09394   0.00377   0.00000   0.01556   0.01544   2.10938
   A21        2.09480  -0.00194   0.00000  -0.00808  -0.00802   2.08677
   A22        2.09445  -0.00183   0.00000  -0.00748  -0.00742   2.08703
   A23        2.09463  -0.00031   0.00000  -0.00126  -0.00132   2.09331
   A24        2.09337   0.00174   0.00000   0.00941   0.00944   2.10281
   A25        2.09518  -0.00144   0.00000  -0.00815  -0.00812   2.08706
   A26        2.09743  -0.00721   0.00000  -0.02885  -0.02881   2.06863
   A27        2.09515   0.00448   0.00000   0.01923   0.01917   2.11433
   A28        2.09060   0.00273   0.00000   0.00961   0.00955   2.10015
    D1        2.59966   0.00425   0.00000   0.03988   0.03654   2.63621
    D2       -1.72007  -0.00687   0.00000  -0.09572  -0.09239  -1.81245
    D3       -1.36570  -0.00392   0.00000  -0.06018  -0.05636  -1.42206
    D4        0.72871  -0.00184   0.00000  -0.03805  -0.03521   0.69350
    D5        2.82306  -0.00188   0.00000  -0.03841  -0.03624   2.78681
    D6        2.96016   0.00188   0.00000   0.06065   0.05858   3.01875
    D7       -1.22861   0.00395   0.00000   0.08277   0.07973  -1.14888
    D8        0.86574   0.00391   0.00000   0.08241   0.07869   0.94443
    D9        2.20924   0.01036   0.00000   0.09433   0.09376   2.30301
   D10       -0.92948   0.01046   0.00000   0.09737   0.09674  -0.83274
   D11       -2.13417  -0.01064   0.00000  -0.10349  -0.10286  -2.23703
   D12        1.01029  -0.01054   0.00000  -0.10045  -0.09988   0.91041
   D13       -3.13721  -0.00022   0.00000  -0.00532  -0.00529   3.14069
   D14        0.00451  -0.00007   0.00000  -0.00169  -0.00171   0.00280
   D15        0.00159  -0.00034   0.00000  -0.00838  -0.00840  -0.00681
   D16       -3.13989  -0.00019   0.00000  -0.00475  -0.00481   3.13848
   D17        3.13948  -0.00013   0.00000  -0.00308  -0.00313   3.13636
   D18       -0.00221   0.00043   0.00000   0.01057   0.01055   0.00834
   D19        0.00079   0.00000   0.00000   0.00012   0.00016   0.00095
   D20       -3.14091   0.00056   0.00000   0.01377   0.01384  -3.12707
   D21       -0.00193   0.00039   0.00000   0.00949   0.00939   0.00746
   D22        3.13970   0.00016   0.00000   0.00382   0.00373  -3.13975
   D23        3.13954   0.00024   0.00000   0.00587   0.00582  -3.13782
   D24       -0.00201   0.00001   0.00000   0.00020   0.00016  -0.00184
   D25       -0.00011  -0.00009   0.00000  -0.00224  -0.00237  -0.00247
   D26        3.14145  -0.00021   0.00000  -0.00540  -0.00549   3.13596
   D27        3.14145   0.00014   0.00000   0.00343   0.00335  -3.13839
   D28       -0.00018   0.00002   0.00000   0.00027   0.00022   0.00005
   D29        0.00247  -0.00024   0.00000  -0.00593  -0.00599  -0.00352
   D30       -3.13915  -0.00022   0.00000  -0.00547  -0.00547   3.13856
   D31       -3.13909  -0.00011   0.00000  -0.00277  -0.00286   3.14123
   D32        0.00248  -0.00009   0.00000  -0.00231  -0.00235   0.00013
   D33       -0.00281   0.00029   0.00000   0.00704   0.00703   0.00422
   D34        3.13888  -0.00027   0.00000  -0.00658  -0.00653   3.13235
   D35        3.13880   0.00027   0.00000   0.00658   0.00652  -3.13786
   D36       -0.00269  -0.00028   0.00000  -0.00704  -0.00704  -0.00972
         Item               Value     Threshold  Converged?
 Maximum Force            0.023762     0.000450     NO 
 RMS     Force            0.007431     0.000300     NO 
 Maximum Displacement     0.337483     0.001800     NO 
 RMS     Displacement     0.094401     0.001200     NO 
 Predicted change in Energy=-1.180748D-02
 Lowest energy point so far.  Saving SCF results.
 GradGradGradGradGradGradGradGradGradGradGradGradGradGradGradGradGradGrad

 Leave Link  103 at Sun Oct 13 23:14:21 2019, MaxMem= 10737418240 cpu:               1.6 elap:               0.1
 (Enter /apps/cent7/gaussian/g16-A.03/g16-haswell/g16/l202.exe)
                          Input orientation:                          
 ---------------------------------------------------------------------
 Center     Atomic      Atomic             Coordinates (Angstroms)
 Number     Number       Type             X           Y           Z
 ---------------------------------------------------------------------
      1          8           0       -1.810711   -1.868905    0.817904
      2         16           0       -0.365469   -1.737812    0.136638
      3          6           0       -0.882246   -2.214663   -1.512048
      4          6           0       -0.132616   -0.005031   -0.006155
      5          6           0        1.090313    0.496503    0.434360
      6          6           0        1.318268    1.859427    0.339525
      7          6           0        0.332907    2.694795   -0.178367
      8          6           0       -0.888670    2.178313   -0.609552
      9          6           0       -1.130362    0.819561   -0.528745
     10          1           0       -0.925056   -3.302438   -1.534550
     11          1           0       -1.854225   -1.773612   -1.739210
     12          1           0       -0.108630   -1.831259   -2.177021
     13          1           0        1.851207   -0.162061    0.839977
     14          1           0        2.263164    2.266170    0.675316
     15          1           0        0.516178    3.760106   -0.244635
     16          1           0       -1.651738    2.833885   -1.008708
     17          1           0       -2.081687    0.411959   -0.854408
     18          1           0       -1.757967   -2.097263    1.756921
 ---------------------------------------------------------------------
                    Distance matrix (angstroms):
                    1          2          3          4          5
     1  O    0.000000
     2  S    1.603132   0.000000
     3  C    2.531851   1.792375   0.000000
     4  C    2.639906   1.754178   2.777073   0.000000
     5  C    3.762738   2.683301   3.876844   1.393250   0.000000
     6  C    4.890789   3.976967   4.986863   2.387627   1.385107
     7  C    5.139553   4.498328   5.230495   2.745073   2.404493
     8  C    4.389506   4.020768   4.484728   2.388032   2.799038
     9  C    3.082886   2.750991   3.199212   1.395904   2.441994
    10  H    2.893690   2.356705   1.088849   3.719791   4.729722
    11  H    2.559259   2.395095   1.091271   3.015841   4.306754
    12  H    3.445006   2.329745   1.089803   2.836959   3.698006
    13  H    4.040228   2.809151   4.149333   2.162441   1.084985
    14  H    5.806516   4.819934   5.895425   3.370834   2.136671
    15  H    6.182973   5.581198   6.265763   3.828062   3.382568
    16  H    5.047575   4.885358   5.131599   3.372283   3.881320
    17  H    2.841196   2.923883   2.961468   2.166170   3.424858
    18  H    0.967824   2.166466   3.386270   3.182395   4.073019
                    6          7          8          9         10
     6  C    0.000000
     7  C    1.391757   0.000000
     8  C    2.423429   1.394605   0.000000
     9  C    2.798393   2.404251   1.382445   0.000000
    10  H    5.932075   6.276026   5.558379   4.247901   0.000000
    11  H    5.252126   5.214061   4.222101   2.951906   1.800708
    12  H    4.689371   4.967366   4.375167   3.284447   1.801024
    13  H    2.149627   3.391738   3.883995   3.424432   4.817466
    14  H    1.082139   2.153692   3.404800   3.880523   6.786579
    15  H    2.144101   1.082990   2.146818   3.382102   7.322606
    16  H    3.404149   2.155835   1.082300   2.135346   6.201535
    17  H    3.883340   3.390963   2.145519   1.084995   3.949320
    18  H    5.208420   5.575025   4.963509   3.758459   3.602772
                   11         12         13         14         15
    11  H    0.000000
    12  H    1.800584   0.000000
    13  H    4.793697   3.966038   0.000000
    14  H    6.253213   5.527220   2.468427   0.000000
    15  H    6.202789   5.948769   4.282766   2.475907   0.000000
    16  H    4.669439   5.050713   4.966282   4.299383   2.478215
    17  H    2.368825   3.267151   4.320659   4.965469   4.281449
    18  H    3.512399   4.273987   4.196657   6.031494   6.594447
                   16         17         18
    16  H    0.000000
    17  H    2.464628   0.000000
    18  H    5.654751   3.635936   0.000000
 Stoichiometry    C7H9OS(1+)
 Framework group  C1[X(C7H9OS)]
 Deg. of freedom    48
 Full point group                 C1      NOp   1
 RotChk:  IX=0 Diff= 8.01D-03
 Largest Abelian subgroup         C1      NOp   1
 Largest concise Abelian subgroup C1      NOp   1
                         Standard orientation:                         
 ---------------------------------------------------------------------
 Center     Atomic      Atomic             Coordinates (Angstroms)
 Number     Number       Type             X           Y           Z
 ---------------------------------------------------------------------
      1          8           0        2.117426    0.298127   -1.245406
      2         16           0        1.555192   -0.561247   -0.014390
      3          6           0        2.201835    0.500313    1.276947
      4          6           0       -0.160538   -0.196083   -0.006158
      5          6           0       -1.027290   -1.283130    0.084473
      6          6           0       -2.391131   -1.041597    0.095437
      7          6           0       -2.866845    0.263402    0.007921
      8          6           0       -1.986501    1.340726   -0.088457
      9          6           0       -0.622059    1.118410   -0.093651
     10          1           0        3.248846    0.236327    1.417208
     11          1           0        2.090764    1.546859    0.988372
     12          1           0        1.609264    0.268833    2.161789
     13          1           0       -0.647239   -2.297341    0.148730
     14          1           0       -3.079006   -1.873899    0.167049
     15          1           0       -3.934617    0.444278    0.011799
     16          1           0       -2.363159    2.352913   -0.159023
     17          1           0        0.068439    1.951165   -0.176991
     18          1           0        2.299407   -0.246438   -2.024518
 ---------------------------------------------------------------------
 Rotational constants (GHZ):           3.1047803           0.9183873           0.8424188
 Leave Link  202 at Sun Oct 13 23:14:21 2019, MaxMem= 10737418240 cpu:               0.8 elap:               0.1
 (Enter /apps/cent7/gaussian/g16-A.03/g16-haswell/g16/l301.exe)
 Standard basis: 6-311++G(d,p) (5D, 7F)
 Ernie: Thresh=  0.10000D-02 Tol=  0.10000D-05 Strict=F.
 There are   278 symmetry adapted cartesian basis functions of A   symmetry.
 There are   269 symmetry adapted basis functions of A   symmetry.
   269 basis functions,   419 primitive gaussians,   278 cartesian basis functions
    37 alpha electrons       37 beta electrons
       nuclear repulsion energy       522.2545253399 Hartrees.
 IExCor= 4336 DFT=T Ex+Corr=M062X ExCW=0 ScaHFX=  0.540000
 ScaDFX=  1.000000  1.000000  1.000000  1.000000 ScalE2=  1.000000  1.000000
 IRadAn=      5 IRanWt=     -1 IRanGd=            0 ICorTp=0 IEmpDi=  4
 NAtoms=   18 NActive=   18 NUniq=   18 SFac= 1.00D+00 NAtFMM=   60 NAOKFM=F Big=F
 Integral buffers will be    131072 words long.
 Raffenetti 2 integral format.
 Two-electron integral symmetry is turned on.
 Leave Link  301 at Sun Oct 13 23:14:21 2019, MaxMem= 10737418240 cpu:               1.2 elap:               0.1
 (Enter /apps/cent7/gaussian/g16-A.03/g16-haswell/g16/l302.exe)
 NPDir=0 NMtPBC=     1 NCelOv=     1 NCel=       1 NClECP=     1 NCelD=      1
         NCelK=      1 NCelE2=     1 NClLst=     1 CellRange=     0.0.
 One-electron integrals computed using PRISM.
 One-electron integral symmetry used in STVInt
 NBasis=   269 RedAO= T EigKep=  2.22D-06  NBF=   269
 NBsUse=   268 1.00D-06 EigRej=  8.88D-07 NBFU=   268
 Precomputing XC quadrature grid using
 IXCGrd= 4 IRadAn=           5 IRanWt=          -1 IRanGd=           0 AccXCQ= 0.00D+00.
 Generated NRdTot=       0 NPtTot=           0 NUsed=           0 NTot=          32
 NSgBfM=   278   278   278   278   278 MxSgAt=    18 MxSgA2=    18.
 Leave Link  302 at Sun Oct 13 23:14:21 2019, MaxMem= 10737418240 cpu:               4.1 elap:               0.2
 (Enter /apps/cent7/gaussian/g16-A.03/g16-haswell/g16/l303.exe)
 DipDrv:  MaxL=1.
 Leave Link  303 at Sun Oct 13 23:14:21 2019, MaxMem= 10737418240 cpu:               0.8 elap:               0.1
 (Enter /apps/cent7/gaussian/g16-A.03/g16-haswell/g16/l401.exe)
 Initial guess from the checkpoint file:  "33_p.chk"
 B after Tr=    -0.000000   -0.000000    0.000000
         Rot=    0.999980   -0.004597    0.003354    0.002778 Ang=  -0.73 deg.
 Guess basis will be translated and rotated to current coordinates.
 JPrj=2 DoOrth=T DoCkMO=T.
 Generating alternative initial guess.
 ExpMin= 3.60D-02 ExpMax= 9.34D+04 ExpMxC= 3.17D+03 IAcc=3 IRadAn=         5 AccDes= 0.00D+00
 Harris functional with IExCor= 1009 and IRadAn=       5 diagonalized for initial guess.
 HarFok:  IExCor= 1009 AccDes= 0.00D+00 IRadAn=         5 IDoV= 1 UseB2=F ITyADJ=14
 ICtDFT=  3500011 ScaDFX=  1.000000  1.000000  1.000000  1.000000
 FoFCou: FMM=F IPFlag=           0 FMFlag=      100000 FMFlg1=           0
         NFxFlg=           0 DoJE=T BraDBF=F KetDBF=T FulRan=T
         wScrn=  0.000000 ICntrl=       500 IOpCl=  0 I1Cent=   200000004 NGrid=           0
         NMat0=    1 NMatS0=      1 NMatT0=    0 NMatD0=    1 NMtDS0=    0 NMtDT0=    0
 Petite list used in FoFCou.
 Harris En= -744.980820796449    
 Leave Link  401 at Sun Oct 13 23:14:22 2019, MaxMem= 10737418240 cpu:              12.3 elap:               0.5
 (Enter /apps/cent7/gaussian/g16-A.03/g16-haswell/g16/l502.exe)
 Integral symmetry usage will be decided dynamically.
 Closed shell SCF:
 Using DIIS extrapolation, IDIIS=  1040.
 NGot= 10737418240 LenX= 10737254227 LenY= 10737176502
 Requested convergence on RMS density matrix=1.00D-08 within 128 cycles.
 Requested convergence on MAX density matrix=1.00D-06.
 Requested convergence on             energy=1.00D-06.
 No special actions if energy rises.
 Fock matrices will be formed incrementally for  20 cycles.

 Cycle   1  Pass 1  IDiag  1:
 FoFJK:  IHMeth= 1 ICntrl=       0 DoSepK=F KAlg= 0 I1Cent=           0 FoldK=F
 IRaf= 950000000 NMat=       1 IRICut=       1 DoRegI=T DoRafI=F ISym2E= 0 IDoP0=0 IntGTp=1.
 FoFCou: FMM=F IPFlag=           0 FMFlag=      100000 FMFlg1=           0
         NFxFlg=           0 DoJE=F BraDBF=F KetDBF=F FulRan=T
         wScrn=  0.000000 ICntrl=         0 IOpCl=  0 I1Cent=           0 NGrid=           0
         NMat0=    1 NMatS0=      1 NMatT0=    0 NMatD0=    1 NMtDS0=    0 NMtDT0=    0
 Symmetry not used in FoFCou.
 E= -745.202615078974    
 DIIS: error= 3.42D-03 at cycle   1 NSaved=   1.
 NSaved= 1 IEnMin= 1 EnMin= -745.202615078974     IErMin= 1 ErrMin= 3.42D-03
 ErrMax= 3.42D-03  0.00D+00 EMaxC= 1.00D-01 BMatC= 9.38D-03 BMatP= 9.38D-03
 IDIUse=3 WtCom= 9.66D-01 WtEn= 3.42D-02
 Coeff-Com:  0.100D+01
 Coeff-En:   0.100D+01
 Coeff:      0.100D+01
 Gap=     0.472 Goal=   None    Shift=    0.000
 GapD=    0.472 DampG=2.000 DampE=1.000 DampFc=2.0000 IDamp=-1.
 RMSDP=2.14D-02 MaxDP=2.24D+00              OVMax= 2.81D-02

 Cycle   2  Pass 1  IDiag  1:
 RMSU=  1.29D-02    CP:  1.31D+00
 E= -745.215053423937     Delta-E=       -0.012438344963 Rises=F Damp=F
 DIIS: error= 1.85D-03 at cycle   2 NSaved=   2.
 NSaved= 2 IEnMin= 2 EnMin= -745.215053423937     IErMin= 2 ErrMin= 1.85D-03
 ErrMax= 1.85D-03  0.00D+00 EMaxC= 1.00D-01 BMatC= 7.24D-04 BMatP= 9.38D-03
 IDIUse=3 WtCom= 9.82D-01 WtEn= 1.85D-02
 Coeff-Com:  0.439D-01 0.956D+00
 Coeff-En:   0.000D+00 0.100D+01
 Coeff:      0.430D-01 0.957D+00
 Gap=     0.272 Goal=   None    Shift=    0.000
 RMSDP=2.30D-03 MaxDP=1.19D-01 DE=-1.24D-02 OVMax= 9.23D-03

 Cycle   3  Pass 1  IDiag  1:
 RMSU=  1.93D-03    CP:  1.28D+00  9.94D-01
 E= -745.215288047120     Delta-E=       -0.000234623183 Rises=F Damp=F
 DIIS: error= 1.65D-03 at cycle   3 NSaved=   3.
 NSaved= 3 IEnMin= 3 EnMin= -745.215288047120     IErMin= 3 ErrMin= 1.65D-03
 ErrMax= 1.65D-03  0.00D+00 EMaxC= 1.00D-01 BMatC= 7.86D-04 BMatP= 7.24D-04
 IDIUse=3 WtCom= 9.83D-01 WtEn= 1.65D-02
 Coeff-Com: -0.518D-01 0.530D+00 0.522D+00
 Coeff-En:   0.000D+00 0.383D+00 0.617D+00
 Coeff:     -0.510D-01 0.528D+00 0.523D+00
 Gap=     0.274 Goal=   None    Shift=    0.000
 RMSDP=2.86D-03 MaxDP=2.69D-01 DE=-2.35D-04 OVMax= 5.73D-03

 Cycle   4  Pass 1  IDiag  1:
 RMSU=  6.59D-04    CP:  1.33D+00  1.06D+00  6.33D-01
 E= -745.215865637979     Delta-E=       -0.000577590859 Rises=F Damp=F
 DIIS: error= 1.82D-04 at cycle   4 NSaved=   4.
 NSaved= 4 IEnMin= 4 EnMin= -745.215865637979     IErMin= 4 ErrMin= 1.82D-04
 ErrMax= 1.82D-04  0.00D+00 EMaxC= 1.00D-01 BMatC= 1.66D-05 BMatP= 7.24D-04
 IDIUse=3 WtCom= 9.98D-01 WtEn= 1.82D-03
 Coeff-Com: -0.175D-01 0.848D-01 0.160D+00 0.773D+00
 Coeff-En:   0.000D+00 0.000D+00 0.000D+00 0.100D+01
 Coeff:     -0.175D-01 0.847D-01 0.160D+00 0.773D+00
 Gap=     0.275 Goal=   None    Shift=    0.000
 RMSDP=1.84D-04 MaxDP=9.00D-03 DE=-5.78D-04 OVMax= 1.38D-03

 Cycle   5  Pass 1  IDiag  1:
 RMSU=  9.70D-05    CP:  1.33D+00  1.06D+00  7.07D-01  1.02D+00
 E= -745.215880562644     Delta-E=       -0.000014924665 Rises=F Damp=F
 DIIS: error= 1.12D-04 at cycle   5 NSaved=   5.
 NSaved= 5 IEnMin= 5 EnMin= -745.215880562644     IErMin= 5 ErrMin= 1.12D-04
 ErrMax= 1.12D-04  0.00D+00 EMaxC= 1.00D-01 BMatC= 2.83D-06 BMatP= 1.66D-05
 IDIUse=3 WtCom= 9.99D-01 WtEn= 1.12D-03
 Coeff-Com: -0.126D-02-0.287D-01 0.326D-02 0.322D+00 0.705D+00
 Coeff-En:   0.000D+00 0.000D+00 0.000D+00 0.000D+00 0.100D+01
 Coeff:     -0.126D-02-0.287D-01 0.326D-02 0.322D+00 0.705D+00
 Gap=     0.274 Goal=   None    Shift=    0.000
 RMSDP=4.80D-05 MaxDP=2.46D-03 DE=-1.49D-05 OVMax= 7.03D-04

 Cycle   6  Pass 1  IDiag  1:
 RMSU=  2.27D-05    CP:  1.33D+00  1.05D+00  7.17D-01  1.06D+00  9.55D-01
 E= -745.215883510269     Delta-E=       -0.000002947625 Rises=F Damp=F
 DIIS: error= 4.26D-05 at cycle   6 NSaved=   6.
 NSaved= 6 IEnMin= 6 EnMin= -745.215883510269     IErMin= 6 ErrMin= 4.26D-05
 ErrMax= 4.26D-05  0.00D+00 EMaxC= 1.00D-01 BMatC= 3.21D-07 BMatP= 2.83D-06
 IDIUse=1 WtCom= 1.00D+00 WtEn= 0.00D+00
 Coeff-Com:  0.108D-02-0.207D-01-0.143D-01 0.694D-01 0.308D+00 0.656D+00
 Coeff:      0.108D-02-0.207D-01-0.143D-01 0.694D-01 0.308D+00 0.656D+00
 Gap=     0.274 Goal=   None    Shift=    0.000
 RMSDP=1.70D-05 MaxDP=7.06D-04 DE=-2.95D-06 OVMax= 2.95D-04

 Cycle   7  Pass 1  IDiag  1:
 RMSU=  1.10D-05    CP:  1.33D+00  1.05D+00  7.18D-01  1.07D+00  9.17D-01
                    CP:  9.25D-01
 E= -745.215883852766     Delta-E=       -0.000000342496 Rises=F Damp=F
 DIIS: error= 1.61D-05 at cycle   7 NSaved=   7.
 NSaved= 7 IEnMin= 7 EnMin= -745.215883852766     IErMin= 7 ErrMin= 1.61D-05
 ErrMax= 1.61D-05  0.00D+00 EMaxC= 1.00D-01 BMatC= 3.85D-08 BMatP= 3.21D-07
 IDIUse=1 WtCom= 1.00D+00 WtEn= 0.00D+00
 Coeff-Com:  0.603D-03-0.634D-02-0.689D-02 0.458D-03 0.649D-01 0.298D+00
 Coeff-Com:  0.649D+00
 Coeff:      0.603D-03-0.634D-02-0.689D-02 0.458D-03 0.649D-01 0.298D+00
 Coeff:      0.649D+00
 Gap=     0.274 Goal=   None    Shift=    0.000
 RMSDP=7.87D-06 MaxDP=4.43D-04 DE=-3.42D-07 OVMax= 8.36D-05

 Cycle   8  Pass 1  IDiag  1:
 RMSU=  4.16D-06    CP:  1.33D+00  1.05D+00  7.20D-01  1.07D+00  9.31D-01
                    CP:  9.57D-01  1.04D+00
 E= -745.215883895796     Delta-E=       -0.000000043031 Rises=F Damp=F
 DIIS: error= 2.20D-06 at cycle   8 NSaved=   8.
 NSaved= 8 IEnMin= 8 EnMin= -745.215883895796     IErMin= 8 ErrMin= 2.20D-06
 ErrMax= 2.20D-06  0.00D+00 EMaxC= 1.00D-01 BMatC= 1.96D-09 BMatP= 3.85D-08
 IDIUse=1 WtCom= 1.00D+00 WtEn= 0.00D+00
 Coeff-Com:  0.708D-04 0.241D-03-0.614D-03-0.703D-02-0.125D-01 0.213D-01
 Coeff-Com:  0.178D+00 0.820D+00
 Coeff:      0.708D-04 0.241D-03-0.614D-03-0.703D-02-0.125D-01 0.213D-01
 Coeff:      0.178D+00 0.820D+00
 Gap=     0.274 Goal=   None    Shift=    0.000
 RMSDP=2.28D-06 MaxDP=1.98D-04 DE=-4.30D-08 OVMax= 2.65D-05

 Cycle   9  Pass 1  IDiag  1:
 RMSU=  1.05D-06    CP:  1.33D+00  1.05D+00  7.20D-01  1.07D+00  9.29D-01
                    CP:  9.73D-01  1.12D+00  1.14D+00
 E= -745.215883898849     Delta-E=       -0.000000003053 Rises=F Damp=F
 DIIS: error= 1.22D-06 at cycle   9 NSaved=   9.
 NSaved= 9 IEnMin= 9 EnMin= -745.215883898849     IErMin= 9 ErrMin= 1.22D-06
 ErrMax= 1.22D-06  0.00D+00 EMaxC= 1.00D-01 BMatC= 4.01D-10 BMatP= 1.96D-09
 IDIUse=1 WtCom= 1.00D+00 WtEn= 0.00D+00
[...]
 .008559,0.0422995,-0.0787276,-0.1487285,-0.0609728,0.1263922,-0.037280
 8,-0.0201212,-0.0049518,0.0964621,0.0214543,-0.0177482,-0.0652107,0.06
 22678,0.096254,0.0411566,0.0044389,0.0547921,0.0627349,-0.0391363,0.01
 56124,-0.049448,0.0440004,0.0627053,-0.051218,-0.0341313,-0.0293406,0.
 1216247,-0.0015226,-0.0107082,0.0243207,0.102686,0.0998318,0.0205246,-
 0.0149344,0.0331074,0.0508337,0.0255716,-0.0181434,0.0260906,0.1281501
 ,0.0573328,-0.0129268,-0.0294199,-0.0190237,0.0659558,0.003749,-0.0291
 627,0.0061733,0.1379252,0.0957751,-0.0105139,-0.0129237,-0.0110587,0.0
 454403,0.0099665,-0.0120579,0.0106581,0.1328945,0.0589338,0.0042265,-0
 .0298625,0.0107207,0.0547413,0.0142995,-0.0241071,0.0204656,0.1337847,
 0.0743932,-0.0390615,-0.0231856,-0.0392269,0.0840011,-0.0053973,-0.018
 1921,0.0006662,0.1255737,0.3010932,0.0415559,-0.079748,0.0362184,0.387
 7318,-0.0620394,-0.1542811,-0.1119795,0.4417983\Polar=94.1677757,12.23
 37774,125.0728009,7.9448036,-0.8276784,71.0301212\Quadrupole=-4.530564
 9,9.4607827,-4.9302178,3.4563513,0.9597798,-0.6782268\PG=C01 [X(C7H9O1
 S1)]\NImag=0\\0.26673772,0.02349379,0.05372924,-0.06937366,-0.11321510
 ,0.59998529,-0.22439858,-0.00067957,0.06231818,0.34784556,-0.01428075,
 -0.03242273,0.00934022,0.01834728,0.28372977,0.06242549,0.00715328,-0.
 08509248,-0.02256253,0.00295634,0.29832512,-0.00165509,0.00058957,0.04
 393517,-0.05896441,-0.01254372,-0.06117131,0.58472931,-0.00352241,0.00
 192410,0.00194090,0.00099701,-0.05373655,0.00070646,-0.00940938,0.5753
 4410,-0.00048263,-0.00143373,-0.01995686,-0.01383052,-0.02243204,-0.12
 149870,-0.04779553,-0.06294469,0.38020784,-0.00954488,-0.03026399,0.00
 889212,-0.05468998,0.03016459,-0.01214965,0.00044017,-0.01047139,-0.00
 149784,0.62857983,-0.00386547,-0.00311140,0.00199191,-0.00455300,-0.13
 234281,0.00273605,-0.00519999,-0.01220074,-0.00268525,-0.00704412,0.48
 709210,0.00443513,0.00515161,0.00090364,-0.01079801,0.02132146,-0.0424
 5647,0.00035137,-0.02603166,0.00455522,0.17541182,-0.04644044,0.185114
 36,0.00299229,0.00229885,-0.00172455,-0.00265836,-0.01583389,0.0044136
 0,0.00090032,0.00430620,0.00020893,-0.29471931,-0.08498509,-0.07345366
 ,0.65009451,-0.00153028,-0.00254134,0.00210620,-0.02488949,-0.02526820
 ,-0.00754121,0.00040057,-0.00164738,0.00072839,-0.03420694,-0.12216803
 ,0.00031970,-0.02050389,0.68790730,0.00420130,0.00512367,-0.00195439,0
 .00320925,-0.00622196,-0.00077265,-0.00073245,-0.00115880,-0.00059147,
 -0.08266236,-0.01428158,-0.07649664,0.18514076,-0.09316693,0.21270305,
 0.00003044,0.00006548,0.00075642,-0.00414155,-0.00597922,-0.00326903,0
 .00034950,-0.00080256,-0.00000303,0.01190892,-0.02773148,0.00681981,-0
 .13060254,-0.07713672,-0.01189440,0.69149380,-0.00147066,-0.00181326,0
 .00031282,-0.00307897,0.00672679,-0.00056485,-0.00001339,-0.00176065,0
 .00037331,-0.08459960,-0.01775425,-0.02670329,-0.00458663,-0.33200384,
 0.03959617,0.05463853,0.67266782,-0.00112512,-0.00192732,0.00061313,-0
 .00237647,-0.00008020,0.00665695,0.00073654,0.00215641,-0.00078475,0.0
 1376805,-0.00730393,0.01118422,-0.02184856,0.01384603,-0.07353061,0.18
 174389,-0.06036596,0.20813740,-0.00022824,-0.00086057,-0.00000012,-0.0
 0509226,-0.00097070,0.00008539,0.00065082,-0.00104696,0.00017903,-0.06
 606613,0.01138050,-0.02365094,0.05444638,0.06660780,0.00676300,-0.2414
 5622,0.05371334,-0.06810219,0.62203594,0.00017999,-0.00005548,0.000136
 65,0.00045707,0.00137977,-0.00054072,-0.00006846,-0.00008776,0.0002857
 0,0.00945911,-0.00481385,0.00344283,0.01636366,-0.03860514,0.01216010,
 0.12496350,-0.21155372,0.06369640,0.03172969,0.74775131,0.00001503,-0.
 00003583,-0.00023622,-0.00143104,-0.00055198,-0.00080841,0.00035851,-0
 .00067146,0.00011786,-0.02206003,0.00346573,-0.01422059,0.01475852,0.0
 2907814,0.00459755,-0.07845646,0.03913690,-0.09570143,0.15516242,-0.07
 617312,0.20843108,0.00053229,-0.00185312,0.00048087,-0.00043603,0.0141
 1546,-0.00507253,-0.00105825,-0.00105536,-0.00013393,0.04707350,0.0048
 9175,0.01498805,-0.02995222,-0.03192357,-0.00288665,-0.04444643,0.0421
 2007,-0.02329498,-0.29069355,-0.10267589,-0.06018755,0.65874265,-0.001
 36379,0.00051413,0.00037286,0.00757407,0.00577990,0.00041371,-0.001077
 04,0.00084015,0.00021796,0.06517730,-0.05033676,0.03133241,-0.03992449
 ,-0.04598530,-0.00664758,-0.00261275,0.07213913,-0.01103267,-0.0308980
 8,-0.15987712,0.00356622,-0.02132248,0.70652951,-0.00059128,-0.0013387
 2,0.00048192,-0.00214620,0.00358388,0.00344907,-0.00022840,0.00086484,
 0.00023210,0.00484288,0.00954108,0.00667883,-0.00344175,-0.00536731,-0
 .00420253,-0.01648263,0.00557610,-0.00181454,-0.06893292,-0.02070984,-
 0.08406739,0.17299706,-0.08549907,0.20684561,-0.00234863,0.00104699,0.
 00058453,0.01263758,-0.00351236,0.00282714,-0.00083856,-0.00055309,0.0
 0093773,-0.23489254,0.11122040,-0.07690281,-0.04765047,-0.00657316,-0.
 01687043,-0.00808911,0.02630891,-0.00545595,0.01744976,-0.03578496,0.0
 0927622,-0.13015872,-0.07858698,-0.01201326,0.68225947,0.00125826,0.00
 446596,-0.00137317,0.01088617,-0.04971808,0.01229541,0.00184401,0.0012
 8246,0.00128766,0.05919570,-0.15869641,0.03376605,0.04247945,0.0584614
 3,0.00420993,0.01778924,-0.06283153,0.01546214,-0.08494221,-0.00764292
 ,-0.02695474,-0.00551751,-0.34705073,0.03739306,0.06479402,0.67372039,
 -0.00298510,0.00073151,0.00068883,0.00484552,0.00871648,-0.00272607,0.
 00000522,-0.00227961,-0.00025421,-0.06872577,0.04785398,-0.08417639,-0
 .02430415,-0.00968692,-0.00070093,-0.00395748,0.01741432,-0.00753826,0
 .01658955,-0.01013166,0.01139285,-0.02277209,0.01194201,-0.07210826,0.
 16962652,-0.05372132,0.19465819,-0.00079808,0.00035753,0.00042330,-0.0
 0247748,-0.00547860,0.00107035,-0.05971218,-0.05829960,0.00015991,0.00
 034732,-0.00063440,-0.00150601,0.00033688,0.00008752,0.00008434,0.0000
 4570,0.00005190,0.00020242,0.00020031,-0.00006569,0.00003758,-0.000323
 43,-0.00034560,0.00024857,-0.00019367,0.00051805,-0.00021820,0.0583810
 6,0.00054803,0.00055737,0.00054835,-0.00131809,-0.00523674,-0.00208367
 ,-0.05793742,-0.32322453,0.00898334,-0.00113827,-0.00013981,0.00009074
 ,0.00029055,0.00010375,-0.00024272,0.00002164,-0.00022198,0.00005869,-
 0.00017231,0.00005776,-0.00005951,-0.00001791,0.00010833,-0.00017572,-
 0.00000960,0.00037229,-0.00007145,0.06378661,0.34055009,-0.00000181,0.
 00122833,0.00179080,-0.00711884,-0.02903111,-0.00362666,0.00315387,0.0
 1041815,-0.04440971,-0.00208949,-0.00194465,-0.00612258,0.00111567,-0.
 00080451,-0.00003364,-0.00023735,-0.00042444,0.00064255,-0.00014099,-0
 .00009990,-0.00011162,-0.00033993,-0.00016594,0.00030830,-0.00069864,0
 .00053787,-0.00016170,0.00025476,-0.00728048,0.04973119,0.00045555,-0.
 00041885,0.00037640,-0.00372598,0.00158739,-0.00273338,-0.22120248,0.1
 2291277,-0.06857073,-0.00009324,-0.00003478,0.00021404,-0.00014239,0.0
 0001089,-0.00002030,0.00005319,0.00011722,-0.00000562,0.00016983,-0.00
 008902,-0.00000326,-0.00022168,-0.00025748,0.00005665,0.00031368,0.000
 11999,0.00026307,0.00763939,-0.00481230,0.00405005,0.23150335,0.000040
 00,-0.00065815,0.00249393,-0.00871510,0.00472639,-0.00961762,0.1234356
 9,-0.13284948,0.04877243,-0.00047875,0.00063751,0.00113664,-0.00005842
 ,-0.00032626,0.00009616,0.00009771,0.00033819,-0.00009075,0.00036064,-
 0.00004282,0.00015845,-0.00010661,-0.00047262,0.00014107,-0.00073823,0
 .00020525,-0.00010102,0.02347366,-0.01134422,0.00928685,-0.13187496,0.
 13786200,0.00026693,-0.00025446,0.00559981,-0.02512851,0.00990925,-0.0
 2665871,-0.06726007,0.04980539,-0.06716063,0.00193449,0.00120952,0.002
 22421,-0.00024633,0.00004581,0.00021181,0.00015037,0.00032470,-0.00000
 616,0.00041746,0.00002836,0.00015552,0.00009923,-0.00054914,0.00009100
 ,-0.00086815,0.00015771,0.00001824,0.00158092,-0.00011982,0.00061825,0
 .07492425,-0.04877602,0.07614864,0.00079878,-0.00056752,-0.00471828,0.
 00542767,0.00269766,-0.00186509,-0.23710960,-0.04291580,0.12855460,0.0
 0037516,-0.00005060,-0.00007048,0.00035924,0.00020838,0.00026444,-0.00
 001352,-0.00015329,0.00001120,-0.00007386,0.00001748,-0.00004811,0.000
 07279,0.00002643,0.00002161,-0.00037509,0.00007261,-0.00029618,-0.0038
 2329,0.00080589,0.00171742,-0.01500772,-0.00582166,0.01377249,0.248093
 23,0.00033344,0.00081086,-0.00406404,0.00746285,-0.00137097,-0.0042278
 0,-0.04357021,-0.05421903,0.02998161,-0.00032155,0.00025139,0.00033265
 ,-0.00010558,-0.00020109,0.00004832,-0.00011622,0.00001533,-0.00004116
 ,0.00008153,-0.00006626,0.00000267,-0.00011025,-0.00014706,0.00005201,
 0.00024980,0.00008034,0.00014025,-0.02324234,-0.00181233,0.01843036,0.
 01245099,0.00275954,-0.01101566,0.04611480,0.05398545,0.00000581,0.000
 55888,-0.00853963,0.01931549,0.00285242,-0.01483945,0.12765210,0.02808
 501,-0.13014507,-0.00011349,0.00194042,0.00084415,-0.00043118,-0.00037
 283,0.00016153,-0.00019684,0.00001799,-0.00016709,-0.00014544,0.000091
 07,-0.00009825,0.00043592,0.00025307,-0.00006998,0.00010119,-0.0006574
 1,0.00029293,-0.00199691,0.00030737,0.00181540,-0.00892467,-0.00260098
 ,0.00843122,-0.13726514,-0.02927989,0.14220862,0.00035702,-0.00027644,
 0.00030904,-0.00130727,0.00139495,0.00003395,0.00026477,-0.00011121,-0
 .00014272,-0.01456457,0.01670950,-0.00814159,-0.20154041,0.12365606,-0
 .07771361,0.00922834,-0.00503504,0.00235074,0.00139060,-0.00238449,-0.
 00189889,0.00000442,-0.00049989,0.00058166,-0.00253799,-0.00381786,-0.
 00262860,0.00001798,-0.00001563,0.00006680,0.00000957,0.00010838,0.000
 15857,0.00000842,0.00000176,-0.00000240,0.20909613,0.00059191,-0.00020
 255,-0.00014068,-0.00134438,0.00144656,-0.00119874,-0.00004435,-0.0002
 7910,0.00012575,-0.00993373,0.00992830,-0.00501351,0.12400947,-0.16617
 309,0.06435441,0.02295468,-0.01166185,0.01028827,-0.00222832,-0.005124
 74,0.00119698,-0.00093343,-0.00084208,-0.00043488,-0.00310691,-0.00027
 993,0.00017675,-0.00003679,-0.00003423,-0.00005882,-0.00001915,0.00003
 778,0.00004352,0.00003579,0.00004792,0.00001641,-0.13073150,0.17216840
 ,0.00084730,0.00053849,0.00002831,-0.00039359,-0.00071321,-0.00307203,
 -0.00038278,-0.00064419,0.00030891,-0.00329170,0.00420872,-0.00080876,
 -0.07774150,0.06496856,-0.07456451,-0.00211057,0.00048324,0.00429458,-
 0.00197637,0.00114164,0.00675334,0.00076942,-0.00012994,-0.00112748,-0
 .00265280,-0.00054293,0.00554853,-0.00003890,-0.00001916,-0.00025542,0
 .00001978,0.00001352,-0.00004580,-0.00004594,-0.00000725,-0.00005093,0
 .08562027,-0.06894156,0.06679273,0.00013216,0.00018264,-0.00007379,0.0
 0015972,0.00017066,-0.00013025,-0.00004397,-0.00007572,-0.00001079,0.0
 0227212,-0.00057320,-0.00168593,0.00080148,0.00084853,-0.00106245,-0.2
 8998382,-0.09842261,-0.07174950,-0.01348973,-0.00973903,-0.00479994,-0
 .00072349,0.00276946,-0.00333006,0.00016510,0.00088692,0.00044660,0.00
 000286,-0.00000500,-0.00001949,-0.00000041,-0.00001527,0.00000294,0.00
 000951,-0.00000023,0.00000748,-0.00002499,0.00010091,0.00142042,0.3012
 8425,-0.00052355,-0.00042290,0.00031445,-0.00088385,-0.00018283,-0.000
 36460,0.00006170,-0.00026355,0.00009017,-0.00044829,-0.00442083,0.0016
 0316,-0.02789102,-0.00775153,-0.00809416,-0.09803979,-0.09914953,-0.02
 512237,0.01880745,0.01181944,0.00542055,0.00299825,-0.00205507,0.00240
 899,0.00061872,-0.00085738,0.00018594,-0.00001591,0.00001191,-0.000108
 92,0.00000452,-0.00000165,0.00001175,-0.00003326,-0.00002158,-0.000021
 38,0.00040652,0.00087580,-0.00063841,0.10420221,0.10141067,-0.00014132
 ,-0.00024924,0.00004968,0.00009766,0.00034893,0.00043639,0.00003105,0.
 00029459,0.00007652,-0.00135017,0.00135550,0.00664120,0.00306796,0.001
 78865,0.00436666,-0.07207759,-0.02503548,-0.06164239,-0.00859437,-0.00
 458634,0.00215362,-0.00347638,0.00223259,0.00628229,0.00036190,0.00048
 177,-0.00137018,-0.00002078,0.00002998,0.00007470,-0.00002468,0.000027
 00,-0.00003939,-0.00001962,-0.00001849,0.00000333,0.00141896,-0.000705
 38,-0.00353059,0.07929004,0.02509498,0.05114783,0.00001898,-0.00006435
 ,0.00001022,-0.00021979,-0.00010177,0.00035705,0.00006581,0.00005909,-
 0.00002114,-0.00146149,0.00053871,-0.00040505,-0.00210399,0.00308720,-
 0.00398295,0.00849104,0.02336297,-0.00222095,-0.06724308,-0.05015804,-
 0.00067453,0.00006631,-0.02808958,0.00220687,-0.00407578,-0.00248926,-
 0.00341511,0.00003402,-0.00000875,0.00004964,0.00000326,0.00005826,0.0
 0005369,0.00000029,-0.00000297,-0.00001726,0.00027603,0.00116933,0.000
 03819,0.00021736,-0.00014918,0.00150203,0.06561169,0.00006346,0.000074
 52,-0.00002193,-0.00006844,-0.00042264,-0.00002065,0.00000907,0.000042
 85,-0.00003729,0.00045876,0.00121109,-0.00012909,0.00223023,-0.0005674
 0,0.00196919,-0.00519772,-0.01174623,0.00068404,-0.05019308,-0.3394727
 1,0.02506715,0.00062010,-0.00484284,0.00161120,-0.00175645,0.00092987,
 0.00040334,0.00000739,0.00000227,0.00001266,0.00000323,-0.00000236,0.0
 0000407,0.00000540,-0.00000766,-0.00000634,-0.00030747,-0.00056584,-0.
 00007572,0.00020308,0.00054580,-0.00059309,0.05362926,0.35463269,0.000
 30004,0.00019601,-0.00002405,0.00005310,-0.00031560,-0.00103769,-0.000
 11065,-0.00020503,0.00000541,-0.00014030,0.00000668,-0.00060707,-0.003
 88726,0.00243638,0.00645502,0.00161892,0.01038390,0.00466679,-0.000675
 13,0.02498577,-0.04772171,-0.00158646,-0.00784982,0.00583234,-0.003615
 87,-0.00016550,0.00636697,-0.00004337,0.00001517,-0.00009279,0.0000027
 8,-0.00002490,-0.00000096,0.00001137,-0.00000467,0.00004175,0.00023563
 ,0.00044908,-0.00040956,0.00146976,-0.00070749,-0.00354624,0.00498317,
 -0.02831095,0.03372628,-0.00018563,0.00017403,0.00003038,0.00059362,-0
 .00093449,0.00009454,0.00004159,0.00002319,0.00008253,0.00187928,-0.00
 211722,-0.00168512,-0.00042860,-0.00112222,0.00043534,-0.00316387,-0.0
 0302847,-0.00301587,-0.01379999,0.01826993,-0.00843312,-0.20918829,0.1
 2902667,-0.07241388,0.00856354,-0.00652108,0.00236323,-0.00001054,0.00
 001546,-0.00001362,0.00001711,0.00001829,-0.00002309,-0.00001831,0.000
 01276,-0.00001389,-0.00008357,0.00013024,0.00024769,-0.00066902,0.0009
 3123,-0.00029816,0.00041219,0.00013262,0.00133126,0.21585916,-0.000271
 29,0.00027136,0.00005213,0.00102025,-0.00151689,0.00051006,0.00000115,
 0.00008259,0.00008819,-0.00177393,-0.00389022,0.00079822,-0.00082361,-
 0.00040801,-0.00036490,-0.00330204,-0.00015873,-0.00007274,-0.01053089
 ,0.01194272,-0.00445871,0.12882318,-0.16945525,0.05987073,0.02206973,-
 0.01448073,0.00986671,-0.00000655,0.00003092,-0.00003178,0.00002188,-0
 .00003827,-0.00002715,-0.00001769,-0.00001662,-0.00000836,0.00011629,0
 .00003769,-0.00010270,-0.00051920,0.00044442,-0.00030805,0.00047485,0.
 00045632,-0.00043433,-0.13552307,0.17585736,0.00022365,-0.00006247,-0.
 00005711,-0.00038231,-0.00019187,0.00040864,-0.00012670,0.00013234,-0.
 00013413,-0.00179125,0.00134566,0.00712769,0.00041063,-0.00047051,-0.0
 0110084,-0.00305536,0.00009534,0.00637513,-0.00470829,0.00489907,0.002
 20107,-0.07211602,0.06007328,-0.07255740,-0.00128253,0.00003929,0.0037
 5484,0.00003416,-0.00000042,0.00003572,0.00002358,-0.00007967,-0.00001
 215,0.00001490,-0.00001785,0.00001258,0.00028588,-0.00011027,-0.000810
 51,-0.00004355,0.00018595,-0.00030709,0.00132141,-0.00057859,-0.003322
 85,0.07991262,-0.06462880,0.06231289,0.00042034,-0.00052180,0.00013839
 ,-0.00201483,-0.00080870,0.00033336,0.00004744,-0.00003570,-0.00011721
 ,-0.01466722,-0.00795766,-0.00391170,-0.00019929,0.00347502,-0.0024863
 5,0.00042512,0.00003429,0.00061825,0.00180867,-0.00050949,-0.00171772,
 0.00073601,0.00037695,-0.00130088,-0.29029585,-0.09694373,-0.06483040,
 0.00023092,-0.00010018,0.00025967,0.00030560,0.00062927,0.00051441,0.0
 0003458,-0.00001537,-0.00000567,-0.00044472,-0.00058196,-0.00035236,-0
 .00011578,-0.00001125,0.00023509,-0.00010576,0.00015399,0.00005979,0.0
 0014279,0.00019808,0.00131562,0.30353529,-0.00021342,-0.00058976,-0.00
 021165,0.00173197,0.00076845,-0.00023646,0.00000362,-0.00052003,0.0002
 3872,0.01723204,0.01096477,0.00410202,0.00277420,-0.00248912,0.0023521
 0,0.00050311,-0.00115465,0.00004822,-0.00068940,-0.00556102,0.00170807
 ,-0.02825832,-0.00482603,-0.00744404,-0.09565425,-0.09735165,-0.021509
 43,-0.00013779,0.00000543,-0.00010968,0.00031609,-0.00075727,-0.000756
 41,-0.00003723,0.00012054,0.00000038,0.00084335,0.00051980,0.00042141,
 -0.00001467,0.00006865,-0.00014394,-0.00131670,-0.00025584,-0.00045274
 ,0.00052414,0.00087567,-0.00066958,0.10262652,0.10006165,0.00128520,-0
 .00043215,-0.00039777,-0.00111842,-0.00052650,-0.00165107,0.00018369,-
 0.00010505,0.00008369,-0.00809987,-0.00321925,-0.00131263,-0.00254642,
 0.00283827,0.00508601,0.00077260,-0.00047837,-0.00113016,-0.00232583,0
 .00146309,0.00713522,0.00206365,0.00169986,0.00578567,-0.06288433,-0.0
 2204797,-0.05320934,-0.00027961,0.00015401,-0.00022213,0.00017889,-0.0
 0097379,-0.00011917,0.00003670,-0.00012749,0.00004231,-0.00057498,-0.0
 0017342,0.00072961,0.00027606,-0.00014550,-0.00083160,0.00023153,0.000
 01819,-0.00037938,0.00145453,-0.00066720,-0.00398340,0.07132692,0.0224
 9142,0.04432222,-0.03331641,0.00729731,-0.04236464,-0.00653763,-0.0080
 3379,0.03731291,-0.00690518,0.00000091,0.00248334,-0.00217691,0.000006
 16,-0.00000892,0.00006648,-0.00049569,0.00021352,-0.00012899,0.0000414
 4,-0.00023591,-0.00000927,0.00003465,0.00010236,-0.00002588,0.00002729
 ,-0.00007404,0.00006728,0.00038722,-0.00000664,0.00010224,0.00006727,-
 0.00000772,-0.00007663,-0.00041288,-0.00034961,0.00124172,0.00077679,0
 .00159491,-0.00014973,-0.00003180,0.00002343,0.00000666,-0.00003449,-0
 .00000162,0.00001291,0.00000655,-0.00000678,0.00003853,0.00004285,-0.0
 0003645,0.00015670,-0.00023328,0.00001970,0.04763411,0.00053274,-0.020
 52999,0.09941615,-0.00294577,-0.00233919,-0.00037498,0.00351861,0.0012
 7254,-0.00164023,-0.00100695,-0.00021003,0.00092051,-0.00003999,-0.000
 33674,0.00026857,-0.00011542,-0.00007703,-0.00020311,-0.00014843,-0.00
 004749,0.00010449,0.00020564,-0.00002030,-0.00007340,-0.00003258,-0.00
 060864,0.00007011,-0.00001937,0.00021373,0.00014601,-0.00003841,-0.000
 07357,-0.00004143,-0.00038738,-0.00020877,-0.00117582,-0.00005730,0.00
 010115,0.00003947,0.00000051,-0.00004985,-0.00001399,0.00000093,-0.000
 01188,-0.00000197,-0.00001202,-0.00003435,0.00003911,-0.00000829,0.000
 12039,0.00023183,0.00055347,0.02284003,0.00069505,0.09826722,-0.493882
 91,-0.00255275,0.00103549,-0.00503579,0.00140037,-0.00036361,-0.000652
 05,-0.00087746,0.00021983,0.00092760,0.00050931,-0.00074592,0.00036657
 ,-0.00012127,-0.00014242,-0.00025538,0.00005572,-0.00008909,0.00002752
 ,0.00003233,-0.00022981,-0.00003954,-0.00047048,-0.00016784,-0.0004760
 3,0.00000746,-0.00013470,0.00001933,0.00017315,0.00013870,0.00054425,-
 0.00007590,-0.00018357,0.00005656,0.00004128,0.00012609,0.00021960,-0.
 00000757,-0.00011311,0.00003525,-0.00001681,0.00000380,0.00004774,-0.0
 0005539,-0.00008132,0.00005691,-0.00007922,0.00017158,0.00005190,0.001
 34215,-0.09771132,0.49798846\\0.00003191,-0.00000598,-0.00001450,-0.00
 003542,-0.00001514,0.00001825,0.00001128,0.00000005,-0.00000557,0.0000
 0965,0.00003747,-0.00000991,0.00000234,-0.00001879,0.00000302,-0.00000
 603,0.00001858,-0.00000457,0.00000059,-0.00000060,0.00000191,-0.000001
 11,0.00000453,0.00000208,-0.00000800,-0.00002441,-0.00000261,0.0000046
 1,0.00000066,-0.00000344,0.00000413,-0.00000172,0.00000722,0.00000060,
 -0.00000222,-0.00000205,-0.00000184,0.00000378,-0.00000221,-0.00000413
 ,0.00000617,0.00000041,-0.00000579,0.00000152,0.00000066,-0.00000554,-
 0.00000198,0.00000224,-0.00000039,0.00000282,0.00000254,0.00000313,-0.
 00000472,0.00000654\\\@


 IT IS A SIMPLE TASK TO MAKE THINGS COMPLEX,
 BUT A COMPLEX TASK TO MAKE THEM SIMPLE.
 Job cpu time:       0 days  0 hours 42 minutes 10.3 seconds.
 Elapsed time:       0 days  0 hours  1 minutes 47.3 seconds.
 File lengths (MBytes):  RWF=    129 Int=      0 D2E=      0 Chk=      7 Scr=      1
 Normal termination of Gaussian 16 at Sun Oct 13 23:18:34 2019.
real 271.91
user 6273.57
sys 29.77
Machine:
brown-a333
brown-a333
brown-a333
brown-a333
brown-a333
brown-a333
brown-a333
brown-a333
brown-a333
brown-a333
brown-a333
brown-a333
brown-a333
brown-a333
brown-a333
brown-a333
brown-a333
brown-a333
brown-a333
brown-a333
brown-a333
brown-a333
brown-a333
brown-a333
