Title Card Required                                                     
Freq      RM062X                                                      6-311++G(d,p)       
Number of atoms                            I               18
Info1-9                                    I   N=           9
          46          46        1002           0           0         100
           6          18        -502
Full Title                                 C   N=           2
Title Card Required     
Route                                      C   N=           6
#P opt freq m062x/6-311++g(d,p) geom=connectivity temperatur
e=0.001     
Charge                                     I                1
Multiplicity                               I                1
Number of electrons                        I               74
Number of alpha electrons                  I               37
Number of beta electrons                   I               37
Number of basis functions                  I              269
Number of independent functions            I              268
Number of point charges in /Mol/           I                0
Number of translation vectors              I                0
Atomic numbers                             I   N=          18
           8          16           6           6           6           6
           6           6           6           1           1           1
           1           1           1           1           1           1
Nuclear charges                            R   N=          18
  8.00000000E+00  1.60000000E+01  6.00000000E+00  6.00000000E+00  6.00000000E+00
  6.00000000E+00  6.00000000E+00  6.00000000E+00  6.00000000E+00  1.00000000E+00
  1.00000000E+00  1.00000000E+00  1.00000000E+00  1.00000000E+00  1.00000000E+00
  1.00000000E+00  1.00000000E+00  1.00000000E+00
Current cartesian coordinates              R   N=          54
  4.08126529E+00  1.13645771E+00 -2.12392716E+00  2.94026540E+00 -1.02891527E+00
 -2.52674252E-01  4.12594519E+00  3.11941822E-01  2.62315272E+00 -3.23114247E-01
 -3.56282357E-01 -1.38227306E-01 -1.94517264E+00 -2.42890754E+00 -1.85489501E-01
 -4.52987736E+00 -1.98047135E+00 -2.75592152E-02 -5.42488316E+00  4.84544008E-01
  1.32183631E-01 -3.76348110E+00  2.53442643E+00  1.36637570E-01 -1.17906002E+00
  2.13273222E+00  1.40081397E-02  6.17070239E+00  8.30865550E-02  2.61164642E+00
  3.58214453E+00  2.29643427E+00  2.68180119E+00  3.26992889E+00 -7.47362025E-01
  4.16854002E+00 -1.22064824E+00 -4.33898526E+00 -3.43043958E-01 -5.83462557E+00
 -3.55562419E+00 -5.08653023E-02 -7.44102414E+00  8.22504258E-01  2.37561254E-01
 -4.48829376E+00  4.44516825E+00  2.32879958E-01  1.29420451E-01  3.70855064E+00
 -2.72355316E-02  4.37588674E+00  4.69310848E-01 -3.80531502E+00
Number of symbols in /Mol/                 I                0
Force Field                                I                0
Atom Types                                 C   N=          18
                                                            
                                                            
                                                            
                                    
Int Atom Types                             I   N=          18
           0           0           0           0           0           0
           0           0           0           0           0           0
           0           0           0           0           0           0
MM charges                                 R   N=          18
  0.00000000E+00  0.00000000E+00  0.00000000E+00  0.00000000E+00  0.00000000E+00
  0.00000000E+00  0.00000000E+00  0.00000000E+00  0.00000000E+00  0.00000000E+00
  0.00000000E+00  0.00000000E+00  0.00000000E+00  0.00000000E+00  0.00000000E+00
  0.00000000E+00  0.00000000E+00  0.00000000E+00
Integer atomic weights                     I   N=          18
          16          32          12          12          12          12
          12          12          12           1           1           1
           1           1           1           1           1           1
Real atomic weights                        R   N=          18
  1.59949146E+01  3.19720718E+01  1.20000000E+01  1.20000000E+01  1.20000000E+01
  1.20000000E+01  1.20000000E+01  1.20000000E+01  1.20000000E+01  1.00782504E+00
  1.00782504E+00  1.00782504E+00  1.00782504E+00  1.00782504E+00  1.00782504E+00
  1.00782504E+00  1.00782504E+00  1.00782504E+00
Atom fragment info                         I   N=          18
           0           0           0           0           0           0
           0           0           0           0           0           0
           0           0           0           0           0           0
Atom residue num                           I   N=          18
           0           0           0           0           0           0
           0           0           0           0           0           0
           0           0           0           0           0           0
Nuclear spins                              I   N=          18
           0           0           0           0           0           0
           0           0           0           1           1           1
           1           1           1           1           1           1
Nuclear ZEff                               R   N=          18
 -5.60000000E+00 -1.36000000E+01 -3.60000000E+00 -3.60000000E+00 -3.60000000E+00
 -3.60000000E+00 -3.60000000E+00 -3.60000000E+00 -3.60000000E+00 -1.00000000E+00
 -1.00000000E+00 -1.00000000E+00 -1.00000000E+00 -1.00000000E+00 -1.00000000E+00
 -1.00000000E+00 -1.00000000E+00 -1.00000000E+00
Nuclear ZNuc                               R   N=          18
  8.00000000E+00  1.60000000E+01  6.00000000E+00  6.00000000E+00  6.00000000E+00
  6.00000000E+00  6.00000000E+00  6.00000000E+00  6.00000000E+00  1.00000000E+00
  1.00000000E+00  1.00000000E+00  1.00000000E+00  1.00000000E+00  1.00000000E+00
  1.00000000E+00  1.00000000E+00  1.00000000E+00
Nuclear QMom                               R   N=          18
  0.00000000E+00  0.00000000E+00  0.00000000E+00  0.00000000E+00  0.00000000E+00
  0.00000000E+00  0.00000000E+00  0.00000000E+00  0.00000000E+00  0.00000000E+00
  0.00000000E+00  0.00000000E+00  0.00000000E+00  0.00000000E+00  0.00000000E+00
  0.00000000E+00  0.00000000E+00  0.00000000E+00
Nuclear GFac                               R   N=          18
  0.00000000E+00  0.00000000E+00  0.00000000E+00  0.00000000E+00  0.00000000E+00
  0.00000000E+00  0.00000000E+00  0.00000000E+00  0.00000000E+00  2.79284600E+00
  2.79284600E+00  2.79284600E+00  2.79284600E+00  2.79284600E+00  2.79284600E+00
  2.79284600E+00  2.79284600E+00  2.79284600E+00
MicOpt                                     I   N=          18
          -1          -1          -1          -1          -1          -1
          -1          -1          -1          -1          -1          -1
          -1          -1          -1          -1          -1          -1
Number of residues                         I                0
Number of secondary structures             I                0
Redundant internal dimensions              I   N=           4
          82          18          28          36
Redundant internal coordinate indices      I   N=         328
           1           2           0           0           1          18
           0           0           2           3           0           0
           2           4           0           0           3          10
           0           0           3          11           0           0
           3          12           0           0           4           5
           0           0           4           9           0           0
           5           6           0           0           5          13
           0           0           6           7           0           0
           6          14           0           0           7           8
           0           0           7          15           0           0
           8           9           0           0           8          16
           0           0           9          17           0           0
           2           1          18           0           1           2
           3           0           1           2           4           0
           3           2           4           0           2           3
          10           0           2           3          11           0
           2           3          12           0          10           3
          11           0          10           3          12           0
          11           3          12           0           2           4
           5           0           2           4           9           0
           5           4           9           0           4           5
           6           0           4           5          13           0
           6           5          13           0           5           6
           7           0           5           6          14           0
           7           6          14           0           6           7
           8           0           6           7          15           0
           8           7          15           0           7           8
           9           0           7           8          16           0
           9           8          16           0           4           9
           8           0           4           9          17           0
           8           9          17           0          18           1
           2           3          18           1           2           4
           1           2           3          10           1           2
           3          11           1           2           3          12
           4           2           3          10           4           2
           3          11           4           2           3          12
           1           2           4           5           1           2
           4           9           3           2           4           5
           3           2           4           9           2           4
           5           6           2           4           5          13
           9           4           5           6           9           4
           5          13           2           4           9           8
           2           4           9          17           5           4
           9           8           5           4           9          17
           4           5           6           7           4           5
           6          14          13           5           6           7
          13           5           6          14           5           6
           7           8           5           6           7          15
          14           6           7           8          14           6
           7          15           6           7           8           9
           6           7           8          16          15           7
           8           9          15           7           8          16
           7           8           9           4           7           8
           9          17          16           8           9           4
          16           8           9          17
Redundant internal coordinates             R   N=          82
  3.08095899E+00  1.83274435E+00  3.38734632E+00  3.33394359E+00  2.05755660E+00
  2.05848708E+00  2.05988117E+00  2.63231501E+00  2.63647726E+00  2.62806687E+00
  2.04894019E+00  2.62732828E+00  2.04548712E+00  2.63861603E+00  2.04698462E+00
  2.61832552E+00  2.04586174E+00  2.04866441E+00  1.94002558E+00  1.67881131E+00
  1.81476259E+00  1.80659234E+00  1.87452320E+00  1.88949694E+00  1.86284442E+00
  1.94971865E+00  1.93903994E+00  1.94401284E+00  2.03051447E+00  2.10625361E+00
  2.14637349E+00  2.06077911E+00  2.11472027E+00  2.10768515E+00  2.09298405E+00
  2.08892931E+00  2.10121078E+00  2.11121438E+00  2.08696463E+00  2.08496477E+00
  2.09697302E+00  2.09737042E+00  2.08884061E+00  2.05781256E+00  2.11489991E+00
  2.10989748E+00  2.67435995E+00 -1.76551862E+00 -1.22056590E+00  8.87315596E-01
  2.98184968E+00 -3.07092731E+00 -9.63045811E-01  1.13148827E+00  2.43869978E+00
 -7.12650344E-01 -2.09873353E+00  1.03310165E+00  3.11103736E+00 -3.18819533E-02
 -2.05517178E-02  3.11971427E+00 -3.12480162E+00  5.29290541E-02  6.36705086E-03
 -3.09908758E+00  1.68807261E-02 -3.13655037E+00 -3.12339085E+00  6.36335894E-03
  1.67134528E-04  3.13191321E+00 -3.12950270E+00  2.24338062E-03 -1.47795387E-02
  3.12510137E+00  3.13664855E+00 -6.65584986E-03  1.14026931E-02  3.11696596E+00
 -3.12848660E+00 -2.29233313E-02
ZRed-IntVec                                I   N=          82
           0           0           0           0           0           0
           0           0           0           0           0           0
           0           0           0           0           0           0
           0           0           0           0           0           0
           0           0           0           0           0           0
           0           0           0           0           0           0
           0           0           0           0           0           0
           0           0           0           0           0           0
           0           0           0           0           0           0
           0           0           0           0           0           0
           0           0           0           0           0           0
           0           0           0           0           0           0
           0           0           0           0           0           0
           0           0           0           0
ZRed-FPVec                                 R   N=          82
  0.00000000E+00  0.00000000E+00  0.00000000E+00  0.00000000E+00  0.00000000E+00
  0.00000000E+00  0.00000000E+00  0.00000000E+00  0.00000000E+00  0.00000000E+00
  0.00000000E+00  0.00000000E+00  0.00000000E+00  0.00000000E+00  0.00000000E+00
  0.00000000E+00  0.00000000E+00  0.00000000E+00  0.00000000E+00  0.00000000E+00
  0.00000000E+00  0.00000000E+00  0.00000000E+00  0.00000000E+00  0.00000000E+00
  0.00000000E+00  0.00000000E+00  0.00000000E+00  0.00000000E+00  0.00000000E+00
  0.00000000E+00  0.00000000E+00  0.00000000E+00  0.00000000E+00  0.00000000E+00
  0.00000000E+00  0.00000000E+00  0.00000000E+00  0.00000000E+00  0.00000000E+00
  0.00000000E+00  0.00000000E+00  0.00000000E+00  0.00000000E+00  0.00000000E+00
  0.00000000E+00  0.00000000E+00  0.00000000E+00  0.00000000E+00  0.00000000E+00
  0.00000000E+00  0.00000000E+00  0.00000000E+00  0.00000000E+00  0.00000000E+00
  0.00000000E+00  0.00000000E+00  0.00000000E+00  0.00000000E+00  0.00000000E+00
  0.00000000E+00  0.00000000E+00  0.00000000E+00  0.00000000E+00  0.00000000E+00
  0.00000000E+00  0.00000000E+00  0.00000000E+00  0.00000000E+00  0.00000000E+00
  0.00000000E+00  0.00000000E+00  0.00000000E+00  0.00000000E+00  0.00000000E+00
  0.00000000E+00  0.00000000E+00  0.00000000E+00  0.00000000E+00  0.00000000E+00
  0.00000000E+00  0.00000000E+00
ZRed-Constraint1                           R   N=          82
  3.08095899E+00  1.83274435E+00  3.38734632E+00  3.33394359E+00  2.05755660E+00
  2.05848708E+00  2.05988117E+00  2.63231501E+00  2.63647726E+00  2.62806687E+00
  2.04894019E+00  2.62732828E+00  2.04548712E+00  2.63861603E+00  2.04698462E+00
  2.61832552E+00  2.04586174E+00  2.04866441E+00  1.94002558E+00  1.67881131E+00
  1.81476259E+00  1.80659234E+00  1.87452320E+00  1.88949694E+00  1.86284442E+00
  1.94971865E+00  1.93903994E+00  1.94401284E+00  2.03051447E+00  2.10625361E+00
  2.14637349E+00  2.06077911E+00  2.11472027E+00  2.10768515E+00  2.09298405E+00
  2.08892931E+00  2.10121078E+00  2.11121438E+00  2.08696463E+00  2.08496477E+00
  2.09697302E+00  2.09737042E+00  2.08884061E+00  2.05781256E+00  2.11489991E+00
  2.10989748E+00  2.67435995E+00 -1.76551862E+00 -1.22056590E+00  8.87315596E-01
  2.98184968E+00 -3.07092731E+00 -9.63045811E-01  1.13148827E+00  2.43869978E+00
 -7.12650344E-01 -2.09873353E+00  1.03310165E+00  3.11103736E+00 -3.18819533E-02
 -2.05517178E-02  3.11971427E+00 -3.12480162E+00  5.29290541E-02  6.36705086E-03
 -3.09908758E+00  1.68807261E-02 -3.13655037E+00 -3.12339085E+00  6.36335894E-03
  1.67134528E-04  3.13191321E+00 -3.12950270E+00  2.24338062E-03 -1.47795387E-02
  3.12510137E+00  3.13664855E+00 -6.65584986E-03  1.14026931E-02  3.11696596E+00
 -3.12848660E+00 -2.29233313E-02
ZRed-Constraint2                           R   N=          82
  3.03107128E+00  1.81413708E+00  3.45976829E+00  3.34354133E+00  2.05987396E+00
  2.05976126E+00  2.05975267E+00  2.66477776E+00  2.66900335E+00  2.65718612E+00
  2.05973297E+00  2.66027270E+00  2.05981738E+00  2.65963107E+00  2.05976001E+00
  2.66217930E+00  2.05967375E+00  2.05987870E+00  2.09439510E+00  1.82647223E+00
  1.85178968E+00  1.86038251E+00  1.91063433E+00  1.91060218E+00  1.91060634E+00
  1.91066489E+00  1.91066884E+00  1.91062284E+00  2.07100927E+00  2.12681962E+00
  2.08535288E+00  2.10020464E+00  2.09404088E+00  2.08893978E+00  2.09480862E+00
  2.09319703E+00  2.09517965E+00  2.09394036E+00  2.09479685E+00  2.09444809E+00
  2.09462822E+00  2.09337379E+00  2.09518330E+00  2.09743146E+00  2.09515203E+00
  2.09060181E+00  2.59966401E+00 -1.72006705E+00 -1.36570491E+00  7.28710613E-01
  2.82305749E+00  2.96016440E+00 -1.22860539E+00  8.65741489E-01  2.20924439E+00
 -9.29476830E-01 -2.13416920E+00  1.01029489E+00 -3.13720524E+00  4.50606608E-03
  1.58574452E-03 -3.13988826E+00  3.13948462E+00 -2.20987336E-03  7.86390064E-04
 -3.14090810E+00 -1.92995011E-03  3.13970289E+00  3.13954440E+00 -2.00806919E-03
 -1.07179380E-04  3.14145468E+00  3.14144524E+00 -1.78211010E-04  2.47315952E-03
 -3.13914658E+00 -3.13908870E+00  2.47686769E-03 -2.81479944E-03  3.13887943E+00
  3.13880497E+00 -2.68611333E-03
SymInf integers                            I   N=          26
           1           1           1           1           1           0
           0           0           0           0           0           0
           0           0           0           0           0           0
           0           0           0           0           0           0
           0           0
RotTr to input orientation                 R   N=          12
 -3.12761136E-01 -9.49658562E-01 -1.81407666E-02 -9.04253419E-01  3.03544044E-01
 -3.00311118E-01  2.90699546E-01 -7.75217962E-02 -9.53668782E-01 -6.77256999E-01
 -1.91902462E-01 -1.95397331E-01
Number of contracted shells                I              106
Number of primitive shells                 I              191
Pure/Cartesian d shells                    I                0
Pure/Cartesian f shells                    I                0
Highest angular momentum                   I                2
Largest degree of contraction              I                6
Shell types                                I   N=         106
           0          -1          -1          -1          -1          -2
           0           0           0           0           0           0
          -1           1           1           1           1           1
          -2           0          -1          -1          -1          -1
          -2           0          -1          -1          -1          -1
          -2           0          -1          -1          -1          -1
          -2           0          -1          -1          -1          -1
          -2           0          -1          -1          -1          -1
          -2           0          -1          -1          -1          -1
          -2           0          -1          -1          -1          -1
          -2           0           0           0           0           1
           0           0           0           0           1           0
           0           0           0           1           0           0
           0           0           1           0           0           0
           0           1           0           0           0           0
           1           0           0           0           0           1
           0           0           0           0           1           0
           0           0           0           1
Number of primitives per shell             I   N=         106
           6           3           1           1           1           1
           6           3           1           1           1           1
           1           4           2           1           1           1
           1           6           3           1           1           1
           1           6           3           1           1           1
           1           6           3           1           1           1
           1           6           3           1           1           1
           1           6           3           1           1           1
           1           6           3           1           1           1
           1           6           3           1           1           1
           1           3           1           1           1           1
           3           1           1           1           1           3
           1           1           1           1           3           1
           1           1           1           3           1           1
           1           1           3           1           1           1
           1           3           1           1           1           1
           3           1           1           1           1           3
           1           1           1           1
Shell to atom map                          I   N=         106
           1           1           1           1           1           1
           2           2           2           2           2           2
           2           2           2           2           2           2
           2           3           3           3           3           3
           3           4           4           4           4           4
           4           5           5           5           5           5
           5           6           6           6           6           6
           6           7           7           7           7           7
           7           8           8           8           8           8
           8           9           9           9           9           9
           9          10          10          10          10          10
          11          11          11          11          11          12
          12          12          12          12          13          13
          13          13          13          14          14          14
          14          14          15          15          15          15
          15          16          16          16          16          16
          17          17          17          17          17          18
          18          18          18          18
Primitive exponents                        R   N=         191
  8.58850000E+03  1.29723000E+03  2.99296000E+02  8.73771000E+01  2.56789000E+01
  3.74004000E+00  4.21175000E+01  9.62837000E+00  2.85332000E+00  9.05661000E-01
  2.55611000E-01  8.45000000E-02  1.29200000E+00  9.34134000E+04  1.39617000E+04
  3.16991000E+03  9.02456000E+02  2.97158000E+02  1.08702000E+02  1.08702000E+02
  4.31553000E+01  1.81079000E+01  5.56009000E+00  2.13183000E+00  4.20403000E-01
  1.36045000E-01  4.05000000E-02  4.95040000E+02  1.17221000E+02  3.77749000E+01
  1.40584000E+01  5.56574000E+00  2.26297000E+00  8.07994000E-01  2.77460000E-01
  7.71410000E-02  6.50000000E-01  4.56324000E+03  6.82024000E+02  1.54973000E+02
  4.44553000E+01  1.30290000E+01  1.82773000E+00  2.09642000E+01  4.80331000E+00
  1.45933000E+00  4.83456000E-01  1.45585000E-01  4.38000000E-02  6.26000000E-01
  4.56324000E+03  6.82024000E+02  1.54973000E+02  4.44553000E+01  1.30290000E+01
  1.82773000E+00  2.09642000E+01  4.80331000E+00  1.45933000E+00  4.83456000E-01
  1.45585000E-01  4.38000000E-02  6.26000000E-01  4.56324000E+03  6.82024000E+02
  1.54973000E+02  4.44553000E+01  1.30290000E+01  1.82773000E+00  2.09642000E+01
  4.80331000E+00  1.45933000E+00  4.83456000E-01  1.45585000E-01  4.38000000E-02
  6.26000000E-01  4.56324000E+03  6.82024000E+02  1.54973000E+02  4.44553000E+01
  1.30290000E+01  1.82773000E+00  2.09642000E+01  4.80331000E+00  1.45933000E+00
  4.83456000E-01  1.45585000E-01  4.38000000E-02  6.26000000E-01  4.56324000E+03
  6.82024000E+02  1.54973000E+02  4.44553000E+01  1.30290000E+01  1.82773000E+00
  2.09642000E+01  4.80331000E+00  1.45933000E+00  4.83456000E-01  1.45585000E-01
  4.38000000E-02  6.26000000E-01  4.56324000E+03  6.82024000E+02  1.54973000E+02
  4.44553000E+01  1.30290000E+01  1.82773000E+00  2.09642000E+01  4.80331000E+00
  1.45933000E+00  4.83456000E-01  1.45585000E-01  4.38000000E-02  6.26000000E-01
  4.56324000E+03  6.82024000E+02  1.54973000E+02  4.44553000E+01  1.30290000E+01
  1.82773000E+00  2.09642000E+01  4.80331000E+00  1.45933000E+00  4.83456000E-01
  1.45585000E-01  4.38000000E-02  6.26000000E-01  3.38650000E+01  5.09479000E+00
  1.15879000E+00  3.25840000E-01  1.02741000E-01  3.60000000E-02  7.50000000E-01
  3.38650000E+01  5.09479000E+00  1.15879000E+00  3.25840000E-01  1.02741000E-01
  3.60000000E-02  7.50000000E-01  3.38650000E+01  5.09479000E+00  1.15879000E+00
  3.25840000E-01  1.02741000E-01  3.60000000E-02  7.50000000E-01  3.38650000E+01
  5.09479000E+00  1.15879000E+00  3.25840000E-01  1.02741000E-01  3.60000000E-02
  7.50000000E-01  3.38650000E+01  5.09479000E+00  1.15879000E+00  3.25840000E-01
  1.02741000E-01  3.60000000E-02  7.50000000E-01  3.38650000E+01  5.09479000E+00
  1.15879000E+00  3.25840000E-01  1.02741000E-01  3.60000000E-02  7.50000000E-01
  3.38650000E+01  5.09479000E+00  1.15879000E+00  3.25840000E-01  1.02741000E-01
  3.60000000E-02  7.50000000E-01  3.38650000E+01  5.09479000E+00  1.15879000E+00
  3.25840000E-01  1.02741000E-01  3.60000000E-02  7.50000000E-01  3.38650000E+01
  5.09479000E+00  1.15879000E+00  3.25840000E-01  1.02741000E-01  3.60000000E-02
  7.50000000E-01
Contraction coefficients                   R   N=         191
  1.89515008E-03  1.43859006E-02  7.07320031E-02  2.40001011E-01  5.94797026E-01
  2.80802012E-01  1.13889012E-01  9.20811101E-01 -3.27447036E-03  1.00000000E+00
  1.00000000E+00  1.00000000E+00  1.00000000E+00  7.42999957E-04  5.79299966E-03
  2.99539983E-02  1.19027993E-01  3.68431979E-01  5.77298966E-01  1.43186060E-01
  6.24465262E-01  2.83366119E-01  1.00000000E+00  1.00000000E+00  1.00000000E+00
  1.00000000E+00  1.00000000E+00  8.30900251E-03  6.40240194E-02  2.77614084E-01
  7.45076225E-01  6.13711672E-01  4.43817763E-01  1.00000000E+00  1.00000000E+00
  1.00000000E+00  1.00000000E+00  1.96665025E-03  1.52306019E-02  7.61269097E-02
  2.60801033E-01  6.16462078E-01  2.21006028E-01  1.14660081E-01  9.19999648E-01
 -3.03068213E-03  1.00000000E+00  1.00000000E+00  1.00000000E+00  1.00000000E+00
  1.96665025E-03  1.52306019E-02  7.61269097E-02  2.60801033E-01  6.16462078E-01
  2.21006028E-01  1.14660081E-01  9.19999648E-01 -3.03068213E-03  1.00000000E+00
  1.00000000E+00  1.00000000E+00  1.00000000E+00  1.96665025E-03  1.52306019E-02
  7.61269097E-02  2.60801033E-01  6.16462078E-01  2.21006028E-01  1.14660081E-01
  9.19999648E-01 -3.03068213E-03  1.00000000E+00  1.00000000E+00  1.00000000E+00
  1.00000000E+00  1.96665025E-03  1.52306019E-02  7.61269097E-02  2.60801033E-01
  6.16462078E-01  2.21006028E-01  1.14660081E-01  9.19999648E-01 -3.03068213E-03
  1.00000000E+00  1.00000000E+00  1.00000000E+00  1.00000000E+00  1.96665025E-03
  1.52306019E-02  7.61269097E-02  2.60801033E-01  6.16462078E-01  2.21006028E-01
  1.14660081E-01  9.19999648E-01 -3.03068213E-03  1.00000000E+00  1.00000000E+00
  1.00000000E+00  1.00000000E+00  1.96665025E-03  1.52306019E-02  7.61269097E-02
  2.60801033E-01  6.16462078E-01  2.21006028E-01  1.14660081E-01  9.19999648E-01
 -3.03068213E-03  1.00000000E+00  1.00000000E+00  1.00000000E+00  1.00000000E+00
  1.96665025E-03  1.52306019E-02  7.61269097E-02  2.60801033E-01  6.16462078E-01
  2.21006028E-01  1.14660081E-01  9.19999648E-01 -3.03068213E-03  1.00000000E+00
  1.00000000E+00  1.00000000E+00  1.00000000E+00  2.54938145E-02  1.90373109E-01
  8.52161486E-01  1.00000000E+00  1.00000000E+00  1.00000000E+00  1.00000000E+00
  2.54938145E-02  1.90373109E-01  8.52161486E-01  1.00000000E+00  1.00000000E+00
  1.00000000E+00  1.00000000E+00  2.54938145E-02  1.90373109E-01  8.52161486E-01
  1.00000000E+00  1.00000000E+00  1.00000000E+00  1.00000000E+00  2.54938145E-02
  1.90373109E-01  8.52161486E-01  1.00000000E+00  1.00000000E+00  1.00000000E+00
  1.00000000E+00  2.54938145E-02  1.90373109E-01  8.52161486E-01  1.00000000E+00
  1.00000000E+00  1.00000000E+00  1.00000000E+00  2.54938145E-02  1.90373109E-01
  8.52161486E-01  1.00000000E+00  1.00000000E+00  1.00000000E+00  1.00000000E+00
  2.54938145E-02  1.90373109E-01  8.52161486E-01  1.00000000E+00  1.00000000E+00
  1.00000000E+00  1.00000000E+00  2.54938145E-02  1.90373109E-01  8.52161486E-01
  1.00000000E+00  1.00000000E+00  1.00000000E+00  1.00000000E+00  2.54938145E-02
  1.90373109E-01  8.52161486E-01  1.00000000E+00  1.00000000E+00  1.00000000E+00
  1.00000000E+00
P(S=P) Contraction coefficients            R   N=         191
  0.00000000E+00  0.00000000E+00  0.00000000E+00  0.00000000E+00  0.00000000E+00
  0.00000000E+00  3.65113974E-02  2.37152983E-01  8.19701941E-01  1.00000000E+00
  1.00000000E+00  1.00000000E+00  0.00000000E+00  0.00000000E+00  0.00000000E+00
  0.00000000E+00  0.00000000E+00  0.00000000E+00  0.00000000E+00  0.00000000E+00
  0.00000000E+00  0.00000000E+00  0.00000000E+00  0.00000000E+00  0.00000000E+00
  0.00000000E+00  1.00000000E+00  0.00000000E+00  0.00000000E+00  0.00000000E+00
  0.00000000E+00  0.00000000E+00  0.00000000E+00  0.00000000E+00  0.00000000E+00
  0.00000000E+00  0.00000000E+00  0.00000000E+00  0.00000000E+00  0.00000000E+00