Title Card Required                                                     
Freq      RM062X                                                      6-311++G(d,p)       
Number of atoms                            I               18
Info1-9                                    I   N=           9
          46          46        1002           0           0         100
           6          18        -502
Full Title                                 C   N=           2
Title Card Required     
Route                                      C   N=           6
#P opt freq m062x/6-311++g(d,p) geom=connectivity temperatur
e=0.001     
Charge                                     I                0
Multiplicity                               I                1
Number of electrons                        I               80
Number of alpha electrons                  I               40
Number of beta electrons                   I               40
Number of basis functions                  I              284
Number of independent functions            I              283
Number of point charges in /Mol/           I                0
Number of translation vectors              I                0
Atomic numbers                             I   N=          18
           8          16           6           6           6           6
           6           6           6           6           1           1
           1           1           1           1           1           1
Nuclear charges                            R   N=          18
  8.00000000E+00  1.60000000E+01  6.00000000E+00  6.00000000E+00  6.00000000E+00
  6.00000000E+00  6.00000000E+00  6.00000000E+00  6.00000000E+00  6.00000000E+00
  1.00000000E+00  1.00000000E+00  1.00000000E+00  1.00000000E+00  1.00000000E+00
  1.00000000E+00  1.00000000E+00  1.00000000E+00
Current cartesian coordinates              R   N=          54
 -3.72861186E+00 -3.12808144E+00 -8.05664682E-02 -2.87868444E+00 -6.72359414E-01
 -1.24500745E+00 -4.04566771E+00  1.76848355E+00  8.32402119E-01 -2.71301235E+00
  3.49624172E+00  2.05571205E+00  4.49388740E-01 -3.51786718E-01 -5.93025499E-01
  1.87653257E+00  1.41810939E+00 -1.90785293E+00  4.44231369E+00  1.62688530E+00
 -1.37646736E+00  5.54042922E+00  6.04361233E-02  4.31306453E-01  4.08605559E+00
 -1.72289439E+00  1.70657788E+00  1.51571301E+00 -1.94115863E+00  1.19738142E+00
 -6.08793344E+00  1.63180131E+00  9.65965286E-01 -3.66734935E+00  4.87031475E+00
  3.23872283E+00 -6.71264008E-01  3.60473960E+00  1.93667529E+00  9.97622640E-01
  2.61131183E+00 -3.32535332E+00  5.58400132E+00  2.99711378E+00 -2.38132054E+00
  7.54216369E+00  2.18251960E-01  8.31548302E-01  4.95586436E+00 -2.95132397E+00
  3.09436808E+00  3.24224195E-01 -3.32570518E+00  2.12784030E+00
Number of symbols in /Mol/                 I                0
Force Field                                I                0
Atom Types                                 C   N=          18
                                                            
                                                            
                                                            
                                    
Int Atom Types                             I   N=          18
           0           0           0           0           0           0
           0           0           0           0           0           0
           0           0           0           0           0           0
MM charges                                 R   N=          18
  0.00000000E+00  0.00000000E+00  0.00000000E+00  0.00000000E+00  0.00000000E+00
  0.00000000E+00  0.00000000E+00  0.00000000E+00  0.00000000E+00  0.00000000E+00
  0.00000000E+00  0.00000000E+00  0.00000000E+00  0.00000000E+00  0.00000000E+00
  0.00000000E+00  0.00000000E+00  0.00000000E+00
Integer atomic weights                     I   N=          18
          16          32          12          12          12          12
          12          12          12          12           1           1
           1           1           1           1           1           1
Real atomic weights                        R   N=          18
  1.59949146E+01  3.19720718E+01  1.20000000E+01  1.20000000E+01  1.20000000E+01
  1.20000000E+01  1.20000000E+01  1.20000000E+01  1.20000000E+01  1.20000000E+01
  1.00782504E+00  1.00782504E+00  1.00782504E+00  1.00782504E+00  1.00782504E+00
  1.00782504E+00  1.00782504E+00  1.00782504E+00
Atom fragment info                         I   N=          18
           0           0           0           0           0           0
           0           0           0           0           0           0
           0           0           0           0           0           0
Atom residue num                           I   N=          18
           0           0           0           0           0           0
           0           0           0           0           0           0
           0           0           0           0           0           0
Nuclear spins                              I   N=          18
           0           0           0           0           0           0
           0           0           0           0           1           1
           1           1           1           1           1           1
Nuclear ZEff                               R   N=          18
 -5.60000000E+00 -1.36000000E+01 -3.60000000E+00 -3.60000000E+00 -3.60000000E+00
 -3.60000000E+00 -3.60000000E+00 -3.60000000E+00 -3.60000000E+00 -3.60000000E+00
 -1.00000000E+00 -1.00000000E+00 -1.00000000E+00 -1.00000000E+00 -1.00000000E+00
 -1.00000000E+00 -1.00000000E+00 -1.00000000E+00
Nuclear ZNuc                               R   N=          18
  8.00000000E+00  1.60000000E+01  6.00000000E+00  6.00000000E+00  6.00000000E+00
  6.00000000E+00  6.00000000E+00  6.00000000E+00  6.00000000E+00  6.00000000E+00
  1.00000000E+00  1.00000000E+00  1.00000000E+00  1.00000000E+00  1.00000000E+00
  1.00000000E+00  1.00000000E+00  1.00000000E+00
Nuclear QMom                               R   N=          18
  0.00000000E+00  0.00000000E+00  0.00000000E+00  0.00000000E+00  0.00000000E+00
  0.00000000E+00  0.00000000E+00  0.00000000E+00  0.00000000E+00  0.00000000E+00
  0.00000000E+00  0.00000000E+00  0.00000000E+00  0.00000000E+00  0.00000000E+00
  0.00000000E+00  0.00000000E+00  0.00000000E+00
Nuclear GFac                               R   N=          18
  0.00000000E+00  0.00000000E+00  0.00000000E+00  0.00000000E+00  0.00000000E+00
  0.00000000E+00  0.00000000E+00  0.00000000E+00  0.00000000E+00  0.00000000E+00
  2.79284600E+00  2.79284600E+00  2.79284600E+00  2.79284600E+00  2.79284600E+00
  2.79284600E+00  2.79284600E+00  2.79284600E+00
MicOpt                                     I   N=          18
          -1          -1          -1          -1          -1          -1
          -1          -1          -1          -1          -1          -1
          -1          -1          -1          -1          -1          -1
Number of residues                         I                0
Number of secondary structures             I                0
Redundant internal dimensions              I   N=           4
          81          18          27          36
Redundant internal coordinate indices      I   N=         324
           1           2           0           0           2           3
           0           0           2           5           0           0
           3           4           0           0           3          11
           0           0           4          12           0           0
           4          13           0           0           5           6
           0           0           5          10           0           0
           6           7           0           0           6          14
           0           0           7           8           0           0
           7          15           0           0           8           9
           0           0           8          16           0           0
           9          10           0           0           9          17
           0           0          10          18           0           0
           1           2           3           0           1           2
           5           0           3           2           5           0
           2           3           4           0           2           3
          11           0           4           3          11           0
           3           4          12           0           3           4
          13           0          12           4          13           0
           2           5           6           0           2           5
          10           0           6           5          10           0
           5           6           7           0           5           6
          14           0           7           6          14           0
           6           7           8           0           6           7
          15           0           8           7          15           0
           7           8           9           0           7           8
          16           0           9           8          16           0
           8           9          10           0           8           9
          17           0          10           9          17           0
           5          10           9           0           5          10
          18           0           9          10          18           0
           1           2           3           4           1           2
           3          11           5           2           3           4
           5           2           3          11           1           2
           5           6           1           2           5          10
           3           2           5           6           3           2
           5          10           2           3           4          12
           2           3           4          13          11           3
           4          12          11           3           4          13
           2           5           6           7           2           5
           6          14          10           5           6           7
          10           5           6          14           2           5
          10           9           2           5          10          18
           6           5          10           9           6           5
          10          18           5           6           7           8
           5           6           7          15          14           6
           7           8          14           6           7          15
           6           7           8           9           6           7
           8          16          15           7           8           9
          15           7           8          16           7           8
           9          10           7           8           9          17
          16           8           9          10          16           8
           9          17           8           9          10           5
           8           9          10          18          17           9
          10           5          17           9          10          18
Redundant internal coordinates             R   N=          81
  2.84760779E+00  3.41104014E+00  3.40645247E+00  2.50152070E+00  2.05118757E+00
  2.04898763E+00  2.04809126E+00  2.62641256E+00  2.62082190E+00  2.62853396E+00
  2.05073696E+00  2.63204614E+00  2.04712155E+00  2.63092904E+00  2.04744726E+00
  2.62936899E+00  2.04733196E+00  2.04996793E+00  1.83997563E+00  1.86972242E+00
  1.72171041E+00  2.22660777E+00  1.90986138E+00  2.14671087E+00  2.09139243E+00
  2.14034806E+00  2.05143882E+00  2.09264085E+00  2.06143115E+00  2.12890368E+00
  2.07456367E+00  2.10046028E+00  2.10816029E+00  2.09304386E+00  2.09245682E+00
  2.09765055E+00  2.10098856E+00  2.09011157E+00  2.09202725E+00  2.09761472E+00
  2.09488516E+00  2.09067675E+00  2.07109588E+00  2.07508224E+00  2.13689248E+00
  2.11032106E+00 -1.02782632E+00  1.80928984E-01 -2.95721840E+00  2.88455558E+00
 -2.35470472E-01 -1.49328514E+00  1.66987412E+00  3.13259800E+00 -1.28106185E-02
 -1.28686725E-02  3.12490802E+00 -3.13893412E+00  1.10167492E-03 -1.97669242E-02
  3.12026887E+00  3.13485131E+00  9.13441356E-03  1.52993076E-02 -3.11041759E+00
  9.85297306E-03 -3.14059359E+00 -3.13017572E+00  2.56302238E-03  3.94509356E-03
  3.13395529E+00 -3.12876702E+00  1.24317644E-03 -8.47368482E-03  3.12863232E+00
 -3.13847116E+00 -1.36515807E-03 -9.76943757E-04  3.12414703E+00 -3.13809380E+00
 -1.29698204E-02
ZRed-IntVec                                I   N=          81
           0           0           0           0           0           0
           0           0           0           0           0           0
           0           0           0           0           0           0
           0           0           0           0           0           0
           0           0           0           0           0           0
           0           0           0           0           0           0
           0           0           0           0           0           0
           0           0           0           0           0           0
           0           0           0           0           0           0
           0           0           0           0           0           0
           0           0           0           0           0           0
           0           0           0           0           0           0
           0           0           0           0           0           0
           0           0           0
ZRed-FPVec                                 R   N=          81
  0.00000000E+00  0.00000000E+00  0.00000000E+00  0.00000000E+00  0.00000000E+00
  0.00000000E+00  0.00000000E+00  0.00000000E+00  0.00000000E+00  0.00000000E+00
  0.00000000E+00  0.00000000E+00  0.00000000E+00  0.00000000E+00  0.00000000E+00
  0.00000000E+00  0.00000000E+00  0.00000000E+00  0.00000000E+00  0.00000000E+00
  0.00000000E+00  0.00000000E+00  0.00000000E+00  0.00000000E+00  0.00000000E+00
  0.00000000E+00  0.00000000E+00  0.00000000E+00  0.00000000E+00  0.00000000E+00
  0.00000000E+00  0.00000000E+00  0.00000000E+00  0.00000000E+00  0.00000000E+00
  0.00000000E+00  0.00000000E+00  0.00000000E+00  0.00000000E+00  0.00000000E+00
  0.00000000E+00  0.00000000E+00  0.00000000E+00  0.00000000E+00  0.00000000E+00
  0.00000000E+00  0.00000000E+00  0.00000000E+00  0.00000000E+00  0.00000000E+00
  0.00000000E+00  0.00000000E+00  0.00000000E+00  0.00000000E+00  0.00000000E+00
  0.00000000E+00  0.00000000E+00  0.00000000E+00  0.00000000E+00  0.00000000E+00
  0.00000000E+00  0.00000000E+00  0.00000000E+00  0.00000000E+00  0.00000000E+00
  0.00000000E+00  0.00000000E+00  0.00000000E+00  0.00000000E+00  0.00000000E+00
  0.00000000E+00  0.00000000E+00  0.00000000E+00  0.00000000E+00  0.00000000E+00
  0.00000000E+00  0.00000000E+00  0.00000000E+00  0.00000000E+00  0.00000000E+00
  0.00000000E+00
ZRed-Constraint1                           R   N=          81
  2.84760779E+00  3.41104014E+00  3.40645247E+00  2.50152070E+00  2.05118757E+00
  2.04898763E+00  2.04809126E+00  2.62641256E+00  2.62082190E+00  2.62853396E+00
  2.05073696E+00  2.63204614E+00  2.04712155E+00  2.63092904E+00  2.04744726E+00
  2.62936899E+00  2.04733196E+00  2.04996793E+00  1.83997563E+00  1.86972242E+00
  1.72171041E+00  2.22660777E+00  1.90986138E+00  2.14671087E+00  2.09139243E+00
  2.14034806E+00  2.05143882E+00  2.09264085E+00  2.06143115E+00  2.12890368E+00
  2.07456367E+00  2.10046028E+00  2.10816029E+00  2.09304386E+00  2.09245682E+00
  2.09765055E+00  2.10098856E+00  2.09011157E+00  2.09202725E+00  2.09761472E+00
  2.09488516E+00  2.09067675E+00  2.07109588E+00  2.07508224E+00  2.13689248E+00
  2.11032106E+00 -1.02782632E+00  1.80928984E-01 -2.95721840E+00  2.88455558E+00
 -2.35470472E-01 -1.49328514E+00  1.66987412E+00  3.13259800E+00 -1.28106185E-02
 -1.28686725E-02  3.12490802E+00 -3.13893412E+00  1.10167492E-03 -1.97669242E-02
  3.12026887E+00  3.13485131E+00  9.13441356E-03  1.52993076E-02 -3.11041759E+00
  9.85297306E-03 -3.14059359E+00 -3.13017572E+00  2.56302238E-03  3.94509356E-03
  3.13395529E+00 -3.12876702E+00  1.24317644E-03 -8.47368482E-03  3.12863232E+00
 -3.13847116E+00 -1.36515807E-03 -9.76943757E-04  3.12414703E+00 -3.13809380E+00
 -1.29698204E-02
ZRed-Constraint2                           R   N=          81
  3.03685660E+00  3.29917339E+00  3.35338365E+00  2.52571648E+00  2.05978228E+00
  2.05980864E+00  2.05972232E+00  2.66557832E+00  2.66892438E+00  2.65932435E+00
  2.05969105E+00  2.65964696E+00  2.05985343E+00  2.65828321E+00  2.05977433E+00
  2.66069704E+00  2.05983776E+00  2.05969802E+00  1.83156444E+00  1.82801691E+00
  1.92261782E+00  2.17954443E+00  2.30091077E+00  1.80273010E+00  2.09432861E+00
  2.09436975E+00  2.09448694E+00  2.07457251E+00  2.12286290E+00  2.08538881E+00
  2.09628574E+00  2.09557598E+00  2.09132358E+00  2.09775008E+00  2.09247192E+00
  2.09296330E+00  2.09388119E+00  2.09510928E+00  2.09419484E+00  2.09264051E+00
  2.09453804E+00  2.09600676E+00  2.10036224E+00  2.09423597E+00  2.08858709E+00
  2.24812317E+00 -8.93368077E-01  2.89225169E-01 -2.85226608E+00  2.24019994E+00
 -8.72357823E-01 -2.08179591E+00  1.08883164E+00 -2.12799734E+00  1.01359260E+00
  1.01351768E+00 -2.12807769E+00 -3.10813141E+00  3.36219901E-02  5.06195851E-03
 -3.13636995E+00  3.10318645E+00 -3.84128762E-02 -9.19539677E-03  3.13239058E+00
  4.62533295E-03 -3.13698886E+00 -3.13712767E+00  4.44344952E-03 -1.02430196E-02
  3.13129809E+00  3.13137117E+00 -1.02730270E-02  6.10719058E-03 -3.13551230E+00
 -3.13543394E+00  6.13187350E-03  3.62895714E-03 -3.13795705E+00 -3.13793684E+00
  3.66246882E-03
SymInf integers                            I   N=          26
           1           1           1           1           1           0
           0           0           0           0           0           0
           0           0           0           0           0           0
           0           0           0           0           0           0
           0           0
RotTr to input orientation                 R   N=          12
  3.68433726E-01  9.23759194E-01  1.04525317E-01  6.28654896E-01 -1.64734051E-01
 -7.60036653E-01 -6.84871967E-01  3.45733488E-01 -6.41419320E-01 -1.00628086E+00
 -1.66904588E-01 -5.34536513E-01
Number of contracted shells                I              107
Number of primitive shells                 I              197
Pure/Cartesian d shells                    I                0
Pure/Cartesian f shells                    I                0
Highest angular momentum                   I                2
Largest degree of contraction              I                6
Shell types                                I   N=         107
           0          -1          -1          -1          -1          -2
           0           0           0           0           0           0
          -1           1           1           1           1           1
          -2           0          -1          -1          -1          -1
          -2           0          -1          -1          -1          -1
          -2           0          -1          -1          -1          -1
          -2           0          -1          -1          -1          -1
          -2           0          -1          -1          -1          -1
          -2           0          -1          -1          -1          -1
          -2           0          -1          -1          -1          -1
          -2           0          -1          -1          -1          -1
          -2           0           0           0           0           1
           0           0           0           0           1           0
           0           0           0           1           0           0
           0           0           1           0           0           0
           0           1           0           0           0           0
           1           0           0           0           0           1
           0           0           0           0           1
Number of primitives per shell             I   N=         107
           6           3           1           1           1           1
           6           3           1           1           1           1
           1           4           2           1           1           1
           1           6           3           1           1           1
           1           6           3           1           1           1
           1           6           3           1           1           1
           1           6           3           1           1           1
           1           6           3           1           1           1
           1           6           3           1           1           1
           1           6           3           1           1           1
           1           6           3           1           1           1
           1           3           1           1           1           1
           3           1           1           1           1           3
           1           1           1           1           3           1
           1           1           1           3           1           1
           1           1           3           1           1           1
           1           3           1           1           1           1
           3           1           1           1           1
Shell to atom map                          I   N=         107
           1           1           1           1           1           1
           2           2           2           2           2           2
           2           2           2           2           2           2
           2           3           3           3           3           3
           3           4           4           4           4           4
           4           5           5           5           5           5
           5           6           6           6           6           6
           6           7           7           7           7           7
           7           8           8           8           8           8
           8           9           9           9           9           9
           9          10          10          10          10          10
          10          11          11          11          11          11
          12          12          12          12          12          13
          13          13          13          13          14          14
          14          14          14          15          15          15
          15          15          16          16          16          16
          16          17          17          17          17          17
          18          18          18          18          18
Primitive exponents                        R   N=         197
  8.58850000E+03  1.29723000E+03  2.99296000E+02  8.73771000E+01  2.56789000E+01
  3.74004000E+00  4.21175000E+01  9.62837000E+00  2.85332000E+00  9.05661000E-01
  2.55611000E-01  8.45000000E-02  1.29200000E+00  9.34134000E+04  1.39617000E+04
  3.16991000E+03  9.02456000E+02  2.97158000E+02  1.08702000E+02  1.08702000E+02
  4.31553000E+01  1.81079000E+01  5.56009000E+00  2.13183000E+00  4.20403000E-01
  1.36045000E-01  4.05000000E-02  4.95040000E+02  1.17221000E+02  3.77749000E+01
  1.40584000E+01  5.56574000E+00  2.26297000E+00  8.07994000E-01  2.77460000E-01
  7.71410000E-02  6.50000000E-01  4.56324000E+03  6.82024000E+02  1.54973000E+02
  4.44553000E+01  1.30290000E+01  1.82773000E+00  2.09642000E+01  4.80331000E+00
  1.45933000E+00  4.83456000E-01  1.45585000E-01  4.38000000E-02  6.26000000E-01
  4.56324000E+03  6.82024000E+02  1.54973000E+02  4.44553000E+01  1.30290000E+01
  1.82773000E+00  2.09642000E+01  4.80331000E+00  1.45933000E+00  4.83456000E-01
  1.45585000E-01  4.38000000E-02  6.26000000E-01  4.56324000E+03  6.82024000E+02
  1.54973000E+02  4.44553000E+01  1.30290000E+01  1.82773000E+00  2.09642000E+01
  4.80331000E+00  1.45933000E+00  4.83456000E-01  1.45585000E-01  4.38000000E-02
  6.26000000E-01  4.56324000E+03  6.82024000E+02  1.54973000E+02  4.44553000E+01
  1.30290000E+01  1.82773000E+00  2.09642000E+01  4.80331000E+00  1.45933000E+00
  4.83456000E-01  1.45585000E-01  4.38000000E-02  6.26000000E-01  4.56324000E+03
  6.82024000E+02  1.54973000E+02  4.44553000E+01  1.30290000E+01  1.82773000E+00
  2.09642000E+01  4.80331000E+00  1.45933000E+00  4.83456000E-01  1.45585000E-01
  4.38000000E-02  6.26000000E-01  4.56324000E+03  6.82024000E+02  1.54973000E+02
  4.44553000E+01  1.30290000E+01  1.82773000E+00  2.09642000E+01  4.80331000E+00
  1.45933000E+00  4.83456000E-01  1.45585000E-01  4.38000000E-02  6.26000000E-01
  4.56324000E+03  6.82024000E+02  1.54973000E+02  4.44553000E+01  1.30290000E+01
  1.82773000E+00  2.09642000E+01  4.80331000E+00  1.45933000E+00  4.83456000E-01
  1.45585000E-01  4.38000000E-02  6.26000000E-01  4.56324000E+03  6.82024000E+02
  1.54973000E+02  4.44553000E+01  1.30290000E+01  1.82773000E+00  2.09642000E+01
  4.80331000E+00  1.45933000E+00  4.83456000E-01  1.45585000E-01  4.38000000E-02
  6.26000000E-01  3.38650000E+01  5.09479000E+00  1.15879000E+00  3.25840000E-01
  1.02741000E-01  3.60000000E-02  7.50000000E-01  3.38650000E+01  5.09479000E+00
  1.15879000E+00  3.25840000E-01  1.02741000E-01  3.60000000E-02  7.50000000E-01
  3.38650000E+01  5.09479000E+00  1.15879000E+00  3.25840000E-01  1.02741000E-01
  3.60000000E-02  7.50000000E-01  3.38650000E+01  5.09479000E+00  1.15879000E+00
  3.25840000E-01  1.02741000E-01  3.60000000E-02  7.50000000E-01  3.38650000E+01
  5.09479000E+00  1.15879000E+00  3.25840000E-01  1.02741000E-01  3.60000000E-02
  7.50000000E-01  3.38650000E+01  5.09479000E+00  1.15879000E+00  3.25840000E-01
  1.02741000E-01  3.60000000E-02  7.50000000E-01  3.38650000E+01  5.09479000E+00
  1.15879000E+00  3.25840000E-01  1.02741000E-01  3.60000000E-02  7.50000000E-01
  3.38650000E+01  5.09479000E+00  1.15879000E+00  3.25840000E-01  1.02741000E-01
  3.60000000E-02  7.50000000E-01
Contraction coefficients                   R   N=         197
  1.89515008E-03  1.43859006E-02  7.07320031E-02  2.40001011E-01  5.94797026E-01
  2.80802012E-01  1.13889012E-01  9.20811101E-01 -3.27447036E-03  1.00000000E+00
  1.00000000E+00  1.00000000E+00  1.00000000E+00  7.42999957E-04  5.79299966E-03
  2.99539983E-02  1.19027993E-01  3.68431979E-01  5.77298966E-01  1.43186060E-01
  6.24465262E-01  2.83366119E-01  1.00000000E+00  1.00000000E+00  1.00000000E+00
  1.00000000E+00  1.00000000E+00  8.30900251E-03  6.40240194E-02  2.77614084E-01
  7.45076225E-01  6.13711672E-01  4.43817763E-01  1.00000000E+00  1.00000000E+00
  1.00000000E+00  1.00000000E+00  1.96665025E-03  1.52306019E-02  7.61269097E-02
  2.60801033E-01  6.16462078E-01  2.21006028E-01  1.14660081E-01  9.19999648E-01
 -3.03068213E-03  1.00000000E+00  1.00000000E+00  1.00000000E+00  1.00000000E+00
  1.96665025E-03  1.52306019E-02  7.61269097E-02  2.60801033E-01  6.16462078E-01
  2.21006028E-01  1.14660081E-01  9.19999648E-01 -3.03068213E-03  1.00000000E+00
  1.00000000E+00  1.00000000E+00  1.00000000E+00  1.96665025E-03  1.52306019E-02
  7.61269097E-02  2.60801033E-01  6.16462078E-01  2.21006028E-01  1.14660081E-01
  9.19999648E-01 -3.03068213E-03  1.00000000E+00  1.00000000E+00  1.00000000E+00
  1.00000000E+00  1.96665025E-03  1.52306019E-02  7.61269097E-02  2.60801033E-01
  6.16462078E-01  2.21006028E-01  1.14660081E-01  9.19999648E-01 -3.03068213E-03
  1.00000000E+00  1.00000000E+00  1.00000000E+00  1.00000000E+00  1.96665025E-03
  1.52306019E-02  7.61269097E-02  2.60801033E-01  6.16462078E-01  2.21006028E-01
  1.14660081E-01  9.19999648E-01 -3.03068213E-03  1.00000000E+00  1.00000000E+00
  1.00000000E+00  1.00000000E+00  1.96665025E-03  1.52306019E-02  7.61269097E-02
  2.60801033E-01  6.16462078E-01  2.21006028E-01  1.14660081E-01  9.19999648E-01
 -3.03068213E-03  1.00000000E+00  1.00000000E+00  1.00000000E+00  1.00000000E+00
  1.96665025E-03  1.52306019E-02  7.61269097E-02  2.60801033E-01  6.16462078E-01
  2.21006028E-01  1.14660081E-01  9.19999648E-01 -3.03068213E-03  1.00000000E+00
  1.00000000E+00  1.00000000E+00  1.00000000E+00  1.96665025E-03  1.52306019E-02
  7.61269097E-02  2.60801033E-01  6.16462078E-01  2.21006028E-01  1.14660081E-01
  9.19999648E-01 -3.03068213E-03  1.00000000E+00  1.00000000E+00  1.00000000E+00
  1.00000000E+00  2.54938145E-02  1.90373109E-01  8.52161486E-01  1.00000000E+00
  1.00000000E+00  1.00000000E+00  1.00000000E+00  2.54938145E-02  1.90373109E-01
  8.52161486E-01  1.00000000E+00  1.00000000E+00  1.00000000E+00  1.00000000E+00
  2.54938145E-02  1.90373109E-01  8.52161486E-01  1.00000000E+00  1.00000000E+00
  1.00000000E+00  1.00000000E+00  2.54938145E-02  1.90373109E-01  8.52161486E-01
  1.00000000E+00  1.00000000E+00  1.00000000E+00  1.00000000E+00  2.54938145E-02
  1.90373109E-01  8.52161486E-01  1.00000000E+00  1.00000000E+00  1.00000000E+00
  1.00000000E+00  2.54938145E-02  1.90373109E-01  8.52161486E-01  1.00000000E+00
  1.00000000E+00  1.00000000E+00  1.00000000E+00  2.54938145E-02  1.90373109E-01
  8.52161486E-01  1.00000000E+00  1.00000000E+00  1.00000000E+00  1.00000000E+00
  2.54938145E-02  1.90373109E-01  8.52161486E-01  1.00000000E+00  1.00000000E+00
  1.00000000E+00  1.00000000E+00
P(S=P) Contraction coefficients            R   N=         197
  0.00000000E+00  0.00000000E+00  0.00000000E+00  0.00000000E+00  0.00000000E+00
  0.00000000E+00  3.65113974E-02  2.37152983E-01  8.19701941E-01  1.00000000E+00
  1.00000000E+00  1.00000000E+00  0.00000000E+00  0.00000000E+00  0.00000000E+00
  0.00000000E+00  0.00000000E+00  0.00000000E+00  0.00000000E+00  0.00000000E+00
  0.00000000E+00  0.00000000E+00  0.00000000E+00  0.00000000E+00  0.00000000E+00
  0.00000000E+00  1.00000000E+00  0.00000000E+00  0.00000000E+00  0.00000000E+00
  0.00000000E+00  0.00000000E+00  0.00000000E+00  0.00000000E+00  0.00000000E+00