 Entering Gaussian System, Link 0=/apps/cent7/gaussian/g16-A.03/g16-haswell/g16/g16
 Initial command:
 /apps/cent7/gaussian/g16-A.03/g16-haswell/g16/l1.exe "/scratch/brown/finej/gaussian/Gau-161398.inp" -scrdir="/scratch/brown/finej/gaussian/"
 Entering Link 1 = /apps/cent7/gaussian/g16-A.03/g16-haswell/g16/l1.exe PID=    161401.
  
 Copyright (c) 1988,1990,1992,1993,1995,1998,2003,2009,2016,
            Gaussian, Inc.  All Rights Reserved.
  
 This is part of the Gaussian(R) 16 program.  It is based on
 the Gaussian(R) 09 system (copyright 2009, Gaussian, Inc.),
 the Gaussian(R) 03 system (copyright 2003, Gaussian, Inc.),
 the Gaussian(R) 98 system (copyright 1998, Gaussian, Inc.),
 the Gaussian(R) 94 system (copyright 1995, Gaussian, Inc.),
 the Gaussian 92(TM) system (copyright 1992, Gaussian, Inc.),
 the Gaussian 90(TM) system (copyright 1990, Gaussian, Inc.),
 the Gaussian 88(TM) system (copyright 1988, Gaussian, Inc.),
 the Gaussian 86(TM) system (copyright 1986, Carnegie Mellon
 University), and the Gaussian 82(TM) system (copyright 1983,
 Carnegie Mellon University). Gaussian is a federally registered
 trademark of Gaussian, Inc.
  
 This software contains proprietary and confidential information,
 including trade secrets, belonging to Gaussian, Inc.
  
 This software is provided under written license and may be
 used, copied, transmitted, or stored only in accord with that
 written license.
  
 The following legend is applicable only to US Government
 contracts under FAR:
  
                    RESTRICTED RIGHTS LEGEND
  
 Use, reproduction and disclosure by the US Government is
 subject to restrictions as set forth in subparagraphs (a)
 and (c) of the Commercial Computer Software - Restricted
 Rights clause in FAR 52.227-19.
  
 Gaussian, Inc.
 340 Quinnipiac St., Bldg. 40, Wallingford CT 06492
  
  
 ---------------------------------------------------------------
 Warning -- This program may not be used in any manner that
 competes with the business of Gaussian, Inc. or will provide
 assistance to any competitor of Gaussian, Inc.  The licensee
 of this program is prohibited from giving any competitor of
 Gaussian, Inc. access to this program.  By using this program,
 the user acknowledges that Gaussian, Inc. is engaged in the
 business of creating and licensing software in the field of
 computational chemistry and represents and warrants to the
 licensee that it is not a competitor of Gaussian, Inc. and that
 it will not use this program in any manner prohibited above.
 ---------------------------------------------------------------
  

 Cite this work as:
 Gaussian 16, Revision A.03,
 M. J. Frisch, G. W. Trucks, H. B. Schlegel, G. E. Scuseria, 
 M. A. Robb, J. R. Cheeseman, G. Scalmani, V. Barone, 
 G. A. Petersson, H. Nakatsuji, X. Li, M. Caricato, A. V. Marenich, 
 J. Bloino, B. G. Janesko, R. Gomperts, B. Mennucci, H. P. Hratchian, 
 J. V. Ortiz, A. F. Izmaylov, J. L. Sonnenberg, D. Williams-Young, 
 F. Ding, F. Lipparini, F. Egidi, J. Goings, B. Peng, A. Petrone, 
 T. Henderson, D. Ranasinghe, V. G. Zakrzewski, J. Gao, N. Rega, 
 G. Zheng, W. Liang, M. Hada, M. Ehara, K. Toyota, R. Fukuda, 
 J. Hasegawa, M. Ishida, T. Nakajima, Y. Honda, O. Kitao, H. Nakai, 
 T. Vreven, K. Throssell, J. A. Montgomery, Jr., J. E. Peralta, 
 F. Ogliaro, M. J. Bearpark, J. J. Heyd, E. N. Brothers, K. N. Kudin, 
 V. N. Staroverov, T. A. Keith, R. Kobayashi, J. Normand, 
 K. Raghavachari, A. P. Rendell, J. C. Burant, S. S. Iyengar, 
 J. Tomasi, M. Cossi, J. M. Millam, M. Klene, C. Adamo, R. Cammi, 
 J. W. Ochterski, R. L. Martin, K. Morokuma, O. Farkas, 
 J. B. Foresman, and D. J. Fox, Gaussian, Inc., Wallingford CT, 2016.
 
 ******************************************
 Gaussian 16:  ES64L-G16RevA.03 25-Dec-2016
                13-Oct-2019 
 ******************************************
 %chk=34.chk
 %nprocshared=24
 Will use up to   24 processors via shared memory.
 %mem=80GB
 -------------------------------------------------------------------
 #P opt freq m062x/6-311++g(d,p) geom=connectivity temperature=0.001
 -------------------------------------------------------------------
 1/18=20,19=15,26=3,38=1,57=2,112=-1000/1,3;
 2/9=110,12=2,17=6,18=5,40=1/2;
 3/5=4,6=6,7=1111,11=2,25=1,30=1,71=1,74=-55/1,2,3;
 4//1;
 5/5=2,38=5/2;
 6/7=2,8=2,9=2,10=2,28=1/1;
 7//1,2,3,16;
 1/18=20,19=15,26=3/3(2);
 2/9=110/2;
 99//99;
 2/9=110/2;
 3/5=4,6=6,7=1111,11=2,25=1,30=1,71=1,74=-55/1,2,3;
 4/5=5,16=3,69=1/1;
 5/5=2,38=5/2;
 7//1,2,3,16;
 1/18=20,19=15,26=3/3(-5);
 2/9=110/2;
 6/7=2,8=2,9=2,10=2,19=2,28=1/1;
 99/9=1/99;
 Leave Link    1 at Sun Oct 13 23:14:16 2019, MaxMem= 10737418240 cpu:               0.8 elap:               0.0
 (Enter /apps/cent7/gaussian/g16-A.03/g16-haswell/g16/l101.exe)
 -------------------
 Title Card Required
 -------------------
 Symbolic Z-matrix:
 Charge =  0 Multiplicity = 1
 O                    -1.7228   -1.8291    1.0796 
 S                    -0.5112   -1.6817    0.0342 
 C                    -1.171    -2.2027   -1.4959 
 C                    -1.0971   -1.5091   -2.636 
 C                    -0.1627    0.0577   -0.0106 
 C                     1.1654    0.4913    0.1839 
 C                     1.4648    1.8663    0.1938 
 C                     0.4406    2.815     0.0154 
 C                    -0.8848    2.3888   -0.1858 
 C                    -1.1851    1.0133   -0.2009 
 H                    -1.7145   -3.1023   -1.7847 
 H                    -2.009    -1.2263   -3.1619 
 H                    -0.125    -1.2263   -3.0398 
 H                     1.9626   -0.2381    0.3268 
 H                     2.493     2.1973    0.3401 
 H                     0.6738    3.8796    0.0331 
 H                    -1.6776    3.1229   -0.3297 
 H                    -2.2128    0.6872   -0.3605 
 
 ITRead=  0  0  0  0  0  0  0  0  0  0  0  0  0  0  0  0  0  0
 MicOpt= -1 -1 -1 -1 -1 -1 -1 -1 -1 -1 -1 -1 -1 -1 -1 -1 -1 -1
 NAtoms=     18 NQM=       18 NQMF=       0 NMMI=      0 NMMIF=      0
                NMic=       0 NMicF=      0.
                    Isotopes and Nuclear Properties:
 (Nuclear quadrupole moments (NQMom) in fm**2, nuclear magnetic moments (NMagM)
  in nuclear magnetons)

  Atom         1           2           3           4           5           6           7           8           9          10
 IAtWgt=          16          32          12          12          12          12          12          12          12          12
 AtmWgt=  15.9949146  31.9720718  12.0000000  12.0000000  12.0000000  12.0000000  12.0000000  12.0000000  12.0000000  12.0000000
 NucSpn=           0           0           0           0           0           0           0           0           0           0
 AtZEff=  -0.0000000  -0.0000000  -0.0000000  -0.0000000  -0.0000000  -0.0000000  -0.0000000  -0.0000000  -0.0000000  -0.0000000
 NQMom=    0.0000000   0.0000000   0.0000000   0.0000000   0.0000000   0.0000000   0.0000000   0.0000000   0.0000000   0.0000000
 NMagM=    0.0000000   0.0000000   0.0000000   0.0000000   0.0000000   0.0000000   0.0000000   0.0000000   0.0000000   0.0000000
 AtZNuc=   8.0000000  16.0000000   6.0000000   6.0000000   6.0000000   6.0000000   6.0000000   6.0000000   6.0000000   6.0000000

  Atom        11          12          13          14          15          16          17          18
 IAtWgt=           1           1           1           1           1           1           1           1
 AtmWgt=   1.0078250   1.0078250   1.0078250   1.0078250   1.0078250   1.0078250   1.0078250   1.0078250
 NucSpn=           1           1           1           1           1           1           1           1
 AtZEff=  -0.0000000  -0.0000000  -0.0000000  -0.0000000  -0.0000000  -0.0000000  -0.0000000  -0.0000000
 NQMom=    0.0000000   0.0000000   0.0000000   0.0000000   0.0000000   0.0000000   0.0000000   0.0000000
 NMagM=    2.7928460   2.7928460   2.7928460   2.7928460   2.7928460   2.7928460   2.7928460   2.7928460
 AtZNuc=   1.0000000   1.0000000   1.0000000   1.0000000   1.0000000   1.0000000   1.0000000   1.0000000
 Leave Link  101 at Sun Oct 13 23:14:17 2019, MaxMem= 10737418240 cpu:               8.2 elap:               0.4
 (Enter /apps/cent7/gaussian/g16-A.03/g16-haswell/g16/l103.exe)

 GradGradGradGradGradGradGradGradGradGradGradGradGradGradGradGradGradGrad
 Berny optimization.
 Initialization pass.
                           ----------------------------
                           !    Initial Parameters    !
                           ! (Angstroms and Degrees)  !
 --------------------------                            --------------------------
 ! Name  Definition              Value          Derivative Info.                !
 --------------------------------------------------------------------------------
 ! R1    R(1,2)                  1.607          estimate D2E/DX2                !
 ! R2    R(2,3)                  1.7458         estimate D2E/DX2                !
 ! R3    R(2,5)                  1.7745         estimate D2E/DX2                !
 ! R4    R(3,4)                  1.3366         estimate D2E/DX2                !
 ! R5    R(3,11)                 1.09           estimate D2E/DX2                !
 ! R6    R(4,12)                 1.09           estimate D2E/DX2                !
 ! R7    R(4,13)                 1.09           estimate D2E/DX2                !
 ! R8    R(5,6)                  1.4106         estimate D2E/DX2                !
 ! R9    R(5,10)                 1.4123         estimate D2E/DX2                !
 ! R10   R(6,7)                  1.4073         estimate D2E/DX2                !
 ! R11   R(6,14)                 1.0899         estimate D2E/DX2                !
 ! R12   R(7,8)                  1.4074         estimate D2E/DX2                !
 ! R13   R(7,15)                 1.09           estimate D2E/DX2                !
 ! R14   R(8,9)                  1.4067         estimate D2E/DX2                !
 ! R15   R(8,16)                 1.09           estimate D2E/DX2                !
 ! R16   R(9,10)                 1.408          estimate D2E/DX2                !
 ! R17   R(9,17)                 1.09           estimate D2E/DX2                !
 ! R18   R(10,18)                1.0899         estimate D2E/DX2                !
 ! A1    A(1,2,3)              104.9409         estimate D2E/DX2                !
 ! A2    A(1,2,5)              104.7377         estimate D2E/DX2                !
 ! A3    A(3,2,5)              110.1579         estimate D2E/DX2                !
 ! A4    A(2,3,4)              124.8787         estimate D2E/DX2                !
 ! A5    A(2,3,11)             131.8325         estimate D2E/DX2                !
 ! A6    A(4,3,11)             103.2888         estimate D2E/DX2                !
 ! A7    A(3,4,12)             119.9962         estimate D2E/DX2                !
 ! A8    A(3,4,13)             119.9985         estimate D2E/DX2                !
 ! A9    A(12,4,13)            120.0053         estimate D2E/DX2                !
 ! A10   A(2,5,6)              118.8642         estimate D2E/DX2                !
 ! A11   A(2,5,10)             121.6311         estimate D2E/DX2                !
 ! A12   A(6,5,10)             119.484          estimate D2E/DX2                !
 ! A13   A(5,6,7)              120.1083         estimate D2E/DX2                !
 ! A14   A(5,6,14)             120.0677         estimate D2E/DX2                !
 ! A15   A(7,6,14)             119.824          estimate D2E/DX2                !
 ! A16   A(6,7,8)              120.1922         estimate D2E/DX2                !
 ! A17   A(6,7,15)             119.8898         estimate D2E/DX2                !
 ! A18   A(8,7,15)             119.918          estimate D2E/DX2                !
 ! A19   A(7,8,9)              119.9706         estimate D2E/DX2                !
 ! A20   A(7,8,16)             120.0409         estimate D2E/DX2                !
 ! A21   A(9,8,16)             119.9885         estimate D2E/DX2                !
 ! A22   A(8,9,10)             119.8995         estimate D2E/DX2                !
 ! A23   A(8,9,17)             120.0082         estimate D2E/DX2                !
 ! A24   A(10,9,17)            120.0923         estimate D2E/DX2                !
 ! A25   A(5,10,9)             120.3419         estimate D2E/DX2                !
 ! A26   A(5,10,18)            119.9909         estimate D2E/DX2                !
 ! A27   A(9,10,18)            119.6672         estimate D2E/DX2                !
 ! D1    D(1,2,3,4)            128.808          estimate D2E/DX2                !
 ! D2    D(1,2,3,11)           -51.1862         estimate D2E/DX2                !
 ! D3    D(5,2,3,4)             16.5714         estimate D2E/DX2                !
 ! D4    D(5,2,3,11)          -163.4228         estimate D2E/DX2                !
 ! D5    D(1,2,5,6)            128.354          estimate D2E/DX2                !
 ! D6    D(1,2,5,10)           -49.9824         estimate D2E/DX2                !
 ! D7    D(3,2,5,6)           -119.2781         estimate D2E/DX2                !
 ! D8    D(3,2,5,10)            62.3855         estimate D2E/DX2                !
 ! D9    D(2,3,4,12)          -121.9253         estimate D2E/DX2                !
 ! D10   D(2,3,4,13)            58.0746         estimate D2E/DX2                !
 ! D11   D(11,3,4,12)           58.0703         estimate D2E/DX2                !
 ! D12   D(11,3,4,13)         -121.9299         estimate D2E/DX2                !
 ! D13   D(2,5,6,7)           -178.0828         estimate D2E/DX2                !
 ! D14   D(2,5,6,14)             1.9264         estimate D2E/DX2                !
 ! D15   D(10,5,6,7)             0.29           estimate D2E/DX2                !
 ! D16   D(10,5,6,14)         -179.7008         estimate D2E/DX2                !
 ! D17   D(2,5,10,9)           177.7995         estimate D2E/DX2                !
 ! D18   D(2,5,10,18)           -2.2009         estimate D2E/DX2                !
 ! D19   D(6,5,10,9)            -0.5269         estimate D2E/DX2                !
 ! D20   D(6,5,10,18)          179.4728         estimate D2E/DX2                !
 ! D21   D(5,6,7,8)              0.265          estimate D2E/DX2                !
 ! D22   D(5,6,7,15)          -179.7362         estimate D2E/DX2                !
 ! D23   D(14,6,7,8)          -179.7442         estimate D2E/DX2                !
 ! D24   D(14,6,7,15)            0.2546         estimate D2E/DX2                !
 ! D25   D(6,7,8,9)             -0.5869         estimate D2E/DX2                !
 ! D26   D(6,7,8,16)           179.4102         estimate D2E/DX2                !
 ! D27   D(15,7,8,9)           179.4144         estimate D2E/DX2                !
 ! D28   D(15,7,8,16)           -0.5886         estimate D2E/DX2                !
 ! D29   D(7,8,9,10)             0.3499         estimate D2E/DX2                !
 ! D30   D(7,8,9,17)          -179.6516         estimate D2E/DX2                !
 ! D31   D(16,8,9,10)         -179.6471         estimate D2E/DX2                !
 ! D32   D(16,8,9,17)            0.3513         estimate D2E/DX2                !
 ! D33   D(8,9,10,5)             0.2079         estimate D2E/DX2                !
 ! D34   D(8,9,10,18)         -179.7917         estimate D2E/DX2                !
 ! D35   D(17,9,10,5)         -179.7905         estimate D2E/DX2                !
 ! D36   D(17,9,10,18)           0.2098         estimate D2E/DX2                !
 --------------------------------------------------------------------------------
 Trust Radius=3.00D-01 FncErr=1.00D-07 GrdErr=1.00D-06 EigMax=2.50D+02 EigMin=1.00D-04
 Number of steps in this run=     91 maximum allowed number of steps=    108.
 GradGradGradGradGradGradGradGradGradGradGradGradGradGradGradGradGradGrad

 Leave Link  103 at Sun Oct 13 23:14:17 2019, MaxMem= 10737418240 cpu:               1.1 elap:               0.1
 (Enter /apps/cent7/gaussian/g16-A.03/g16-haswell/g16/l202.exe)
                          Input orientation:                          
 ---------------------------------------------------------------------
 Center     Atomic      Atomic             Coordinates (Angstroms)
 Number     Number       Type             X           Y           Z
 ---------------------------------------------------------------------
      1          8           0       -1.722800   -1.829100    1.079600
      2         16           0       -0.511200   -1.681700    0.034200
      3          6           0       -1.171000   -2.202700   -1.495900
      4          6           0       -1.097100   -1.509100   -2.636000
      5          6           0       -0.162700    0.057700   -0.010600
      6          6           0        1.165400    0.491300    0.183900
      7          6           0        1.464800    1.866300    0.193800
      8          6           0        0.440600    2.815000    0.015400
      9          6           0       -0.884800    2.388800   -0.185800
     10          6           0       -1.185100    1.013300   -0.200900
     11          1           0       -1.714500   -3.102300   -1.784700
     12          1           0       -2.009000   -1.226300   -3.161900
     13          1           0       -0.125000   -1.226300   -3.039800
     14          1           0        1.962600   -0.238100    0.326800
     15          1           0        2.493000    2.197300    0.340100
     16          1           0        0.673800    3.879600    0.033100
     17          1           0       -1.677600    3.122900   -0.329700
     18          1           0       -2.212800    0.687200   -0.360500
 ---------------------------------------------------------------------
                    Distance matrix (angstroms):
                    1          2          3          4          5
     1  O    0.000000
     2  S    1.607035   0.000000
     3  C    2.660312   1.745847   0.000000
     4  C    3.781479   2.739167   1.336552   0.000000
     5  C    2.680012   1.774534   2.886554   3.196982   0.000000
     6  C    3.811592   2.748695   3.941843   4.131869   1.410563
     7  C    4.959982   4.064278   5.134130   5.095530   2.441633
     8  C    5.232637   4.596367   5.482572   5.300215   2.822649
     9  C    4.482651   4.093525   4.783319   4.608923   2.446661
    10  C    3.163549   2.787909   3.466970   3.507130   1.412334
    11  H    3.134537   2.602774   1.089990   1.908974   3.942222
    12  H    4.293670   3.558911   2.105031   1.090004   3.871456
    13  H    4.459348   3.131456   2.105018   1.089958   3.290308
    14  H    4.084135   2.879111   4.123268   4.444703   2.172150
    15  H    5.876370   4.915835   6.012969   5.956794   3.428355
    16  H    6.279181   5.686148   6.537240   6.268833   3.912616
    17  H    5.148832   4.957529   5.475279   5.206863   3.433977
    18  H    2.940366   2.943284   3.275058   3.353568   2.172927
                    6          7          8          9         10
     6  C    0.000000
     7  C    1.407254   0.000000
     8  C    2.439940   1.407425   0.000000
     9  C    2.817890   2.436744   1.406703   0.000000
    10  C    2.438320   2.811648   2.436352   1.407980   0.000000
    11  H    5.008310   6.221688   6.549752   5.779019   4.441492
    12  H    4.921518   5.735171   5.694548   4.815594   3.802912
    13  H    3.873955   4.748453   5.097672   4.668143   3.768153
    14  H    1.089942   2.166563   3.425620   3.907819   3.428190
    15  H    2.167339   1.090027   2.167794   3.423854   3.901661
    16  H    3.427096   2.169074   1.089986   2.167864   3.424316
    17  H    3.907909   3.424584   2.168102   1.090019   2.170152
    18  H    3.427387   3.901572   3.421895   2.165536   1.089945
                   11         12         13         14         15
    11  H    0.000000
    12  H    2.345802   0.000000
    13  H    2.760645   1.887952   0.000000
    14  H    5.116946   5.377841   4.082721   0.000000
    15  H    7.092502   6.652296   5.477106   2.492524   0.000000
    16  H    7.599691   6.593607   6.012571   4.324664   2.496772
    17  H    6.393082   5.200646   5.354507   4.997836   4.324265
    18  H    4.078843   3.398655   3.898595   4.331573   4.991572
                   16         17         18
    16  H    0.000000
    17  H    2.496658   0.000000
    18  H    4.321898   2.493997   0.000000
 Stoichiometry    C8H8OS
 Framework group  C1[X(C8H8OS)]
 Deg. of freedom    48
 Full point group                 C1      NOp   1
 Largest Abelian subgroup         C1      NOp   1
 Largest concise Abelian subgroup C1      NOp   1
                         Standard orientation:                         
 ---------------------------------------------------------------------
 Center     Atomic      Atomic             Coordinates (Angstroms)
 Number     Number       Type             X           Y           Z
 ---------------------------------------------------------------------
      1          8           0       -1.795923   -1.334251    1.260705
      2         16           0       -1.427415   -0.741755   -0.186953
      3          6           0       -2.417228    0.686656   -0.353969
      4          6           0       -1.962922    1.895214   -0.699461
      5          6           0        0.284221   -0.289086   -0.067110
      6          6           0        1.183402   -0.760466   -1.046377
      7          6           0        2.553126   -0.450994   -0.954480
      8          6           0        3.033088    0.325046    0.117081
      9          6           0        2.140424    0.803801    1.093175
     10          6           0        0.768973    0.499135    0.999853
     11          1           0       -3.486841    0.849468   -0.221688
     12          1           0       -2.118898    2.746081   -0.036283
     13          1           0       -1.436503    2.029891   -1.644317
     14          1           0        0.818855   -1.365408   -1.876512
     15          1           0        3.244172   -0.813505   -1.715533
     16          1           0        4.095926    0.555203    0.191041
     17          1           0        2.510647    1.409642    1.920238
     18          1           0        0.080169    0.874898    1.756380
 ---------------------------------------------------------------------
 Rotational constants (GHZ):           2.1456326           0.7713801           0.7318546
 Leave Link  202 at Sun Oct 13 23:14:17 2019, MaxMem= 10737418240 cpu:               1.0 elap:               0.1
 (Enter /apps/cent7/gaussian/g16-A.03/g16-haswell/g16/l301.exe)
 Standard basis: 6-311++G(d,p) (5D, 7F)
 Ernie: Thresh=  0.10000D-02 Tol=  0.10000D-05 Strict=F.
 There are   294 symmetry adapted cartesian basis functions of A   symmetry.
 There are   284 symmetry adapted basis functions of A   symmetry.
   284 basis functions,   446 primitive gaussians,   294 cartesian basis functions
    40 alpha electrons       40 beta electrons
       nuclear repulsion energy       571.0408640387 Hartrees.
 IExCor= 4336 DFT=T Ex+Corr=M062X ExCW=0 ScaHFX=  0.540000
 ScaDFX=  1.000000  1.000000  1.000000  1.000000 ScalE2=  1.000000  1.000000
 IRadAn=      5 IRanWt=     -1 IRanGd=            0 ICorTp=0 IEmpDi=  4
 NAtoms=   18 NActive=   18 NUniq=   18 SFac= 1.00D+00 NAtFMM=   60 NAOKFM=F Big=F
 Integral buffers will be    131072 words long.
 Raffenetti 2 integral format.
 Two-electron integral symmetry is turned on.
 Leave Link  301 at Sun Oct 13 23:14:17 2019, MaxMem= 10737418240 cpu:               1.5 elap:               0.1
 (Enter /apps/cent7/gaussian/g16-A.03/g16-haswell/g16/l302.exe)
 NPDir=0 NMtPBC=     1 NCelOv=     1 NCel=       1 NClECP=     1 NCelD=      1
         NCelK=      1 NCelE2=     1 NClLst=     1 CellRange=     0.0.
 One-electron integrals computed using PRISM.
 One-electron integral symmetry used in STVInt
 NBasis=   284 RedAO= T EigKep=  3.11D-06  NBF=   284
 NBsUse=   283 1.00D-06 EigRej=  8.82D-07 NBFU=   283
 Precomputing XC quadrature grid using
 IXCGrd= 4 IRadAn=           5 IRanWt=          -1 IRanGd=           0 AccXCQ= 0.00D+00.
 Generated NRdTot=       0 NPtTot=           0 NUsed=           0 NTot=          32
 NSgBfM=   294   294   294   294   294 MxSgAt=    18 MxSgA2=    18.
 Leave Link  302 at Sun Oct 13 23:14:17 2019, MaxMem= 10737418240 cpu:               4.5 elap:               0.2
 (Enter /apps/cent7/gaussian/g16-A.03/g16-haswell/g16/l303.exe)
 DipDrv:  MaxL=1.
 Leave Link  303 at Sun Oct 13 23:14:17 2019, MaxMem= 10737418240 cpu:               0.9 elap:               0.1
 (Enter /apps/cent7/gaussian/g16-A.03/g16-haswell/g16/l401.exe)
 ExpMin= 3.60D-02 ExpMax= 9.34D+04 ExpMxC= 3.17D+03 IAcc=3 IRadAn=         5 AccDes= 0.00D+00
 Harris functional with IExCor= 1009 and IRadAn=       5 diagonalized for initial guess.
 HarFok:  IExCor= 1009 AccDes= 0.00D+00 IRadAn=         5 IDoV= 1 UseB2=F ITyADJ=14
 ICtDFT=  3500011 ScaDFX=  1.000000  1.000000  1.000000  1.000000
 FoFCou: FMM=F IPFlag=           0 FMFlag=      100000 FMFlg1=           0
         NFxFlg=           0 DoJE=T BraDBF=F KetDBF=T FulRan=T
         wScrn=  0.000000 ICntrl=       500 IOpCl=  0 I1Cent=   200000004 NGrid=           0
         NMat0=    1 NMatS0=      1 NMatT0=    0 NMatD0=    1 NMtDS0=    0 NMtDT0=    0
 Petite list used in FoFCou.
 Harris En= -782.539224841418    
 JPrj=0 DoOrth=F DoCkMO=F.
 Leave Link  401 at Sun Oct 13 23:14:18 2019, MaxMem= 10737418240 cpu:              11.6 elap:               0.5
 (Enter /apps/cent7/gaussian/g16-A.03/g16-haswell/g16/l502.exe)
 Integral symmetry usage will be decided dynamically.
 Closed shell SCF:
 Using DIIS extrapolation, IDIIS=  1040.
 NGot= 10737418240 LenX= 10737235463 LenY= 10737148586
 Requested convergence on RMS density matrix=1.00D-08 within 128 cycles.
 Requested convergence on MAX density matrix=1.00D-06.
 Requested convergence on             energy=1.00D-06.
 No special actions if energy rises.
 Fock matrices will be formed incrementally for  20 cycles.

 Cycle   1  Pass 1  IDiag  1:
 FoFJK:  IHMeth= 1 ICntrl=       0 DoSepK=F KAlg= 0 I1Cent=           0 FoldK=F
 IRaf= 940000000 NMat=       1 IRICut=       1 DoRegI=T DoRafI=F ISym2E= 0 IDoP0=0 IntGTp=1.
 FoFCou: FMM=F IPFlag=           0 FMFlag=      100000 FMFlg1=           0
         NFxFlg=           0 DoJE=F BraDBF=F KetDBF=F FulRan=T
         wScrn=  0.000000 ICntrl=         0 IOpCl=  0 I1Cent=           0 NGrid=           0
         NMat0=    1 NMatS0=      1 NMatT0=    0 NMatD0=    1 NMtDS0=    0 NMtDT0=    0
 Symmetry not used in FoFCou.
 E= -782.445524824228    
 DIIS: error= 3.07D-02 at cycle   1 NSaved=   1.
 NSaved= 1 IEnMin= 1 EnMin= -782.445524824228     IErMin= 1 ErrMin= 3.07D-02
 ErrMax= 3.07D-02  0.00D+00 EMaxC= 1.00D-01 BMatC= 4.99D-01 BMatP= 4.99D-01
 IDIUse=3 WtCom= 6.93D-01 WtEn= 3.07D-01
 Coeff-Com:  0.100D+01
 Coeff-En:   0.100D+01
 Coeff:      0.100D+01
 Gap=     0.281 Goal=   None    Shift=    0.000
 GapD=    0.281 DampG=1.000 DampE=0.500 DampFc=0.5000 IDamp=-1.
 Damping current iteration by 5.00D-01
 RMSDP=2.95D-01 MaxDP=2.96D+01              OVMax= 2.89D-01

 Cycle   2  Pass 1  IDiag  1:
 RMSU=  8.01D-02    CP:  3.00D+00
 E= -782.566767511800     Delta-E=       -0.121242687572 Rises=F Damp=T
 DIIS: error= 1.18D-02 at cycle   2 NSaved=   2.
 NSaved= 2 IEnMin= 2 EnMin= -782.566767511800     IErMin= 2 ErrMin= 1.18D-02
 ErrMax= 1.18D-02  0.00D+00 EMaxC= 1.00D-01 BMatC= 6.25D-02 BMatP= 4.99D-01
 IDIUse=3 WtCom= 8.82D-01 WtEn= 1.18D-01
 Coeff-Com:  0.128D+00 0.872D+00
 Coeff-En:   0.281D+00 0.719D+00
 Coeff:      0.146D+00 0.854D+00
 Gap=     0.314 Goal=   None    Shift=    0.000
 RMSDP=1.07D-01 MaxDP=1.05D+01 DE=-1.21D-01 OVMax= 2.14D-01

 Cycle   3  Pass 1  IDiag  1:
 RMSU=  1.81D-02    CP:  1.75D+00  2.11D-01
 E= -782.773266032247     Delta-E=       -0.206498520447 Rises=F Damp=F
 DIIS: error= 1.35D-02 at cycle   3 NSaved=   3.
 NSaved= 3 IEnMin= 3 EnMin= -782.773266032247     IErMin= 2 ErrMin= 1.18D-02
 ErrMax= 1.35D-02  0.00D+00 EMaxC= 1.00D-01 BMatC= 5.67D-02 BMatP= 6.25D-02
 IDIUse=3 WtCom= 8.65D-01 WtEn= 1.35D-01
 Coeff-Com: -0.272D-01 0.491D+00 0.536D+00
 Coeff-En:   0.000D+00 0.000D+00 0.100D+01
 Coeff:     -0.235D-01 0.425D+00 0.599D+00
 Gap=     0.223 Goal=   None    Shift=    0.000
 RMSDP=3.14D-02 MaxDP=3.31D+00 DE=-2.06D-01 OVMax= 7.56D-02

 Cycle   4  Pass 1  IDiag  1:
 RMSU=  7.73D-03    CP:  2.27D+00  4.08D-01  9.33D-01
 E= -782.814702355863     Delta-E=       -0.041436323616 Rises=F Damp=F
 DIIS: error= 3.71D-03 at cycle   4 NSaved=   4.
 NSaved= 4 IEnMin= 4 EnMin= -782.814702355863     IErMin= 4 ErrMin= 3.71D-03
 ErrMax= 3.71D-03  0.00D+00 EMaxC= 1.00D-01 BMatC= 8.17D-03 BMatP= 5.67D-02
 IDIUse=3 WtCom= 9.63D-01 WtEn= 3.71D-02
 Coeff-Com: -0.209D-01 0.793D-01 0.306D+00 0.635D+00
 Coeff-En:   0.000D+00 0.000D+00 0.121D+00 0.879D+00
 Coeff:     -0.201D-01 0.764D-01 0.300D+00 0.644D+00
 Gap=     0.223 Goal=   None    Shift=    0.000
 RMSDP=7.58D-03 MaxDP=6.94D-01 DE=-4.14D-02 OVMax= 2.43D-02

 Cycle   5  Pass 1  IDiag  1:
 RMSU=  1.91D-03    CP:  2.16D+00  3.59D-01  1.06D+00  6.89D-01
 E= -782.821687680172     Delta-E=       -0.006985324309 Rises=F Damp=F
 DIIS: error= 7.46D-04 at cycle   5 NSaved=   5.
 NSaved= 5 IEnMin= 5 EnMin= -782.821687680172     IErMin= 5 ErrMin= 7.46D-04
 ErrMax= 7.46D-04  0.00D+00 EMaxC= 1.00D-01 BMatC= 2.25D-04 BMatP= 8.17D-03
 IDIUse=3 WtCom= 9.93D-01 WtEn= 7.46D-03
 Coeff-Com: -0.550D-02 0.514D-02 0.758D-01 0.242D+00 0.683D+00
 Coeff-En:   0.000D+00 0.000D+00 0.000D+00 0.000D+00 0.100D+01
 Coeff:     -0.546D-02 0.510D-02 0.753D-01 0.240D+00 0.685D+00
 Gap=     0.216 Goal=   None    Shift=    0.000
 RMSDP=6.93D-04 MaxDP=6.51D-02 DE=-6.99D-03 OVMax= 6.31D-03

 Cycle   6  Pass 1  IDiag  1:
 RMSU=  3.27D-04    CP:  2.15D+00  3.56D-01  1.05D+00  6.86D-01  8.49D-01
 E= -782.821875222915     Delta-E=       -0.000187542743 Rises=F Damp=F
 DIIS: error= 4.52D-04 at cycle   6 NSaved=   6.
 NSaved= 6 IEnMin= 6 EnMin= -782.821875222915     IErMin= 6 ErrMin= 4.52D-04
 ErrMax= 4.52D-04  0.00D+00 EMaxC= 1.00D-01 BMatC= 5.27D-05 BMatP= 2.25D-04
 IDIUse=3 WtCom= 9.95D-01 WtEn= 4.52D-03
 Coeff-Com:  0.926D-04-0.636D-02 0.120D-02 0.456D-01 0.363D+00 0.596D+00
 Coeff-En:   0.000D+00 0.000D+00 0.000D+00 0.000D+00 0.925D-01 0.908D+00
 Coeff:      0.921D-04-0.634D-02 0.120D-02 0.454D-01 0.362D+00 0.598D+00
 Gap=     0.216 Goal=   None    Shift=    0.000
 RMSDP=5.89D-04 MaxDP=4.97D-02 DE=-1.88D-04 OVMax= 3.35D-03

 Cycle   7  Pass 1  IDiag  1:
 RMSU=  1.90D-04    CP:  2.14D+00  3.53D-01  1.06D+00  6.76D-01  9.13D-01
                    CP:  9.34D-01
 E= -782.821932526836     Delta-E=       -0.000057303921 Rises=F Damp=F
 DIIS: error= 1.01D-04 at cycle   7 NSaved=   7.
 NSaved= 7 IEnMin= 7 EnMin= -782.821932526836     IErMin= 7 ErrMin= 1.01D-04
 ErrMax= 1.01D-04  0.00D+00 EMaxC= 1.00D-01 BMatC= 3.68D-06 BMatP= 5.27D-05
 IDIUse=3 WtCom= 9.99D-01 WtEn= 1.01D-03
 Coeff-Com:  0.102D-02-0.355D-02-0.105D-01-0.189D-01 0.252D-01 0.212D+00
 Coeff-Com:  0.794D+00
 Coeff-En:   0.000D+00 0.000D+00 0.000D+00 0.000D+00 0.000D+00 0.000D+00
 Coeff-En:   0.100D+01
 Coeff:      0.102D-02-0.355D-02-0.105D-01-0.188D-01 0.252D-01 0.212D+00
 Coeff:      0.795D+00
 Gap=     0.217 Goal=   None    Shift=    0.000
 RMSDP=4.49D-04 MaxDP=4.66D-02 DE=-5.73D-05 OVMax= 8.07D-04

 Cycle   8  Pass 1  IDiag  1:
 RMSU=  6.63D-05    CP:  2.14D+00  3.50D-01  1.05D+00  6.70D-01  9.39D-01
                    CP:  9.98D-01  1.13D+00
 E= -782.821937804664     Delta-E=       -0.000005277829 Rises=F Damp=F
 DIIS: error= 2.19D-05 at cycle   8 NSaved=   8.
 NSaved= 8 IEnMin= 8 EnMin= -782.821937804664     IErMin= 8 ErrMin= 2.19D-05
 ErrMax= 2.19D-05  0.00D+00 EMaxC= 1.00D-01 BMatC= 3.45D-07 BMatP= 3.68D-06
 IDIUse=1 WtCom= 1.00D+00 WtEn= 0.00D+00
 Coeff-Com:  0.385D-03-0.559D-03-0.430D-02-0.131D-01-0.364D-01 0.106D-01
 Coeff-Com:  0.257D+00 0.787D+00
 Coeff:      0.385D-03-0.559D-03-0.430D-02-0.131D-01-0.364D-01 0.106D-01
 Coeff:      0.257D+00 0.787D+00
 Gap=     0.217 Goal=   None    Shift=    0.000
 RMSDP=1.82D-04 MaxDP=1.92D-02 DE=-5.28D-06 OVMax= 3.53D-04

 Cycle   9  Pass 1  IDiag  1:
 RMSU=  1.75D-05    CP:  2.13D+00  3.49D-01  1.05D+00  6.67D-01  9.46D-01
                    CP:  1.03D+00  1.26D+00  1.11D+00
 E= -782.821938382339     Delta-E=       -0.000000577675 Rises=F Damp=F
 DIIS: error= 1.05D-05 at cycle   9 NSaved=   9.
 NSaved= 9 IEnMin= 9 EnMin= -782.821938382339     IErMin= 9 ErrMin= 1.05D-05
 ErrMax= 1.05D-05  0.00D+00 EMaxC= 1.00D-01 BMatC= 5.01D-08 BMatP= 3.45D-07
 IDIUse=1 WtCom= 1.00D+00 WtEn= 0.00D+00
 Coeff-Com:  0.440D-04 0.129D-03-0.744D-03-0.307D-02-0.174D-01-0.131D-01
 Coeff-Com:  0.174D-01 0.266D+00 0.751D+00
 Coeff:      0.440D-04 0.129D-03-0.744D-03-0.307D-02-0.174D-01-0.131D-01
 Coeff:      0.174D-01 0.266D+00 0.751D+00
 Gap=     0.217 Goal=   None    Shift=    0.000
 RMSDP=7.47D-05 MaxDP=7.82D-03 DE=-5.78D-07 OVMax= 1.27D-04

 Cycle  10  Pass 1  IDiag  1:
 RMSU=  3.56D-06    CP:  2.13D+00  3.49D-01  1.05D+00  6.66D-01  9.45D-01
                    CP:  1.03D+00  1.29D+00  1.24D+00  1.11D+00
 E= -782.821938451787     Delta-E=       -0.000000069448 Rises=F Damp=F
 DIIS: error= 5.46D-06 at cycle  10 NSaved=  10.
 NSaved=10 IEnMin=10 EnMin= -782.821938451787     IErMin=10 ErrMin= 5.46D-06
 ErrMax= 5.46D-06  0.00D+00 EMaxC= 1.00D-01 BMatC= 1.00D-08 BMatP= 5.01D-08
 IDIUse=1 WtCom= 1.00D+00 WtEn= 0.00D+00
 Coeff-Com: -0.429D-04 0.122D-03 0.358D-03 0.985D-03-0.169D-02-0.618D-02
 Coeff-Com: -0.348D-01-0.297D-01 0.323D+00 0.748D+00
 Coeff:     -0.429D-04 0.122D-03 0.358D-03 0.985D-03-0.169D-02-0.618D-02
 Coeff:     -0.348D-01-0.297D-01 0.323D+00 0.748D+00
 Gap=     0.217 Goal=   None    Shift=    0.000
 RMSDP=1.93D-05 MaxDP=1.85D-03 DE=-6.94D-08 OVMax= 5.11D-05

 Cycle  11  Pass 1  IDiag  1:
 RMSU=  2.43D-06    CP:  2.13D+00  3.49D-01  1.05D+00  6.66D-01  9.45D-01
                    CP:  1.03D+00  1.31D+00  1.27D+00  1.24D+00  1.14D+00
 E= -782.821938464952     Delta-E=       -0.000000013165 Rises=F Damp=F
 DIIS: error= 2.64D-06 at cycle  11 NSaved=  11.
 NSaved=11 IEnMin=11 EnMin= -782.821938464952     IErMin=11 ErrMin= 2.64D-06
 ErrMax= 2.64D-06  0.00D+00 EMaxC= 1.00D-01 BMatC= 1.03D-09 BMatP= 1.00D-08
 IDIUse=1 WtCom= 1.00D+00 WtEn= 0.00D+00
 Coeff-Com: -0.160D-04 0.355D-04 0.187D-03 0.592D-03 0.510D-03-0.132D-02
 Coeff-Com: -0.136D-01-0.330D-01 0.649D-01 0.318D+00 0.664D+00
 Coeff:     -0.160D-04 0.355D-04 0.187D-03 0.592D-03 0.510D-03-0.132D-02
 Coeff:     -0.136D-01-0.330D-01 0.649D-01 0.318D+00 0.664D+00
 Gap=     0.217 Goal=   None    Shift=    0.000
 RMSDP=5.65D-06 MaxDP=5.89D-04 DE=-1.32D-08 OVMax= 1.68D-05

 Cycle  12  Pass 1  IDiag  1:
 RMSU=  6.64D-07    CP:  2.13D+00  3.48D-01  1.05D+00  6.66D-01  9.45D-01
                    CP:  1.03D+00  1.31D+00  1.28D+00  1.25D+00  1.24D+00
                    CP:  1.06D+00
 E= -782.821938466226     Delta-E=       -0.000000001274 Rises=F Damp=F
 DIIS: error= 1.08D-06 at cycle  12 NSaved=  12.
 NSaved=12 IEnMin=12 EnMin= -782.821938466226     IErMin=12 ErrMin= 1.08D-06
 ErrMax= 1.08D-06  0.00D+00 EMaxC= 1.00D-01 BMatC= 1.84D-10 BMatP= 1.03D-09
 IDIUse=1 WtCom= 1.00D+00 WtEn= 0.00D+00
 Coeff-Com:  0.232D-05-0.946D-05 0.192D-04 0.868D-04 0.663D-03 0.625D-03
 Coeff-Com:  0.518D-03-0.103D-01-0.355D-01 0.792D-02 0.308D+00 0.728D+00
 Coeff:      0.232D-05-0.946D-05 0.192D-04 0.868D-04 0.663D-03 0.625D-03
 Coeff:      0.518D-03-0.103D-01-0.355D-01 0.792D-02 0.308D+00 0.728D+00
 Gap=     0.217 Goal=   None    Shift=    0.000
 RMSDP=1.49D-06 MaxDP=1.43D-04 DE=-1.27D-09 OVMax= 7.72D-06

 Cycle  13  Pass 1  IDiag  1:
 RMSU=  2.42D-07    CP:  2.13D+00  3.48D-01  1.05D+00  6.66D-01  9.45D-01
                    CP:  1.03D+00  1.31D+00  1.28D+00  1.27D+00  1.28D+00
                    CP:  1.20D+00  1.29D+00
 E= -782.821938466526     Delta-E=       -0.000000000300 Rises=F Damp=F
 DIIS: error= 1.77D-07 at cycle  13 NSaved=  13.
 NSaved=13 IEnMin=13 EnMin= -782.821938466526     IErMin=13 ErrMin= 1.77D-07
 ErrMax= 1.77D-07  0.00D+00 EMaxC= 1.00D-01 BMatC= 1.22D-11 BMatP= 1.84D-10
 IDIUse=1 WtCom= 1.00D+00 WtEn= 0.00D+00
 Coeff-Com:  0.184D-05-0.494D-05-0.164D-04-0.522D-04 0.855D-04 0.186D-03
 Coeff-Com:  0.151D-02 0.256D-02-0.141D-01-0.347D-01-0.187D-01 0.162D+00
 Coeff-Com:  0.902D+00
 Coeff:      0.184D-05-0.494D-05-0.164D-04-0.522D-04 0.855D-04 0.186D-03
 Coeff:      0.151D-02 0.256D-02-0.141D-01-0.347D-01-0.187D-01 0.162D+00
 Coeff:      0.902D+00
 Gap=     0.217 Goal=   None    Shift=    0.000
 RMSDP=3.07D-07 MaxDP=1.46D-05 DE=-3.00D-10 OVMax= 3.72D-06

 Cycle  14  Pass 1  IDiag  1:
 RMSU=  1.02D-07    CP:  2.13D+00  3.48D-01  1.05D+00  6.66D-01  9.45D-01
                    CP:  1.03D+00  1.31D+00  1.28D+00  1.27D+00  1.31D+00
                    CP:  1.28D+00  1.44D+00  1.31D+00
 E= -782.821938466562     Delta-E=       -0.000000000036 Rises=F Damp=F
 DIIS: error= 4.77D-08 at cycle  14 NSaved=  14.
 NSaved=14 IEnMin=14 EnMin= -782.821938466562     IErMin=14 ErrMin= 4.77D-08
 ErrMax= 4.77D-08  0.00D+00 EMaxC= 1.00D-01 BMatC= 2.01D-12 BMatP= 1.22D-11
 IDIUse=1 WtCom= 1.00D+00 WtEn= 0.00D+00
 Coeff-Com: -0.999D-07 0.345D-06-0.815D-05-0.256D-04-0.613D-04-0.406D-04
 Coeff-Com:  0.361D-03 0.214D-02 0.782D-03-0.117D-01-0.487D-01-0.619D-01
 Coeff-Com:  0.244D+00 0.876D+00
 Coeff:     -0.999D-07 0.345D-06-0.815D-05-0.256D-04-0.613D-04-0.406D-04
 Coeff:      0.361D-03 0.214D-02 0.782D-03-0.117D-01-0.487D-01-0.619D-01
 Coeff:      0.244D+00 0.876D+00
 Gap=     0.217 Goal=   None    Shift=    0.000
 RMSDP=2.17D-07 MaxDP=1.92D-05 DE=-3.62D-11 OVMax= 1.80D-06

 Cycle  15  Pass 1  IDiag  1:
 RMSU=  3.22D-08    CP:  2.13D+00  3.48D-01  1.05D+00  6.66D-01  9.45D-01
                    CP:  1.03D+00  1.31D+00  1.28D+00  1.27D+00  1.31D+00
                    CP:  1.31D+00  1.54D+00  1.48D+00  1.16D+00
 E= -782.821938466560     Delta-E=        0.000000000002 Rises=F Damp=F
 DIIS: error= 2.47D-08 at cycle  15 NSaved=  15.
 NSaved=15 IEnMin=14 EnMin= -782.821938466562     IErMin=15 ErrMin= 2.47D-08
 ErrMax= 2.47D-08  0.00D+00 EMaxC= 1.00D-01 BMatC= 3.47D-13 BMatP= 2.01D-12
 IDIUse=1 WtCom= 1.00D+00 WtEn= 0.00D+00
 Coeff-Com: -0.331D-06 0.870D-06-0.154D-05-0.219D-05-0.344D-04-0.363D-04
 Coeff-Com: -0.504D-04 0.350D-03 0.220D-02 0.574D-03-0.141D-01-0.464D-01
 Coeff-Com: -0.382D-01 0.288D+00 0.808D+00
 Coeff:     -0.331D-06 0.870D-06-0.154D-05-0.219D-05-0.344D-04-0.363D-04
 Coeff:     -0.504D-04 0.350D-03 0.220D-02 0.574D-03-0.141D-01-0.464D-01
 Coeff:     -0.382D-01 0.288D+00 0.808D+00
 Gap=     0.217 Goal=   None    Shift=    0.000
 RMSDP=8.81D-08 MaxDP=7.54D-06 DE= 2.05D-12 OVMax= 5.18D-07

 Cycle  16  Pass 1  IDiag  1:
 RMSU=  1.29D-08    CP:  2.13D+00  3.48D-01  1.05D+00  6.66D-01  9.45D-01
                    CP:  1.03D+00  1.31D+00  1.28D+00  1.27D+00  1.31D+00
                    CP:  1.32D+00  1.55D+00  1.54D+00  1.24D+00  1.12D+00
 E= -782.821938466562     Delta-E=       -0.000000000002 Rises=F Damp=F
 DIIS: error= 6.70D-09 at cycle  16 NSaved=  16.
 NSaved=16 IEnMin=14 EnMin= -782.821938466562     IErMin=16 ErrMin= 6.70D-09
 ErrMax= 6.70D-09  0.00D+00 EMaxC= 1.00D-01 BMatC= 2.61D-14 BMatP= 3.47D-13
 IDIUse=1 WtCom= 1.00D+00 WtEn= 0.00D+00
 Coeff-Com: -0.902D-07 0.248D-06 0.199D-06 0.156D-05-0.537D-05-0.924D-05
 Coeff-Com: -0.447D-04-0.103D-03 0.576D-03 0.132D-02 0.102D-02-0.653D-02
 Coeff-Com: -0.327D-01-0.106D-01 0.240D+00 0.807D+00
 Coeff:     -0.902D-07 0.248D-06 0.199D-06 0.156D-05-0.537D-05-0.924D-05
 Coeff:     -0.447D-04-0.103D-03 0.576D-03 0.132D-02 0.102D-02-0.653D-02
 Coeff:     -0.327D-01-0.106D-01 0.240D+00 0.807D+00
 Gap=     0.217 Goal=   None    Shift=    0.000
 RMSDP=1.97D-08 MaxDP=1.85D-06 DE=-1.59D-12 OVMax= 1.34D-07

 Cycle  17  Pass 1  IDiag  1:
 RMSU=  3.30D-09    CP:  2.13D+00  3.48D-01  1.05D+00  6.66D-01  9.45D-01
                    CP:  1.03D+00  1.31D+00  1.28D+00  1.27D+00  1.31D+00
                    CP:  1.32D+00  1.55D+00  1.55D+00  1.28D+00  1.19D+00
                    CP:  1.22D+00
 E= -782.821938466553     Delta-E=        0.000000000009 Rises=F Damp=F
 DIIS: error= 4.12D-09 at cycle  17 NSaved=  17.
 NSaved=17 IEnMin=14 EnMin= -782.821938466562     IErMin=17 ErrMin= 4.12D-09
 ErrMax= 4.12D-09  0.00D+00 EMaxC= 1.00D-01 BMatC= 4.00D-15 BMatP= 2.61D-14
 IDIUse=1 WtCom= 1.00D+00 WtEn= 0.00D+00
 Coeff-Com:  0.346D-08 0.757D-08 0.182D-06 0.496D-06 0.108D-05-0.476D-06
 Coeff-Com: -0.747D-05-0.527D-04-0.752D-05 0.315D-03 0.147D-02 0.199D-02
 Coeff-Com: -0.765D-02-0.305D-01 0.595D-02 0.283D+00 0.746D+00
 Coeff:      0.346D-08 0.757D-08 0.182D-06 0.496D-06 0.108D-05-0.476D-06
 Coeff:     -0.747D-05-0.527D-04-0.752D-05 0.315D-03 0.147D-02 0.199D-02
 Coeff:     -0.765D-02-0.305D-01 0.595D-02 0.283D+00 0.746D+00
 Gap=     0.217 Goal=   None    Shift=    0.000
 RMSDP=3.41D-09 MaxDP=1.93D-07 DE= 9.09D-12 OVMax= 4.34D-08

 SCF Done:  E(RM062X) =  -782.821938467     A.U. after   17 cycles
            NFock= 17  Conv=0.34D-08     -V/T= 2.0029
 KE= 7.805631069262D+02 PE=-2.983264846423D+03 EE= 8.488389369915D+02
 Leave Link  502 at Sun Oct 13 23:14:36 2019, MaxMem= 10737418240 cpu:             433.2 elap:              18.2
 (Enter /apps/cent7/gaussian/g16-A.03/g16-haswell/g16/l601.exe)
 Copying SCF densities to generalized density rwf, IOpCl= 0 IROHF=0.

 **********************************************************************

            Population analysis using the SCF density.

 **********************************************************************

 Orbital symmetries:
       Occupied  (A) (A) (A) (A) (A) (A) (A) (A) (A) (A) (A) (A)
                 (A) (A) (A) (A) (A) (A) (A) (A) (A) (A) (A) (A)
                 (A) (A) (A) (A) (A) (A) (A) (A) (A) (A) (A) (A)
                 (A) (A) (A) (A)
       Virtual   (A) (A) (A) (A) (A) (A) (A) (A) (A) (A) (A) (A)
                 (A) (A) (A) (A) (A) (A) (A) (A) (A) (A) (A) (A)
                 (A) (A) (A) (A) (A) (A) (A) (A) (A) (A) (A) (A)
                 (A) (A) (A) (A) (A) (A) (A) (A) (A) (A) (A) (A)
                 (A) (A) (A) (A) (A) (A) (A) (A) (A) (A) (A) (A)
                 (A) (A) (A) (A) (A) (A) (A) (A) (A) (A) (A) (A)
                 (A) (A) (A) (A) (A) (A) (A) (A) (A) (A) (A) (A)
                 (A) (A) (A) (A) (A) (A) (A) (A) (A) (A) (A) (A)
                 (A) (A) (A) (A) (A) (A) (A) (A) (A) (A) (A) (A)
                 (A) (A) (A) (A) (A) (A) (A) (A) (A) (A) (A) (A)
                 (A) (A) (A) (A) (A) (A) (A) (A) (A) (A) (A) (A)
                 (A) (A) (A) (A) (A) (A) (A) (A) (A) (A) (A) (A)
                 (A) (A) (A) (A) (A) (A) (A) (A) (A) (A) (A) (A)
                 (A) (A) (A) (A) (A) (A) (A) (A) (A) (A) (A) (A)
                 (A) (A) (A) (A) (A) (A) (A) (A) (A) (A) (A) (A)
                 (A) (A) (A) (A) (A) (A) (A) (A) (A) (A) (A) (A)
                 (A) (A) (A) (A) (A) (A) (A) (A) (A) (A) (A) (A)
                 (A) (A) (A) (A) (A) (A) (A) (A) (A) (A) (A) (A)
                 (A) (A) (A) (A) (A) (A) (A) (A) (A) (A) (A) (A)
                 (A) (A) (A) (A) (A) (A) (A) (A) (A) (A) (A) (A)
                 (A) (A) (A)
 The electronic state is 1-A.
 Alpha  occ. eigenvalues --  -90.00586 -19.57809 -10.59918 -10.58785 -10.58204
 Alpha  occ. eigenvalues --  -10.57831 -10.57568 -10.57356 -10.57342 -10.57245
 Alpha  occ. eigenvalues --   -8.36236  -6.28304  -6.28285  -6.27867  -1.08680
 Alpha  occ. eigenvalues --   -0.98326  -0.92560  -0.87919  -0.86576  -0.79763
 Alpha  occ. eigenvalues --   -0.71404  -0.70834  -0.65939  -0.61118  -0.56935
 Alpha  occ. eigenvalues --   -0.55074  -0.54671  -0.52681  -0.51329  -0.50543
 Alpha  occ. eigenvalues --   -0.47821  -0.45881  -0.44368  -0.43341  -0.42501
 Alpha  occ. eigenvalues --   -0.34759  -0.33242  -0.32366  -0.31542  -0.27123
 Alpha virt. eigenvalues --   -0.05452  -0.03012  -0.01026  -0.00663   0.00158
 Alpha virt. eigenvalues --    0.00480   0.01911   0.02119   0.02497   0.04087
 Alpha virt. eigenvalues --    0.04340   0.05146   0.06226   0.06667   0.07507
 Alpha virt. eigenvalues --    0.08222   0.09139   0.09365   0.09943   0.10604
 Alpha virt. eigenvalues --    0.11132   0.11500   0.11947   0.12316   0.12363
 Alpha virt. eigenvalues --    0.12758   0.12997   0.13626   0.13942   0.14154
 Alpha virt. eigenvalues --    0.14661   0.14899   0.15437   0.15963   0.16509
 Alpha virt. eigenvalues --    0.16873   0.17031   0.17533   0.17644   0.18242
 Alpha virt. eigenvalues --    0.19804   0.20184   0.20726   0.21813   0.21959
 Alpha virt. eigenvalues --    0.22725   0.23307   0.24164   0.25497   0.25985
 Alpha virt. eigenvalues --    0.26917   0.27762   0.28231   0.29554   0.29785
 Alpha virt. eigenvalues --    0.30232   0.30884   0.31835   0.33271   0.34280
 Alpha virt. eigenvalues --    0.35551   0.36143   0.36783   0.37351   0.38091
 Alpha virt. eigenvalues --    0.39628   0.41054   0.41675   0.43061   0.45649
 Alpha virt. eigenvalues --    0.49014   0.50834   0.51952   0.54264   0.55137
 Alpha virt. eigenvalues --    0.56413   0.56836   0.57370   0.57814   0.58093
 Alpha virt. eigenvalues --    0.60150   0.61271   0.61847   0.62533   0.63036
 Alpha virt. eigenvalues --    0.65249   0.66032   0.69228   0.69482   0.70304
 Alpha virt. eigenvalues --    0.71173   0.72038   0.73612   0.74266   0.75008
 Alpha virt. eigenvalues --    0.75769   0.76381   0.78081   0.80916   0.82959
 Alpha virt. eigenvalues --    0.84375   0.84812   0.86709   0.88305   0.89603
 Alpha virt. eigenvalues --    0.90558   0.91085   0.91941   0.93092   0.94544
 Alpha virt. eigenvalues --    0.96536   0.98248   1.00373   1.01980   1.03303
 Alpha virt. eigenvalues --    1.03924   1.05462   1.07314   1.11271   1.13518
 Alpha virt. eigenvalues --    1.14807   1.16712   1.18016   1.24869   1.26624
 Alpha virt. eigenvalues --    1.28690   1.30738   1.30844   1.33509   1.36035
 Alpha virt. eigenvalues --    1.42513   1.47787   1.50448   1.51300   1.52903
 Alpha virt. eigenvalues --    1.53417   1.54221   1.57018   1.58540   1.58782
 Alpha virt. eigenvalues --    1.63359   1.64587   1.66145   1.66654   1.68101
 Alpha virt. eigenvalues --    1.69830   1.72667   1.75125   1.75433   1.77102
 Alpha virt. eigenvalues --    1.79859   1.83856   1.84364   1.87154   1.87762
 Alpha virt. eigenvalues --    1.91466   1.92275   1.93227   1.94583   1.95573
 Alpha virt. eigenvalues --    1.95824   1.97667   2.01123   2.01916   2.02011
 Alpha virt. eigenvalues --    2.04180   2.06483   2.07811   2.08873   2.09642
 Alpha virt. eigenvalues --    2.13212   2.24577   2.28123   2.31347   2.31981
 Alpha virt. eigenvalues --    2.33697   2.41003   2.46635   2.47582   2.50696
 Alpha virt. eigenvalues --    2.54191   2.57398   2.60195   2.63300   2.63675
 Alpha virt. eigenvalues --    2.66355   2.69893   2.71218   2.71837   2.72581
 Alpha virt. eigenvalues --    2.73539   2.73611   2.75535   2.78881   2.81797
 Alpha virt. eigenvalues --    2.82349   2.83946   2.85735   2.90869   2.92896
 Alpha virt. eigenvalues --    2.93861   2.95878   2.98421   2.99711   3.01054
 Alpha virt. eigenvalues --    3.05867   3.07555   3.11670   3.16195   3.24349
 Alpha virt. eigenvalues --    3.35587   3.38449   3.41760   3.47926   3.49851
 Alpha virt. eigenvalues --    3.53457   3.58735   3.62927   3.75467   3.81065
 Alpha virt. eigenvalues --    3.88773   4.00712   4.05765   4.14978   4.15868
 Alpha virt. eigenvalues --    4.81128   5.21800   5.23661   5.28013   8.21851
 Alpha virt. eigenvalues --   17.57692  17.61459  17.66276  23.62675  23.77854
 Alpha virt. eigenvalues --   23.96468  23.99559  24.07512  24.09821  24.18603
 Alpha virt. eigenvalues --   24.27968  50.04793 189.50999
          Condensed to atoms (all electrons):
               1          2          3          4          5          6
     1  O    8.338672   0.441672  -0.235586   0.007038   0.450676   0.322278
     2  S    0.441672  19.921325  -1.854715   0.315671  -3.688896   5.202280
     3  C   -0.235586  -1.854715   7.168303   0.070984   0.550832  -1.256604
     4  C    0.007038   0.315671   0.070984   5.723124   0.009275   0.694055
     5  C    0.450676  -3.688896   0.550832   0.009275  20.024855  -6.417958
     6  C    0.322278   5.202280  -1.256604   0.694055  -6.417958  30.635632
     7  C   -0.032509  -0.507341   0.081297  -0.035451  -1.026931  -2.921215
     8  C   -0.011481  -0.434948   0.211387  -0.047794   0.543813  -2.614563
     9  C   -0.016254   0.801170  -0.383574   0.064183  -1.386946   2.196708
    10  C   -0.775279  -3.803520   1.208009  -0.957086  -2.958818 -19.587459
    11  H   -0.020251  -0.323247   0.597962  -0.151525   0.024350  -0.128295
    12  H    0.003064   0.132151  -0.110440   0.382000  -0.062729  -0.031859
    13  H    0.001067  -0.054067  -0.004434   0.364981   0.039013   0.295059
    14  H    0.004833  -0.090850   0.036272  -0.004419  -0.024815   0.382399
    15  H   -0.000680   0.046213  -0.015963   0.002158  -0.087491   0.002327
    16  H   -0.000165  -0.017876   0.005800  -0.001505   0.057681  -0.070649
    17  H    0.002188   0.042957  -0.018475   0.002323   0.076017   0.146068
    18  H   -0.020181  -0.119201   0.072902  -0.004267  -0.024480  -0.082086
               7          8          9         10         11         12
     1  O   -0.032509  -0.011481  -0.016254  -0.775279  -0.020251   0.003064
     2  S   -0.507341  -0.434948   0.801170  -3.803520  -0.323247   0.132151
     3  C    0.081297   0.211387  -0.383574   1.208009   0.597962  -0.110440
     4  C   -0.035451  -0.047794   0.064183  -0.957086  -0.151525   0.382000
     5  C   -1.026931   0.543813  -1.386946  -2.958818   0.024350  -0.062729
     6  C   -2.921215  -2.614563   2.196708 -19.587459  -0.128295  -0.031859
     7  C    7.388632   0.421625  -0.132303   2.535505   0.010817  -0.007717
     8  C    0.421625   6.687955  -0.421921   1.602201   0.013349  -0.002603
     9  C   -0.132303  -0.421921   6.719955  -1.413827  -0.026080   0.024197
    10  C    2.535505   1.602201  -1.413827  29.124465   0.178419   0.066233
    11  H    0.010817   0.013349  -0.026080   0.178419   0.550903  -0.040149
    12  H   -0.007717  -0.002603   0.024197   0.066233  -0.040149   0.540314
    13  H   -0.015554  -0.004671  -0.006235  -0.331417   0.017523  -0.060821
    14  H   -0.013475   0.045645  -0.019019  -0.010723   0.003729  -0.001761
    15  H    0.443596  -0.096873   0.057856  -0.037112  -0.000886   0.000402
    16  H   -0.075209   0.493087  -0.120437   0.063469   0.000343  -0.000162
    17  H   -0.001048  -0.114443   0.467743  -0.285022  -0.001594   0.001048
    18  H    0.047225  -0.003317  -0.168882   0.571390   0.009383  -0.010417
              13         14         15         16         17         18
     1  O    0.001067   0.004833  -0.000680  -0.000165   0.002188  -0.020181
     2  S   -0.054067  -0.090850   0.046213  -0.017876   0.042957  -0.119201
     3  C   -0.004434   0.036272  -0.015963   0.005800  -0.018475   0.072902
     4  C    0.364981  -0.004419   0.002158  -0.001505   0.002323  -0.004267
     5  C    0.039013  -0.024815  -0.087491   0.057681   0.076017  -0.024480
     6  C    0.295059   0.382399   0.002327  -0.070649   0.146068  -0.082086
     7  C   -0.015554  -0.013475   0.443596  -0.075209  -0.001048   0.047225
     8  C   -0.004671   0.045645  -0.096873   0.493087  -0.114443  -0.003317
     9  C   -0.006235  -0.019019   0.057856  -0.120437   0.467743  -0.168882
    10  C   -0.331417  -0.010723  -0.037112   0.063469  -0.285022   0.571390
    11  H    0.017523   0.003729  -0.000886   0.000343  -0.001594   0.009383
    12  H   -0.060821  -0.001761   0.000402  -0.000162   0.001048  -0.010417
    13  H    0.607175   0.003394  -0.000940   0.000023   0.000295   0.002956
    14  H    0.003394   0.491804  -0.022580   0.002133  -0.000546  -0.000879
    15  H   -0.000940  -0.022580   0.497678  -0.017378   0.003443   0.000498
    16  H    0.000023   0.002133  -0.017378   0.495249  -0.014447   0.000894
    17  H    0.000295  -0.000546   0.003443  -0.014447   0.489300  -0.015547
    18  H    0.002956  -0.000879   0.000498   0.000894  -0.015547   0.477331
 Mulliken charges:
               1
     1  O   -0.459103
     2  S   -0.008778
     3  C   -0.123956
     4  C   -0.433745
     5  C   -0.097446
     6  C   -0.766120
     7  C   -0.159944
     8  C   -0.266449
     9  C   -0.236333
    10  C    0.810570
    11  H    0.285249
    12  H    0.179249
    13  H    0.146652
    14  H    0.218857
    15  H    0.225733
    16  H    0.199147
    17  H    0.219739
    18  H    0.266679
 Sum of Mulliken charges =  -0.00000
 Mulliken charges with hydrogens summed into heavy atoms:
               1
     1  O   -0.459103
     2  S   -0.008778
     3  C    0.161293
     4  C   -0.107844
     5  C   -0.097446
     6  C   -0.547263
     7  C    0.065788
     8  C   -0.067302
     9  C   -0.016594
    10  C    1.077249
 Electronic spatial extent (au):  <R**2>=           1712.3374
 Charge=             -0.0000 electrons
 Dipole moment (field-independent basis, Debye):
    X=              2.7546    Y=              3.8394    Z=             -3.0848  Tot=              5.6431
 Quadrupole moment (field-independent basis, Debye-Ang):
   XX=            -59.3882   YY=            -68.9643   ZZ=            -67.6421
   XY=             -7.1335   XZ=              5.5740   YZ=              8.0835
 Traceless Quadrupole moment (field-independent basis, Debye-Ang):
   XX=              5.9433   YY=             -3.6328   ZZ=             -2.3105
   XY=             -7.1335   XZ=              5.5740   YZ=              8.0835
 Octapole moment (field-independent basis, Debye-Ang**2):
  XXX=             14.1045  YYY=              7.5241  ZZZ=             -3.2380  XYY=             -0.9808
  XXY=             18.2202  XXZ=            -12.3948  XZZ=             12.5291  YZZ=              6.3278
  YYZ=             -3.7062  XYZ=              0.2070
 Hexadecapole moment (field-independent basis, Debye-Ang**3):
 XXXX=          -1390.2696 YYYY=           -449.2714 ZZZZ=           -349.3349 XXXY=             -7.5856
 XXXZ=              8.9869 YYYX=            -14.8128 YYYZ=             14.3966 ZZZX=              2.3431
 ZZZY=             19.0046 XXYY=           -350.7274 XXZZ=           -331.3609 YYZZ=           -131.2862
 XXYZ=             38.5674 YYXZ=              7.2794 ZZXY=             -8.1111
 N-N= 5.710408640387D+02 E-N=-2.983264846563D+03  KE= 7.805631069262D+02
 No NMR shielding tensors so no spin-rotation constants.
 Leave Link  601 at Sun Oct 13 23:14:36 2019, MaxMem= 10737418240 cpu:               2.7 elap:               0.1
 (Enter /apps/cent7/gaussian/g16-A.03/g16-haswell/g16/l701.exe)
 ... and contract with generalized density number  0.
 Compute integral first derivatives.
 Leave Link  701 at Sun Oct 13 23:14:36 2019, MaxMem= 10737418240 cpu:               5.4 elap:               0.3
 (Enter /apps/cent7/gaussian/g16-A.03/g16-haswell/g16/l702.exe)
 L702 exits ... SP integral derivatives will be done elsewhere.
 Leave Link  702 at Sun Oct 13 23:14:36 2019, MaxMem= 10737418240 cpu:               0.5 elap:               0.0
 (Enter /apps/cent7/gaussian/g16-A.03/g16-haswell/g16/l703.exe)
 Integral derivatives from FoFJK, PRISM(SPDF).
 Compute integral first derivatives, UseDBF=F ICtDFT=           0.
 Calling FoFJK, ICntrl=      2127 FMM=F ISym2X=0 I1Cent= 0 IOpClX= 0 NMat=1 NMatS=1 NMatT=0.
 FoFJK:  IHMeth= 1 ICntrl=    2127 DoSepK=F KAlg= 0 I1Cent=           0 FoldK=F
 IRaf=         0 NMat=       1 IRICut=       1 DoRegI=T DoRafI=F ISym2E= 0 IDoP0=0 IntGTp=1.
 FoFCou: FMM=F IPFlag=           0 FMFlag=      100000 FMFlg1=         800
         NFxFlg=           0 DoJE=F BraDBF=F KetDBF=F FulRan=T
         wScrn=  0.000000 ICntrl=      2127 IOpCl=  0 I1Cent=           0 NGrid=           0
         NMat0=    1 NMatS0=      1 NMatT0=    0 NMatD0=    1 NMtDS0=    0 NMtDT0=    0
 Symmetry not used in FoFCou.
 Leave Link  703 at Sun Oct 13 23:14:39 2019, MaxMem= 10737418240 cpu:              62.6 elap:               2.6
 (Enter /apps/cent7/gaussian/g16-A.03/g16-haswell/g16/l716.exe)
 Dipole        = 1.08376208D+00 1.51052724D+00-1.21366806D+00
 ***** Axes restored to original set *****
 -------------------------------------------------------------------
 Center     Atomic                   Forces (Hartrees/Bohr)
 Number     Number              X              Y              Z
 -------------------------------------------------------------------
      1        8           0.035659719    0.005845930   -0.045436554
      2       16          -0.002478209   -0.040420489    0.079300504
      3        6          -0.021654775    0.008114529   -0.032473222
      4        6           0.020691571    0.021886459   -0.016277166
      5        6          -0.000468306    0.029685561   -0.020759519
      6        6          -0.006360358    0.000961015   -0.002017482
      7        6          -0.011473283   -0.001560326   -0.000930762
      8        6          -0.000367084   -0.011627916   -0.000051966
      9        6           0.007686256   -0.011279187    0.002088116
     10        6           0.005132914    0.003128332    0.000144441
     11        1          -0.024785791   -0.000067090    0.044124043
     12        1           0.004612289   -0.029301756   -0.020525959
     13        1          -0.004377300    0.034840023    0.011037648
     14        1          -0.003671254    0.001739208   -0.000567585
     15        1          -0.004586028   -0.002343241   -0.000129665
     16        1          -0.000712041   -0.004600795   -0.000309410
     17        1           0.002968518   -0.004099731    0.000757801
     18        1           0.004183159   -0.000900527    0.002026735
 -------------------------------------------------------------------
 Cartesian Forces:  Max     0.079300504 RMS     0.019835507
 Leave Link  716 at Sun Oct 13 23:14:39 2019, MaxMem= 10737418240 cpu:               0.6 elap:               0.0
 (Enter /apps/cent7/gaussian/g16-A.03/g16-haswell/g16/l103.exe)

 GradGradGradGradGradGradGradGradGradGradGradGradGradGradGradGradGradGrad
 Berny optimization.
 FormGI is forming the generalized inverse of G from B-inverse, IUseBI=4.
 Internal  Forces:  Max     0.056977572 RMS     0.015077143
 Search for a local minimum.
 Step number   1 out of a maximum of   91
 All quantities printed in internal units (Hartrees-Bohrs-Radians)
 RMS Force = .15077D-01 SwitMx=.10000D-02 MixMth= 1
 Mixed Optimization -- RFO/linear search
 Second derivative matrix not updated -- first step.
 ITU=  0
     Eigenvalues ---    0.00707   0.01087   0.01560   0.01767   0.01942
     Eigenvalues ---    0.01956   0.01970   0.01980   0.01991   0.01992
     Eigenvalues ---    0.01994   0.01996   0.02928   0.02928   0.06737
     Eigenvalues ---    0.16000   0.16000   0.16000   0.16000   0.16000
     Eigenvalues ---    0.16000   0.16000   0.16000   0.17905   0.22000
     Eigenvalues ---    0.22000   0.22000   0.23476   0.24989   0.25000
     Eigenvalues ---    0.28230   0.30893   0.34809   0.34810   0.34812
     Eigenvalues ---    0.34814   0.34814   0.34817   0.34819   0.34819
     Eigenvalues ---    0.40330   0.40474   0.43865   0.44170   0.44376
     Eigenvalues ---    0.44466   0.49881   0.57985
 RFO step:  Lambda=-7.94722357D-02 EMin= 7.07165119D-03
 Linear search not attempted -- first point.
 Maximum step size (   0.300) exceeded in Quadratic search.
    -- Step size scaled by   0.844
 Iteration  1 RMS(Cart)=  0.15175439 RMS(Int)=  0.01178332
 Iteration  2 RMS(Cart)=  0.01652234 RMS(Int)=  0.00119080
 Iteration  3 RMS(Cart)=  0.00035938 RMS(Int)=  0.00114248
 Iteration  4 RMS(Cart)=  0.00000023 RMS(Int)=  0.00114248
 ITry= 1 IFail=0 DXMaxC= 8.31D-01 DCOld= 1.00D+10 DXMaxT= 3.00D-01 DXLimC= 3.00D+00 Rises=F
 Variable       Old X    -DE/DX   Delta X   Delta X   Delta X     New X
                                 (Linear)    (Quad)   (Total)
    R1        3.03686  -0.05698   0.00000  -0.08314  -0.08314   2.95372
    R2        3.29917   0.01143   0.00000   0.02483   0.02483   3.32401
    R3        3.35338  -0.00189   0.00000  -0.00441  -0.00441   3.34897
    R4        2.52572   0.03737   0.00000   0.04783   0.04783   2.57355
    R5        2.05978   0.00072   0.00000   0.00143   0.00143   2.06121
    R6        2.05981  -0.00156   0.00000  -0.00307  -0.00307   2.05673
    R7        2.05972   0.00105   0.00000   0.00207   0.00207   2.06179
    R8        2.66558  -0.01947   0.00000  -0.03181  -0.03178   2.63380
    R9        2.66892  -0.01894   0.00000  -0.03115  -0.03112   2.63781
   R10        2.65932  -0.01649   0.00000  -0.02650  -0.02651   2.63282
   R11        2.05969  -0.00392   0.00000  -0.00774  -0.00774   2.05195
   R12        2.65965  -0.01525   0.00000  -0.02440  -0.02443   2.63521
   R13        2.05985  -0.00505   0.00000  -0.00998  -0.00998   2.04988
   R14        2.65828  -0.01201   0.00000  -0.01920  -0.01923   2.63906
   R15        2.05977  -0.00465   0.00000  -0.00918  -0.00918   2.05060
   R16        2.66070  -0.01958   0.00000  -0.03165  -0.03165   2.62905
   R17        2.05984  -0.00502   0.00000  -0.00991  -0.00991   2.04993
   R18        2.05970  -0.00397   0.00000  -0.00784  -0.00784   2.05186
    A1        1.83156  -0.00339   0.00000  -0.04143  -0.04447   1.78710
    A2        1.82802   0.01405   0.00000   0.01594   0.00901   1.83703
    A3        1.92262  -0.05591   0.00000  -0.15711  -0.15936   1.76325
    A4        2.17954   0.00081   0.00000   0.00229   0.00225   2.18180
    A5        2.30091  -0.04155   0.00000  -0.14611  -0.14613   2.15478
    A6        1.80273   0.04073   0.00000   0.14381   0.14376   1.94649
    A7        2.09433  -0.00097   0.00000  -0.00341  -0.00341   2.09092
    A8        2.09437   0.00988   0.00000   0.03480   0.03480   2.12917
    A9        2.09449  -0.00891   0.00000  -0.03139  -0.03139   2.06309
   A10        2.07457  -0.00500   0.00000  -0.01278  -0.01282   2.06175
   A11        2.12286  -0.00401   0.00000  -0.01027  -0.01031   2.11255
   A12        2.08539   0.00899   0.00000   0.02286   0.02291   2.10830
   A13        2.09629  -0.00429   0.00000  -0.01183  -0.01180   2.08448
   A14        2.09558   0.00091   0.00000   0.00157   0.00156   2.09713
   A15        2.09132   0.00338   0.00000   0.01026   0.01024   2.10157
   A16        2.09775  -0.00113   0.00000  -0.00242  -0.00245   2.09530
   A17        2.09247  -0.00032   0.00000  -0.00193  -0.00191   2.09056
   A18        2.09296   0.00146   0.00000   0.00434   0.00436   2.09732
   A19        2.09388   0.00135   0.00000   0.00470   0.00464   2.09852
   A20        2.09511  -0.00093   0.00000  -0.00326  -0.00323   2.09188
   A21        2.09419  -0.00041   0.00000  -0.00144  -0.00141   2.09278
   A22        2.09264   0.00007   0.00000   0.00071   0.00068   2.09333
   A23        2.09454   0.00097   0.00000   0.00319   0.00320   2.09774
   A24        2.09601  -0.00104   0.00000  -0.00390  -0.00389   2.09212
   A25        2.10036  -0.00497   0.00000  -0.01399  -0.01397   2.08640
   A26        2.09424   0.00020   0.00000  -0.00107  -0.00109   2.09314
   A27        2.08859   0.00477   0.00000   0.01506   0.01503   2.10362
    D1        2.24812  -0.00841   0.00000  -0.06672  -0.06300   2.18512
    D2       -0.89337  -0.00623   0.00000  -0.04773  -0.04525  -0.93862
    D3        0.28923   0.00162   0.00000   0.00474   0.00226   0.29148
    D4       -2.85227   0.00381   0.00000   0.02372   0.02000  -2.83226
    D5        2.24020   0.01127   0.00000   0.06061   0.06006   2.30026
    D6       -0.87236   0.01198   0.00000   0.06794   0.06727  -0.80509
    D7       -2.08180  -0.00988   0.00000  -0.04743  -0.04676  -2.12856
    D8        1.08883  -0.00917   0.00000  -0.04011  -0.03956   1.04927
    D9       -2.12800  -0.03112   0.00000  -0.24071  -0.24001  -2.36801
   D10        1.01359  -0.03095   0.00000  -0.23939  -0.23870   0.77489
   D11        1.01352  -0.03280   0.00000  -0.25526  -0.25595   0.75757
   D12       -2.12808  -0.03263   0.00000  -0.25394  -0.25463  -2.38271
   D13       -3.10813   0.00096   0.00000   0.00811   0.00812  -3.10001
   D14        0.03362   0.00054   0.00000   0.00450   0.00453   0.03816
   D15        0.00506   0.00005   0.00000   0.00040   0.00038   0.00544
   D16       -3.13637  -0.00037   0.00000  -0.00321  -0.00321  -3.13958
   D17        3.10319  -0.00087   0.00000  -0.00733  -0.00734   3.09584
   D18       -0.03841  -0.00003   0.00000  -0.00011  -0.00017  -0.03858
   D19       -0.00920   0.00008   0.00000   0.00062   0.00065  -0.00855
   D20        3.13239   0.00092   0.00000   0.00784   0.00783   3.14022
   D21        0.00463  -0.00026   0.00000  -0.00227  -0.00225   0.00237
   D22       -3.13699  -0.00033   0.00000  -0.00289  -0.00288  -3.13987
   D23       -3.13713   0.00016   0.00000   0.00133   0.00135  -3.13578
   D24        0.00444   0.00009   0.00000   0.00071   0.00072   0.00516
   D25       -0.01024   0.00038   0.00000   0.00319   0.00320  -0.00704
   D26        3.13130   0.00010   0.00000   0.00092   0.00092   3.13221
   D27        3.13137   0.00046   0.00000   0.00381   0.00383   3.13520
   D28       -0.01027   0.00018   0.00000   0.00154   0.00155  -0.00872
   D29        0.00611  -0.00027   0.00000  -0.00218  -0.00219   0.00391
   D30       -3.13551  -0.00049   0.00000  -0.00405  -0.00407  -3.13959
   D31       -3.13543   0.00001   0.00000   0.00008   0.00009  -3.13534
   D32        0.00613  -0.00021   0.00000  -0.00178  -0.00179   0.00435
   D33        0.00363   0.00001   0.00000   0.00020   0.00019   0.00382
   D34       -3.13796  -0.00083   0.00000  -0.00699  -0.00703   3.13820
   D35       -3.13794   0.00023   0.00000   0.00207   0.00207  -3.13587
   D36        0.00366  -0.00061   0.00000  -0.00512  -0.00515  -0.00149
         Item               Value     Threshold  Converged?
 Maximum Force            0.056978     0.000450     NO 
 RMS     Force            0.015077     0.000300     NO 
 Maximum Displacement     0.830609     0.001800     NO 
 RMS     Displacement     0.162089     0.001200     NO 
 Predicted change in Energy=-5.261182D-02
 Lowest energy point so far.  Saving SCF results.
 GradGradGradGradGradGradGradGradGradGradGradGradGradGradGradGradGradGrad

 Leave Link  103 at Sun Oct 13 23:14:39 2019, MaxMem= 10737418240 cpu:               1.8 elap:               0.1
 (Enter /apps/cent7/gaussian/g16-A.03/g16-haswell/g16/l202.exe)
                          Input orientation:                          
 ---------------------------------------------------------------------
 Center     Atomic      Atomic             Coordinates (Angstroms)
 Number     Number       Type             X           Y           Z
 ---------------------------------------------------------------------
      1          8           0       -1.716957   -1.857906    1.073814
      2         16           0       -0.472951   -1.742516    0.134544
      3          6           0       -1.162837   -2.077253   -1.448506
      4          6           0       -1.058645   -1.262009   -2.534410
      5          6           0       -0.148092   -0.005371    0.002297
      6          6           0        1.161433    0.434230    0.187831
      7          6           0        1.438889    1.798693    0.139472
      8          6           0        0.410968    2.712644   -0.090074
      9          6           0       -0.898186    2.265366   -0.280723
     10          6           0       -1.179977    0.903669   -0.237097
     11          1           0       -1.747316   -2.970358   -1.673164
     12          1           0       -1.933300   -1.071064   -3.153347
     13          1           0       -0.116638   -0.786760   -2.812182
     14          1           0        1.956472   -0.282164    0.371548
     15          1           0        2.456343    2.146961    0.281515
     16          1           0        0.629219    3.775220   -0.118416
     17          1           0       -1.696939    2.976845   -0.461086
     18          1           0       -2.194886    0.545572   -0.380915
 ---------------------------------------------------------------------
                    Distance matrix (angstroms):
                    1          2          3          4          5
     1  O    0.000000
     2  S    1.563039   0.000000
     3  C    2.591767   1.758988   0.000000
     4  C    3.715878   2.774390   1.361861   0.000000
     5  C    2.653558   1.772200   2.725294   2.973739   0.000000
     6  C    3.784704   2.722550   3.793069   3.900842   1.393747
     7  C    4.919662   4.024341   4.930883   4.770243   2.406652
     8  C    5.174228   4.547551   5.221620   4.892076   2.776453
     9  C    4.416619   4.051714   4.504675   4.188941   2.408109
    10  C    3.103729   2.764108   3.217716   3.159513   1.395868
    11  H    2.963842   2.529706   1.090745   2.033340   3.762424
    12  H    4.305207   3.659740   2.124268   1.088377   3.778988
    13  H    4.336973   3.118273   2.149305   1.091052   2.921104
    14  H    4.058352   2.844450   4.032992   4.300653   2.154566
    15  H    5.838076   4.871385   5.825411   5.648508   3.390218
    16  H    6.217561   5.632422   6.263548   5.836059   3.861561
    17  H    5.072587   4.911750   5.177274   4.761720   3.392236
    18  H    2.849799   2.909656   3.013981   3.032480   2.154009
                    6          7          8          9         10
     6  C    0.000000
     7  C    1.393226   0.000000
     8  C    2.414870   1.394496   0.000000
     9  C    2.795467   2.419973   1.396528   0.000000
    10  C    2.425518   2.793086   2.413527   1.391233   0.000000
    11  H    4.849263   6.015098   6.281790   5.483860   4.170401
    12  H    4.796535   5.518135   5.403303   4.522742   3.601607
    13  H    3.482005   4.220959   4.464759   4.041606   3.258727
    14  H    1.085845   2.156785   3.401552   3.881294   3.407926
    15  H    2.149189   1.084748   2.154445   3.403380   3.877828
    16  H    3.396947   2.151448   1.085129   2.153827   3.396039
    17  H    3.880242   3.403252   2.156554   1.084776   2.148367
    18  H    3.405987   3.878845   3.401657   2.156191   1.085798
                   11         12         13         14         15
    11  H    0.000000
    12  H    2.415129   0.000000
    13  H    2.953738   1.870156   0.000000
    14  H    5.012513   5.308255   3.832563   0.000000
    15  H    6.904960   6.436064   4.979750   2.481658   0.000000
    16  H    7.319015   6.266081   5.350172   4.296980   2.479829
    17  H    6.069671   4.867207   4.710598   4.966069   4.299990
    18  H    3.772531   3.219987   3.464864   4.299433   4.963586
                   16         17         18
    16  H    0.000000
    17  H    2.483110   0.000000
    18  H    4.298268   2.483037   0.000000
 Stoichiometry    C8H8OS
 Framework group  C1[X(C8H8OS)]
 Deg. of freedom    48
 Full point group                 C1      NOp   1
 RotChk:  IX=0 Diff= 1.64D-01
 Largest Abelian subgroup         C1      NOp   1
 Largest concise Abelian subgroup C1      NOp   1
                         Standard orientation:                         
 ---------------------------------------------------------------------
 Center     Atomic      Atomic             Coordinates (Angstroms)
 Number     Number       Type             X           Y           Z
 ---------------------------------------------------------------------
      1          8           0       -1.912771   -1.097339    1.307788
      2         16           0       -1.471954   -0.783039   -0.158495
      3          6           0       -2.221168    0.781332   -0.450831
      4          6           0       -1.560671    1.899541   -0.860731
      5          6           0        0.236107   -0.324713   -0.043781
      6          6           0        1.136384   -0.917916   -0.927038
      7          6           0        2.492732   -0.615230   -0.828140
      8          6           0        2.940727    0.272124    0.149879
      9          6           0        2.032864    0.867449    1.028322
     10          6           0        0.676942    0.571449    0.931413
     11          1           0       -3.284884    0.974995   -0.306861
     12          1           0       -1.773500    2.856970   -0.388928
     13          1           0       -0.815633    1.871475   -1.657303
     14          1           0        0.781838   -1.612197   -1.682902
     15          1           0        3.198170   -1.072445   -1.513699
     16          1           0        3.998895    0.498883    0.229666
     17          1           0        2.381932    1.559049    1.787650
     18          1           0       -0.036889    1.026388    1.611438
 ---------------------------------------------------------------------
 Rotational constants (GHZ):           2.1549037           0.8306317           0.7741208
 Leave Link  202 at Sun Oct 13 23:14:39 2019, MaxMem= 10737418240 cpu:               0.2 elap:               0.0
 (Enter /apps/cent7/gaussian/g16-A.03/g16-haswell/g16/l301.exe)
 Standard basis: 6-311++G(d,p) (5D, 7F)
 Ernie: Thresh=  0.10000D-02 Tol=  0.10000D-05 Strict=F.
 There are   294 symmetry adapted cartesian basis functions of A   symmetry.
 There are   284 symmetry adapted basis functions of A   symmetry.
   284 basis functions,   446 primitive gaussians,   294 cartesian basis functions
    40 alpha electrons       40 beta electrons
       nuclear repulsion energy       580.4628515723 Hartrees.
 IExCor= 4336 DFT=T Ex+Corr=M062X ExCW=0 ScaHFX=  0.540000
 ScaDFX=  1.000000  1.000000  1.000000  1.000000 ScalE2=  1.000000  1.000000
 IRadAn=      5 IRanWt=     -1 IRanGd=            0 ICorTp=0 IEmpDi=  4
 NAtoms=   18 NActive=   18 NUniq=   18 SFac= 1.00D+00 NAtFMM=   60 NAOKFM=F Big=F
 Integral buffers will be    131072 words long.
 Raffenetti 2 integral format.
 Two-electron integral symmetry is turned on.
 Leave Link  301 at Sun Oct 13 23:14:39 2019, MaxMem= 10737418240 cpu:               1.3 elap:               0.1
 (Enter /apps/cent7/gaussian/g16-A.03/g16-haswell/g16/l302.exe)
 NPDir=0 NMtPBC=     1 NCelOv=     1 NCel=       1 NClECP=     1 NCelD=      1
         NCelK=      1 NCelE2=     1 NClLst=     1 CellRange=     0.0.
 One-electron integrals computed using PRISM.
 One-electron integral symmetry used in STVInt
 NBasis=   284 RedAO= T EigKep=  2.73D-06  NBF=   284
 NBsUse=   283 1.00D-06 EigRej=  7.84D-07 NBFU=   283
 Precomputing XC quadrature grid using
 IXCGrd= 4 IRadAn=           5 IRanWt=          -1 IRanGd=           0 AccXCQ= 0.00D+00.
 Generated NRdTot=       0 NPtTot=           0 NUsed=           0 NTot=          32
 NSgBfM=   294   294   294   294   294 MxSgAt=    18 MxSgA2=    18.
 Leave Link  302 at Sun Oct 13 23:14:40 2019, MaxMem= 10737418240 cpu:               4.2 elap:               0.2
 (Enter /apps/cent7/gaussian/g16-A.03/g16-haswell/g16/l303.exe)
 DipDrv:  MaxL=1.
 Leave Link  303 at Sun Oct 13 23:14:40 2019, MaxMem= 10737418240 cpu:               1.4 elap:               0.1
 (Enter /apps/cent7/gaussian/g16-A.03/g16-haswell/g16/l401.exe)
 Initial guess from the checkpoint file:  "34.chk"
 B after Tr=    -0.000000   -0.000000    0.000000
         Rot=    0.998423    0.048276    0.016036    0.023727 Ang=   6.44 deg.
 Guess basis will be translated and rotated to current coordinates.
 JPrj=2 DoOrth=T DoCkMO=T.
 Generating alternative initial guess.
 ExpMin= 3.60D-02 ExpMax= 9.34D+04 ExpMxC= 3.17D+03 IAcc=3 IRadAn=         5 AccDes= 0.00D+00
 Harris functional with IExCor= 1009 and IRadAn=       5 diagonalized for initial guess.
 HarFok:  IExCor= 1009 AccDes= 0.00D+00 IRadAn=         5 IDoV= 1 UseB2=F ITyADJ=14
 ICtDFT=  3500011 ScaDFX=  1.000000  1.000000  1.000000  1.000000
 FoFCou: FMM=F IPFlag=           0 FMFlag=      100000 FMFlg1=           0
         NFxFlg=           0 DoJE=T BraDBF=F KetDBF=T FulRan=T
         wScrn=  0.000000 ICntrl=       500 IOpCl=  0 I1Cent=   200000004 NGrid=           0
         NMat0=    1 NMatS0=      1 NMatT0=    0 NMatD0=    1 NMtDS0=    0 NMtDT0=    0
 Petite list used in FoFCou.
 Harris En= -782.590483431512    
 Leave Link  401 at Sun Oct 13 23:14:40 2019, MaxMem= 10737418240 cpu:              13.4 elap:               0.6
 (Enter /apps/cent7/gaussian/g16-A.03/g16-haswell/g16/l502.exe)
 Integral symmetry usage will be decided dynamically.
 Closed shell SCF:
 Using DIIS extrapolation, IDIIS=  1040.
 NGot= 10737418240 LenX= 10737235463 LenY= 10737148586
 Requested convergence on RMS density matrix=1.00D-08 within 128 cycles.
 Requested convergence on MAX density matrix=1.00D-06.
 Requested convergence on             energy=1.00D-06.
 No special actions if energy rises.
 Fock matrices will be formed incrementally for  20 cycles.

 Cycle   1  Pass 1  IDiag  1:
 FoFJK:  IHMeth= 1 ICntrl=       0 DoSepK=F KAlg= 0 I1Cent=           0 FoldK=F
 IRaf= 950000000 NMat=       1 IRICut=       1 DoRegI=T DoRafI=F ISym2E= 0 IDoP0=0 IntGTp=1.
 FoFCou: FMM=F IPFlag=           0 FMFlag=      100000 FMFlg1=           0
         NFxFlg=           0 DoJE=F BraDBF=F KetDBF=F FulRan=T
         wScrn=  0.000000 ICntrl=         0 IOpCl=  0 I1Cent=           0 NGrid=           0
         NMat0=    1 NMatS0=      1 NMatT0=    0 NMatD0=    1 NMtDS0=    0 NMtDT0=    0
 Symmetry not used in FoFCou.
 E= -782.842666021690    
 DIIS: error= 5.77D-03 at cycle   1 NSaved=   1.
 NSaved= 1 IEnMin= 1 EnMin= -782.842666021690     IErMin= 1 ErrMin= 5.77D-03
 ErrMax= 5.77D-03  0.00D+00 EMaxC= 1.00D-01 BMatC= 1.97D-02 BMatP= 1.97D-02
 IDIUse=3 WtCom= 9.42D-01 WtEn= 5.77D-02
 Coeff-Com:  0.100D+01
 Coeff-En:   0.100D+01
 Coeff:      0.100D+01
 Gap=     0.450 Goal=   None    Shift=    0.000
 GapD=    0.450 DampG=2.000 DampE=1.000 DampFc=2.0000 IDamp=-1.
 RMSDP=3.51D-02 MaxDP=4.30D+00              OVMax= 5.11D-02

 Cycle   2  Pass 1  IDiag  1:
 RMSU=  2.20D-02    CP:  1.25D+00
 E= -782.872068512119     Delta-E=       -0.029402490429 Rises=F Damp=F
 DIIS: error= 1.86D-03 at cycle   2 NSaved=   2.
 NSaved= 2 IEnMin= 2 EnMin= -782.872068512119     IErMin= 2 ErrMin= 1.86D-03
 ErrMax= 1.86D-03  0.00D+00 EMaxC= 1.00D-01 BMatC= 1.41D-03 BMatP= 1.97D-02
 IDIUse=3 WtCom= 9.81D-01 WtEn= 1.86D-02
 Coeff-Com: -0.238D-02 0.100D+01
 Coeff-En:   0.000D+00 0.100D+01
 Coeff:     -0.234D-02 0.100D+01
 Gap=     0.247 Goal=   None    Shift=    0.000
 RMSDP=2.34D-02 MaxDP=2.87D+00 DE=-2.94D-02 OVMax= 2.27D-02

 Cycle   3  Pass 1  IDiag  1:
 RMSU=  4.38D-03    CP:  1.45D+00  1.27D+00
 E= -782.872289334266     Delta-E=       -0.000220822147 Rises=F Damp=F
 DIIS: error= 2.54D-03 at cycle   3 NSaved=   3.
 NSaved= 3 IEnMin= 3 EnMin= -782.872289334266     IErMin= 2 ErrMin= 1.86D-03
 ErrMax= 2.54D-03  0.00D+00 EMaxC= 1.00D-01 BMatC= 2.56D-03 BMatP= 1.41D-03
 IDIUse=3 WtCom= 1.66D-01 WtEn= 8.34D-01
 Coeff-Com: -0.634D-01 0.624D+00 0.439D+00
 Coeff-En:   0.000D+00 0.459D+00 0.541D+00
 Coeff:     -0.105D-01 0.486D+00 0.524D+00
 Gap=     0.255 Goal=   None    Shift=    0.000
 RMSDP=1.25D-02 MaxDP=1.48D+00 DE=-2.21D-04 OVMax= 1.39D-02

 Cycle   4  Pass 1  IDiag  1:
 RMSU=  1.84D-03    CP:  1.34D+00  1.18D+00  3.80D-01
 E= -782.873892841287     Delta-E=       -0.001603507021 Rises=F Damp=F
 DIIS: error= 1.24D-03 at cycle   4 NSaved=   4.
 NSaved= 4 IEnMin= 4 EnMin= -782.873892841287     IErMin= 4 ErrMin= 1.24D-03
 ErrMax= 1.24D-03  0.00D+00 EMaxC= 1.00D-01 BMatC= 4.56D-04 BMatP= 1.41D-03
 IDIUse=3 WtCom= 9.88D-01 WtEn= 1.24D-02
 Coeff-Com: -0.195D-01 0.357D-01 0.306D+00 0.678D+00
 Coeff-En:   0.000D+00 0.000D+00 0.158D+00 0.842D+00
 Coeff:     -0.192D-01 0.353D-01 0.304D+00 0.680D+00
 Gap=     0.251 Goal=   None    Shift=    0.000
 RMSDP=5.84D-03 MaxDP=7.25D-01 DE=-1.60D-03 OVMax= 5.25D-03

 Cycle   5  Pass 1  IDiag  1:
 RMSU=  3.56D-04    CP:  1.39D+00  1.24D+00  6.46D-01  8.31D-01
 E= -782.874259166810     Delta-E=       -0.000366325522 Rises=F Damp=F
 DIIS: error= 1.84D-04 at cycle   5 NSaved=   5.
 NSaved= 5 IEnMin= 5 EnMin= -782.874259166810     IErMin= 5 ErrMin= 1.84D-04
 ErrMax= 1.84D-04  0.00D+00 EMaxC= 1.00D-01 BMatC= 1.14D-05 BMatP= 4.56D-04
 IDIUse=3 WtCom= 9.98D-01 WtEn= 1.84D-03
 Coeff-Com:  0.104D-02-0.777D-01 0.574D-01 0.289D+00 0.731D+00
 Coeff-En:   0.000D+00 0.000D+00 0.000D+00 0.000D+00 0.100D+01
 Coeff:      0.104D-02-0.776D-01 0.573D-01 0.288D+00 0.731D+00
 Gap=     0.250 Goal=   None    Shift=    0.000
 RMSDP=3.63D-04 MaxDP=3.62D-02 DE=-3.66D-04 OVMax= 1.32D-03

 Cycle   6  Pass 1  IDiag  1:
 RMSU=  9.74D-05    CP:  1.39D+00  1.24D+00  6.65D-01  9.31D-01  1.15D+00
[...]
 393,-0.0087741,-0.0153144,-0.0909449,-0.011854,0.1323833,-0.0321666,0.
 0043231,-0.0348834,0.0726902,-0.038797,-0.0052802,-0.0451956,-0.049861
 8,0.0897285,-0.042166,-0.0076834,-0.0479454,0.0280403,0.0168563,-0.007
 8351,0.0205358,0.0953637,0.0509108,0.046024,0.0115027,0.0720656,0.0147
 458,0.0037433,0.0166018,0.0094324,0.1223303,-0.0495279,-0.0370614,0.02
 15281,-0.0369759,0.0447142,0.0014399,0.0277467,0.0131035,0.1358243,0.0
 675042,-0.0372409,0.0100322,-0.0380025,-0.0536903,0.010785,0.0127407,0
 .0157326,0.1355223,0.0148151,0.0598834,0.014511,0.0518325,-0.0215871,-
 0.008715,0.020047,0.0044447,0.1345992,0.0708592,0.0130206,0.0053757,-0
 .0085513,0.1298013,0.019208,0.009163,0.0039139,0.1310652\Polar=108.242
 8322,12.645451,131.995591,-9.1837287,2.4493631,93.3873498\Quadrupole=-
 2.4188741,4.2332129,-1.8143388,-2.4040633,2.6685975,4.2132824\PG=C01 [
 X(C8H8O1S1)]\NImag=0\\0.39646063,0.00806958,0.04024363,-0.15358545,-0.
 00043937,0.09879665,-0.38214564,0.02520330,0.10988794,0.48719602,0.006
 03494,-0.04939248,-0.00269600,0.00034617,0.28095141,0.12263092,-0.0081
 6880,-0.08335116,-0.08771825,0.01057229,0.27582760,-0.00157981,0.00308
 186,0.03854222,-0.05388267,-0.01439392,-0.04350666,0.24752718,-0.01022
 416,0.00642927,-0.00010018,0.00522102,-0.05744771,-0.00194908,0.249370
 06,0.58851921,0.00842149,-0.00164448,-0.01279518,-0.00819089,-0.017703
 37,-0.12595594,-0.09985753,-0.17050798,0.58841975,0.00216323,0.0000022
 2,-0.00142574,0.00240092,0.00309227,-0.00022909,-0.10190167,-0.1051045
 9,0.10941274,0.24084470,0.00454831,-0.00049600,-0.00362875,-0.00040411
 ,0.00940023,-0.00112853,-0.10519753,-0.24411402,0.19657771,0.25268485,
 0.61286117,0.00631026,-0.00032071,-0.00166165,-0.00279418,0.00581732,-
 0.02830030,0.11722314,0.21432495,-0.38527041,-0.06462216,-0.09228141,0
 .77406771,-0.01344239,-0.03324272,0.00841430,-0.05990806,0.02019489,0.
 00421248,0.00225324,-0.00719677,-0.00522870,-0.00043089,-0.00046422,0.
 00022675,0.67210203,-0.00060731,0.00479092,0.00256664,-0.02232669,-0.1
 3773437,0.00192754,-0.00124221,-0.00910357,-0.00714140,-0.00046453,-0.
 00056566,0.00185780,-0.04812755,0.52913184,0.01290097,0.00644754,-0.00
 222333,-0.00121348,0.02234372,-0.04196586,-0.00594256,-0.02727603,0.00
 371248,0.00071184,0.00065851,-0.00207747,-0.07178724,-0.00306097,0.150
 60047,0.00218262,0.00181906,-0.00027141,-0.00358132,-0.01251842,0.0013
 0121,0.00025930,0.00171662,-0.00048789,-0.00062256,-0.00036001,0.00062
 740,-0.32540799,-0.06680161,0.03837000,0.69190198,-0.00593006,-0.00557
 815,0.00320594,-0.02170938,-0.00599091,0.00225425,0.00053331,-0.000394
 46,-0.00047691,-0.00069810,-0.00061711,-0.00132780,-0.00606532,-0.1259
 1340,0.00638486,-0.04629000,0.71245645,0.00011979,0.00128807,0.0009326
 8,0.00293135,0.00134397,0.00073232,0.00089545,0.00044842,-0.00215133,-
 0.00069789,-0.00091689,-0.00103766,0.03170950,0.01353082,-0.06378326,-
 0.06744640,-0.02516058,0.14699561,-0.00145310,-0.00218650,0.00116635,-
 0.00390490,0.00108789,0.00120397,0.00081971,0.00046939,-0.00008453,-0.
 00009545,-0.00016748,-0.00031898,0.00197673,-0.03652338,0.00211967,-0.
 14404236,-0.09360620,0.01553613,0.73955533,0.00062552,-0.00082390,-0.0
 0099472,-0.00139844,0.00583168,0.00070530,0.00013070,-0.00120919,0.001
 11201,0.00040006,0.00063997,0.00060803,-0.09806272,0.00757739,0.012251
 45,-0.01703606,-0.32680841,0.01591432,0.01727270,0.67286185,-0.0002219
 0,-0.00042869,-0.00000496,0.00196285,0.00055661,0.00492795,0.00042144,
 0.00140885,-0.00013299,-0.00024941,0.00036819,-0.00007968,0.00520034,0
 .00395344,0.00707009,0.01188241,0.02610084,-0.06606590,-0.07919429,-0.
 03013820,0.14981595,-0.00006209,-0.00076715,-0.00068610,-0.00219260,0.
 00211866,0.00053247,0.00014868,-0.00083084,0.00123374,0.00021963,0.000
 58272,0.00031117,-0.07614782,0.02071277,0.00704717,0.06618580,0.058663
 23,-0.01147621,-0.23103410,0.06594885,0.01807236,0.66746229,-0.0003386
 0,-0.00016232,0.00027101,0.00150993,-0.00019278,-0.00081596,-0.0005613
 6,0.00002449,0.00022114,-0.00014979,-0.00042300,-0.00030980,0.02269235
 ,-0.00804257,-0.00151895,0.00097556,-0.05247582,0.00334950,0.14159048,
 -0.23995682,-0.00999985,0.01905176,0.74682296,0.00007926,0.00020748,-0
 .00004073,0.00043274,-0.00042172,-0.00077159,-0.00034201,-0.00014527,0
 .00007572,0.00013489,0.00007963,0.00006931,0.00800108,-0.00282538,-0.0
 0772101,-0.00809996,-0.00485051,0.00827402,0.01489669,-0.00021746,-0.0
 6682194,-0.07297775,-0.03251827,0.15195375,0.00214284,-0.00278148,0.00
 034652,-0.00308917,0.00525312,0.00093336,-0.00057164,0.00031633,-0.001
 17384,-0.00008648,-0.00039480,-0.00011954,0.06391576,0.00183405,-0.005
 92826,-0.04309498,-0.03911632,0.00816817,-0.04775629,0.06413350,0.0038
 1271,-0.32465565,-0.08331178,0.04048151,0.69771925,-0.00067111,0.00174
 926,0.00058140,0.00512082,-0.00082538,-0.00080367,-0.00047014,0.000387
 71,-0.00084372,-0.00027000,-0.00035906,-0.00036614,0.06155281,-0.05507
 163,-0.00470988,-0.04014409,-0.03883052,0.00788149,0.00742319,0.064986
 64,-0.00394041,-0.00754733,-0.14427330,0.00483703,-0.04527726,0.714383
 70,-0.00090860,0.00080564,0.00041238,0.00106658,-0.00240379,0.00519962
 ,0.00119460,0.00169133,0.00009673,-0.00012492,0.00003136,0.00003629,-0
 .01019083,0.00234885,0.00769460,0.00694399,0.00664381,-0.00670642,0.00
 691614,-0.01099251,0.00606506,0.03804148,0.01502413,-0.07033084,-0.078
 12252,-0.02110385,0.15091521,-0.00382508,0.00340833,0.00063250,0.01599
 178,-0.00601799,-0.00378528,-0.00082067,-0.00146053,0.00072151,0.00024
 082,0.00001113,-0.00068011,-0.23445070,0.13664864,0.01937357,-0.046823
 75,0.00748114,0.00705789,-0.00586812,0.02064300,-0.00098830,0.00741423
 ,-0.03866699,0.00176779,-0.14679061,-0.09575806,0.01574504,0.73147016,
 0.00041344,0.00200058,-0.00160763,0.01070057,-0.03887647,0.00149825,0.
 00023602,-0.00051534,0.00346264,0.00017424,0.00059549,0.00040431,0.077
 57989,-0.21761745,-0.00639350,0.06255839,0.06077380,-0.01306263,0.0178
 8807,-0.07719339,0.00156568,-0.09454256,0.01097726,0.01289376,-0.01935
 786,-0.32555618,0.01577463,0.02572774,0.67714090,-0.00043915,0.0002256
 7,0.00020789,0.00048777,0.00341387,0.00153640,-0.00063822,0.00021727,-
 0.00029974,0.00018817,-0.00048630,-0.00004484,0.02164702,-0.01395419,-
 0.06163537,0.00225165,-0.00490008,0.00618552,-0.00072492,0.00134205,-0
 .00547108,0.00490943,0.00470023,0.00525141,0.01167150,0.02642528,-0.06
 650625,-0.08816177,-0.02826577,0.15135184,0.00030191,0.00010956,-0.001
 39049,0.00101786,-0.00313971,0.00196454,-0.09965524,-0.12335659,-0.013
 71414,0.00227598,-0.00786442,-0.00215349,0.00068884,0.00056410,-0.0000
 1308,0.00003196,-0.00046640,-0.00002899,-0.00014078,0.00043523,-0.0000
 9644,0.00041524,-0.00011927,-0.00000483,-0.00027103,-0.00035378,-0.000
 11590,-0.00019300,0.00028869,-0.00000407,0.09268647,0.00219020,0.00054
 979,0.00076013,-0.00436967,-0.00344550,-0.00092617,-0.12337162,-0.2790
 6878,-0.02250276,-0.00693581,-0.00840868,-0.00429044,-0.00115716,0.000
 17777,-0.00046410,0.00015155,0.00017194,0.00004017,0.00011270,-0.00033
 985,0.00010191,-0.00024017,0.00005351,-0.00000913,0.00001437,0.0001537
 3,0.00008383,0.00004224,0.00022210,-0.00006434,0.13490961,0.28876094,0
 .00250756,0.00253987,0.00234695,-0.01418554,-0.02342976,-0.00582124,-0
 .01528614,-0.03054940,-0.05101788,0.01250028,0.02556250,0.00489722,-0.
 00024510,0.00047211,-0.00571974,0.00025348,-0.00043340,0.00035978,0.00
 004484,-0.00019714,0.00046049,-0.00013355,-0.00029345,-0.00005339,0.00
 006155,-0.00002998,0.00050106,-0.00046332,-0.00042137,0.00009908,0.014
 14341,0.02541578,0.05711172,-0.00161244,0.00028267,-0.00424819,0.01109
 742,-0.00391083,0.00748189,0.00690825,0.00096246,0.00878795,-0.0479409
 9,-0.02326131,-0.04144059,-0.00078399,-0.00097229,-0.00089703,0.000044
 97,-0.00031045,-0.00026941,-0.00002338,0.00015774,-0.00006785,0.000103
 35,0.00004042,0.00000790,-0.00005770,-0.00006428,0.00007922,-0.0000764
 1,0.00026768,-0.00008440,-0.00603729,0.00363427,-0.00007835,0.03595221
 ,-0.00085515,0.00006138,0.00305501,-0.00490636,-0.00004873,-0.00166800
 ,0.00036232,0.00823275,0.01999528,-0.02213545,-0.08716015,-0.09733838,
 0.00009478,-0.00005411,-0.00061608,0.00022978,0.00023488,-0.00028900,0
 .00010451,0.00019088,-0.00009253,0.00006389,0.00003572,0.00002212,-0.0
 0004547,-0.00001577,0.00005069,-0.00010553,0.00033900,-0.00001515,0.00
 344848,-0.00102685,-0.00006556,0.02683685,0.08266112,0.00195429,0.0001
 1058,-0.00102215,-0.00081659,0.00147802,0.00137163,-0.00347442,-0.0087
 4790,-0.02110730,-0.04030615,-0.09360340,-0.30174877,0.00011412,0.0004
 9658,0.00027045,0.00008734,-0.00007114,0.00009540,-0.00002619,-0.00005
 076,0.00002743,-0.00004446,-0.00004158,-0.00000212,0.00003039,0.000012
 88,-0.00001085,-0.00003806,-0.00013515,0.00002739,-0.00000668,0.000259
 25,0.00104756,0.04183316,0.09921512,0.32005599,0.00004213,-0.00026937,
 0.00251972,-0.00584069,0.00165275,-0.00443480,0.00076560,-0.00919227,-
 0.00023147,-0.09722348,-0.11963698,-0.01252125,0.00064883,0.00078215,-
 0.00048925,0.00015625,0.00029770,-0.00068568,-0.00006943,-0.00039869,0
 .00018584,-0.00009543,-0.00003784,0.00003474,-0.00004199,0.00033820,-0
 .00005413,-0.00017261,0.00014545,-0.00006073,0.00893617,-0.00501914,0.
 00114527,0.00235837,-0.00311441,0.00069444,0.09081979,-0.00022285,0.00
 022769,-0.00106968,0.00272406,-0.00221651,0.00006053,-0.00797849,-0.01
 092383,-0.00083616,-0.12058117,-0.28166930,-0.02669458,-0.00002718,-0.
 00004257,-0.00264628,-0.00016378,-0.00020341,-0.00115386,-0.00020993,0
 .00020190,-0.00019847,0.00021585,-0.00023254,0.00018926,-0.00002039,-0
 .00029922,0.00021608,-0.00024128,0.00064556,-0.00009446,-0.00450864,0.
 00228596,0.00168464,-0.00360776,-0.00334321,0.00107000,0.13435474,0.29
 562108,-0.00036797,-0.00035283,0.00011024,0.00058066,0.00099629,0.0006
 6321,0.01135665,0.02282365,0.00631106,-0.01520434,-0.03100490,-0.05855
 482,0.00034235,0.00023997,-0.00286864,-0.00063573,-0.00070014,-0.00126
 933,-0.00023172,-0.00026141,-0.00009928,-0.00009004,0.00005645,0.00000
 305,0.00011175,0.00002397,-0.00003304,0.00003416,-0.00039310,-0.000127
 16,0.00125563,0.00173319,-0.00361124,-0.01116801,-0.02236169,0.0010653
 4,0.01401650,0.02895907,0.05820868,0.00037468,-0.00035191,0.00041101,-
 0.00071447,0.00143486,-0.00108287,-0.00008925,-0.00048719,0.00022523,0
 .00008722,-0.00003810,-0.00001416,-0.01538088,0.02233828,0.00073419,-0
 .18994661,0.14074499,0.01113205,0.01023916,-0.00789464,-0.00044082,0.0
 0075626,-0.00245235,0.00098800,-0.00028608,-0.00105583,-0.00009273,-0.
 00470943,-0.00281010,0.00178953,-0.00002290,0.00000844,-0.00011777,0.0
 0004938,0.00002030,0.00002427,-0.00014108,0.00023209,-0.00002441,0.199
 55700,0.00080707,-0.00037136,-0.00020130,-0.00077395,0.00110116,-0.000
 06193,-0.00000625,-0.00014319,-0.00009354,-0.00006086,0.00014254,0.000
 00657,-0.00531657,0.00950570,0.00015612,0.13962447,-0.20855450,-0.0073
 2995,0.02213026,-0.01519693,-0.00212410,-0.00290366,-0.00443462,0.0010
 6190,-0.00103697,-0.00031276,0.00006246,-0.00198919,0.00057998,0.00077
 182,0.00004540,-0.00005969,-0.00000558,-0.00004051,-0.00003414,0.00001
 312,0.00010256,-0.00004956,0.00006709,-0.15103045,0.21734497,0.0000702
 6,0.00041811,-0.00010914,-0.00098359,-0.00071234,-0.00212161,-0.000214
 54,-0.00060154,0.00005435,0.00003417,-0.00022406,-0.00009089,0.0031307
 4,-0.00323012,0.00184281,0.01083513,-0.00718367,-0.03854678,-0.0020842
 5,0.00194015,0.00410372,0.00106970,0.00096477,0.00744102,-0.00004341,0
 .00006794,-0.00106534,0.00178762,0.00060171,0.00683819,0.00010857,-0.0
 0009230,-0.00025349,0.00004938,0.00010113,-0.00002822,-0.00019392,0.00
 038623,0.00004598,-0.01282547,0.00801286,0.02686702,-0.00020560,-0.000
 13058,0.00006064,0.00014198,0.00050922,-0.00003490,-0.00000884,-0.0000
 3101,0.00005247,0.00001027,-0.00005636,-0.00006704,0.00170479,-0.00148
 979,0.00078858,-0.00348768,0.00060361,0.00089831,-0.32438156,-0.064634
 50,0.03993970,-0.01491014,-0.00791617,0.00278836,-0.00089883,0.0038410
 6,0.00085516,0.00048331,0.00058349,-0.00023028,-0.00001851,0.00000861,
 -0.00004678,-0.00000209,0.00000245,-0.00001289,-0.00004354,0.00000962,
 0.00005039,0.00045003,-0.00027299,-0.00056359,0.34140812,-0.00075271,-
 0.00048955,0.00028189,-0.00055450,0.00071355,0.00002074,0.00008479,-0.
 00009059,0.00011151,0.00001569,-0.00003621,-0.00012650,-0.00128759,-0.
 00536545,0.00081938,-0.02973717,-0.00248912,0.00402420,-0.06464383,-0.
 07465511,0.01026459,0.02276521,0.00995311,-0.00322632,0.00348205,-0.00
 300556,0.00003351,0.00050154,-0.00130733,-0.00000324,-0.00002312,0.000
 00005,-0.00007032,-0.00000906,0.00001615,-0.00002386,-0.00001664,0.000
 00642,0.00002604,0.00038943,0.00094559,-0.00033394,0.06929573,0.074760
 11,-0.00001278,-0.00014251,-0.00022090,0.00003795,-0.00004584,0.000444
 53,-0.00003857,0.00007945,0.00008729,0.00003287,-0.00003795,-0.0000086
 2,0.00106978,0.00085562,0.00727816,0.00240609,0.00005569,0.00321211,0.
 03970732,0.01037353,-0.04414746,0.00140635,0.00063905,0.00348348,0.000
 89846,-0.00000481,0.00731717,-0.00026626,0.00008147,-0.00109065,-0.000
 02006,0.00002490,-0.00000142,0.00001496,-0.00000543,-0.00000713,-0.000
 03447,0.00004379,0.00006113,-0.00057744,-0.00023702,-0.00412805,-0.043
 91341,-0.01141980,0.03266548,0.00020763,-0.00019121,-0.00001790,-0.000
 25829,-0.00008495,-0.00005127,0.00001705,-0.00004543,0.00003275,0.0000
 1759,0.00000183,-0.00000538,-0.00145499,0.00074594,0.00002692,-0.00239
 342,0.00373655,0.00107128,0.01021374,0.02184193,-0.00179502,-0.0806748
 2,-0.07522213,0.00916139,-0.00254186,-0.02974927,0.00226901,-0.0055319
 5,-0.00111037,0.00190410,0.00000091,0.00000125,-0.00001777,0.00000394,
 0.00000320,-0.00000410,-0.00002196,0.00001051,-0.00000133,0.00035393,0
 .00111129,-0.00011729,0.00062476,-0.00058065,-0.00059609,0.08072098,-0
 .00008345,-0.00011669,0.00002556,-0.00001565,0.00004445,0.00002511,0.0
 0002758,0.00002277,-0.00002008,-0.00001357,-0.00000657,-0.00003151,0.0
 0064949,0.00070864,-0.00019421,0.00382986,-0.00149239,-0.00008981,-0.0
 0889155,-0.01590322,0.00208077,-0.07517675,-0.32198035,0.02335936,0.00
 088637,-0.00237939,0.00016663,-0.00117790,0.00158956,0.00043677,-0.000
 00465,0.00000300,-0.00000492,-0.00000853,-0.00001151,-0.00000708,0.000
 01693,-0.00001290,0.00004188,-0.00047769,-0.00081800,0.00010939,0.0001
 6989,0.00068739,-0.00025824,0.08041013,0.33928070,0.00000991,0.0000024
 5,-0.00005246,-0.00027497,-0.00010994,-0.00077785,-0.00008133,-0.00023
 616,-0.00002539,-0.00000959,-0.00001825,-0.00001131,0.00019768,0.00000
 319,-0.00075029,0.00101691,0.00002541,0.00719169,-0.00050891,-0.001874
 04,0.00408958,0.00906112,0.02322323,-0.04184502,0.00120937,0.00452531,
 0.00363724,0.00187611,0.00014521,0.00725702,0.00000875,-0.00001451,-0.
 00008004,0.00000189,-0.00000103,-0.00000365,-0.00000160,0.00000952,0.0
 0003657,-0.00004508,-0.00004328,0.00001885,-0.00061131,-0.00015200,-0.
 00401670,-0.01117165,-0.02543685,0.02943417,-0.00010066,0.00020194,0.0
 0004969,0.00034066,-0.00067383,-0.00006604,0.00000424,0.00001304,0.000
 02499,0.00000950,-0.00000177,-0.00001811,0.00117222,-0.00236345,0.0010
 9644,-0.00038214,-0.00107379,-0.00005549,-0.00461971,-0.00250370,0.001
 86655,-0.01455364,0.02346566,0.00158381,-0.19319071,0.14233519,0.01588
 280,0.00993760,-0.00842107,-0.00051664,-0.00000891,0.00000988,-0.00000
 722,-0.00000064,0.00000558,-0.00000200,-0.00000358,-0.00001293,-0.0000
 1797,0.00001470,0.00009410,-0.00017962,-0.00080467,0.00114497,0.000034
 18,0.00075443,-0.00031867,-0.00069260,0.20105938,-0.00060465,0.0003415
 1,0.00016259,0.00145980,-0.00075917,-0.00031547,-0.00003835,-0.0000694
 3,0.00019160,-0.00000908,-0.00000183,-0.00011016,-0.00211422,-0.004741
 08,0.00081316,-0.00109289,-0.00031503,0.00011697,-0.00218709,0.0010012
 1,0.00060695,-0.00717146,0.00936427,0.00078886,0.14267862,-0.20950767,
 -0.01256809,0.02154563,-0.01648529,-0.00212155,-0.00001673,0.00001429,
 -0.00008427,0.00001481,0.00000128,-0.00002524,0.00001286,-0.00001908,0
 .00001690,0.00009388,0.00001953,-0.00007105,-0.00044029,0.00031078,0.0
 0002882,0.00040824,0.00054763,-0.00028452,-0.15237635,0.21927534,0.000
 10635,0.00002412,0.00006261,-0.00031867,0.00006252,0.00020239,-0.00004
 435,0.00011442,-0.00011475,-0.00003238,-0.00001518,-0.00003368,0.00088
 846,0.00109278,0.00735582,0.00012176,0.00023460,-0.00102545,0.00179586
 ,0.00065859,0.00735610,0.00295049,-0.00356380,0.00355819,0.01599523,-0
 .01263648,-0.04108542,-0.00176305,0.00186135,0.00433825,0.00007820,-0.
 00003120,0.00001465,-0.00000596,-0.00001183,0.00000051,0.00003702,-0.0
 0001430,0.00000645,-0.00015068,-0.00006925,-0.00114508,0.00015507,-0.0
 0019645,0.00003379,-0.00072599,-0.00018417,-0.00402221,-0.01831258,0.0
 1303632,0.02861545,0.00055113,-0.00225762,-0.00040561,-0.00266883,-0.0
 0098511,0.00064833,-0.00019346,-0.00013955,0.00005611,0.00003168,0.000
 01825,0.00005627,-0.01705473,-0.00270714,0.00310156,-0.00098006,0.0032
 0548,0.00114015,0.00058448,0.00033953,-0.00029018,0.00162080,-0.000549
 89,0.00106640,-0.00044484,0.00074986,0.00061562,-0.31627557,-0.0703217
 1,0.04601102,-0.00000766,0.00001046,-0.00007484,0.00001704,-0.00000976
 ,-0.00000646,-0.00007336,0.00002754,-0.00000657,-0.00059165,-0.0004837
 4,0.00012011,-0.00006181,-0.00007415,-0.00014889,-0.00003768,0.0001781
 6,0.00001531,0.00037193,-0.00016273,-0.00077475,0.33521261,-0.00239901
 ,0.00103643,-0.00017251,0.00417306,-0.00111248,-0.00122640,-0.00056677
 ,-0.00053611,0.00009852,0.00005363,0.00021820,0.00017846,0.02029781,0.
 01235962,-0.00299472,0.00323875,-0.00397383,0.00006480,0.00033678,-0.0
 0120468,-0.00008557,-0.00094302,-0.00505718,0.00077465,-0.02725609,-0.
 00122460,0.00413529,-0.07059192,-0.07731276,0.01237212,0.00005221,-0.0
 0004372,-0.00008975,-0.00001186,-0.00007869,0.00005054,-0.00001801,0.0
 0002351,0.00008956,0.00133600,0.00033529,-0.00015325,-0.00005199,0.000
 04579,-0.00003073,-0.00128686,-0.00016311,0.00023626,0.00047518,0.0010
 2273,-0.00036203,0.07316212,0.07566559,0.00042478,-0.00057213,-0.00138
 775,-0.00089166,0.00093815,-0.00184010,-0.00020717,-0.00099481,0.00011
 354,-0.00011327,0.00006774,-0.00015044,0.00229727,0.00086674,0.0029200
 7,0.00084404,0.00019882,0.00660701,-0.00021316,-0.00017917,-0.00109309
 ,0.00077262,0.00061214,0.00747670,0.00166706,0.00008364,0.00386278,0.0
 4714996,0.01199013,-0.04791793,-0.00001094,-0.00002420,-0.00028009,0.0
 0000342,0.00002531,-0.00003152,0.00007379,0.00008868,0.00005180,0.0000
 6716,0.00001403,0.00027664,-0.00010847,-0.00002941,-0.00096222,0.00003
 835,-0.00001860,-0.00008023,-0.00067020,-0.00018185,-0.00411763,-0.051
 12360,-0.01288522,0.03655245\\-0.00001173,0.00000395,-0.00000212,0.000
 00872,-0.00000863,-0.00000615,0.00000148,0.00000427,-0.00000814,-0.000
 01278,-0.00000724,-0.00001869,-0.00001616,0.00001705,0.00000180,0.0000
 0756,0.00001142,-0.00000119,0.00000200,-0.00001522,0.00000664,-0.00000
 972,0.00000372,-0.00000472,0.00000783,0.00001454,-0.00000340,0.0000174
 2,-0.00003442,0.00000080,-0.00000591,-0.00000209,0.00001311,0.00000678
 ,0.00000211,0.00000399,0.00000208,0.00000442,0.00001779,-0.00000220,-0
 .00000284,-0.00000148,0.00000110,-0.00000116,0.00000089,0.00000592,-0.
 00000183,0.00000224,0.00000058,-0.00000201,0.00000032,-0.00000297,0.00
 001398,-0.00000167\\\@


    UPON JULIA'S CLOTHES

 WHENAS IN SILKS MY JULIA GOES,
 THEN, THEN, METHINKS, HOW SWEETLY FLOWS
 THAT LIQUEFACTION OF HER CLOTHES.

 NEXT, WHEN I CAST MINE EYES, AND SEE
 THAT BRAVE VIBRATION, EACH WAY FREE,
 O, HOW THAT GLITTERING TAKETH ME!
     -- ROBERT HERRICK, 1648
 Job cpu time:       0 days  0 hours 50 minutes 46.8 seconds.
 Elapsed time:       0 days  0 hours  2 minutes  7.8 seconds.
 File lengths (MBytes):  RWF=    145 Int=      0 D2E=      0 Chk=      8 Scr=      1
 Normal termination of Gaussian 16 at Sun Oct 13 23:20:25 2019.
real 368.86
user 8604.85
sys 35.10
Machine:
brown-a543
brown-a543
brown-a543
brown-a543
brown-a543
brown-a543
brown-a543
brown-a543
brown-a543
brown-a543
brown-a543
brown-a543
brown-a543
brown-a543
brown-a543
brown-a543
brown-a543
brown-a543
brown-a543
brown-a543
brown-a543
brown-a543
brown-a543
brown-a543
