 Entering Gaussian System, Link 0=/apps/cent7/gaussian/g16-A.03/g16-haswell/g16/g16
 Initial command:
 /apps/cent7/gaussian/g16-A.03/g16-haswell/g16/l1.exe "/scratch/brown/finej/gaussian/Gau-31727.inp" -scrdir="/scratch/brown/finej/gaussian/"
 Entering Link 1 = /apps/cent7/gaussian/g16-A.03/g16-haswell/g16/l1.exe PID=     31730.
  
 Copyright (c) 1988,1990,1992,1993,1995,1998,2003,2009,2016,
            Gaussian, Inc.  All Rights Reserved.
  
 This is part of the Gaussian(R) 16 program.  It is based on
 the Gaussian(R) 09 system (copyright 2009, Gaussian, Inc.),
 the Gaussian(R) 03 system (copyright 2003, Gaussian, Inc.),
 the Gaussian(R) 98 system (copyright 1998, Gaussian, Inc.),
 the Gaussian(R) 94 system (copyright 1995, Gaussian, Inc.),
 the Gaussian 92(TM) system (copyright 1992, Gaussian, Inc.),
 the Gaussian 90(TM) system (copyright 1990, Gaussian, Inc.),
 the Gaussian 88(TM) system (copyright 1988, Gaussian, Inc.),
 the Gaussian 86(TM) system (copyright 1986, Carnegie Mellon
 University), and the Gaussian 82(TM) system (copyright 1983,
 Carnegie Mellon University). Gaussian is a federally registered
 trademark of Gaussian, Inc.
  
 This software contains proprietary and confidential information,
 including trade secrets, belonging to Gaussian, Inc.
  
 This software is provided under written license and may be
 used, copied, transmitted, or stored only in accord with that
 written license.
  
 The following legend is applicable only to US Government
 contracts under FAR:
  
                    RESTRICTED RIGHTS LEGEND
  
 Use, reproduction and disclosure by the US Government is
 subject to restrictions as set forth in subparagraphs (a)
 and (c) of the Commercial Computer Software - Restricted
 Rights clause in FAR 52.227-19.
  
 Gaussian, Inc.
 340 Quinnipiac St., Bldg. 40, Wallingford CT 06492
  
  
 ---------------------------------------------------------------
 Warning -- This program may not be used in any manner that
 competes with the business of Gaussian, Inc. or will provide
 assistance to any competitor of Gaussian, Inc.  The licensee
 of this program is prohibited from giving any competitor of
 Gaussian, Inc. access to this program.  By using this program,
 the user acknowledges that Gaussian, Inc. is engaged in the
 business of creating and licensing software in the field of
 computational chemistry and represents and warrants to the
 licensee that it is not a competitor of Gaussian, Inc. and that
 it will not use this program in any manner prohibited above.
 ---------------------------------------------------------------
  

 Cite this work as:
 Gaussian 16, Revision A.03,
 M. J. Frisch, G. W. Trucks, H. B. Schlegel, G. E. Scuseria, 
 M. A. Robb, J. R. Cheeseman, G. Scalmani, V. Barone, 
 G. A. Petersson, H. Nakatsuji, X. Li, M. Caricato, A. V. Marenich, 
 J. Bloino, B. G. Janesko, R. Gomperts, B. Mennucci, H. P. Hratchian, 
 J. V. Ortiz, A. F. Izmaylov, J. L. Sonnenberg, D. Williams-Young, 
 F. Ding, F. Lipparini, F. Egidi, J. Goings, B. Peng, A. Petrone, 
 T. Henderson, D. Ranasinghe, V. G. Zakrzewski, J. Gao, N. Rega, 
 G. Zheng, W. Liang, M. Hada, M. Ehara, K. Toyota, R. Fukuda, 
 J. Hasegawa, M. Ishida, T. Nakajima, Y. Honda, O. Kitao, H. Nakai, 
 T. Vreven, K. Throssell, J. A. Montgomery, Jr., J. E. Peralta, 
 F. Ogliaro, M. J. Bearpark, J. J. Heyd, E. N. Brothers, K. N. Kudin, 
 V. N. Staroverov, T. A. Keith, R. Kobayashi, J. Normand, 
 K. Raghavachari, A. P. Rendell, J. C. Burant, S. S. Iyengar, 
 J. Tomasi, M. Cossi, J. M. Millam, M. Klene, C. Adamo, R. Cammi, 
 J. W. Ochterski, R. L. Martin, K. Morokuma, O. Farkas, 
 J. B. Foresman, and D. J. Fox, Gaussian, Inc., Wallingford CT, 2016.
 
 ******************************************
 Gaussian 16:  ES64L-G16RevA.03 25-Dec-2016
                13-Oct-2019 
 ******************************************
 %chk=34_p.chk
 %nprocshared=24
 Will use up to   24 processors via shared memory.
 %mem=80GB
 -------------------------------------------------------------------
 #P opt freq m062x/6-311++g(d,p) geom=connectivity temperature=0.001
 -------------------------------------------------------------------
 1/18=20,19=15,26=3,38=1,57=2,112=-1000/1,3;
 2/9=110,12=2,17=6,18=5,40=1/2;
 3/5=4,6=6,7=1111,11=2,25=1,30=1,71=1,74=-55/1,2,3;
 4//1;
 5/5=2,38=5/2;
 6/7=2,8=2,9=2,10=2,28=1/1;
 7//1,2,3,16;
 1/18=20,19=15,26=3/3(2);
 2/9=110/2;
 99//99;
 2/9=110/2;
 3/5=4,6=6,7=1111,11=2,25=1,30=1,71=1,74=-55/1,2,3;
 4/5=5,16=3,69=1/1;
 5/5=2,38=5/2;
 7//1,2,3,16;
 1/18=20,19=15,26=3/3(-5);
 2/9=110/2;
 6/7=2,8=2,9=2,10=2,19=2,28=1/1;
 99/9=1/99;
 Leave Link    1 at Sun Oct 13 23:14:23 2019, MaxMem= 10737418240 cpu:               0.8 elap:               0.0
 (Enter /apps/cent7/gaussian/g16-A.03/g16-haswell/g16/l101.exe)
 -------------------
 Title Card Required
 -------------------
 Symbolic Z-matrix:
 Charge =  1 Multiplicity = 1
 O                    -1.7228   -1.8291    1.0796 
 S                    -0.5112   -1.6817    0.0342 
 C                    -1.171    -2.2027   -1.4959 
 C                    -1.0971   -1.5091   -2.636 
 C                    -0.1627    0.0577   -0.0106 
 C                     1.1654    0.4913    0.1839 
 C                     1.4648    1.8663    0.1938 
 C                     0.4406    2.815     0.0154 
 C                    -0.8848    2.3888   -0.1858 
 C                    -1.1851    1.0133   -0.2009 
 H                    -1.7145   -3.1023   -1.7847 
 H                    -2.009    -1.2263   -3.1619 
 H                    -0.125    -1.2263   -3.0398 
 H                     1.9626   -0.2381    0.3268 
 H                     2.493     2.1973    0.3401 
 H                     0.6738    3.8796    0.0331 
 H                    -1.6776    3.1229   -0.3297 
 H                    -2.2128    0.6872   -0.3605 
 H                    -1.53851  -1.96064   2.01252 
 
 ITRead=  0  0  0  0  0  0  0  0  0  0  0  0  0  0  0  0  0  0  0
 MicOpt= -1 -1 -1 -1 -1 -1 -1 -1 -1 -1 -1 -1 -1 -1 -1 -1 -1 -1 -1
 NAtoms=     19 NQM=       19 NQMF=       0 NMMI=      0 NMMIF=      0
                NMic=       0 NMicF=      0.
                    Isotopes and Nuclear Properties:
 (Nuclear quadrupole moments (NQMom) in fm**2, nuclear magnetic moments (NMagM)
  in nuclear magnetons)

  Atom         1           2           3           4           5           6           7           8           9          10
 IAtWgt=          16          32          12          12          12          12          12          12          12          12
 AtmWgt=  15.9949146  31.9720718  12.0000000  12.0000000  12.0000000  12.0000000  12.0000000  12.0000000  12.0000000  12.0000000
 NucSpn=           0           0           0           0           0           0           0           0           0           0
 AtZEff=  -0.0000000  -0.0000000  -0.0000000  -0.0000000  -0.0000000  -0.0000000  -0.0000000  -0.0000000  -0.0000000  -0.0000000
 NQMom=    0.0000000   0.0000000   0.0000000   0.0000000   0.0000000   0.0000000   0.0000000   0.0000000   0.0000000   0.0000000
 NMagM=    0.0000000   0.0000000   0.0000000   0.0000000   0.0000000   0.0000000   0.0000000   0.0000000   0.0000000   0.0000000
 AtZNuc=   8.0000000  16.0000000   6.0000000   6.0000000   6.0000000   6.0000000   6.0000000   6.0000000   6.0000000   6.0000000

  Atom        11          12          13          14          15          16          17          18          19
 IAtWgt=           1           1           1           1           1           1           1           1           1
 AtmWgt=   1.0078250   1.0078250   1.0078250   1.0078250   1.0078250   1.0078250   1.0078250   1.0078250   1.0078250
 NucSpn=           1           1           1           1           1           1           1           1           1
 AtZEff=  -0.0000000  -0.0000000  -0.0000000  -0.0000000  -0.0000000  -0.0000000  -0.0000000  -0.0000000  -0.0000000
 NQMom=    0.0000000   0.0000000   0.0000000   0.0000000   0.0000000   0.0000000   0.0000000   0.0000000   0.0000000
 NMagM=    2.7928460   2.7928460   2.7928460   2.7928460   2.7928460   2.7928460   2.7928460   2.7928460   2.7928460
 AtZNuc=   1.0000000   1.0000000   1.0000000   1.0000000   1.0000000   1.0000000   1.0000000   1.0000000   1.0000000
 Leave Link  101 at Sun Oct 13 23:14:24 2019, MaxMem= 10737418240 cpu:               8.3 elap:               0.4
 (Enter /apps/cent7/gaussian/g16-A.03/g16-haswell/g16/l103.exe)

 GradGradGradGradGradGradGradGradGradGradGradGradGradGradGradGradGradGrad
 Berny optimization.
 Initialization pass.
                           ----------------------------
                           !    Initial Parameters    !
                           ! (Angstroms and Degrees)  !
 --------------------------                            --------------------------
 ! Name  Definition              Value          Derivative Info.                !
 --------------------------------------------------------------------------------
 ! R1    R(1,2)                  1.607          estimate D2E/DX2                !
 ! R2    R(1,19)                 0.96           estimate D2E/DX2                !
 ! R3    R(2,3)                  1.7458         estimate D2E/DX2                !
 ! R4    R(2,5)                  1.7745         estimate D2E/DX2                !
 ! R5    R(3,4)                  1.3366         estimate D2E/DX2                !
 ! R6    R(3,11)                 1.09           estimate D2E/DX2                !
 ! R7    R(4,12)                 1.09           estimate D2E/DX2                !
 ! R8    R(4,13)                 1.09           estimate D2E/DX2                !
 ! R9    R(5,6)                  1.4106         estimate D2E/DX2                !
 ! R10   R(5,10)                 1.4123         estimate D2E/DX2                !
 ! R11   R(6,7)                  1.4073         estimate D2E/DX2                !
 ! R12   R(6,14)                 1.0899         estimate D2E/DX2                !
 ! R13   R(7,8)                  1.4074         estimate D2E/DX2                !
 ! R14   R(7,15)                 1.09           estimate D2E/DX2                !
 ! R15   R(8,9)                  1.4067         estimate D2E/DX2                !
 ! R16   R(8,16)                 1.09           estimate D2E/DX2                !
 ! R17   R(9,10)                 1.408          estimate D2E/DX2                !
 ! R18   R(9,17)                 1.09           estimate D2E/DX2                !
 ! R19   R(10,18)                1.0899         estimate D2E/DX2                !
 ! A1    A(2,1,19)             120.0            estimate D2E/DX2                !
 ! A2    A(1,2,3)              104.9409         estimate D2E/DX2                !
 ! A3    A(1,2,5)              104.7377         estimate D2E/DX2                !
 ! A4    A(3,2,5)              110.1579         estimate D2E/DX2                !
 ! A5    A(2,3,4)              124.8787         estimate D2E/DX2                !
 ! A6    A(2,3,11)             131.8325         estimate D2E/DX2                !
 ! A7    A(4,3,11)             103.2888         estimate D2E/DX2                !
 ! A8    A(3,4,12)             119.9962         estimate D2E/DX2                !
 ! A9    A(3,4,13)             119.9985         estimate D2E/DX2                !
 ! A10   A(12,4,13)            120.0053         estimate D2E/DX2                !
 ! A11   A(2,5,6)              118.8642         estimate D2E/DX2                !
 ! A12   A(2,5,10)             121.6311         estimate D2E/DX2                !
 ! A13   A(6,5,10)             119.484          estimate D2E/DX2                !
 ! A14   A(5,6,7)              120.1083         estimate D2E/DX2                !
 ! A15   A(5,6,14)             120.0677         estimate D2E/DX2                !
 ! A16   A(7,6,14)             119.824          estimate D2E/DX2                !
 ! A17   A(6,7,8)              120.1922         estimate D2E/DX2                !
 ! A18   A(6,7,15)             119.8898         estimate D2E/DX2                !
 ! A19   A(8,7,15)             119.918          estimate D2E/DX2                !
 ! A20   A(7,8,9)              119.9706         estimate D2E/DX2                !
 ! A21   A(7,8,16)             120.0409         estimate D2E/DX2                !
 ! A22   A(9,8,16)             119.9885         estimate D2E/DX2                !
 ! A23   A(8,9,10)             119.8995         estimate D2E/DX2                !
 ! A24   A(8,9,17)             120.0082         estimate D2E/DX2                !
 ! A25   A(10,9,17)            120.0923         estimate D2E/DX2                !
 ! A26   A(5,10,9)             120.3419         estimate D2E/DX2                !
 ! A27   A(5,10,18)            119.9909         estimate D2E/DX2                !
 ! A28   A(9,10,18)            119.6672         estimate D2E/DX2                !
 ! D1    D(19,1,2,3)           154.3746         estimate D2E/DX2                !
 ! D2    D(19,1,2,5)           -89.5858         estimate D2E/DX2                !
 ! D3    D(1,2,3,4)            128.808          estimate D2E/DX2                !
 ! D4    D(1,2,3,11)           -51.1862         estimate D2E/DX2                !
 ! D5    D(5,2,3,4)             16.5714         estimate D2E/DX2                !
 ! D6    D(5,2,3,11)          -163.4228         estimate D2E/DX2                !
 ! D7    D(1,2,5,6)            128.354          estimate D2E/DX2                !
 ! D8    D(1,2,5,10)           -49.9824         estimate D2E/DX2                !
 ! D9    D(3,2,5,6)           -119.2781         estimate D2E/DX2                !
 ! D10   D(3,2,5,10)            62.3855         estimate D2E/DX2                !
 ! D11   D(2,3,4,12)          -121.9253         estimate D2E/DX2                !
 ! D12   D(2,3,4,13)            58.0746         estimate D2E/DX2                !
 ! D13   D(11,3,4,12)           58.0703         estimate D2E/DX2                !
 ! D14   D(11,3,4,13)         -121.9299         estimate D2E/DX2                !
 ! D15   D(2,5,6,7)           -178.0828         estimate D2E/DX2                !
 ! D16   D(2,5,6,14)             1.9264         estimate D2E/DX2                !
 ! D17   D(10,5,6,7)             0.29           estimate D2E/DX2                !
 ! D18   D(10,5,6,14)         -179.7008         estimate D2E/DX2                !
 ! D19   D(2,5,10,9)           177.7995         estimate D2E/DX2                !
 ! D20   D(2,5,10,18)           -2.2009         estimate D2E/DX2                !
 ! D21   D(6,5,10,9)            -0.5269         estimate D2E/DX2                !
 ! D22   D(6,5,10,18)          179.4728         estimate D2E/DX2                !
 ! D23   D(5,6,7,8)              0.265          estimate D2E/DX2                !
 ! D24   D(5,6,7,15)          -179.7362         estimate D2E/DX2                !
 ! D25   D(14,6,7,8)          -179.7442         estimate D2E/DX2                !
 ! D26   D(14,6,7,15)            0.2546         estimate D2E/DX2                !
 ! D27   D(6,7,8,9)             -0.5869         estimate D2E/DX2                !
 ! D28   D(6,7,8,16)           179.4102         estimate D2E/DX2                !
 ! D29   D(15,7,8,9)           179.4144         estimate D2E/DX2                !
 ! D30   D(15,7,8,16)           -0.5886         estimate D2E/DX2                !
 ! D31   D(7,8,9,10)             0.3499         estimate D2E/DX2                !
 ! D32   D(7,8,9,17)          -179.6516         estimate D2E/DX2                !
 ! D33   D(16,8,9,10)         -179.6471         estimate D2E/DX2                !
 ! D34   D(16,8,9,17)            0.3513         estimate D2E/DX2                !
 ! D35   D(8,9,10,5)             0.2079         estimate D2E/DX2                !
 ! D36   D(8,9,10,18)         -179.7917         estimate D2E/DX2                !
 ! D37   D(17,9,10,5)         -179.7905         estimate D2E/DX2                !
 ! D38   D(17,9,10,18)           0.2098         estimate D2E/DX2                !
 --------------------------------------------------------------------------------
 Trust Radius=3.00D-01 FncErr=1.00D-07 GrdErr=1.00D-06 EigMax=2.50D+02 EigMin=1.00D-04
 Number of steps in this run=     95 maximum allowed number of steps=    114.
 GradGradGradGradGradGradGradGradGradGradGradGradGradGradGradGradGradGrad

 Leave Link  103 at Sun Oct 13 23:14:24 2019, MaxMem= 10737418240 cpu:               0.2 elap:               0.0
 (Enter /apps/cent7/gaussian/g16-A.03/g16-haswell/g16/l202.exe)
                          Input orientation:                          
 ---------------------------------------------------------------------
 Center     Atomic      Atomic             Coordinates (Angstroms)
 Number     Number       Type             X           Y           Z
 ---------------------------------------------------------------------
      1          8           0       -1.722800   -1.829100    1.079600
      2         16           0       -0.511200   -1.681700    0.034200
      3          6           0       -1.171000   -2.202700   -1.495900
      4          6           0       -1.097100   -1.509100   -2.636000
      5          6           0       -0.162700    0.057700   -0.010600
      6          6           0        1.165400    0.491300    0.183900
      7          6           0        1.464800    1.866300    0.193800
      8          6           0        0.440600    2.815000    0.015400
      9          6           0       -0.884800    2.388800   -0.185800
     10          6           0       -1.185100    1.013300   -0.200900
     11          1           0       -1.714500   -3.102300   -1.784700
     12          1           0       -2.009000   -1.226300   -3.161900
     13          1           0       -0.125000   -1.226300   -3.039800
     14          1           0        1.962600   -0.238100    0.326800
     15          1           0        2.493000    2.197300    0.340100
     16          1           0        0.673800    3.879600    0.033100
     17          1           0       -1.677600    3.122900   -0.329700
     18          1           0       -2.212800    0.687200   -0.360500
     19          1           0       -1.538511   -1.960640    2.012517
 ---------------------------------------------------------------------
                    Distance matrix (angstroms):
                    1          2          3          4          5
     1  O    0.000000
     2  S    1.607035   0.000000
     3  C    2.660312   1.745847   0.000000
     4  C    3.781479   2.739167   1.336552   0.000000
     5  C    2.680012   1.774534   2.886554   3.196982   0.000000
     6  C    3.811592   2.748695   3.941843   4.131869   1.410563
     7  C    4.959982   4.064278   5.134130   5.095530   2.441633
     8  C    5.232637   4.596367   5.482572   5.300215   2.822649
     9  C    4.482651   4.093525   4.783319   4.608923   2.446661
    10  C    3.163549   2.787909   3.466970   3.507130   1.412334
    11  H    3.134537   2.602774   1.089990   1.908974   3.942222
    12  H    4.293670   3.558911   2.105031   1.090004   3.871456
    13  H    4.459348   3.131456   2.105018   1.089958   3.290308
    14  H    4.084135   2.879111   4.123268   4.444703   2.172150
    15  H    5.876370   4.915835   6.012969   5.956794   3.428355
    16  H    6.279181   5.686148   6.537240   6.268833   3.912616
    17  H    5.148832   4.957529   5.475279   5.206863   3.433977
    18  H    2.940366   2.943284   3.275058   3.353568   2.172927
    19  H    0.960000   2.246534   3.535909   4.691210   3.171681
                    6          7          8          9         10
     6  C    0.000000
     7  C    1.407254   0.000000
     8  C    2.439940   1.407425   0.000000
     9  C    2.817890   2.436744   1.406703   0.000000
    10  C    2.438320   2.811648   2.436352   1.407980   0.000000
    11  H    5.008310   6.221688   6.549752   5.779019   4.441492
    12  H    4.921518   5.735171   5.694548   4.815594   3.802912
    13  H    3.873955   4.748453   5.097672   4.668143   3.768153
    14  H    1.089942   2.166563   3.425620   3.907819   3.428190
    15  H    2.167339   1.090027   2.167794   3.423854   3.901661
    16  H    3.427096   2.169074   1.089986   2.167864   3.424316
    17  H    3.907909   3.424584   2.168102   1.090019   2.170152
    18  H    3.427387   3.901572   3.421895   2.165536   1.089945
    19  H    4.082522   5.193562   5.541850   4.917069   3.724035
                   11         12         13         14         15
    11  H    0.000000
    12  H    2.345802   0.000000
    13  H    2.760645   1.887952   0.000000
    14  H    5.116946   5.377841   4.082721   0.000000
    15  H    7.092502   6.652296   5.477106   2.492524   0.000000
    16  H    7.599691   6.593607   6.012571   4.324664   2.496772
    17  H    6.393082   5.200646   5.354507   4.997836   4.324265
    18  H    4.078843   3.398655   3.898595   4.331573   4.991572
    19  H    3.969033   5.247400   5.297469   4.250479   6.028145
                   16         17         18         19
    16  H    0.000000
    17  H    2.496658   0.000000
    18  H    4.321898   2.493997   0.000000
    19  H    6.551398   5.598902   3.618969   0.000000
 Stoichiometry    C8H9OS(1+)
 Framework group  C1[X(C8H9OS)]
 Deg. of freedom    51
 Full point group                 C1      NOp   1
 Largest Abelian subgroup         C1      NOp   1
 Largest concise Abelian subgroup C1      NOp   1
                         Standard orientation:                         
 ---------------------------------------------------------------------
 Center     Atomic      Atomic             Coordinates (Angstroms)
 Number     Number       Type             X           Y           Z
 ---------------------------------------------------------------------
      1          8           0       -1.809230   -1.440094    1.027191
      2         16           0       -1.416415   -0.650866   -0.316452
      3          6           0       -2.380245    0.804405   -0.281787
      4          6           0       -1.902177    2.041821   -0.444954
      5          6           0        0.301352   -0.251495   -0.119603
      6          6           0        1.202114   -0.592244   -1.150237
      7          6           0        2.575892   -0.324277   -1.004329
      8          6           0        3.058240    0.279451    0.171978
      9          6           0        2.164150    0.627838    1.200590
     10          6           0        0.788741    0.364863    1.053957
     11          1           0       -3.448214    0.965724   -0.135172
     12          1           0       -2.050326    2.790298    0.333469
     13          1           0       -1.364206    2.302412   -1.356374
     14          1           0        0.835653   -1.063789   -2.062008
     15          1           0        3.268233   -0.585166   -1.804805
     16          1           0        4.124029    0.477126    0.286372
     17          1           0        2.536331    1.100614    2.109494
     18          1           0        0.098910    0.639478    1.851893
     19          1           0       -1.712337   -2.394270    1.069148
 ---------------------------------------------------------------------
 Rotational constants (GHZ):           2.0855286           0.7666162           0.7227646
 Leave Link  202 at Sun Oct 13 23:14:24 2019, MaxMem= 10737418240 cpu:               0.4 elap:               0.0
 (Enter /apps/cent7/gaussian/g16-A.03/g16-haswell/g16/l301.exe)
 Standard basis: 6-311++G(d,p) (5D, 7F)
 Ernie: Thresh=  0.10000D-02 Tol=  0.10000D-05 Strict=F.
 There are   301 symmetry adapted cartesian basis functions of A   symmetry.
 There are   291 symmetry adapted basis functions of A   symmetry.
   291 basis functions,   455 primitive gaussians,   301 cartesian basis functions
    40 alpha electrons       40 beta electrons
       nuclear repulsion energy       586.1235027333 Hartrees.
 IExCor= 4336 DFT=T Ex+Corr=M062X ExCW=0 ScaHFX=  0.540000
 ScaDFX=  1.000000  1.000000  1.000000  1.000000 ScalE2=  1.000000  1.000000
 IRadAn=      5 IRanWt=     -1 IRanGd=            0 ICorTp=0 IEmpDi=  4
 NAtoms=   19 NActive=   19 NUniq=   19 SFac= 1.00D+00 NAtFMM=   60 NAOKFM=F Big=F
 Integral buffers will be    131072 words long.
 Raffenetti 2 integral format.
 Two-electron integral symmetry is turned on.
 Leave Link  301 at Sun Oct 13 23:14:24 2019, MaxMem= 10737418240 cpu:               1.3 elap:               0.1
 (Enter /apps/cent7/gaussian/g16-A.03/g16-haswell/g16/l302.exe)
 NPDir=0 NMtPBC=     1 NCelOv=     1 NCel=       1 NClECP=     1 NCelD=      1
         NCelK=      1 NCelE2=     1 NClLst=     1 CellRange=     0.0.
 One-electron integrals computed using PRISM.
 One-electron integral symmetry used in STVInt
 NBasis=   291 RedAO= T EigKep=  2.99D-06  NBF=   291
 NBsUse=   290 1.00D-06 EigRej=  8.64D-07 NBFU=   290
 Precomputing XC quadrature grid using
 IXCGrd= 4 IRadAn=           5 IRanWt=          -1 IRanGd=           0 AccXCQ= 0.00D+00.
 Generated NRdTot=       0 NPtTot=           0 NUsed=           0 NTot=          32
 NSgBfM=   301   301   301   301   301 MxSgAt=    19 MxSgA2=    19.
 Leave Link  302 at Sun Oct 13 23:14:24 2019, MaxMem= 10737418240 cpu:               4.7 elap:               0.2
 (Enter /apps/cent7/gaussian/g16-A.03/g16-haswell/g16/l303.exe)
 DipDrv:  MaxL=1.
 Leave Link  303 at Sun Oct 13 23:14:24 2019, MaxMem= 10737418240 cpu:               1.3 elap:               0.1
 (Enter /apps/cent7/gaussian/g16-A.03/g16-haswell/g16/l401.exe)
 ExpMin= 3.60D-02 ExpMax= 9.34D+04 ExpMxC= 3.17D+03 IAcc=3 IRadAn=         5 AccDes= 0.00D+00
 Harris functional with IExCor= 1009 and IRadAn=       5 diagonalized for initial guess.
 HarFok:  IExCor= 1009 AccDes= 0.00D+00 IRadAn=         5 IDoV= 1 UseB2=F ITyADJ=14
 ICtDFT=  3500011 ScaDFX=  1.000000  1.000000  1.000000  1.000000
 FoFCou: FMM=F IPFlag=           0 FMFlag=      100000 FMFlg1=           0
         NFxFlg=           0 DoJE=T BraDBF=F KetDBF=T FulRan=T
         wScrn=  0.000000 ICntrl=       500 IOpCl=  0 I1Cent=   200000004 NGrid=           0
         NMat0=    1 NMatS0=      1 NMatT0=    0 NMatD0=    1 NMtDS0=    0 NMtDT0=    0
 Petite list used in FoFCou.
 Harris En= -782.922697676539    
 JPrj=0 DoOrth=F DoCkMO=F.
 Leave Link  401 at Sun Oct 13 23:14:25 2019, MaxMem= 10737418240 cpu:              11.5 elap:               0.5
 (Enter /apps/cent7/gaussian/g16-A.03/g16-haswell/g16/l502.exe)
 Integral symmetry usage will be decided dynamically.
 Closed shell SCF:
 Using DIIS extrapolation, IDIIS=  1040.
 NGot= 10737418240 LenX= 10737226882 LenY= 10737135840
 Requested convergence on RMS density matrix=1.00D-08 within 128 cycles.
 Requested convergence on MAX density matrix=1.00D-06.
 Requested convergence on             energy=1.00D-06.
 No special actions if energy rises.
 Fock matrices will be formed incrementally for  20 cycles.

 Cycle   1  Pass 1  IDiag  1:
 FoFJK:  IHMeth= 1 ICntrl=       0 DoSepK=F KAlg= 0 I1Cent=           0 FoldK=F
 IRaf= 940000000 NMat=       1 IRICut=       1 DoRegI=T DoRafI=F ISym2E= 0 IDoP0=0 IntGTp=1.
 FoFCou: FMM=F IPFlag=           0 FMFlag=      100000 FMFlg1=           0
         NFxFlg=           0 DoJE=F BraDBF=F KetDBF=F FulRan=T
         wScrn=  0.000000 ICntrl=         0 IOpCl=  0 I1Cent=           0 NGrid=           0
         NMat0=    1 NMatS0=      1 NMatT0=    0 NMatD0=    1 NMtDS0=    0 NMtDT0=    0
 Symmetry not used in FoFCou.
 E= -782.832856901958    
 DIIS: error= 2.00D-02 at cycle   1 NSaved=   1.
 NSaved= 1 IEnMin= 1 EnMin= -782.832856901958     IErMin= 1 ErrMin= 2.00D-02
 ErrMax= 2.00D-02  0.00D+00 EMaxC= 1.00D-01 BMatC= 4.50D-01 BMatP= 4.50D-01
 IDIUse=3 WtCom= 8.00D-01 WtEn= 2.00D-01
 Coeff-Com:  0.100D+01
 Coeff-En:   0.100D+01
 Coeff:      0.100D+01
 Gap=     0.319 Goal=   None    Shift=    0.000
 GapD=    0.319 DampG=1.000 DampE=0.500 DampFc=0.5000 IDamp=-1.
 Damping current iteration by 5.00D-01
 RMSDP=7.35D-02 MaxDP=6.85D+00              OVMax= 3.37D-01

 Cycle   2  Pass 1  IDiag  1:
 RMSU=  2.27D-02    CP:  1.64D+00
 E= -782.979317579401     Delta-E=       -0.146460677443 Rises=F Damp=T
 DIIS: error= 5.30D-03 at cycle   2 NSaved=   2.
 NSaved= 2 IEnMin= 2 EnMin= -782.979317579401     IErMin= 2 ErrMin= 5.30D-03
 ErrMax= 5.30D-03  0.00D+00 EMaxC= 1.00D-01 BMatC= 3.35D-02 BMatP= 4.50D-01
 IDIUse=3 WtCom= 9.47D-01 WtEn= 5.30D-02
 Coeff-Com:  0.193D-01 0.981D+00
 Coeff-En:   0.153D+00 0.847D+00
 Coeff:      0.264D-01 0.974D+00
 Gap=     0.287 Goal=   None    Shift=    0.000
 RMSDP=2.29D-02 MaxDP=2.22D+00 DE=-1.46D-01 OVMax= 2.24D-01

 Cycle   3  Pass 1  IDiag  1:
 RMSU=  9.21D-03    CP:  1.23D+00  5.50D-01
 E= -783.171413750484     Delta-E=       -0.192096171083 Rises=F Damp=F
 DIIS: error= 7.24D-03 at cycle   3 NSaved=   3.
 NSaved= 3 IEnMin= 3 EnMin= -783.171413750484     IErMin= 2 ErrMin= 5.30D-03
 ErrMax= 7.24D-03  0.00D+00 EMaxC= 1.00D-01 BMatC= 1.45D-02 BMatP= 3.35D-02
 IDIUse=3 WtCom= 9.28D-01 WtEn= 7.24D-02
 Coeff-Com: -0.714D-01 0.380D+00 0.692D+00
 Coeff-En:   0.000D+00 0.000D+00 0.100D+01
 Coeff:     -0.662D-01 0.352D+00 0.714D+00
 Gap=     0.219 Goal=   None    Shift=    0.000
 RMSDP=5.36D-03 MaxDP=5.27D-01 DE=-1.92D-01 OVMax= 7.27D-02

 Cycle   4  Pass 1  IDiag  1:
 RMSU=  1.46D-03    CP:  1.32D+00  6.91D-01  9.63D-01
 E= -783.183885615592     Delta-E=       -0.012471865108 Rises=F Damp=F
 DIIS: error= 3.15D-03 at cycle   4 NSaved=   4.
 NSaved= 4 IEnMin= 4 EnMin= -783.183885615592     IErMin= 4 ErrMin= 3.15D-03
 ErrMax= 3.15D-03  0.00D+00 EMaxC= 1.00D-01 BMatC= 3.80D-03 BMatP= 1.45D-02
 IDIUse=3 WtCom= 9.68D-01 WtEn= 3.15D-02
 Coeff-Com: -0.378D-01 0.105D+00 0.402D+00 0.532D+00
 Coeff-En:   0.000D+00 0.000D+00 0.166D+00 0.834D+00
 Coeff:     -0.366D-01 0.101D+00 0.394D+00 0.541D+00
 Gap=     0.220 Goal=   None    Shift=    0.000
 RMSDP=8.21D-04 MaxDP=4.84D-02 DE=-1.25D-02 OVMax= 1.88D-02

 Cycle   5  Pass 1  IDiag  1:
 RMSU=  5.42D-04    CP:  1.32D+00  6.82D-01  1.02D+00  8.65D-01
 E= -783.187688026308     Delta-E=       -0.003802410716 Rises=F Damp=F
 DIIS: error= 3.91D-04 at cycle   5 NSaved=   5.
 NSaved= 5 IEnMin= 5 EnMin= -783.187688026308     IErMin= 5 ErrMin= 3.91D-04
 ErrMax= 3.91D-04  0.00D+00 EMaxC= 1.00D-01 BMatC= 5.59D-05 BMatP= 3.80D-03
 IDIUse=3 WtCom= 9.96D-01 WtEn= 3.91D-03
 Coeff-Com: -0.462D-02 0.229D-02 0.637D-01 0.140D+00 0.798D+00
 Coeff-En:   0.000D+00 0.000D+00 0.000D+00 0.000D+00 0.100D+01
 Coeff:     -0.460D-02 0.228D-02 0.634D-01 0.140D+00 0.799D+00
 Gap=     0.221 Goal=   None    Shift=    0.000
 RMSDP=5.21D-04 MaxDP=4.63D-02 DE=-3.80D-03 OVMax= 5.36D-03

 Cycle   6  Pass 1  IDiag  1:
 RMSU=  1.63D-04    CP:  1.31D+00  6.68D-01  1.03D+00  8.59D-01  1.02D+00
 E= -783.187765382648     Delta-E=       -0.000077356340 Rises=F Damp=F
 DIIS: error= 1.63D-04 at cycle   6 NSaved=   6.
 NSaved= 6 IEnMin= 6 EnMin= -783.187765382648     IErMin= 6 ErrMin= 1.63D-04
 ErrMax= 1.63D-04  0.00D+00 EMaxC= 1.00D-01 BMatC= 9.10D-06 BMatP= 5.59D-05
 IDIUse=3 WtCom= 9.98D-01 WtEn= 1.63D-03
 Coeff-Com:  0.163D-02-0.689D-02-0.732D-02-0.977D-02 0.232D+00 0.791D+00
 Coeff-En:   0.000D+00 0.000D+00 0.000D+00 0.000D+00 0.000D+00 0.100D+01
 Coeff:      0.163D-02-0.688D-02-0.730D-02-0.975D-02 0.231D+00 0.791D+00
 Gap=     0.221 Goal=   None    Shift=    0.000
 RMSDP=1.53D-04 MaxDP=1.26D-02 DE=-7.74D-05 OVMax= 1.91D-03

 Cycle   7  Pass 1  IDiag  1:
 RMSU=  6.00D-05    CP:  1.31D+00  6.65D-01  1.03D+00  8.67D-01  1.01D+00
                    CP:  1.03D+00
 E= -783.187777452309     Delta-E=       -0.000012069661 Rises=F Damp=F
 DIIS: error= 4.88D-05 at cycle   7 NSaved=   7.
 NSaved= 7 IEnMin= 7 EnMin= -783.187777452309     IErMin= 7 ErrMin= 4.88D-05
 ErrMax= 4.88D-05  0.00D+00 EMaxC= 1.00D-01 BMatC= 2.02D-06 BMatP= 9.10D-06
 IDIUse=1 WtCom= 1.00D+00 WtEn= 0.00D+00
 Coeff-Com:  0.161D-02-0.391D-02-0.128D-01-0.315D-01-0.130D-01 0.320D+00
 Coeff-Com:  0.740D+00
 Coeff:      0.161D-02-0.391D-02-0.128D-01-0.315D-01-0.130D-01 0.320D+00
 Coeff:      0.740D+00
 Gap=     0.221 Goal=   None    Shift=    0.000
 RMSDP=8.87D-05 MaxDP=8.27D-03 DE=-1.21D-05 OVMax= 7.71D-04

 Cycle   8  Pass 1  IDiag  1:
 RMSU=  2.57D-05    CP:  1.31D+00  6.62D-01  1.03D+00  8.65D-01  1.03D+00
                    CP:  1.14D+00  1.18D+00
 E= -783.187779938560     Delta-E=       -0.000002486251 Rises=F Damp=F
 DIIS: error= 4.34D-05 at cycle   8 NSaved=   8.
 NSaved= 8 IEnMin= 8 EnMin= -783.187779938560     IErMin= 8 ErrMin= 4.34D-05
 ErrMax= 4.34D-05  0.00D+00 EMaxC= 1.00D-01 BMatC= 2.96D-07 BMatP= 2.02D-06
 IDIUse=1 WtCom= 1.00D+00 WtEn= 0.00D+00
 Coeff-Com:  0.411D-03-0.637D-03-0.321D-02-0.130D-01-0.263D-01 0.320D-01
 Coeff-Com:  0.301D+00 0.710D+00
 Coeff:      0.411D-03-0.637D-03-0.321D-02-0.130D-01-0.263D-01 0.320D-01
 Coeff:      0.301D+00 0.710D+00
 Gap=     0.221 Goal=   None    Shift=    0.000
 RMSDP=3.06D-05 MaxDP=2.95D-03 DE=-2.49D-06 OVMax= 5.23D-04

 Cycle   9  Pass 1  IDiag  1:
 RMSU=  1.10D-05    CP:  1.31D+00  6.62D-01  1.03D+00  8.62D-01  1.02D+00
                    CP:  1.14D+00  1.33D+00  1.14D+00
 E= -783.187780385763     Delta-E=       -0.000000447203 Rises=F Damp=F
 DIIS: error= 1.03D-05 at cycle   9 NSaved=   9.
 NSaved= 9 IEnMin= 9 EnMin= -783.187780385763     IErMin= 9 ErrMin= 1.03D-05
 ErrMax= 1.03D-05  0.00D+00 EMaxC= 1.00D-01 BMatC= 7.12D-08 BMatP= 2.96D-07
 IDIUse=1 WtCom= 1.00D+00 WtEn= 0.00D+00
 Coeff-Com: -0.154D-04 0.191D-03 0.563D-03-0.196D-02-0.842D-02-0.361D-01
 Coeff-Com:  0.231D-02 0.325D+00 0.719D+00
 Coeff:     -0.154D-04 0.191D-03 0.563D-03-0.196D-02-0.842D-02-0.361D-01
 Coeff:      0.231D-02 0.325D+00 0.719D+00
 Gap=     0.221 Goal=   None    Shift=    0.000
 RMSDP=1.45D-05 MaxDP=1.23D-03 DE=-4.47D-07 OVMax= 1.56D-04

 Cycle  10  Pass 1  IDiag  1:
 RMSU=  3.10D-06    CP:  1.31D+00  6.62D-01  1.03D+00  8.61D-01  1.02D+00
                    CP:  1.15D+00  1.41D+00  1.37D+00  1.12D+00
 E= -783.187780476799     Delta-E=       -0.000000091036 Rises=F Damp=F
 DIIS: error= 4.50D-06 at cycle  10 NSaved=  10.
 NSaved=10 IEnMin=10 EnMin= -783.187780476799     IErMin=10 ErrMin= 4.50D-06
 ErrMax= 4.50D-06  0.00D+00 EMaxC= 1.00D-01 BMatC= 8.73D-09 BMatP= 7.12D-08
 IDIUse=1 WtCom= 1.00D+00 WtEn= 0.00D+00
 Coeff-Com: -0.845D-04 0.192D-03 0.115D-02 0.178D-02 0.316D-02-0.240D-01
 Coeff-Com: -0.689D-01 0.187D-01 0.260D+00 0.808D+00
 Coeff:     -0.845D-04 0.192D-03 0.115D-02 0.178D-02 0.316D-02-0.240D-01
 Coeff:     -0.689D-01 0.187D-01 0.260D+00 0.808D+00
 Gap=     0.221 Goal=   None    Shift=    0.000
 RMSDP=7.61D-06 MaxDP=6.82D-04 DE=-9.10D-08 OVMax= 1.28D-04

 Cycle  11  Pass 1  IDiag  1:
 RMSU=  1.41D-06    CP:  1.31D+00  6.61D-01  1.03D+00  8.60D-01  1.02D+00
                    CP:  1.15D+00  1.45D+00  1.49D+00  1.25D+00  1.26D+00
 E= -783.187780493329     Delta-E=       -0.000000016530 Rises=F Damp=F
 DIIS: error= 1.52D-06 at cycle  11 NSaved=  11.
 NSaved=11 IEnMin=11 EnMin= -783.187780493329     IErMin=11 ErrMin= 1.52D-06
 ErrMax= 1.52D-06  0.00D+00 EMaxC= 1.00D-01 BMatC= 1.73D-09 BMatP= 8.73D-09
 IDIUse=1 WtCom= 1.00D+00 WtEn= 0.00D+00
 Coeff-Com: -0.239D-04 0.430D-04 0.356D-03 0.761D-03 0.204D-02-0.398D-02
 Coeff-Com: -0.235D-01-0.314D-01-0.485D-01 0.336D+00 0.769D+00
 Coeff:     -0.239D-04 0.430D-04 0.356D-03 0.761D-03 0.204D-02-0.398D-02
 Coeff:     -0.235D-01-0.314D-01-0.485D-01 0.336D+00 0.769D+00
 Gap=     0.221 Goal=   None    Shift=    0.000
 RMSDP=2.12D-06 MaxDP=1.18D-04 DE=-1.65D-08 OVMax= 3.60D-05

 Cycle  12  Pass 1  IDiag  1:
 RMSU=  7.33D-07    CP:  1.31D+00  6.62D-01  1.03D+00  8.60D-01  1.02D+00
                    CP:  1.15D+00  1.45D+00  1.53D+00  1.32D+00  1.48D+00
                    CP:  1.01D+00
 E= -783.187780495858     Delta-E=       -0.000000002529 Rises=F Damp=F
 DIIS: error= 5.65D-07 at cycle  12 NSaved=  12.
 NSaved=12 IEnMin=12 EnMin= -783.187780495858     IErMin=12 ErrMin= 5.65D-07
 ErrMax= 5.65D-07  0.00D+00 EMaxC= 1.00D-01 BMatC= 1.61D-10 BMatP= 1.73D-09
 IDIUse=1 WtCom= 1.00D+00 WtEn= 0.00D+00
 Coeff-Com:  0.433D-05-0.153D-04-0.159D-04 0.357D-04 0.525D-03 0.157D-02
 Coeff-Com:  0.705D-03-0.122D-01-0.644D-01 0.451D-01 0.310D+00 0.719D+00
 Coeff:      0.433D-05-0.153D-04-0.159D-04 0.357D-04 0.525D-03 0.157D-02
 Coeff:      0.705D-03-0.122D-01-0.644D-01 0.451D-01 0.310D+00 0.719D+00
 Gap=     0.221 Goal=   None    Shift=    0.000
 RMSDP=4.55D-07 MaxDP=1.74D-05 DE=-2.53D-09 OVMax= 1.25D-05

 Cycle  13  Pass 1  IDiag  1:
 RMSU=  1.97D-07    CP:  1.31D+00  6.62D-01  1.03D+00  8.60D-01  1.02D+00
                    CP:  1.15D+00  1.46D+00  1.54D+00  1.33D+00  1.55D+00
                    CP:  1.13D+00  1.01D+00
 E= -783.187780496106     Delta-E=       -0.000000000248 Rises=F Damp=F
 DIIS: error= 1.63D-07 at cycle  13 NSaved=  13.
 NSaved=13 IEnMin=13 EnMin= -783.187780496106     IErMin=13 ErrMin= 1.63D-07
 ErrMax= 1.63D-07  0.00D+00 EMaxC= 1.00D-01 BMatC= 2.05D-11 BMatP= 1.61D-10
 IDIUse=1 WtCom= 1.00D+00 WtEn= 0.00D+00
 Coeff-Com:  0.384D-05-0.923D-05-0.559D-04-0.999D-04-0.164D-03 0.939D-03
 Coeff-Com:  0.428D-02 0.124D-02-0.171D-01-0.403D-01-0.355D-01 0.240D+00
 Coeff-Com:  0.847D+00
 Coeff:      0.384D-05-0.923D-05-0.559D-04-0.999D-04-0.164D-03 0.939D-03
 Coeff:      0.428D-02 0.124D-02-0.171D-01-0.403D-01-0.355D-01 0.240D+00
 Coeff:      0.847D+00
 Gap=     0.221 Goal=   None    Shift=    0.000
 RMSDP=6.23D-07 MaxDP=5.69D-05 DE=-2.48D-10 OVMax= 5.73D-06

 Cycle  14  Pass 1  IDiag  1:
 RMSU=  7.06D-08    CP:  1.31D+00  6.62D-01  1.03D+00  8.60D-01  1.02D+00
                    CP:  1.15D+00  1.46D+00  1.54D+00  1.33D+00  1.58D+00
                    CP:  1.18D+00  1.14D+00  1.19D+00
 E= -783.187780496148     Delta-E=       -0.000000000042 Rises=F Damp=F
 DIIS: error= 5.44D-08 at cycle  14 NSaved=  14.
 NSaved=14 IEnMin=14 EnMin= -783.187780496148     IErMin=14 ErrMin= 5.44D-08
 ErrMax= 5.44D-08  0.00D+00 EMaxC= 1.00D-01 BMatC= 1.58D-12 BMatP= 2.05D-11
 IDIUse=1 WtCom= 1.00D+00 WtEn= 0.00D+00
 Coeff-Com:  0.847D-06-0.174D-05-0.148D-04-0.337D-04-0.842D-04 0.163D-03
 Coeff-Com:  0.138D-02 0.145D-02-0.210D-03-0.141D-01-0.360D-01 0.186D-01
 Coeff-Com:  0.276D+00 0.753D+00
 Coeff:      0.847D-06-0.174D-05-0.148D-04-0.337D-04-0.842D-04 0.163D-03
 Coeff:      0.138D-02 0.145D-02-0.210D-03-0.141D-01-0.360D-01 0.186D-01
 Coeff:      0.276D+00 0.753D+00
 Gap=     0.221 Goal=   None    Shift=    0.000
 RMSDP=1.03D-07 MaxDP=8.54D-06 DE=-4.23D-11 OVMax= 1.34D-06

 Cycle  15  Pass 1  IDiag  1:
 RMSU=  2.54D-08    CP:  1.31D+00  6.62D-01  1.03D+00  8.60D-01  1.02D+00
                    CP:  1.15D+00  1.46D+00  1.54D+00  1.33D+00  1.59D+00
                    CP:  1.19D+00  1.18D+00  1.28D+00  1.09D+00
 E= -783.187780496135     Delta-E=        0.000000000014 Rises=F Damp=F
 DIIS: error= 2.12D-08 at cycle  15 NSaved=  15.
 NSaved=15 IEnMin=14 EnMin= -783.187780496148     IErMin=15 ErrMin= 2.12D-08
 ErrMax= 2.12D-08  0.00D+00 EMaxC= 1.00D-01 BMatC= 3.09D-13 BMatP= 1.58D-12
 IDIUse=1 WtCom= 1.00D+00 WtEn= 0.00D+00
 Coeff-Com: -0.172D-06 0.477D-06 0.225D-05 0.231D-05-0.666D-05-0.711D-04
 Coeff-Com: -0.119D-03 0.146D-03 0.212D-02 0.912D-03-0.880D-02-0.280D-01
 Coeff-Com: -0.292D-01 0.280D+00 0.783D+00
 Coeff:     -0.172D-06 0.477D-06 0.225D-05 0.231D-05-0.666D-05-0.711D-04
 Coeff:     -0.119D-03 0.146D-03 0.212D-02 0.912D-03-0.880D-02-0.280D-01
 Coeff:     -0.292D-01 0.280D+00 0.783D+00
 Gap=     0.221 Goal=   None    Shift=    0.000
 RMSDP=2.61D-08 MaxDP=1.23D-06 DE= 1.36D-11 OVMax= 5.41D-07

 Cycle  16  Pass 1  IDiag  1:
 RMSU=  8.32D-09    CP:  1.31D+00  6.62D-01  1.03D+00  8.60D-01  1.02D+00
                    CP:  1.15D+00  1.46D+00  1.54D+00  1.33D+00  1.59D+00
                    CP:  1.19D+00  1.19D+00  1.33D+00  1.19D+00  1.19D+00
 E= -783.187780496144     Delta-E=       -0.000000000009 Rises=F Damp=F
 DIIS: error= 1.12D-08 at cycle  16 NSaved=  16.
 NSaved=16 IEnMin=14 EnMin= -783.187780496148     IErMin=16 ErrMin= 1.12D-08
 ErrMax= 1.12D-08  0.00D+00 EMaxC= 1.00D-01 BMatC= 3.01D-14 BMatP= 3.09D-13
 IDIUse=1 WtCom= 1.00D+00 WtEn= 0.00D+00
 Coeff-Com: -0.148D-06 0.374D-06 0.261D-05 0.451D-05 0.699D-05-0.490D-04
 Coeff-Com: -0.197D-03-0.955D-04 0.842D-03 0.213D-02 0.723D-03-0.119D-01
 Coeff-Com: -0.455D-01 0.171D-01 0.274D+00 0.763D+00
 Coeff:     -0.148D-06 0.374D-06 0.261D-05 0.451D-05 0.699D-05-0.490D-04
 Coeff:     -0.197D-03-0.955D-04 0.842D-03 0.213D-02 0.723D-03-0.119D-01
 Coeff:     -0.455D-01 0.171D-01 0.274D+00 0.763D+00
 Gap=     0.221 Goal=   None    Shift=    0.000
 RMSDP=8.58D-09 MaxDP=3.15D-07 DE=-9.32D-12 OVMax= 1.69D-07

 SCF Done:  E(RM062X) =  -783.187780496     A.U. after   16 cycles
            NFock= 16  Conv=0.86D-08     -V/T= 2.0028
 KE= 7.810214377907D+02 PE=-3.000203100294D+03 EE= 8.498703792738D+02
 Leave Link  502 at Sun Oct 13 23:14:43 2019, MaxMem= 10737418240 cpu:             433.3 elap:              18.2
 (Enter /apps/cent7/gaussian/g16-A.03/g16-haswell/g16/l601.exe)
 Copying SCF densities to generalized density rwf, IOpCl= 0 IROHF=0.

 **********************************************************************

            Population analysis using the SCF density.

 **********************************************************************

 Orbital symmetries:
       Occupied  (A) (A) (A) (A) (A) (A) (A) (A) (A) (A) (A) (A)
                 (A) (A) (A) (A) (A) (A) (A) (A) (A) (A) (A) (A)
                 (A) (A) (A) (A) (A) (A) (A) (A) (A) (A) (A) (A)
                 (A) (A) (A) (A)
       Virtual   (A) (A) (A) (A) (A) (A) (A) (A) (A) (A) (A) (A)
                 (A) (A) (A) (A) (A) (A) (A) (A) (A) (A) (A) (A)
                 (A) (A) (A) (A) (A) (A) (A) (A) (A) (A) (A) (A)
                 (A) (A) (A) (A) (A) (A) (A) (A) (A) (A) (A) (A)
                 (A) (A) (A) (A) (A) (A) (A) (A) (A) (A) (A) (A)
                 (A) (A) (A) (A) (A) (A) (A) (A) (A) (A) (A) (A)
                 (A) (A) (A) (A) (A) (A) (A) (A) (A) (A) (A) (A)
                 (A) (A) (A) (A) (A) (A) (A) (A) (A) (A) (A) (A)
                 (A) (A) (A) (A) (A) (A) (A) (A) (A) (A) (A) (A)
                 (A) (A) (A) (A) (A) (A) (A) (A) (A) (A) (A) (A)
                 (A) (A) (A) (A) (A) (A) (A) (A) (A) (A) (A) (A)
                 (A) (A) (A) (A) (A) (A) (A) (A) (A) (A) (A) (A)
                 (A) (A) (A) (A) (A) (A) (A) (A) (A) (A) (A) (A)
                 (A) (A) (A) (A) (A) (A) (A) (A) (A) (A) (A) (A)
                 (A) (A) (A) (A) (A) (A) (A) (A) (A) (A) (A) (A)
                 (A) (A) (A) (A) (A) (A) (A) (A) (A) (A) (A) (A)
                 (A) (A) (A) (A) (A) (A) (A) (A) (A) (A) (A) (A)
                 (A) (A) (A) (A) (A) (A) (A) (A) (A) (A) (A) (A)
                 (A) (A) (A) (A) (A) (A) (A) (A) (A) (A) (A) (A)
                 (A) (A) (A) (A) (A) (A) (A) (A) (A) (A) (A) (A)
                 (A) (A) (A) (A) (A) (A) (A) (A) (A) (A)
 The electronic state is 1-A.
 Alpha  occ. eigenvalues --  -90.21647 -19.85668 -10.75922 -10.75807 -10.74486
 Alpha  occ. eigenvalues --  -10.72660 -10.72412 -10.70884 -10.70615 -10.70599
 Alpha  occ. eigenvalues --   -8.57339  -6.49518  -6.49281  -6.48927  -1.39106
 Alpha  occ. eigenvalues --   -1.14835  -1.10711  -1.04135  -1.00460  -0.98634
 Alpha  occ. eigenvalues --   -0.86620  -0.85527  -0.84111  -0.80180  -0.76068
 Alpha  occ. eigenvalues --   -0.73996  -0.71367  -0.68956  -0.68350  -0.67047
 Alpha  occ. eigenvalues --   -0.65355  -0.64733  -0.62379  -0.60152  -0.58494
 Alpha  occ. eigenvalues --   -0.56587  -0.55384  -0.48087  -0.46752  -0.45350
 Alpha virt. eigenvalues --   -0.23206  -0.18774  -0.14150  -0.13350  -0.12369
 Alpha virt. eigenvalues --   -0.09967  -0.09747  -0.09319  -0.08471  -0.07733
 Alpha virt. eigenvalues --   -0.07298  -0.07048  -0.06485  -0.05694  -0.05465
 Alpha virt. eigenvalues --   -0.04405  -0.03902  -0.03755  -0.02304  -0.01758
 Alpha virt. eigenvalues --   -0.01403  -0.00855   0.00002   0.00759   0.00946
 Alpha virt. eigenvalues --    0.01569   0.01864   0.02257   0.02603   0.02836
 Alpha virt. eigenvalues --    0.03196   0.03649   0.03921   0.04075   0.04236
 Alpha virt. eigenvalues --    0.04644   0.04782   0.05444   0.06310   0.06923
 Alpha virt. eigenvalues --    0.07339   0.07717   0.08201   0.08921   0.09023
 Alpha virt. eigenvalues --    0.09988   0.10170   0.11158   0.11633   0.11894
 Alpha virt. eigenvalues --    0.12376   0.13278   0.14079   0.15503   0.16449
 Alpha virt. eigenvalues --    0.17078   0.17121   0.17500   0.17877   0.18685
 Alpha virt. eigenvalues --    0.19543   0.20294   0.21458   0.21965   0.22853
 Alpha virt. eigenvalues --    0.23299   0.25517   0.26060   0.26698   0.26962
 Alpha virt. eigenvalues --    0.28521   0.29215   0.35744   0.36809   0.38775
 Alpha virt. eigenvalues --    0.40506   0.40821   0.42790   0.43264   0.43951
 Alpha virt. eigenvalues --    0.44760   0.45429   0.45748   0.46575   0.46871
 Alpha virt. eigenvalues --    0.47659   0.49360   0.49716   0.51202   0.52614
 Alpha virt. eigenvalues --    0.54819   0.55612   0.55634   0.57074   0.57997
 Alpha virt. eigenvalues --    0.58779   0.60486   0.61876   0.62471   0.63552
 Alpha virt. eigenvalues --    0.63925   0.64486   0.69042   0.69538   0.70322
 Alpha virt. eigenvalues --    0.72020   0.74682   0.75934   0.76882   0.77847
 Alpha virt. eigenvalues --    0.78259   0.79250   0.79979   0.80868   0.81703
 Alpha virt. eigenvalues --    0.82568   0.86401   0.89402   0.89827   0.91466
 Alpha virt. eigenvalues --    0.92329   0.95667   0.97876   0.98462   1.00383
 Alpha virt. eigenvalues --    1.00900   1.03280   1.05761   1.08412   1.13065
 Alpha virt. eigenvalues --    1.15700   1.17391   1.19813   1.26044   1.28778
 Alpha virt. eigenvalues --    1.32903   1.35030   1.37512   1.38602   1.39680
 Alpha virt. eigenvalues --    1.40099   1.41551   1.43634   1.45709   1.46390
 Alpha virt. eigenvalues --    1.49605   1.49999   1.52505   1.53176   1.54088
 Alpha virt. eigenvalues --    1.55032   1.56729   1.60623   1.61421   1.63433
 Alpha virt. eigenvalues --    1.66102   1.68520   1.70443   1.72135   1.74250
 Alpha virt. eigenvalues --    1.74756   1.78022   1.78965   1.79890   1.81602
 Alpha virt. eigenvalues --    1.81880   1.84973   1.86181   1.87180   1.88078
 Alpha virt. eigenvalues --    1.89336   1.90378   1.93333   1.94383   1.95292
 Alpha virt. eigenvalues --    1.95707   1.98277   2.09112   2.14822   2.15960
 Alpha virt. eigenvalues --    2.17846   2.18623   2.27429   2.33806   2.34868
 Alpha virt. eigenvalues --    2.37219   2.39876   2.40597   2.42888   2.46913
 Alpha virt. eigenvalues --    2.48588   2.49795   2.51245   2.57201   2.57733
 Alpha virt. eigenvalues --    2.58641   2.59187   2.60558   2.61705   2.63092
 Alpha virt. eigenvalues --    2.65216   2.68216   2.69180   2.70187   2.71054
 Alpha virt. eigenvalues --    2.75771   2.76804   2.80039   2.80656   2.83076
 Alpha virt. eigenvalues --    2.86541   2.89947   2.97421   2.97614   3.01823
 Alpha virt. eigenvalues --    3.07590   3.21193   3.21347   3.24612   3.25574
 Alpha virt. eigenvalues --    3.36256   3.40360   3.44655   3.46956   3.60008
 Alpha virt. eigenvalues --    3.66349   3.69915   3.72967   3.87216   3.93085
 Alpha virt. eigenvalues --    4.01392   4.02017   4.67135   4.94382   4.99343
 Alpha virt. eigenvalues --    5.41161   8.01799  17.37889  17.42172  17.45964
 Alpha virt. eigenvalues --   23.48432  23.61631  23.81913  23.85577  23.93327
 Alpha virt. eigenvalues --   23.96022  24.04906  24.11036  49.81127 189.31097
          Condensed to atoms (all electrons):
               1          2          3          4          5          6
     1  O    7.932473   0.329240  -0.206893   0.006322   0.310876   0.108630
     2  S    0.329240  16.935659  -0.519848  -0.108450  -1.387148   0.988973
     3  C   -0.206893  -0.519848   6.335440   0.233692  -0.053939  -0.242838
     4  C    0.006322  -0.108450   0.233692   5.605091   0.278419   0.496888
     5  C    0.310876  -1.387148  -0.053939   0.278419  14.755232  -2.475954
     6  C    0.108630   0.988973  -0.242838   0.496888  -2.475954  17.944210
     7  C   -0.025825   0.000513   0.088147  -0.071264  -1.366856  -0.250239
     8  C    0.001250   0.081419   0.022287  -0.011193  -0.048962  -0.980145
     9  C   -0.037276   0.165465  -0.153214   0.003907  -1.499293   0.405925
    10  C   -0.398903  -0.388308   0.223710  -0.740380  -2.160716 -10.076043
    11  H   -0.006600  -0.099850   0.416551  -0.079993  -0.023227  -0.027076
    12  H    0.002141   0.115202  -0.083574   0.361669  -0.073522  -0.026317
    13  H    0.000216  -0.067247  -0.003496   0.392004   0.048279   0.085011
    14  H    0.001301  -0.005776   0.009728   0.000568  -0.193574   0.610928
    15  H   -0.000530   0.005974  -0.001904  -0.000948   0.004017  -0.133743
    16  H    0.000125  -0.000821  -0.000432   0.000644   0.043715   0.014784
    17  H   -0.000026   0.006410  -0.001849  -0.002669   0.018068   0.031524
    18  H   -0.011785  -0.059133   0.044208   0.003862   0.040295   0.027782
    19  H    0.242744  -0.059301   0.035204   0.002626   0.048094  -0.102387
               7          8          9         10         11         12
     1  O   -0.025825   0.001250  -0.037276  -0.398903  -0.006600   0.002141
     2  S    0.000513   0.081419   0.165465  -0.388308  -0.099850   0.115202
     3  C    0.088147   0.022287  -0.153214   0.223710   0.416551  -0.083574
     4  C   -0.071264  -0.011193   0.003907  -0.740380  -0.079993   0.361669
     5  C   -1.366856  -0.048962  -1.499293  -2.160716  -0.023227  -0.073522
     6  C   -0.250239  -0.980145   0.405925 -10.076043  -0.027076  -0.026317
     7  C    6.379609   0.415874  -0.047918   0.710426   0.006560  -0.000724
     8  C    0.415874   5.955031   0.245759   0.217157   0.000594   0.000909
     9  C   -0.047918   0.245759   6.156630   0.702456  -0.004468   0.015832
    10  C    0.710426   0.217157   0.702456  17.071495   0.060022   0.063531
    11  H    0.006560   0.000594  -0.004468   0.060022   0.425651  -0.025633
    12  H   -0.000724   0.000909   0.015832   0.063531  -0.025633   0.469810
    13  H   -0.004111   0.001097  -0.016406  -0.105978   0.009388  -0.033939
    14  H   -0.001449  -0.001943   0.016957  -0.123998   0.001318  -0.000892
    15  H    0.433290  -0.008597   0.003311   0.024732  -0.000044   0.000113
    16  H   -0.067156   0.425823  -0.069807  -0.009474  -0.000027  -0.000090
    17  H   -0.001604  -0.035100   0.402967  -0.090623  -0.000034   0.000444
    18  H    0.020655  -0.024862  -0.107420   0.350318   0.004945  -0.008048
    19  H   -0.014121   0.004418  -0.010284   0.089714   0.005112  -0.001650
              13         14         15         16         17         18
     1  O    0.000216   0.001301  -0.000530   0.000125  -0.000026  -0.011785
     2  S   -0.067247  -0.005776   0.005974  -0.000821   0.006410  -0.059133
     3  C   -0.003496   0.009728  -0.001904  -0.000432  -0.001849   0.044208
     4  C    0.392004   0.000568  -0.000948   0.000644  -0.002669   0.003862
     5  C    0.048279  -0.193574   0.004017   0.043715   0.018068   0.040295
     6  C    0.085011   0.610928  -0.133743   0.014784   0.031524   0.027782
     7  C   -0.004111  -0.001449   0.433290  -0.067156  -0.001604   0.020655
     8  C    0.001097  -0.001943  -0.008597   0.425823  -0.035100  -0.024862
     9  C   -0.016406   0.016957   0.003311  -0.069807   0.402967  -0.107420
    10  C   -0.105978  -0.123998   0.024732  -0.009474  -0.090623   0.350318
    11  H    0.009388   0.001318  -0.000044  -0.000027  -0.000034   0.004945
    12  H   -0.033939  -0.000892   0.000113  -0.000090   0.000444  -0.008048
    13  H    0.492410   0.002369  -0.000589   0.000266  -0.000244   0.002882
    14  H    0.002369   0.449856  -0.011168   0.000119   0.001155  -0.001826
    15  H   -0.000589  -0.011168   0.423732  -0.007665  -0.000038   0.001078
    16  H    0.000266   0.000119  -0.007665   0.434288  -0.007058   0.000599
    17  H   -0.000244   0.001155  -0.000038  -0.007058   0.426350  -0.009549
    18  H    0.002882  -0.001826   0.001078   0.000599  -0.009549   0.454494
    19  H    0.000713  -0.000513  -0.000304   0.000138  -0.000646   0.002329
              19
     1  O    0.242744
     2  S   -0.059301
     3  C    0.035204
     4  C    0.002626
     5  C    0.048094
     6  C   -0.102387
     7  C   -0.014121
     8  C    0.004418
     9  C   -0.010284
    10  C    0.089714
    11  H    0.005112
    12  H   -0.001650
    13  H    0.000713
    14  H   -0.000513
    15  H   -0.000304
    16  H    0.000138
    17  H   -0.000646
    18  H    0.002329
    19  H    0.394057
 Mulliken charges:
               1
     1  O   -0.247479
     2  S    0.067027
     3  C   -0.140980
     4  C   -0.370798
     5  C   -0.263804
     6  C   -0.399913
     7  C   -0.203807
     8  C   -0.260816
     9  C   -0.173124
    10  C    0.580861
    11  H    0.336811
    12  H    0.224740
    13  H    0.197374
    14  H    0.246840
    15  H    0.269283
    16  H    0.242029
    17  H    0.262523
    18  H    0.269177
    19  H    0.364056
 Sum of Mulliken charges =   1.00000
 Mulliken charges with hydrogens summed into heavy atoms:
               1
     1  O    0.116577
     2  S    0.067027
     3  C    0.195831
     4  C    0.051316
     5  C   -0.263804
     6  C   -0.153072
     7  C    0.065476
     8  C   -0.018787
     9  C    0.089398
    10  C    0.850038
 Electronic spatial extent (au):  <R**2>=           1707.8512
 Charge=              1.0000 electrons
 Dipole moment (field-independent basis, Debye):
    X=             -1.7136    Y=              0.2118    Z=             -0.5785  Tot=              1.8210
 Quadrupole moment (field-independent basis, Debye-Ang):
   XX=            -35.6542   YY=            -49.1732   ZZ=            -57.4360
   XY=             -0.4847   XZ=              0.8528   YZ=              0.8799
 Traceless Quadrupole moment (field-independent basis, Debye-Ang):
   XX=             11.7669   YY=             -1.7521   ZZ=            -10.0149
   XY=             -0.4847   XZ=              0.8528   YZ=              0.8799
 Octapole moment (field-independent basis, Debye-Ang**2):
  XXX=              9.2986  YYY=            -16.2956  ZZZ=              2.1606  XYY=            -36.5012
  XXY=             11.2263  XXZ=             -3.6425  XZZ=              8.3457  YZZ=             -1.3902
  YYZ=             10.3181  XYZ=             13.3235
 Hexadecapole moment (field-independent basis, Debye-Ang**3):
 XXXX=          -1167.6400 YYYY=           -319.8809 ZZZZ=           -311.3476 XXXY=              7.4419
 XXXZ=             -3.9974 YYYX=             25.9900 YYYZ=            -35.0694 ZZZX=             -7.6537
 ZZZY=              8.4823 XXYY=           -278.5893 XXZZ=           -283.7466 YYZZ=           -105.9576
 XXYZ=             15.4100 YYXZ=            -17.1789 ZZXY=              6.7138
 N-N= 5.861235027333D+02 E-N=-3.000203101172D+03  KE= 7.810214377907D+02
 No NMR shielding tensors so no spin-rotation constants.
 Leave Link  601 at Sun Oct 13 23:14:43 2019, MaxMem= 10737418240 cpu:               2.7 elap:               0.1
 (Enter /apps/cent7/gaussian/g16-A.03/g16-haswell/g16/l701.exe)
 ... and contract with generalized density number  0.
 Compute integral first derivatives.
 Leave Link  701 at Sun Oct 13 23:14:43 2019, MaxMem= 10737418240 cpu:               3.3 elap:               0.2
 (Enter /apps/cent7/gaussian/g16-A.03/g16-haswell/g16/l702.exe)
 L702 exits ... SP integral derivatives will be done elsewhere.
 Leave Link  702 at Sun Oct 13 23:14:43 2019, MaxMem= 10737418240 cpu:               0.5 elap:               0.0
 (Enter /apps/cent7/gaussian/g16-A.03/g16-haswell/g16/l703.exe)
 Integral derivatives from FoFJK, PRISM(SPDF).
 Compute integral first derivatives, UseDBF=F ICtDFT=           0.
 Calling FoFJK, ICntrl=      2127 FMM=F ISym2X=0 I1Cent= 0 IOpClX= 0 NMat=1 NMatS=1 NMatT=0.
 FoFJK:  IHMeth= 1 ICntrl=    2127 DoSepK=F KAlg= 0 I1Cent=           0 FoldK=F
 IRaf=         0 NMat=       1 IRICut=       1 DoRegI=T DoRafI=F ISym2E= 0 IDoP0=0 IntGTp=1.
 FoFCou: FMM=F IPFlag=           0 FMFlag=      100000 FMFlg1=         800
         NFxFlg=           0 DoJE=F BraDBF=F KetDBF=F FulRan=T
         wScrn=  0.000000 ICntrl=      2127 IOpCl=  0 I1Cent=           0 NGrid=           0
         NMat0=    1 NMatS0=      1 NMatT0=    0 NMatD0=    1 NMtDS0=    0 NMtDT0=    0
 Symmetry not used in FoFCou.
 Leave Link  703 at Sun Oct 13 23:14:46 2019, MaxMem= 10737418240 cpu:              64.1 elap:               2.7
 (Enter /apps/cent7/gaussian/g16-A.03/g16-haswell/g16/l716.exe)
 Dipole        =-6.74182578D-01 8.33118095D-02-2.27605730D-01
 ***** Axes restored to original set *****
 -------------------------------------------------------------------
 Center     Atomic                   Forces (Hartrees/Bohr)
 Number     Number              X              Y              Z
 -------------------------------------------------------------------
      1        8          -0.035315383    0.005435837   -0.029972825
      2       16           0.063417911   -0.022726234    0.026987190
      3        6          -0.034360271    0.006694675   -0.002791763
      4        6           0.026210657    0.027385593   -0.014537162
      5        6          -0.005342558    0.024930013   -0.012518224
      6        6           0.001037500   -0.002577741    0.000560168
      7        6          -0.011528694   -0.003821570   -0.001979342
      8        6          -0.000774868   -0.012390571   -0.000037695
      9        6           0.006495745   -0.012096612    0.001961204
     10        6          -0.000470857    0.003417419   -0.002450616
     11        1          -0.023184382   -0.002449974    0.040043499
     12        1           0.003402934   -0.032085221   -0.020870011
     13        1          -0.004482146    0.033777465    0.009260690
     14        1          -0.002481853    0.002635166   -0.000081105
     15        1          -0.004715218   -0.003255019   -0.000322521
     16        1          -0.000814092   -0.004788365   -0.000250349
     17        1           0.002804195   -0.004836570    0.000823249
     18        1           0.003128159    0.001085410    0.001408816
     19        1           0.016973220   -0.004333701    0.004766797
 -------------------------------------------------------------------
 Cartesian Forces:  Max     0.063417911 RMS     0.017253740
 Leave Link  716 at Sun Oct 13 23:14:46 2019, MaxMem= 10737418240 cpu:               1.1 elap:               0.1
 (Enter /apps/cent7/gaussian/g16-A.03/g16-haswell/g16/l103.exe)

 GradGradGradGradGradGradGradGradGradGradGradGradGradGradGradGradGradGrad
 Berny optimization.
 FormGI is forming the generalized inverse of G from B-inverse, IUseBI=4.
 Internal  Forces:  Max     0.039132047 RMS     0.013296726
 Search for a local minimum.
 Step number   1 out of a maximum of   95
 All quantities printed in internal units (Hartrees-Bohrs-Radians)
 RMS Force = .13297D-01 SwitMx=.10000D-02 MixMth= 1
 Mixed Optimization -- RFO/linear search
 Second derivative matrix not updated -- first step.
 ITU=  0
     Eigenvalues ---    0.00707   0.01087   0.01560   0.01767   0.01942
     Eigenvalues ---    0.01956   0.01970   0.01980   0.01991   0.01992
     Eigenvalues ---    0.01994   0.01996   0.02526   0.02928   0.02928
     Eigenvalues ---    0.06291   0.16000   0.16000   0.16000   0.16000
     Eigenvalues ---    0.16000   0.16000   0.16000   0.16000   0.16000
     Eigenvalues ---    0.17904   0.19729   0.22000   0.22000   0.22000
     Eigenvalues ---    0.23476   0.24989   0.28230   0.30893   0.34809
     Eigenvalues ---    0.34810   0.34812   0.34814   0.34814   0.34817
     Eigenvalues ---    0.34819   0.34819   0.40330   0.40474   0.43865
     Eigenvalues ---    0.44170   0.44376   0.44466   0.49881   0.55473
     Eigenvalues ---    0.57985
 RFO step:  Lambda=-7.86580744D-02 EMin= 7.07165119D-03
 Linear search not attempted -- first point.
 Maximum step size (   0.300) exceeded in Quadratic search.
    -- Step size scaled by   0.864
 Iteration  1 RMS(Cart)=  0.12284924 RMS(Int)=  0.01416466
 Iteration  2 RMS(Cart)=  0.01771859 RMS(Int)=  0.00145040
 Iteration  3 RMS(Cart)=  0.00060760 RMS(Int)=  0.00132868
 Iteration  4 RMS(Cart)=  0.00000066 RMS(Int)=  0.00132868
 ITry= 1 IFail=0 DXMaxC= 7.43D-01 DCOld= 1.00D+10 DXMaxT= 3.00D-01 DXLimC= 3.00D+00 Rises=F
 Variable       Old X    -DE/DX   Delta X   Delta X   Delta X     New X
                                 (Linear)    (Quad)   (Total)
    R1        3.03686  -0.00267   0.00000  -0.00400  -0.00400   3.03286
    R2        1.81414   0.00848   0.00000   0.01158   0.01158   1.82572
    R3        3.29917  -0.00743   0.00000  -0.01657  -0.01657   3.28261
    R4        3.35338  -0.01363   0.00000  -0.03263  -0.03263   3.32075
    R5        2.52572   0.03878   0.00000   0.05091   0.05091   2.57662
    R6        2.05978   0.00297   0.00000   0.00602   0.00602   2.06580
    R7        2.05981  -0.00110   0.00000  -0.00223  -0.00223   2.05758
    R8        2.05972   0.00134   0.00000   0.00270   0.00270   2.06243
    R9        2.66558  -0.01548   0.00000  -0.02571  -0.02567   2.63991
   R10        2.66892  -0.01464   0.00000  -0.02446  -0.02442   2.64451
   R11        2.65932  -0.01985   0.00000  -0.03278  -0.03278   2.62654
   R12        2.05969  -0.00359   0.00000  -0.00727  -0.00727   2.05242
   R13        2.65965  -0.01309   0.00000  -0.02174  -0.02178   2.63786
   R14        2.05985  -0.00548   0.00000  -0.01110  -0.01110   2.04875
   R15        2.65828  -0.01039   0.00000  -0.01727  -0.01731   2.64097
   R16        2.05977  -0.00485   0.00000  -0.00983  -0.00983   2.04994
   R17        2.66070  -0.02220   0.00000  -0.03679  -0.03679   2.62391
   R18        2.05984  -0.00541   0.00000  -0.01095  -0.01095   2.04889
   R19        2.05970  -0.00348   0.00000  -0.00705  -0.00705   2.05265
    A1        2.09440  -0.02837   0.00000  -0.10273  -0.10273   1.99166
    A2        1.83156  -0.02532   0.00000  -0.11634  -0.11898   1.71258
    A3        1.82802   0.01366   0.00000   0.01513   0.00659   1.83460
    A4        1.92262  -0.02119   0.00000  -0.08794  -0.09028   1.83234
    A5        2.17954  -0.00201   0.00000  -0.00582  -0.00583   2.17371
    A6        2.30091  -0.03712   0.00000  -0.13517  -0.13518   2.16573
    A7        1.80273   0.03913   0.00000   0.14100   0.14099   1.94372
    A8        2.09433  -0.00391   0.00000  -0.01416  -0.01431   2.08002
    A9        2.09437   0.01232   0.00000   0.04461   0.04446   2.13883
   A10        2.09449  -0.00841   0.00000  -0.03045  -0.03059   2.06389
   A11        2.07457  -0.01091   0.00000  -0.02918  -0.02922   2.04535
   A12        2.12286  -0.00321   0.00000  -0.00892  -0.00896   2.11391
   A13        2.08539   0.01412   0.00000   0.03811   0.03819   2.12358
   A14        2.09629  -0.00845   0.00000  -0.02356  -0.02352   2.07276
   A15        2.09558   0.00454   0.00000   0.01290   0.01289   2.10846
   A16        2.09132   0.00392   0.00000   0.01066   0.01064   2.10196
   A17        2.09775  -0.00070   0.00000  -0.00154  -0.00159   2.09616
   A18        2.09247  -0.00138   0.00000  -0.00549  -0.00547   2.08700
   A19        2.09296   0.00208   0.00000   0.00703   0.00705   2.10001
   A20        2.09388   0.00393   0.00000   0.01159   0.01151   2.10539
   A21        2.09511  -0.00217   0.00000  -0.00654  -0.00650   2.08861
   A22        2.09419  -0.00176   0.00000  -0.00505  -0.00501   2.08918
   A23        2.09264  -0.00019   0.00000  -0.00017  -0.00021   2.09244
   A24        2.09454   0.00177   0.00000   0.00616   0.00617   2.10071
   A25        2.09601  -0.00158   0.00000  -0.00599  -0.00597   2.09004
   A26        2.10036  -0.00871   0.00000  -0.02443  -0.02439   2.07597
   A27        2.09424   0.00438   0.00000   0.01230   0.01227   2.10651
   A28        2.08859   0.00433   0.00000   0.01213   0.01210   2.10069
    D1        2.69435   0.01145   0.00000   0.04687   0.04642   2.74077
    D2       -1.56357  -0.01714   0.00000  -0.09425  -0.09380  -1.65737
    D3        2.24812  -0.00542   0.00000  -0.06188  -0.05814   2.18998
    D4       -0.89337  -0.00630   0.00000  -0.06981  -0.06558  -0.95895
    D5        0.28923   0.00094   0.00000   0.01807   0.01384   0.30307
    D6       -2.85227   0.00006   0.00000   0.01014   0.00640  -2.84587
    D7        2.24020   0.01549   0.00000   0.07892   0.07898   2.31918
    D8       -0.87236   0.01519   0.00000   0.07771   0.07777  -0.79459
    D9       -2.08180  -0.01597   0.00000  -0.08562  -0.08567  -2.16747
   D10        1.08883  -0.01628   0.00000  -0.08683  -0.08688   1.00195
   D11       -2.12800  -0.03454   0.00000  -0.27695  -0.27722  -2.40522
   D12        1.01359  -0.03050   0.00000  -0.24458  -0.24485   0.76874
   D13        1.01352  -0.03387   0.00000  -0.27089  -0.27062   0.74290
   D14       -2.12808  -0.02983   0.00000  -0.23852  -0.23825  -2.36633
   D15       -3.10813  -0.00013   0.00000  -0.00119  -0.00118  -3.10932
   D16        0.03362  -0.00022   0.00000  -0.00210  -0.00209   0.03153
   D17        0.00506  -0.00012   0.00000  -0.00078  -0.00077   0.00429
   D18       -3.13637  -0.00021   0.00000  -0.00168  -0.00168  -3.13805
   D19        3.10319  -0.00020   0.00000  -0.00109  -0.00108   3.10211
   D20       -0.03841   0.00043   0.00000   0.00451   0.00451  -0.03391
   D21       -0.00920  -0.00010   0.00000  -0.00120  -0.00121  -0.01040
   D22        3.13239   0.00053   0.00000   0.00439   0.00438   3.13677
   D23        0.00463   0.00014   0.00000   0.00105   0.00105   0.00567
   D24       -3.13699  -0.00009   0.00000  -0.00085  -0.00086  -3.13785
   D25       -3.13713   0.00023   0.00000   0.00195   0.00196  -3.13517
   D26        0.00444   0.00000   0.00000   0.00005   0.00005   0.00449
   D27       -0.01024   0.00010   0.00000   0.00076   0.00074  -0.00950
   D28        3.13130  -0.00009   0.00000  -0.00067  -0.00070   3.13060
   D29        3.13137   0.00032   0.00000   0.00266   0.00266   3.13404
   D30       -0.01027   0.00014   0.00000   0.00123   0.00123  -0.00905
   D31        0.00611  -0.00034   0.00000  -0.00281  -0.00283   0.00328
   D32       -3.13551  -0.00034   0.00000  -0.00271  -0.00273  -3.13825
   D33       -3.13543  -0.00016   0.00000  -0.00138  -0.00139  -3.13683
   D34        0.00613  -0.00016   0.00000  -0.00128  -0.00130   0.00484
   D35        0.00363   0.00029   0.00000   0.00289   0.00288   0.00650
   D36       -3.13796  -0.00034   0.00000  -0.00268  -0.00269  -3.14065
   D37       -3.13794   0.00029   0.00000   0.00280   0.00278  -3.13516
   D38        0.00366  -0.00034   0.00000  -0.00278  -0.00279   0.00088
         Item               Value     Threshold  Converged?
 Maximum Force            0.039132     0.000450     NO 
 RMS     Force            0.013297     0.000300     NO 
 Maximum Displacement     0.743142     0.001800     NO 
 RMS     Displacement     0.129174     0.001200     NO 
 Predicted change in Energy=-5.422228D-02
 Lowest energy point so far.  Saving SCF results.
 GradGradGradGradGradGradGradGradGradGradGradGradGradGradGradGradGradGrad

 Leave Link  103 at Sun Oct 13 23:14:46 2019, MaxMem= 10737418240 cpu:               1.4 elap:               0.1
 (Enter /apps/cent7/gaussian/g16-A.03/g16-haswell/g16/l202.exe)
                          Input orientation:                          
 ---------------------------------------------------------------------
 Center     Atomic      Atomic             Coordinates (Angstroms)
 Number     Number       Type             X           Y           Z
 ---------------------------------------------------------------------
      1          8           0       -1.739907   -1.841269    1.011081
      2         16           0       -0.435340   -1.696772    0.087502
      3          6           0       -1.165498   -2.106427   -1.434503
      4          6           0       -1.114439   -1.326088   -2.551450
      5          6           0       -0.129111    0.031084   -0.005878
      6          6           0        1.183443    0.459192    0.207379
      7          6           0        1.455216    1.821987    0.179691
      8          6           0        0.426179    2.736527   -0.051018
      9          6           0       -0.882435    2.296291   -0.267464
     10          6           0       -1.167099    0.937385   -0.249913
     11          1           0       -1.720561   -3.029973   -1.618898
     12          1           0       -2.010613   -1.209146   -3.158682
     13          1           0       -0.198544   -0.833046   -2.881868
     14          1           0        1.978918   -0.256779    0.392333
     15          1           0        2.469850    2.168672    0.340060
     16          1           0        0.644375    3.799092   -0.060971
     17          1           0       -1.677835    3.010302   -0.449318
     18          1           0       -2.181296    0.586687   -0.418077
     19          1           0       -1.547215   -2.004557    1.943610
 ---------------------------------------------------------------------
                    Distance matrix (angstroms):
                    1          2          3          4          5
     1  O    0.000000
     2  S    1.604921   0.000000
     3  C    2.526092   1.737080   0.000000
     4  C    3.653526   2.750027   1.363490   0.000000
     5  C    2.671063   1.757266   2.772007   3.048397   0.000000
     6  C    3.805790   2.698706   3.846518   4.009816   1.396980
     7  C    4.931477   3.995544   4.990611   4.896186   2.398304
     8  C    5.174573   4.518357   5.282203   5.013034   2.762211
     9  C    4.414673   4.033664   4.563554   4.288595   2.401476
    10  C    3.104696   2.754652   3.266198   3.228492   1.399412
    11  H    2.886206   2.518138   1.093176   2.034763   3.808493
    12  H    4.226084   3.641013   2.119463   1.088822   3.875357
    13  H    4.306665   3.101492   2.156702   1.091389   3.003807
    14  H    4.089391   2.827569   4.079937   4.402061   2.164537
    15  H    5.852517   4.842064   5.885686   5.781116   3.382832
    16  H    6.216733   5.602888   6.327510   5.963504   3.846973
    17  H    5.066988   4.897808   5.235837   4.851871   3.386876
    18  H    2.851716   2.918588   3.052512   3.057478   2.165656
    19  H    0.966127   2.185436   3.401137   4.566528   3.155211
                    6          7          8          9         10
     6  C    0.000000
     7  C    1.389905   0.000000
     8  C    2.413809   1.395897   0.000000
     9  C    2.805042   2.426834   1.397543   0.000000
    10  C    2.441891   2.800646   2.411432   1.388512   0.000000
    11  H    4.893138   6.071408   6.349745   5.558589   4.233246
    12  H    4.931096   5.687220   5.582460   4.681881   3.712148
    13  H    3.622597   4.376901   4.598461   4.134678   3.316581
    14  H    1.086095   2.154239   3.401094   3.891122   3.425775
    15  H    2.143542   1.084154   2.156848   3.409279   3.884782
    16  H    3.393750   2.150425   1.084782   2.152254   3.392124
    17  H    3.889258   3.409363   2.158812   1.084226   2.144201
    18  H    3.424751   3.886839   3.399334   2.152318   1.086216
    19  H    4.067070   5.173823   5.509148   4.881401   3.689317
                   11         12         13         14         15
    11  H    0.000000
    12  H    2.402182   0.000000
    13  H    2.956030   1.871275   0.000000
    14  H    5.042003   5.425225   3.974143   0.000000
    15  H    6.958662   6.612518   5.148928   2.475189   0.000000
    16  H    7.392982   6.459661   5.488595   4.293784   2.480212
    17  H    6.152615   5.025448   4.782983   4.975343   4.305200
    18  H    3.838551   3.281016   3.466586   4.321525   4.970977
    19  H    3.711198   5.184669   5.145540   4.230225   6.010327
                   16         17         18         19
    16  H    0.000000
    17  H    2.483075   0.000000
    18  H    4.293191   2.475553   0.000000
    19  H    6.519491   5.558056   3.562887   0.000000
 Stoichiometry    C8H9OS(1+)
 Framework group  C1[X(C8H9OS)]
 Deg. of freedom    51
 Full point group                 C1      NOp   1
 RotChk:  IX=0 Diff= 2.77D-01
 Largest Abelian subgroup         C1      NOp   1
 Largest concise Abelian subgroup C1      NOp   1
                         Standard orientation:                         
 ---------------------------------------------------------------------
 Center     Atomic      Atomic             Coordinates (Angstroms)
 Number     Number       Type             X           Y           Z
 ---------------------------------------------------------------------
      1          8           0       -1.901096   -1.093440    1.227062
      2         16           0       -1.406705   -0.731003   -0.256174
      3          6           0       -2.245873    0.779695   -0.432345
      4          6           0       -1.650233    1.961202   -0.761526
      5          6           0        0.285966   -0.292758   -0.080701
      6          6           0        1.189316   -0.861388   -0.981906
      7          6           0        2.541309   -0.567836   -0.848568
      8          6           0        2.977001    0.275350    0.175023
      9          6           0        2.063515    0.842000    1.068095
     10          6           0        0.709084    0.563354    0.942235
     11          1           0       -3.324074    0.900836   -0.298776
     12          1           0       -1.948662    2.869415   -0.240352
     13          1           0       -0.901820    2.041289   -1.551839
     14          1           0        0.845058   -1.521499   -1.772692
     15          1           0        3.253560   -0.999137   -1.542880
     16          1           0        4.034935    0.491558    0.278860
     17          1           0        2.406390    1.498806    1.859668
     18          1           0       -0.007696    1.000288    1.631567
     19          1           0       -1.862156   -2.035703    1.436886
 ---------------------------------------------------------------------
 Rotational constants (GHZ):           2.1261844           0.8112690           0.7576026
 Leave Link  202 at Sun Oct 13 23:14:46 2019, MaxMem= 10737418240 cpu:               0.2 elap:               0.0
 (Enter /apps/cent7/gaussian/g16-A.03/g16-haswell/g16/l301.exe)
 Standard basis: 6-311++G(d,p) (5D, 7F)
 Ernie: Thresh=  0.10000D-02 Tol=  0.10000D-05 Strict=F.
 There are   301 symmetry adapted cartesian basis functions of A   symmetry.
 There are   291 symmetry adapted basis functions of A   symmetry.
   291 basis functions,   455 primitive gaussians,   301 cartesian basis functions
    40 alpha electrons       40 beta electrons
       nuclear repulsion energy       594.5114635398 Hartrees.
 IExCor= 4336 DFT=T Ex+Corr=M062X ExCW=0 ScaHFX=  0.540000
 ScaDFX=  1.000000  1.000000  1.000000  1.000000 ScalE2=  1.000000  1.000000
 IRadAn=      5 IRanWt=     -1 IRanGd=            0 ICorTp=0 IEmpDi=  4
 NAtoms=   19 NActive=   19 NUniq=   19 SFac= 1.00D+00 NAtFMM=   60 NAOKFM=F Big=F
 Integral buffers will be    131072 words long.
 Raffenetti 2 integral format.
 Two-electron integral symmetry is turned on.
 Leave Link  301 at Sun Oct 13 23:14:46 2019, MaxMem= 10737418240 cpu:               1.3 elap:               0.1
 (Enter /apps/cent7/gaussian/g16-A.03/g16-haswell/g16/l302.exe)
 NPDir=0 NMtPBC=     1 NCelOv=     1 NCel=       1 NClECP=     1 NCelD=      1
         NCelK=      1 NCelE2=     1 NClLst=     1 CellRange=     0.0.
 One-electron integrals computed using PRISM.
 One-electron integral symmetry used in STVInt
 NBasis=   291 RedAO= T EigKep=  2.62D-06  NBF=   291
 NBsUse=   290 1.00D-06 EigRej=  8.05D-07 NBFU=   290
 Precomputing XC quadrature grid using
 IXCGrd= 4 IRadAn=           5 IRanWt=          -1 IRanGd=           0 AccXCQ= 0.00D+00.
 Generated NRdTot=       0 NPtTot=           0 NUsed=           0 NTot=          32
 NSgBfM=   301   301   301   301   301 MxSgAt=    19 MxSgA2=    19.
 Leave Link  302 at Sun Oct 13 23:14:47 2019, MaxMem= 10737418240 cpu:               4.3 elap:               0.2
 (Enter /apps/cent7/gaussian/g16-A.03/g16-haswell/g16/l303.exe)
 DipDrv:  MaxL=1.
 Leave Link  303 at Sun Oct 13 23:14:47 2019, MaxMem= 10737418240 cpu:               0.8 elap:               0.1
 (Enter /apps/cent7/gaussian/g16-A.03/g16-haswell/g16/l401.exe)
 Initial guess from the checkpoint file:  "34_p.chk"
 B after Tr=     0.000000   -0.000000   -0.000000
         Rot=    0.995195    0.096113    0.012370    0.014011 Ang=  11.24 deg.
 Guess basis will be translated and rotated to current coordinates.
 JPrj=2 DoOrth=T DoCkMO=T.
 Generating alternative initial guess.
 ExpMin= 3.60D-02 ExpMax= 9.34D+04 ExpMxC= 3.17D+03 IAcc=3 IRadAn=         5 AccDes= 0.00D+00
 Harris functional with IExCor= 1009 and IRadAn=       5 diagonalized for initial guess.
 HarFok:  IExCor= 1009 AccDes= 0.00D+00 IRadAn=         5 IDoV= 1 UseB2=F ITyADJ=14
 ICtDFT=  3500011 ScaDFX=  1.000000  1.000000  1.000000  1.000000
 FoFCou: FMM=F IPFlag=           0 FMFlag=      100000 FMFlg1=           0
         NFxFlg=           0 DoJE=T BraDBF=F KetDBF=T FulRan=T
         wScrn=  0.000000 ICntrl=       500 IOpCl=  0 I1Cent=   200000004 NGrid=           0
         NMat0=    1 NMatS0=      1 NMatT0=    0 NMatD0=    1 NMtDS0=    0 NMtDT0=    0
 Petite list used in FoFCou.
 Harris En= -782.974332665318    
 Leave Link  401 at Sun Oct 13 23:14:47 2019, MaxMem= 10737418240 cpu:              13.5 elap:               0.6
 (Enter /apps/cent7/gaussian/g16-A.03/g16-haswell/g16/l502.exe)
 Integral symmetry usage will be decided dynamically.
 Closed shell SCF:
 Using DIIS extrapolation, IDIIS=  1040.
 NGot= 10737418240 LenX= 10737226882 LenY= 10737135840
 Requested convergence on RMS density matrix=1.00D-08 within 128 cycles.
 Requested convergence on MAX density matrix=1.00D-06.
 Requested convergence on             energy=1.00D-06.
 No special actions if energy rises.
 Fock matrices will be formed incrementally for  20 cycles.

 Cycle   1  Pass 1  IDiag  1:
 FoFJK:  IHMeth= 1 ICntrl=       0 DoSepK=F KAlg= 0 I1Cent=           0 FoldK=F
 IRaf= 950000000 NMat=       1 IRICut=       1 DoRegI=T DoRafI=F ISym2E= 0 IDoP0=0 IntGTp=1.
 FoFCou: FMM=F IPFlag=           0 FMFlag=      100000 FMFlg1=           0
         NFxFlg=           0 DoJE=F BraDBF=F KetDBF=F FulRan=T
         wScrn=  0.000000 ICntrl=         0 IOpCl=  0 I1Cent=           0 NGrid=           0
         NMat0=    1 NMatS0=      1 NMatT0=    0 NMatD0=    1 NMtDS0=    0 NMtDT0=    0
 Symmetry not used in FoFCou.
 E= -783.213077235689    
 DIIS: error= 6.61D-03 at cycle   1 NSaved=   1.
 NSaved= 1 IEnMin= 1 EnMin= -783.213077235689     IErMin= 1 ErrMin= 6.61D-03
 ErrMax= 6.61D-03  0.00D+00 EMaxC= 1.00D-01 BMatC= 1.82D-02 BMatP= 1.82D-02
 IDIUse=3 WtCom= 9.34D-01 WtEn= 6.61D-02
 Coeff-Com:  0.100D+01
 Coeff-En:   0.100D+01
 Coeff:      0.100D+01
 Gap=     0.482 Goal=   None    Shift=    0.000
 GapD=    0.482 DampG=2.000 DampE=1.000 DampFc=2.0000 IDamp=-1.
 RMSDP=2.07D-02 MaxDP=2.38D+00              OVMax= 4.62D-02

 Cycle   2  Pass 1  IDiag  1:
 RMSU=  1.20D-02    CP:  1.28D+00
 E= -783.239369974266     Delta-E=       -0.026292738577 Rises=F Damp=F
 DIIS: error= 1.13D-03 at cycle   2 NSaved=   2.
 NSaved= 2 IEnMin= 2 EnMin= -783.239369974266     IErMin= 2 ErrMin= 1.13D-03
 ErrMax= 1.13D-03  0.00D+00 EMaxC= 1.00D-01 BMatC= 5.25D-04 BMatP= 1.82D-02
 IDIUse=3 WtCom= 9.89D-01 WtEn= 1.13D-02
 Coeff-Com: -0.613D-01 0.106D+01
 Coeff-En:   0.000D+00 0.100D+01
 Coeff:     -0.606D-01 0.106D+01
 Gap=     0.254 Goal=   None    Shift=    0.000
 RMSDP=2.05D-03 MaxDP=1.86D-01 DE=-2.63D-02 OVMax= 1.62D-02

 Cycle   3  Pass 1  IDiag  1:
 RMSU=  1.48D-03    CP:  1.30D+00  1.03D+00
 E= -783.240502707884     Delta-E=       -0.001132733618 Rises=F Damp=F
 DIIS: error= 7.36D-04 at cycle   3 NSaved=   3.
 NSaved= 3 IEnMin= 3 EnMin= -783.240502707884     IErMin= 3 ErrMin= 7.36D-04
 ErrMax= 7.36D-04  0.00D+00 EMaxC= 1.00D-01 BMatC= 2.78D-04 BMatP= 5.25D-04
 IDIUse=3 WtCom= 9.93D-01 WtEn= 7.36D-03
 Coeff-Com: -0.468D-01 0.446D+00 0.601D+00
 Coeff-En:   0.000D+00 0.000D+00 0.100D+01
 Coeff:     -0.465D-01 0.443D+00 0.604D+00
 Gap=     0.254 Goal=   None    Shift=    0.000
 RMSDP=1.79D-03 MaxDP=1.98D-01 DE=-1.13D-03 OVMax= 5.06D-03

 Cycle   4  Pass 1  IDiag  1:
 RMSU=  5.03D-04    CP:  1.33D+00  1.09D+00  9.23D-01
 E= -783.240765296199     Delta-E=       -0.000262588315 Rises=F Damp=F
 DIIS: error= 3.41D-04 at cycle   4 NSaved=   4.
[...]
 00077196,-0.32533518,-0.06984715,-0.02731424,0.70206598,-0.00113903,-0
 .00283160,0.00234928,-0.02756874,-0.02258957,-0.00373192,0.00071568,-0
 .00300819,0.00041016,0.00003991,-0.00020555,0.00047017,-0.01755958,-0.
 11521951,0.00424358,-0.04660139,0.70479071,0.00323505,0.00416040,-0.00
 162903,0.00124395,-0.00432409,-0.00245257,-0.00139421,-0.00137791,-0.0
 0149548,-0.00009555,-0.00066804,0.00057859,-0.03158914,0.00108901,-0.0
 5322091,0.06905338,-0.05005089,0.14591580,-0.00003200,-0.00041273,0.00
 085558,-0.00548954,-0.00532935,-0.00126316,0.00066542,-0.00073985,-0.0
 0016441,0.00007933,-0.00003312,0.00004568,0.00801849,-0.03037207,0.002
 69800,-0.14050370,-0.08529383,-0.00268914,0.74964542,-0.00158404,-0.00
 168163,0.00037453,-0.00192098,0.00833397,-0.00004147,-0.00062759,-0.00
 107640,0.00079077,-0.00018712,0.00013285,-0.00050585,-0.09032130,-0.00
 995220,-0.00944177,-0.00846163,-0.33098129,0.01963752,0.03158067,0.675
 78918,-0.00104617,-0.00180418,0.00047864,-0.00013717,0.00127946,0.0074
 1824,0.00097301,0.00196254,-0.00092013,-0.00016763,-0.00002817,0.00005
 286,0.00521414,-0.00341885,0.00652758,-0.00726354,0.01000050,-0.065753
 77,0.06374551,-0.03385501,0.14640413,-0.00055329,-0.00093920,-0.000019
 37,-0.00481026,0.00034890,0.00074849,0.00030193,-0.00037606,0.00037772
 ,-0.00019747,0.00031327,-0.00045192,-0.07074230,0.01608357,-0.00909997
 ,0.06196417,0.06451138,0.00128992,-0.25139977,0.06496049,-0.02375867,0
 .67002928,0.00025375,-0.00003402,0.00008656,0.00092347,0.00144148,-0.0
 0039434,-0.00001353,0.00005335,0.00017435,-0.00011956,-0.00022891,0.00
 012136,0.01508110,-0.00682124,0.00209098,0.01139376,-0.04571110,0.0049
 5802,0.14044359,-0.22832735,0.02529357,0.01643218,0.75420853,-0.000016
 22,0.00010268,-0.00015166,-0.00049827,-0.00017934,-0.00087712,-0.00006
 724,-0.00044772,0.00028789,0.00005793,0.00017929,0.00001099,-0.0079497
 8,0.00171107,-0.00684317,0.00536694,0.01042487,0.00401306,-0.02878796,
 0.01686530,-0.06802802,0.05277488,-0.03720153,0.15378969,0.00041248,-0
 .00198866,0.00028441,0.00003058,0.01465193,-0.00251906,-0.00107864,-0.
 00120355,-0.00032973,0.00005340,-0.00043337,0.00068982,0.05326549,-0.0
 0018299,0.00626068,-0.03481170,-0.03330379,0.00020075,-0.04755132,0.05
 111698,-0.00945808,-0.31657160,-0.09265620,-0.01924007,0.70413297,-0.0
 0089129,0.00086081,0.00055961,0.00776580,0.00344078,-0.00094808,-0.000
 87027,0.00018262,0.00026925,-0.00014304,-0.00044436,0.00041698,0.06271
 343,-0.05559037,0.01135082,-0.04116697,-0.04106939,-0.00120166,0.00345
 384,0.06960857,-0.00431089,-0.01700559,-0.15222464,0.00414404,-0.04343
 475,0.72124649,-0.00058246,-0.00083404,0.00048390,-0.00035662,0.000789
 62,0.00479464,0.00030414,0.00104848,-0.00001998,0.00012310,0.00005300,
 -0.00013950,0.00081572,0.00375870,0.00633619,-0.00091069,-0.00155257,-
 0.00420741,-0.00582964,0.00199067,0.00399291,-0.02296710,-0.00413317,-
 0.06627367,0.05805704,-0.03871957,0.14629302,-0.00243260,0.00148917,0.
 00129015,0.01375690,-0.00579545,-0.00093216,-0.00125631,-0.00051901,0.
 00139033,-0.00020725,-0.00002407,-0.00089275,-0.24514474,0.12667523,-0
 .02773109,-0.05099378,-0.00049844,-0.00574039,-0.00674636,0.02589798,-
 0.00214036,0.01390374,-0.03925912,0.00339282,-0.14122697,-0.08803777,-
 0.00299327,0.73715997,0.00125955,0.00395878,-0.00136724,0.00820908,-0.
 05073187,0.00603586,0.00250093,0.00179430,0.00164103,0.00042221,0.0003
 0701,-0.00080105,0.07242559,-0.17414129,0.01459157,0.05057763,0.056743
 59,-0.00036798,0.01719644,-0.06742470,0.00673366,-0.09097341,0.0018460
 6,-0.00963172,-0.01113963,-0.34495853,0.01561866,0.04698025,0.67570260
 ,-0.00220556,0.00078757,0.00078782,0.00260016,0.00637942,-0.00208282,0
 .00022158,-0.00081271,-0.00020494,0.00043461,-0.00071875,-0.00082022,-
 0.02457741,0.01659870,-0.05883577,-0.00940474,-0.00315943,0.00496711,-
 0.00123536,0.00692071,-0.00424161,0.00707472,-0.00400341,0.00518902,-0
 .00855264,0.00658989,-0.06398062,0.05813837,-0.02616374,0.14316802,0.0
 0044551,0.00057164,0.00024039,-0.00397731,-0.00900246,-0.00127731,-0.1
 0021888,-0.12722391,-0.00174294,0.00506292,-0.00114909,0.00007056,0.00
 009067,0.00088786,-0.00120100,0.00003503,-0.00047353,0.00018534,-0.000
 11103,0.00032742,0.00017019,0.00048971,-0.00013554,0.00003972,-0.00046
 738,-0.00054649,0.00010802,0.00005052,0.00048672,0.00000290,0.09553327
 ,0.00062731,0.00017294,0.00029859,-0.00226418,-0.00182638,-0.00164634,
 -0.12737293,-0.28710794,0.01236890,-0.00644586,-0.00665349,-0.00196769
 ,-0.00118386,-0.00013724,0.00082131,0.00018931,0.00013044,-0.00020754,
 0.00004747,-0.00027643,-0.00004490,-0.00027751,0.00010472,-0.00003267,
 0.00015481,0.00022440,-0.00008860,-0.00003298,0.00011233,0.00004463,0.
 13715357,0.29368677,0.00098374,0.00123415,0.00202022,-0.01415348,-0.02
 223714,-0.00755723,-0.00027959,0.00734894,-0.04386877,0.01259011,0.025
 45981,0.00320697,-0.00301122,-0.00097993,-0.00434800,0.00094699,-0.000
 75661,-0.00019332,-0.00009774,-0.00050891,0.00056403,-0.00018268,-0.00
 009462,-0.00010710,-0.00025437,-0.00017176,0.00034286,-0.00059196,0.00
 047493,-0.00008987,0.00437863,-0.01113988,0.05285387,-0.00113279,0.000
 62617,-0.00380950,0.01092263,-0.00435423,0.00609061,0.00598011,-0.0008
 5905,0.00213003,-0.09038756,-0.04172385,-0.10361011,-0.00081355,-0.000
 65707,-0.00111011,0.00019091,-0.00003011,0.00004508,-0.00003877,-0.000
 05885,-0.00004084,-0.00011098,0.00004438,0.00000950,0.00003120,0.00019
 277,-0.00000426,0.00000294,0.00011518,-0.00027382,-0.00502394,0.002914
 68,0.00164934,0.07928376,0.00037313,-0.00052034,0.00345150,-0.00510689
 ,0.00026444,0.00130865,0.00587736,0.00744839,0.01836368,-0.04223530,-0
 .08026158,-0.08202158,0.00018179,0.00004194,-0.00039219,0.00011646,0.0
 0036977,-0.00002622,0.00008555,-0.00003928,0.00002572,-0.00006363,0.00
 004518,0.00000852,0.00005798,0.00017355,-0.00001232,-0.00004893,-0.000
 01017,-0.00012032,0.00311630,-0.00100183,-0.00089086,0.04726552,0.0747
 3029,0.00029108,0.00017919,0.00047052,-0.00234659,0.00221215,-0.002120
 75,-0.00977612,-0.00708094,-0.01720688,-0.10198025,-0.07718053,-0.2761
 8569,0.00041510,0.00041475,0.00044817,-0.00010441,-0.00000880,0.000053
 83,0.00000479,0.00000543,0.00000632,0.00000308,-0.00001551,-0.00000917
 ,0.00005861,-0.00004772,0.00001347,-0.00002561,-0.00011951,0.00007467,
 0.00160814,-0.00083161,0.00060148,0.11079444,0.08055504,0.28928498,0.0
 0056076,-0.00060504,0.00205515,-0.00554181,0.00298967,-0.00235499,0.00
 503013,-0.00349111,-0.00175827,-0.11538323,-0.13092610,-0.00486752,0.0
 0063982,0.00082083,-0.00032985,-0.00027210,0.00021126,-0.00001245,-0.0
 0018159,-0.00013027,0.00015613,0.00007228,-0.00001494,0.00001799,0.000
 05552,0.00019808,-0.00015102,0.00020769,-0.00023518,0.00000771,0.00801
 339,-0.00375058,-0.00203748,0.00040995,-0.00898379,0.00111028,0.107119
 59,-0.00012021,0.00024899,-0.00108060,0.00227579,-0.00225359,-0.000109
 31,-0.00896466,-0.00939526,0.00006679,-0.13016121,-0.27470597,-0.00236
 385,-0.00038290,0.00004230,-0.00232809,0.00064152,0.00036261,0.0003140
 6,-0.00002497,-0.00039922,0.00004515,-0.00039036,-0.00010178,0.0000833
 8,0.00027855,0.00005209,-0.00000045,-0.00009853,-0.00033810,-0.0012764
 4,-0.00383725,0.00237728,0.00256863,-0.00321360,-0.00161604,0.00205268
 ,0.14378456,0.28580272,-0.00029854,-0.00030065,-0.00018215,0.00264081,
 0.00092127,0.00078617,0.01174711,0.02360930,0.00278520,-0.00789623,-0.
 00730600,-0.05451857,-0.00027859,0.00058490,-0.00169246,-0.00032955,-0
 .00038850,0.00004917,-0.00012529,-0.00001340,-0.00002898,-0.00010476,0
 .00000097,-0.00004309,0.00023612,0.00000862,-0.00002033,0.00035503,-0.
 00102273,-0.00094501,-0.00215680,0.00237064,-0.00319369,-0.01157075,-0
 .02048161,0.00453468,0.00767435,0.00182728,0.05233038,0.00060313,-0.00
 018700,0.00015221,-0.00149277,0.00134870,-0.00024820,0.00014943,-0.000
 27593,-0.00014697,0.00007798,0.00008038,0.00012987,-0.01571901,0.01930
 234,-0.00360943,-0.20946715,0.14050386,-0.03131039,0.01029217,-0.00642
 421,0.00118676,0.00052435,-0.00242728,-0.00071263,0.00013845,-0.000586
 88,0.00022482,-0.00369731,-0.00355830,-0.00096580,0.00000508,0.0000132
 0,0.00005993,-0.00004968,-0.00001646,0.00001833,-0.00001496,0.00003845
 ,0.00000936,0.21853195,0.00042306,-0.00025226,-0.00026731,-0.00116772,
 0.00159111,-0.00047454,-0.00001543,-0.00028629,0.00012407,0.00005524,0
 .00008294,0.00001420,-0.00916890,0.00962089,-0.00191622,0.14077928,-0.
 18997288,0.02887250,0.02323201,-0.01323506,0.00378329,-0.00224620,-0.0
 0500775,0.00072614,-0.00108629,-0.00070417,-0.00019353,-0.00275597,0.0
 0009459,0.00040609,-0.00004435,-0.00000109,-0.00003572,-0.00001738,-0.
 00001225,0.00000302,0.00003684,0.00001254,0.00004302,-0.14873146,0.197
 13224,0.00070468,0.00055075,-0.00014159,-0.00088357,-0.00074775,-0.002
 98544,-0.00029749,-0.00065837,0.00037351,-0.00004465,-0.00002083,-0.00
 001344,-0.00073393,0.00144640,0.00075514,-0.03122077,0.02951349,-0.043
 20818,-0.00124956,0.00029771,0.00496838,-0.00080224,0.00073751,0.00752
 854,0.00042345,0.00001548,-0.00133876,-0.00096128,-0.00019816,0.006374
 13,-0.00010122,0.00000720,-0.00024775,0.00005906,0.00001075,-0.0000309
 3,-0.00004641,0.00011944,0.00004586,0.03458201,-0.03085071,0.03230099,
 0.00006234,0.00009969,-0.00004593,0.00012265,0.00023146,-0.00007138,-0
 .00002953,-0.00002101,-0.00000127,-0.00000599,-0.00002651,0.00001217,0
 .00180095,-0.00063478,-0.00057524,-0.00046597,0.00073301,-0.00047557,-
 0.32217408,-0.08508927,-0.02544605,-0.01491053,-0.00865098,-0.00157649
 ,-0.00136272,0.00326763,-0.00121108,0.00035960,0.00086173,0.00015080,-
 0.00000017,0.00000136,-0.00001117,0.00000182,0.00000499,-0.00000126,-0
 .00000825,0.00000203,0.00000378,0.00040770,-0.00006641,0.00051903,0.33
 629345,-0.00043444,-0.00038569,0.00036383,-0.00094123,-0.00014209,-0.0
 0021598,0.00003931,-0.00026597,0.00010998,-0.00004260,-0.00001503,-0.0
 0005663,-0.00047776,-0.00452717,0.00080659,-0.02969218,-0.00580569,-0.
 00275401,-0.08473432,-0.08601789,-0.00609141,0.02160196,0.01109198,0.0
 0196869,0.00350553,-0.00270278,0.00100283,0.00054856,-0.00100773,0.000
 08809,-0.00003097,0.00000462,-0.00010813,-0.00001225,0.00002219,0.0000
 0143,0.00000774,-0.00003354,-0.00000447,0.00025729,0.00094612,-0.00036
 859,0.08982168,0.08772327,-0.00021704,-0.00035702,0.00010854,0.0000969
 6,0.00029437,0.00046331,0.00007633,0.00025822,0.00017240,0.00003945,0.
 00006827,-0.00006846,-0.00033820,0.00057071,0.00719744,0.00156173,0.00
 062935,0.00371563,-0.02574650,-0.00598106,-0.04266950,-0.00329299,-0.0
 0151478,0.00415330,-0.00133061,0.00090487,0.00755378,0.00006557,0.0002
 8694,-0.00140789,-0.00003863,0.00003767,0.00005660,-0.00000988,-0.0000
 0285,-0.00000057,-0.00000908,-0.00003485,-0.00000366,0.00054656,-0.000
 38528,-0.00406970,0.02812706,0.00571651,0.03000585,0.00007683,-0.00002
 196,-0.00001171,-0.00019861,-0.00017163,0.00015767,0.00006919,0.000045
 77,-0.00002528,0.00001390,-0.00000213,0.00000631,-0.00145376,0.0006868
 9,-0.00012984,-0.00292650,0.00383908,-0.00150106,0.00943478,0.02374896
 ,-0.00095959,-0.07390000,-0.06183809,0.00075388,-0.00137774,-0.0294967
 7,0.00111386,-0.00537108,-0.00199558,-0.00113561,0.00001665,-0.0000004
 5,0.00002478,-0.00000518,-0.00000392,0.00000357,-0.00002251,-0.0000011
 0,0.00000371,0.00036084,0.00117873,-0.00002951,0.00064888,-0.00034205,
 0.00053156,0.07390656,0.00003520,0.00005790,-0.00002060,-0.00008663,-0
 .00039111,0.00003071,0.00004165,0.00004538,-0.00003936,-0.00000177,-0.
 00000443,-0.00000245,0.00058791,0.00117749,-0.00008419,0.00288913,-0.0
 0122731,0.00086755,-0.00641428,-0.01346903,0.00050061,-0.06181245,-0.3
 3602666,0.01174559,0.00072724,-0.00283187,0.00057944,-0.00112834,0.001
 11403,0.00031252,0.00000140,0.00000095,0.00001547,0.00000130,-0.000002
 12,-0.00000160,-0.00000879,-0.00000793,0.00000279,-0.00038740,-0.00063
 480,-0.00001497,0.00001756,0.00064073,-0.00029774,0.06542543,0.3512238
 9,0.00028838,0.00020956,-0.00008130,-0.00014714,-0.00024940,-0.0010949
 4,-0.00014908,-0.00024285,0.00000505,0.00001192,-0.00003980,0.00001444
 ,0.00009716,0.00008008,-0.00065764,-0.00140984,0.00115335,0.00792525,0
 .00069518,0.00371425,0.00549860,0.00076552,0.01166922,-0.04466612,-0.0
 0055836,-0.00244702,0.00547632,-0.00125709,-0.00000540,0.00748244,-0.0
 0005224,0.00001762,-0.00008138,0.00000227,-0.00000407,0.00000128,0.000
 00592,-0.00000703,0.00003668,0.00006610,0.00016886,-0.00043968,0.00051
 470,-0.00033402,-0.00406891,0.00068688,-0.01330209,0.02886026,-0.00011
 509,0.00016997,0.00006704,0.00047382,-0.00108988,-0.00003231,0.0000216
 6,0.00003167,0.00007781,0.00001032,0.00001872,-0.00002358,0.00115976,-
 0.00206099,-0.00051667,-0.00040909,-0.00119552,0.00012926,-0.00433894,
 -0.00262262,-0.00098092,-0.01520734,0.02096798,-0.00312299,-0.21375013
 ,0.14404643,-0.02522318,0.00966143,-0.00797898,0.00104116,-0.00001356,
 0.00001818,-0.00000263,0.00001040,0.00000028,-0.00000360,-0.00000973,0
 .00001214,-0.00000064,0.00000552,0.00010426,0.00008475,-0.00069430,0.0
 0103498,-0.00013120,0.00080234,-0.00005022,0.00043276,0.22187020,-0.00
 023879,0.00028047,0.00012877,0.00096677,-0.00151970,0.00011948,0.00003
 247,0.00010425,0.00013171,-0.00007093,-0.00003459,-0.00006385,-0.00184
 176,-0.00380258,0.00033436,-0.00090397,-0.00027485,-0.00012996,-0.0028
 9665,0.00018891,0.00011678,-0.00933951,0.01135963,-0.00128084,0.143798
 28,-0.19246049,0.02300927,0.02224581,-0.01593933,0.00343159,-0.0000030
 4,0.00001665,-0.00004434,0.00002273,-0.00000049,-0.00001392,0.00002906
 ,-0.00003089,0.00002612,0.00008892,0.00003974,-0.00005515,-0.00050308,
 0.00042456,-0.00011531,0.00033329,0.00049849,-0.00023639,-0.15176480,0
 .20024346,0.00018065,-0.00002297,-0.00012233,-0.00030030,-0.00021526,0
 .00059736,-0.00002611,0.00025255,-0.00016591,-0.00011248,-0.00011324,-
 0.00001091,-0.00048574,0.00077171,0.00779408,0.00006598,-0.00021382,-0
 .00124863,-0.00105981,0.00030485,0.00728085,-0.00140671,0.00165418,0.0
 0409581,-0.02506122,0.02303394,-0.04464100,-0.00063652,0.00016941,0.00
 400315,0.00005346,-0.00003226,0.00000244,0.00003431,-0.00002753,-0.000
 01078,0.00002160,0.00000107,0.00003988,0.00011401,-0.00007426,-0.00093
 166,-0.00000033,0.00004877,-0.00024591,0.00043912,-0.00028877,-0.00379
 125,0.02778082,-0.02496429,0.03169342,0.00050483,-0.00070705,-0.000090
 52,-0.00180093,-0.00059818,0.00052991,0.00032983,0.00007176,-0.0000943
 7,0.00012243,-0.00011512,0.00008208,-0.01586164,-0.00680177,-0.0014458
 5,-0.00048649,0.00384311,-0.00085026,0.00065448,-0.00021373,0.00022989
 ,0.00112658,-0.00042734,-0.00055829,0.00007248,0.00055515,-0.00039258,
 -0.31795651,-0.08549158,-0.02127065,-0.00000201,0.00004276,0.00009238,
 0.00002422,-0.00003189,-0.00000120,-0.00024685,-0.00002301,0.00006821,
 -0.00054156,-0.00051054,-0.00010495,-0.00004982,-0.00004059,0.00007687
 ,-0.00008591,0.00015759,0.00000145,0.00050377,0.00002390,0.00041597,0.
 33355693,-0.00043237,-0.00074898,0.00002445,0.00225959,0.00071876,-0.0
 0040813,-0.00033975,-0.00050757,0.00022515,0.00015040,0.00000560,-0.00
 032314,0.02027283,0.00994685,0.00165611,0.00319407,-0.00320852,0.00096
 963,0.00037168,-0.00110839,-0.00002305,-0.00069528,-0.00561999,0.00074
 668,-0.02902204,-0.00279879,-0.00225122,-0.08567605,-0.08655262,-0.005
 39891,-0.00000898,-0.00004246,-0.00009076,-0.00000065,-0.00003429,-0.0
 0003293,-0.00004887,0.00012768,0.00007652,0.00101363,0.00050247,0.0001
 9629,-0.00004604,0.00008871,-0.00005761,-0.00138089,-0.00015268,-0.000
 13811,0.00035920,0.00093813,-0.00031461,0.09024912,0.08830778,0.000988
 33,-0.00030426,-0.00074949,-0.00088084,-0.00004943,-0.00148697,-0.0001
 8827,-0.00062464,0.00003469,-0.00006301,-0.00030099,-0.00015860,-0.003
 24150,-0.00038937,0.00086219,-0.00087544,0.00131339,0.00600001,0.00035
 065,-0.00040928,-0.00134590,-0.00097720,0.00066818,0.00793783,0.001051
 40,0.00078467,0.00537815,-0.02017235,-0.00562684,-0.03910390,-0.000242
 88,0.00012335,-0.00017151,0.00007600,-0.00000384,-0.00004262,0.0002723
 1,0.00017483,0.00006626,-0.00021576,-0.00005912,0.00087968,0.00009792,
 -0.00006742,-0.00092262,0.00008012,-0.00000156,-0.00046801,0.00047530,
 -0.00029793,-0.00440323,0.02340483,0.00493476,0.02762327,-0.05745235,0
 .04690488,-0.12063565,-0.00028498,-0.01202360,0.03489721,-0.00450407,-
 0.00042537,0.00307173,0.00039509,0.00094371,0.00085409,-0.00268586,0.0
 0019120,0.00096994,0.00019295,-0.00073334,0.00027544,-0.00022300,0.000
 00911,-0.00027660,-0.00000852,0.00000237,0.00011628,0.00000563,-0.0000
 1330,-0.00012479,-0.00006991,0.00033734,-0.00005043,0.00007152,0.00016
 570,-0.00010360,0.00070449,-0.00058855,-0.00006837,-0.00042811,0.00018
 477,0.00002267,-0.00011416,0.00000122,0.00010260,0.00000397,-0.0000686
 4,-0.00000797,0.00001132,0.00000546,0.00000551,0.00001896,0.00002132,-
 0.00001670,0.00013616,-0.00021961,0.00006040,0.06423084,0.03543692,-0.
 05807321,0.15947530,-0.00243563,-0.00207024,-0.00284753,0.00370127,0.0
 0180063,-0.00221881,-0.00075089,-0.00064315,-0.00122910,-0.00081564,-0
 .00015751,0.00133496,-0.00007612,-0.00029168,0.00023962,-0.00016009,-0
 .00006462,-0.00016483,-0.00013256,-0.00004748,0.00006757,0.00015999,-0
 .00000391,-0.00006520,0.00003765,-0.00056897,0.00009450,-0.00008930,0.
 00021579,-0.00004327,-0.00025568,0.00040265,-0.00009066,0.00011665,-0.
 00014389,0.00004593,-0.00005186,0.00008390,0.00001951,-0.00000305,-0.0
 0003860,-0.00002041,-0.00000359,-0.00001092,-0.00000677,-0.00000079,-0
 .00003137,0.00003054,0.00001739,0.00013833,0.00013552,-0.03469466,0.05
 950424,-0.07913828,0.15230216,-0.43241416,-0.00400467,0.00417596,-0.01
 227392,0.00268339,0.00006787,-0.00287453,0.00022121,-0.00068915,0.0004
 6909,-0.00020206,0.00003802,0.00118232,0.00046881,-0.00064559,0.000190
 85,-0.00014682,-0.00014499,-0.00020461,0.00002926,-0.00009754,-0.00000
 701,0.00004187,-0.00023148,-0.00004399,-0.00055744,-0.00024767,-0.0003
 3368,-0.00004435,-0.00009841,0.00021016,-0.00046139,0.00025953,0.00011
 800,0.00024564,-0.00005270,-0.00004633,0.00011922,0.00011548,0.0001809
 1,-0.00000970,-0.00010606,0.00003037,-0.00000887,-0.00000134,0.0000489
 1,-0.00005117,-0.00009610,0.00006463,-0.00009294,0.00020889,0.00007077
 ,0.08090827,-0.15475686,0.44563223\\-0.00002312,-0.00000054,0.00001431
 ,0.00003600,0.00003705,-0.00000924,-0.00000561,-0.00001474,0.00000457,
 -0.00000195,0.00000202,-0.00001998,-0.00001607,-0.00004693,-0.00000048
 ,0.00000583,0.00001837,0.00000757,0.00000432,-0.00000953,-0.00000245,-
 0.00000130,0.00000121,-0.00000074,-0.00000412,-0.00000015,-0.00000068,
 0.00000407,0.00001464,-0.00000167,0.00000180,0.00000063,0.00000269,0.0
 0000138,0.00000304,0.00000107,0.00000410,-0.00000122,0.00000426,-0.000
 00050,-0.00000124,-0.00000115,-0.00000142,0.00000188,0.00000102,-0.000
 00137,0.00000085,0.00000073,-0.00000024,-0.00000062,-0.00000034,-0.000
 00052,-0.00000269,-0.00000006,-0.00000128,-0.00000202,0.00000057\\\@


 I (ERNEST RUTHERFORD) CAME INTO THE ROOM, WHICH WAS HALF DARK, AND PRESENTLY
 SPOTTED LORD KELVIN IN THE AUDIENCE AND REALIZED I WAS IN TROUBLE AT
 THE LAST PART OF MY SPEECH DEALING THE AGE OF THE EARTH, WHERE MY VIEWS
 CONFLICTED WITH HIS.  TO MY RELIEF KELVIN FELL FAST ASLEEP, BUT AS I CAME
 TO THE IMPORTANT POINT, I SAW THE OLD BIRD SIT UP AND COCK A BALEFUL GLANCE
 AT ME! THEN A SUDDEN INSPIRATION CAME AND I SAID LORD KELVIN HAD LIMITED
 THE AGE OF THE EARTH PROVIDED NO NEW SOURCE WAS DISCOVERED. THAT
 PROPHETIC UTTERANCE REFERS TO WHAT WE ARE NOW CONSIDERING TONIGHT, RADIUM!
 BEHOLD!  THE OLD BOY BEAMED UPON ME.
 Job cpu time:       0 days  0 hours 53 minutes 31.3 seconds.
 Elapsed time:       0 days  0 hours  2 minutes 14.7 seconds.
 File lengths (MBytes):  RWF=    156 Int=      0 D2E=      0 Chk=      8 Scr=      1
 Normal termination of Gaussian 16 at Sun Oct 13 23:20:24 2019.
real 361.12
user 8483.65
sys 26.09
Machine:
brown-a461
brown-a461
brown-a461
brown-a461
brown-a461
brown-a461
brown-a461
brown-a461
brown-a461
brown-a461
brown-a461
brown-a461
brown-a461
brown-a461
brown-a461
brown-a461
brown-a461
brown-a461
brown-a461
brown-a461
brown-a461
brown-a461
brown-a461
brown-a461
