Title Card Required                                                     
Freq      RM062X                                                      6-311++G(d,p)       
Number of atoms                            I               19
Info1-9                                    I   N=           9
          48          48        1002           0           0         100
           6          18        -502
Full Title                                 C   N=           2
Title Card Required     
Route                                      C   N=           6
#P opt freq m062x/6-311++g(d,p) geom=connectivity temperatur
e=0.001     
Charge                                     I                1
Multiplicity                               I                1
Number of electrons                        I               80
Number of alpha electrons                  I               40
Number of beta electrons                   I               40
Number of basis functions                  I              291
Number of independent functions            I              290
Number of point charges in /Mol/           I                0
Number of translation vectors              I                0
Atomic numbers                             I   N=          19
           8          16           6           6           6           6
           6           6           6           6           1           1
           1           1           1           1           1           1
           1
Nuclear charges                            R   N=          19
  8.00000000E+00  1.60000000E+01  6.00000000E+00  6.00000000E+00  6.00000000E+00
  6.00000000E+00  6.00000000E+00  6.00000000E+00  6.00000000E+00  6.00000000E+00
  1.00000000E+00  1.00000000E+00  1.00000000E+00  1.00000000E+00  1.00000000E+00
  1.00000000E+00  1.00000000E+00  1.00000000E+00  1.00000000E+00
Current cartesian coordinates              R   N=          57
 -3.61344889E+00 -2.30559394E+00  2.04962908E+00 -2.65840389E+00 -1.26799788E+00
 -6.96222851E-01 -4.22261608E+00  1.69844798E+00 -5.71009318E-01 -3.03348714E+00
  3.86929786E+00 -9.23225386E-01  5.60453651E-01 -5.69222517E-01 -2.13438661E-01
  2.21431814E+00 -1.20682369E+00 -2.16020415E+00  4.76389242E+00 -6.54562057E-01
 -1.84390685E+00  5.59633158E+00  4.63027306E-01  3.84604715E-01  3.90635997E+00
  1.05431903E+00  2.32306978E+00  1.35152839E+00  5.55731198E-01  2.03761213E+00
 -6.24313549E+00  1.46132316E+00 -3.28616132E-01 -4.11861591E+00  5.60665297E+00
 -9.36262132E-01 -1.00953177E+00  4.00089676E+00 -1.21210343E+00  1.53931871E+00
 -2.10928535E+00 -3.87128500E+00  6.09328576E+00 -1.12070679E+00 -3.32694538E+00
  7.58823638E+00  8.68068293E-01  6.27326528E-01  4.58529267E+00  1.90389486E+00
  4.05601059E+00  8.21410352E-03  9.87007620E-01  3.52262760E+00 -3.82169660E+00
 -4.12642456E+00  2.01076678E+00
Number of symbols in /Mol/                 I                0
Force Field                                I                0
Atom Types                                 C   N=          19
                                                            
                                                            
                                                            
                                                
Int Atom Types                             I   N=          19
           0           0           0           0           0           0
           0           0           0           0           0           0
           0           0           0           0           0           0
           0
MM charges                                 R   N=          19
  0.00000000E+00  0.00000000E+00  0.00000000E+00  0.00000000E+00  0.00000000E+00
  0.00000000E+00  0.00000000E+00  0.00000000E+00  0.00000000E+00  0.00000000E+00
  0.00000000E+00  0.00000000E+00  0.00000000E+00  0.00000000E+00  0.00000000E+00
  0.00000000E+00  0.00000000E+00  0.00000000E+00  0.00000000E+00
Integer atomic weights                     I   N=          19
          16          32          12          12          12          12
          12          12          12          12           1           1
           1           1           1           1           1           1
           1
Real atomic weights                        R   N=          19
  1.59949146E+01  3.19720718E+01  1.20000000E+01  1.20000000E+01  1.20000000E+01
  1.20000000E+01  1.20000000E+01  1.20000000E+01  1.20000000E+01  1.20000000E+01
  1.00782504E+00  1.00782504E+00  1.00782504E+00  1.00782504E+00  1.00782504E+00
  1.00782504E+00  1.00782504E+00  1.00782504E+00  1.00782504E+00
Atom fragment info                         I   N=          19
           0           0           0           0           0           0
           0           0           0           0           0           0
           0           0           0           0           0           0
           0
Atom residue num                           I   N=          19
           0           0           0           0           0           0
           0           0           0           0           0           0
           0           0           0           0           0           0
           0
Nuclear spins                              I   N=          19
           0           0           0           0           0           0
           0           0           0           0           1           1
           1           1           1           1           1           1
           1
Nuclear ZEff                               R   N=          19
 -5.60000000E+00 -1.36000000E+01 -3.60000000E+00 -3.60000000E+00 -3.60000000E+00
 -3.60000000E+00 -3.60000000E+00 -3.60000000E+00 -3.60000000E+00 -3.60000000E+00
 -1.00000000E+00 -1.00000000E+00 -1.00000000E+00 -1.00000000E+00 -1.00000000E+00
 -1.00000000E+00 -1.00000000E+00 -1.00000000E+00 -1.00000000E+00
Nuclear ZNuc                               R   N=          19
  8.00000000E+00  1.60000000E+01  6.00000000E+00  6.00000000E+00  6.00000000E+00
  6.00000000E+00  6.00000000E+00  6.00000000E+00  6.00000000E+00  6.00000000E+00
  1.00000000E+00  1.00000000E+00  1.00000000E+00  1.00000000E+00  1.00000000E+00
  1.00000000E+00  1.00000000E+00  1.00000000E+00  1.00000000E+00
Nuclear QMom                               R   N=          19
  0.00000000E+00  0.00000000E+00  0.00000000E+00  0.00000000E+00  0.00000000E+00
  0.00000000E+00  0.00000000E+00  0.00000000E+00  0.00000000E+00  0.00000000E+00
  0.00000000E+00  0.00000000E+00  0.00000000E+00  0.00000000E+00  0.00000000E+00
  0.00000000E+00  0.00000000E+00  0.00000000E+00  0.00000000E+00
Nuclear GFac                               R   N=          19
  0.00000000E+00  0.00000000E+00  0.00000000E+00  0.00000000E+00  0.00000000E+00
  0.00000000E+00  0.00000000E+00  0.00000000E+00  0.00000000E+00  0.00000000E+00
  2.79284600E+00  2.79284600E+00  2.79284600E+00  2.79284600E+00  2.79284600E+00
  2.79284600E+00  2.79284600E+00  2.79284600E+00  2.79284600E+00
MicOpt                                     I   N=          19
          -1          -1          -1          -1          -1          -1
          -1          -1          -1          -1          -1          -1
          -1          -1          -1          -1          -1          -1
          -1
Number of residues                         I                0
Number of secondary structures             I                0
Redundant internal dimensions              I   N=           4
          85          19          28          38
Redundant internal coordinate indices      I   N=         340
           1           2           0           0           1          19
           0           0           2           3           0           0
           2           5           0           0           3           4
           0           0           3          11           0           0
           4          12           0           0           4          13
           0           0           5           6           0           0
           5          10           0           0           6           7
           0           0           6          14           0           0
           7           8           0           0           7          15
           0           0           8           9           0           0
           8          16           0           0           9          10
           0           0           9          17           0           0
          10          18           0           0           2           1
          19           0           1           2           3           0
           1           2           5           0           3           2
           5           0           2           3           4           0
           2           3          11           0           4           3
          11           0           3           4          12           0
           3           4          13           0          12           4
          13           0           2           5           6           0
           2           5          10           0           6           5
          10           0           5           6           7           0
           5           6          14           0           7           6
          14           0           6           7           8           0
           6           7          15           0           8           7
          15           0           7           8           9           0
           7           8          16           0           9           8
          16           0           8           9          10           0
           8           9          17           0          10           9
          17           0           5          10           9           0
           5          10          18           0           9          10
          18           0          19           1           2           3
          19           1           2           5           1           2
           3           4           1           2           3          11
           5           2           3           4           5           2
           3          11           1           2           5           6
           1           2           5          10           3           2
           5           6           3           2           5          10
           2           3           4          12           2           3
           4          13          11           3           4          12
          11           3           4          13           2           5
           6           7           2           5           6          14
          10           5           6           7          10           5
           6          14           2           5          10           9
           2           5          10          18           6           5
          10           9           6           5          10          18
           5           6           7           8           5           6
           7          15          14           6           7           8
          14           6           7          15           6           7
           8           9           6           7           8          16
          15           7           8           9          15           7
           8          16           7           8           9          10
           7           8           9          17          16           8
           9          10          16           8           9          17
           8           9          10           5           8           9
          10          18          17           9          10           5
          17           9          10          18
Redundant internal coordinates             R   N=          85
  3.08681379E+00  1.83311252E+00  3.35592600E+00  3.32902560E+00  2.50013459E+00
  2.04877557E+00  2.04843286E+00  2.04869816E+00  2.63281197E+00  2.63790632E+00
  2.62780629E+00  2.04886772E+00  2.62835020E+00  2.04547814E+00  2.63880215E+00
  2.04710938E+00  2.61863329E+00  2.04592584E+00  2.04835631E+00  1.92855525E+00
  1.69081079E+00  1.81389269E+00  1.83353445E+00  2.14191506E+00  1.94097620E+00
  2.19719365E+00  2.07758652E+00  2.14780761E+00  2.05777776E+00  2.03679937E+00
  2.09813211E+00  2.14823744E+00  2.05960683E+00  2.11441641E+00  2.10916091E+00
  2.09289809E+00  2.08909961E+00  2.10110309E+00  2.11214565E+00  2.08614310E+00
  2.08486602E+00  2.09680387E+00  2.09756744E+00  2.08881397E+00  2.05646716E+00
  2.10805422E+00  2.11847222E+00  2.57361258E+00 -1.83467088E+00  2.21201327E+00
 -1.00958739E+00  3.53771299E-01 -2.86782936E+00  2.44042339E+00 -6.95204561E-01
 -2.07628073E+00  1.07127662E+00  3.07664401E+00 -5.92599354E-02  2.71513608E-02
 -3.10875259E+00  3.13039371E+00 -1.28246485E-02 -1.73507907E-02  3.12261615E+00
  3.13677002E+00  1.59335615E-02  1.53723977E-03 -3.11929922E+00  1.82206979E-02
 -3.13728802E+00 -3.12175137E+00  5.92521370E-03 -3.99787574E-03  3.12914960E+00
 -3.13157752E+00  1.56996138E-03 -1.23071635E-02  3.12906785E+00  3.13772457E+00
 -4.08572913E-03  1.33166813E-02  3.13402236E+00 -3.12805942E+00 -7.35374214E-03
ZRed-IntVec                                I   N=          85
           0           0           0           0           0           0
           0           0           0           0           0           0
           0           0           0           0           0           0
           0           0           0           0           0           0
           0           0           0           0           0           0
           0           0           0           0           0           0
           0           0           0           0           0           0
           0           0           0           0           0           0
           0           0           0           0           0           0
           0           0           0           0           0           0
           0           0           0           0           0           0
           0           0           0           0           0           0
           0           0           0           0           0           0
           0           0           0           0           0           0
           0
ZRed-FPVec                                 R   N=          85
  0.00000000E+00  0.00000000E+00  0.00000000E+00  0.00000000E+00  0.00000000E+00
  0.00000000E+00  0.00000000E+00  0.00000000E+00  0.00000000E+00  0.00000000E+00
  0.00000000E+00  0.00000000E+00  0.00000000E+00  0.00000000E+00  0.00000000E+00
  0.00000000E+00  0.00000000E+00  0.00000000E+00  0.00000000E+00  0.00000000E+00
  0.00000000E+00  0.00000000E+00  0.00000000E+00  0.00000000E+00  0.00000000E+00
  0.00000000E+00  0.00000000E+00  0.00000000E+00  0.00000000E+00  0.00000000E+00
  0.00000000E+00  0.00000000E+00  0.00000000E+00  0.00000000E+00  0.00000000E+00
  0.00000000E+00  0.00000000E+00  0.00000000E+00  0.00000000E+00  0.00000000E+00
  0.00000000E+00  0.00000000E+00  0.00000000E+00  0.00000000E+00  0.00000000E+00
  0.00000000E+00  0.00000000E+00  0.00000000E+00  0.00000000E+00  0.00000000E+00
  0.00000000E+00  0.00000000E+00  0.00000000E+00  0.00000000E+00  0.00000000E+00
  0.00000000E+00  0.00000000E+00  0.00000000E+00  0.00000000E+00  0.00000000E+00
  0.00000000E+00  0.00000000E+00  0.00000000E+00  0.00000000E+00  0.00000000E+00
  0.00000000E+00  0.00000000E+00  0.00000000E+00  0.00000000E+00  0.00000000E+00
  0.00000000E+00  0.00000000E+00  0.00000000E+00  0.00000000E+00  0.00000000E+00
  0.00000000E+00  0.00000000E+00  0.00000000E+00  0.00000000E+00  0.00000000E+00
  0.00000000E+00  0.00000000E+00  0.00000000E+00  0.00000000E+00  0.00000000E+00
ZRed-Constraint1                           R   N=          85
  3.08681379E+00  1.83311252E+00  3.35592600E+00  3.32902560E+00  2.50013459E+00
  2.04877557E+00  2.04843286E+00  2.04869816E+00  2.63281197E+00  2.63790632E+00
  2.62780629E+00  2.04886772E+00  2.62835020E+00  2.04547814E+00  2.63880215E+00
  2.04710938E+00  2.61863329E+00  2.04592584E+00  2.04835631E+00  1.92855525E+00
  1.69081079E+00  1.81389269E+00  1.83353445E+00  2.14191506E+00  1.94097620E+00
  2.19719365E+00  2.07758652E+00  2.14780761E+00  2.05777776E+00  2.03679937E+00
  2.09813211E+00  2.14823744E+00  2.05960683E+00  2.11441641E+00  2.10916091E+00
  2.09289809E+00  2.08909961E+00  2.10110309E+00  2.11214565E+00  2.08614310E+00
  2.08486602E+00  2.09680387E+00  2.09756744E+00  2.08881397E+00  2.05646716E+00
  2.10805422E+00  2.11847222E+00  2.57361258E+00 -1.83467088E+00  2.21201327E+00
 -1.00958739E+00  3.53771299E-01 -2.86782936E+00  2.44042339E+00 -6.95204561E-01
 -2.07628073E+00  1.07127662E+00  3.07664401E+00 -5.92599354E-02  2.71513608E-02
 -3.10875259E+00  3.13039371E+00 -1.28246485E-02 -1.73507907E-02  3.12261615E+00
  3.13677002E+00  1.59335615E-02  1.53723977E-03 -3.11929922E+00  1.82206979E-02
 -3.13728802E+00 -3.12175137E+00  5.92521370E-03 -3.99787574E-03  3.12914960E+00
 -3.13157752E+00  1.56996138E-03 -1.23071635E-02  3.12906785E+00  3.13772457E+00
 -4.08572913E-03  1.33166813E-02  3.13402236E+00 -3.12805942E+00 -7.35374214E-03
ZRed-Constraint2                           R   N=          85
  3.03685660E+00  1.81413708E+00  3.29917339E+00  3.35338365E+00  2.52571648E+00
  2.05978228E+00  2.05980864E+00  2.05972232E+00  2.66557832E+00  2.66892438E+00
  2.65932435E+00  2.05969105E+00  2.65964696E+00  2.05985343E+00  2.65828321E+00
  2.05977433E+00  2.66069704E+00  2.05983776E+00  2.05969802E+00  2.09439510E+00
  1.83156444E+00  1.82801691E+00  1.92261782E+00  2.17954443E+00  2.30091077E+00
  1.80273010E+00  2.09432861E+00  2.09436975E+00  2.09448694E+00  2.07457251E+00
  2.12286290E+00  2.08538881E+00  2.09628574E+00  2.09557598E+00  2.09132358E+00
  2.09775008E+00  2.09247192E+00  2.09296330E+00  2.09388119E+00  2.09510928E+00
  2.09419484E+00  2.09264051E+00  2.09453804E+00  2.09600676E+00  2.10036224E+00
  2.09423597E+00  2.08858709E+00  2.69434569E+00 -1.56356642E+00  2.24812317E+00
 -8.93368077E-01  2.89225169E-01 -2.85226608E+00  2.24019994E+00 -8.72357823E-01
 -2.08179591E+00  1.08883164E+00 -2.12799734E+00  1.01359260E+00  1.01351768E+00
 -2.12807769E+00 -3.10813141E+00  3.36219901E-02  5.06195851E-03 -3.13636995E+00
  3.10318645E+00 -3.84128762E-02 -9.19539677E-03  3.13239058E+00  4.62533295E-03
 -3.13698886E+00 -3.13712767E+00  4.44344952E-03 -1.02430196E-02  3.13129809E+00
  3.13137117E+00 -1.02730270E-02  6.10719058E-03 -3.13551230E+00 -3.13543394E+00
  6.13187350E-03  3.62895714E-03 -3.13795705E+00 -3.13793684E+00  3.66246882E-03
SymInf integers                            I   N=          26
           1           1           1           1           1           0
           0           0           0           0           0           0
           0           0           0           0           0           0
           0           0           0           0           0           0
           0           0
RotTr to input orientation                 R   N=          12
  3.79201075E-01  9.17603362E-01  1.19208285E-01 -2.25182551E-01  2.16469543E-01
 -9.49965134E-01 -8.97496163E-01  3.33384174E-01  2.88713749E-01 -8.14492230E-01
 -2.25799680E-01 -5.12019299E-01
Number of contracted shells                I              112
Number of primitive shells                 I              204
Pure/Cartesian d shells                    I                0
Pure/Cartesian f shells                    I                0
Highest angular momentum                   I                2
Largest degree of contraction              I                6
Shell types                                I   N=         112
           0          -1          -1          -1          -1          -2
           0           0           0           0           0           0
          -1           1           1           1           1           1
          -2           0          -1          -1          -1          -1
          -2           0          -1          -1          -1          -1
          -2           0          -1          -1          -1          -1
          -2           0          -1          -1          -1          -1
          -2           0          -1          -1          -1          -1
          -2           0          -1          -1          -1          -1
          -2           0          -1          -1          -1          -1
          -2           0          -1          -1          -1          -1
          -2           0           0           0           0           1
           0           0           0           0           1           0
           0           0           0           1           0           0
           0           0           1           0           0           0
           0           1           0           0           0           0
           1           0           0           0           0           1
           0           0           0           0           1           0
           0           0           0           1
Number of primitives per shell             I   N=         112
           6           3           1           1           1           1
           6           3           1           1           1           1
           1           4           2           1           1           1
           1           6           3           1           1           1
           1           6           3           1           1           1
           1           6           3           1           1           1
           1           6           3           1           1           1
           1           6           3           1           1           1
           1           6           3           1           1           1
           1           6           3           1           1           1
           1           6           3           1           1           1
           1           3           1           1           1           1
           3           1           1           1           1           3
           1           1           1           1           3           1
           1           1           1           3           1           1
           1           1           3           1           1           1
           1           3           1           1           1           1
           3           1           1           1           1           3
           1           1           1           1
Shell to atom map                          I   N=         112
           1           1           1           1           1           1
           2           2           2           2           2           2
           2           2           2           2           2           2
           2           3           3           3           3           3
           3           4           4           4           4           4
           4           5           5           5           5           5
           5           6           6           6           6           6
           6           7           7           7           7           7
           7           8           8           8           8           8
           8           9           9           9           9           9
           9          10          10          10          10          10
          10          11          11          11          11          11
          12          12          12          12          12          13
          13          13          13          13          14          14
          14          14          14          15          15          15
          15          15          16          16          16          16
          16          17          17          17          17          17
          18          18          18          18          18          19
          19          19          19          19
Primitive exponents                        R   N=         204
  8.58850000E+03  1.29723000E+03  2.99296000E+02  8.73771000E+01  2.56789000E+01
  3.74004000E+00  4.21175000E+01  9.62837000E+00  2.85332000E+00  9.05661000E-01
  2.55611000E-01  8.45000000E-02  1.29200000E+00  9.34134000E+04  1.39617000E+04
  3.16991000E+03  9.02456000E+02  2.97158000E+02  1.08702000E+02  1.08702000E+02
  4.31553000E+01  1.81079000E+01  5.56009000E+00  2.13183000E+00  4.20403000E-01
  1.36045000E-01  4.05000000E-02  4.95040000E+02  1.17221000E+02  3.77749000E+01
  1.40584000E+01  5.56574000E+00  2.26297000E+00  8.07994000E-01  2.77460000E-01
  7.71410000E-02  6.50000000E-01  4.56324000E+03  6.82024000E+02  1.54973000E+02
  4.44553000E+01  1.30290000E+01  1.82773000E+00  2.09642000E+01  4.80331000E+00
  1.45933000E+00  4.83456000E-01  1.45585000E-01  4.38000000E-02  6.26000000E-01
  4.56324000E+03  6.82024000E+02  1.54973000E+02  4.44553000E+01  1.30290000E+01
  1.82773000E+00  2.09642000E+01  4.80331000E+00  1.45933000E+00  4.83456000E-01
  1.45585000E-01  4.38000000E-02  6.26000000E-01  4.56324000E+03  6.82024000E+02
  1.54973000E+02  4.44553000E+01  1.30290000E+01  1.82773000E+00  2.09642000E+01
  4.80331000E+00  1.45933000E+00  4.83456000E-01  1.45585000E-01  4.38000000E-02
  6.26000000E-01  4.56324000E+03  6.82024000E+02  1.54973000E+02  4.44553000E+01
  1.30290000E+01  1.82773000E+00  2.09642000E+01  4.80331000E+00  1.45933000E+00
  4.83456000E-01  1.45585000E-01  4.38000000E-02  6.26000000E-01  4.56324000E+03
  6.82024000E+02  1.54973000E+02  4.44553000E+01  1.30290000E+01  1.82773000E+00
  2.09642000E+01  4.80331000E+00  1.45933000E+00  4.83456000E-01  1.45585000E-01
  4.38000000E-02  6.26000000E-01  4.56324000E+03  6.82024000E+02  1.54973000E+02
  4.44553000E+01  1.30290000E+01  1.82773000E+00  2.09642000E+01  4.80331000E+00
  1.45933000E+00  4.83456000E-01  1.45585000E-01  4.38000000E-02  6.26000000E-01
  4.56324000E+03  6.82024000E+02  1.54973000E+02  4.44553000E+01  1.30290000E+01
  1.82773000E+00  2.09642000E+01  4.80331000E+00  1.45933000E+00  4.83456000E-01
  1.45585000E-01  4.38000000E-02  6.26000000E-01  4.56324000E+03  6.82024000E+02
  1.54973000E+02  4.44553000E+01  1.30290000E+01  1.82773000E+00  2.09642000E+01
  4.80331000E+00  1.45933000E+00  4.83456000E-01  1.45585000E-01  4.38000000E-02
  6.26000000E-01  3.38650000E+01  5.09479000E+00  1.15879000E+00  3.25840000E-01
  1.02741000E-01  3.60000000E-02  7.50000000E-01  3.38650000E+01  5.09479000E+00
  1.15879000E+00  3.25840000E-01  1.02741000E-01  3.60000000E-02  7.50000000E-01
  3.38650000E+01  5.09479000E+00  1.15879000E+00  3.25840000E-01  1.02741000E-01
  3.60000000E-02  7.50000000E-01  3.38650000E+01  5.09479000E+00  1.15879000E+00
  3.25840000E-01  1.02741000E-01  3.60000000E-02  7.50000000E-01  3.38650000E+01
  5.09479000E+00  1.15879000E+00  3.25840000E-01  1.02741000E-01  3.60000000E-02
  7.50000000E-01  3.38650000E+01  5.09479000E+00  1.15879000E+00  3.25840000E-01
  1.02741000E-01  3.60000000E-02  7.50000000E-01  3.38650000E+01  5.09479000E+00
  1.15879000E+00  3.25840000E-01  1.02741000E-01  3.60000000E-02  7.50000000E-01
  3.38650000E+01  5.09479000E+00  1.15879000E+00  3.25840000E-01  1.02741000E-01
  3.60000000E-02  7.50000000E-01  3.38650000E+01  5.09479000E+00  1.15879000E+00
  3.25840000E-01  1.02741000E-01  3.60000000E-02  7.50000000E-01
Contraction coefficients                   R   N=         204
  1.89515008E-03  1.43859006E-02  7.07320031E-02  2.40001011E-01  5.94797026E-01
  2.80802012E-01  1.13889012E-01  9.20811101E-01 -3.27447036E-03  1.00000000E+00
  1.00000000E+00  1.00000000E+00  1.00000000E+00  7.42999957E-04  5.79299966E-03
  2.99539983E-02  1.19027993E-01  3.68431979E-01  5.77298966E-01  1.43186060E-01
  6.24465262E-01  2.83366119E-01  1.00000000E+00  1.00000000E+00  1.00000000E+00
  1.00000000E+00  1.00000000E+00  8.30900251E-03  6.40240194E-02  2.77614084E-01
  7.45076225E-01  6.13711672E-01  4.43817763E-01  1.00000000E+00  1.00000000E+00
  1.00000000E+00  1.00000000E+00  1.96665025E-03  1.52306019E-02  7.61269097E-02
  2.60801033E-01  6.16462078E-01  2.21006028E-01  1.14660081E-01  9.19999648E-01
 -3.03068213E-03  1.00000000E+00  1.00000000E+00  1.00000000E+00  1.00000000E+00
  1.96665025E-03  1.52306019E-02  7.61269097E-02  2.60801033E-01  6.16462078E-01
  2.21006028E-01  1.14660081E-01  9.19999648E-01 -3.03068213E-03  1.00000000E+00
  1.00000000E+00  1.00000000E+00  1.00000000E+00  1.96665025E-03  1.52306019E-02
  7.61269097E-02  2.60801033E-01  6.16462078E-01  2.21006028E-01  1.14660081E-01
  9.19999648E-01 -3.03068213E-03  1.00000000E+00  1.00000000E+00  1.00000000E+00
  1.00000000E+00  1.96665025E-03  1.52306019E-02  7.61269097E-02  2.60801033E-01
  6.16462078E-01  2.21006028E-01  1.14660081E-01  9.19999648E-01 -3.03068213E-03
  1.00000000E+00  1.00000000E+00  1.00000000E+00  1.00000000E+00  1.96665025E-03
  1.52306019E-02  7.61269097E-02  2.60801033E-01  6.16462078E-01  2.21006028E-01
  1.14660081E-01  9.19999648E-01 -3.03068213E-03  1.00000000E+00  1.00000000E+00
  1.00000000E+00  1.00000000E+00  1.96665025E-03  1.52306019E-02  7.61269097E-02
  2.60801033E-01  6.16462078E-01  2.21006028E-01  1.14660081E-01  9.19999648E-01
 -3.03068213E-03  1.00000000E+00  1.00000000E+00  1.00000000E+00  1.00000000E+00
  1.96665025E-03  1.52306019E-02  7.61269097E-02  2.60801033E-01  6.16462078E-01
  2.21006028E-01  1.14660081E-01  9.19999648E-01 -3.03068213E-03  1.00000000E+00
  1.00000000E+00  1.00000000E+00  1.00000000E+00  1.96665025E-03  1.52306019E-02
  7.61269097E-02  2.60801033E-01  6.16462078E-01  2.21006028E-01  1.14660081E-01
  9.19999648E-01 -3.03068213E-03  1.00000000E+00  1.00000000E+00  1.00000000E+00
  1.00000000E+00  2.54938145E-02  1.90373109E-01  8.52161486E-01  1.00000000E+00
  1.00000000E+00  1.00000000E+00  1.00000000E+00  2.54938145E-02  1.90373109E-01
  8.52161486E-01  1.00000000E+00  1.00000000E+00  1.00000000E+00  1.00000000E+00
  2.54938145E-02  1.90373109E-01  8.52161486E-01  1.00000000E+00  1.00000000E+00
  1.00000000E+00  1.00000000E+00  2.54938145E-02  1.90373109E-01  8.52161486E-01
  1.00000000E+00  1.00000000E+00  1.00000000E+00  1.00000000E+00  2.54938145E-02