 Entering Gaussian System, Link 0=/apps/cent7/gaussian/g16-A.03/g16-haswell/g16/g16
 Initial command:
 /apps/cent7/gaussian/g16-A.03/g16-haswell/g16/l1.exe "/scratch/brown/finej/gaussian/Gau-175281.inp" -scrdir="/scratch/brown/finej/gaussian/"
 Entering Link 1 = /apps/cent7/gaussian/g16-A.03/g16-haswell/g16/l1.exe PID=    175282.
  
 Copyright (c) 1988,1990,1992,1993,1995,1998,2003,2009,2016,
            Gaussian, Inc.  All Rights Reserved.
  
 This is part of the Gaussian(R) 16 program.  It is based on
 the Gaussian(R) 09 system (copyright 2009, Gaussian, Inc.),
 the Gaussian(R) 03 system (copyright 2003, Gaussian, Inc.),
 the Gaussian(R) 98 system (copyright 1998, Gaussian, Inc.),
 the Gaussian(R) 94 system (copyright 1995, Gaussian, Inc.),
 the Gaussian 92(TM) system (copyright 1992, Gaussian, Inc.),
 the Gaussian 90(TM) system (copyright 1990, Gaussian, Inc.),
 the Gaussian 88(TM) system (copyright 1988, Gaussian, Inc.),
 the Gaussian 86(TM) system (copyright 1986, Carnegie Mellon
 University), and the Gaussian 82(TM) system (copyright 1983,
 Carnegie Mellon University). Gaussian is a federally registered
 trademark of Gaussian, Inc.
  
 This software contains proprietary and confidential information,
 including trade secrets, belonging to Gaussian, Inc.
  
 This software is provided under written license and may be
 used, copied, transmitted, or stored only in accord with that
 written license.
  
 The following legend is applicable only to US Government
 contracts under FAR:
  
                    RESTRICTED RIGHTS LEGEND
  
 Use, reproduction and disclosure by the US Government is
 subject to restrictions as set forth in subparagraphs (a)
 and (c) of the Commercial Computer Software - Restricted
 Rights clause in FAR 52.227-19.
  
 Gaussian, Inc.
 340 Quinnipiac St., Bldg. 40, Wallingford CT 06492
  
  
 ---------------------------------------------------------------
 Warning -- This program may not be used in any manner that
 competes with the business of Gaussian, Inc. or will provide
 assistance to any competitor of Gaussian, Inc.  The licensee
 of this program is prohibited from giving any competitor of
 Gaussian, Inc. access to this program.  By using this program,
 the user acknowledges that Gaussian, Inc. is engaged in the
 business of creating and licensing software in the field of
 computational chemistry and represents and warrants to the
 licensee that it is not a competitor of Gaussian, Inc. and that
 it will not use this program in any manner prohibited above.
 ---------------------------------------------------------------
  

 Cite this work as:
 Gaussian 16, Revision A.03,
 M. J. Frisch, G. W. Trucks, H. B. Schlegel, G. E. Scuseria, 
 M. A. Robb, J. R. Cheeseman, G. Scalmani, V. Barone, 
 G. A. Petersson, H. Nakatsuji, X. Li, M. Caricato, A. V. Marenich, 
 J. Bloino, B. G. Janesko, R. Gomperts, B. Mennucci, H. P. Hratchian, 
 J. V. Ortiz, A. F. Izmaylov, J. L. Sonnenberg, D. Williams-Young, 
 F. Ding, F. Lipparini, F. Egidi, J. Goings, B. Peng, A. Petrone, 
 T. Henderson, D. Ranasinghe, V. G. Zakrzewski, J. Gao, N. Rega, 
 G. Zheng, W. Liang, M. Hada, M. Ehara, K. Toyota, R. Fukuda, 
 J. Hasegawa, M. Ishida, T. Nakajima, Y. Honda, O. Kitao, H. Nakai, 
 T. Vreven, K. Throssell, J. A. Montgomery, Jr., J. E. Peralta, 
 F. Ogliaro, M. J. Bearpark, J. J. Heyd, E. N. Brothers, K. N. Kudin, 
 V. N. Staroverov, T. A. Keith, R. Kobayashi, J. Normand, 
 K. Raghavachari, A. P. Rendell, J. C. Burant, S. S. Iyengar, 
 J. Tomasi, M. Cossi, J. M. Millam, M. Klene, C. Adamo, R. Cammi, 
 J. W. Ochterski, R. L. Martin, K. Morokuma, O. Farkas, 
 J. B. Foresman, and D. J. Fox, Gaussian, Inc., Wallingford CT, 2016.
 
 ******************************************
 Gaussian 16:  ES64L-G16RevA.03 25-Dec-2016
                13-Oct-2019 
 ******************************************
 %chk=35.chk
 %nprocshared=24
 Will use up to   24 processors via shared memory.
 %mem=80GB
 -------------------------------------------------------------------
 #P opt freq m062x/6-311++g(d,p) geom=connectivity temperature=0.001
 -------------------------------------------------------------------
 1/18=20,19=15,26=3,38=1,57=2,112=-1000/1,3;
 2/9=110,12=2,17=6,18=5,40=1/2;
 3/5=4,6=6,7=1111,11=2,25=1,30=1,71=1,74=-55/1,2,3;
 4//1;
 5/5=2,38=5/2;
 6/7=2,8=2,9=2,10=2,28=1/1;
 7//1,2,3,16;
 1/18=20,19=15,26=3/3(2);
 2/9=110/2;
 99//99;
 2/9=110/2;
 3/5=4,6=6,7=1111,11=2,25=1,30=1,71=1,74=-55/1,2,3;
 4/5=5,16=3,69=1/1;
 5/5=2,38=5/2;
 7//1,2,3,16;
 1/18=20,19=15,26=3/3(-5);
 2/9=110/2;
 6/7=2,8=2,9=2,10=2,19=2,28=1/1;
 99/9=1/99;
 Leave Link    1 at Sun Oct 13 23:16:55 2019, MaxMem= 10737418240 cpu:               1.6 elap:               0.1
 (Enter /apps/cent7/gaussian/g16-A.03/g16-haswell/g16/l101.exe)
 -------------------
 Title Card Required
 -------------------
 Symbolic Z-matrix:
 Charge =  0 Multiplicity = 1
 O                    -2.8846    10.4796   5.3846 
 C                    -2.6308    9.4117    4.7825 
 O                    -3.6706    8.6661    4.3326 
 C                    -1.2227    9.0165    4.5703 
 C                    -1.0619    7.6891    3.9727 
 C                    -0.9032    7.4404    2.6338 
 C                    -0.874     8.3204    1.5301 
 C                    -0.7303    7.7895    0.2334 
 F                    -0.6725    8.5886   -0.7959 
 C                    -0.6619    6.3945    0.0478 
 C                    -0.7376    5.5247    1.1529 
 C                    -0.803     6.0602    2.4594 
 C                    -1.0674    6.4993    4.607 
 C                    -1.2725    6.3054    6.0444 
 C                    -0.8257    5.4794    3.7155 
 C                    -0.6215    4.185     4.0615 
 C                    -0.2248    3.1189    3.2672 
 C                    -0.9512    1.9054    3.3056 
 C                    -0.518     0.786     2.5734 
 C                     0.6478    0.8552    1.7787 
 S                     1.2237   -0.5685    0.8914 
 C                    -0.2035   -1.2592   -0.0224 
 O                     2.2033   -0.0382   -0.2631 
 C                     1.3835    2.0588    1.7485 
 C                     0.9596    3.1725    2.495 
 H                    -4.16      8.3152    5.0803 
 H                    -0.8206    9.7185    3.8397 
 H                    -0.7772    8.9481    5.5628 
 H                    -0.9615    9.3969    1.6773 
 H                    -0.5497    5.9858   -0.9565 
 H                    -0.7456    4.4457    0.9982 
 H                    -1.3042    5.2387    6.2663 
 H                    -0.452     6.7666    6.594 
 H                    -2.2141    6.7666    6.3425 
 H                    -0.7995    3.9738    5.1159 
 H                    -1.8569    1.8319    3.9075 
 H                    -1.0894   -0.1409    2.622 
 H                    -0.9488   -1.6198    0.6866 
 H                    -0.6436   -0.4834   -0.649 
 H                     0.1318   -2.0856   -0.649 
 H                     2.2872    2.129     1.1431 
 H                     1.5545    4.0856    2.475 
 
 ITRead=  0  0  0  0  0  0  0  0  0  0  0  0  0  0  0  0  0  0  0  0
 ITRead=  0  0  0  0  0  0  0  0  0  0  0  0  0  0  0  0  0  0  0  0
 ITRead=  0  0
 MicOpt= -1 -1 -1 -1 -1 -1 -1 -1 -1 -1 -1 -1 -1 -1 -1 -1 -1 -1 -1 -1
 MicOpt= -1 -1 -1 -1 -1 -1 -1 -1 -1 -1 -1 -1 -1 -1 -1 -1 -1 -1 -1 -1
 MicOpt= -1 -1
 NAtoms=     42 NQM=       42 NQMF=       0 NMMI=      0 NMMIF=      0
                NMic=       0 NMicF=      0.
                    Isotopes and Nuclear Properties:
 (Nuclear quadrupole moments (NQMom) in fm**2, nuclear magnetic moments (NMagM)
  in nuclear magnetons)

  Atom         1           2           3           4           5           6           7           8           9          10
 IAtWgt=          16          12          16          12          12          12          12          12          19          12
 AtmWgt=  15.9949146  12.0000000  15.9949146  12.0000000  12.0000000  12.0000000  12.0000000  12.0000000  18.9984033  12.0000000
 NucSpn=           0           0           0           0           0           0           0           0           1           0
 AtZEff=  -0.0000000  -0.0000000  -0.0000000  -0.0000000  -0.0000000  -0.0000000  -0.0000000  -0.0000000  -0.0000000  -0.0000000
 NQMom=    0.0000000   0.0000000   0.0000000   0.0000000   0.0000000   0.0000000   0.0000000   0.0000000   0.0000000   0.0000000
 NMagM=    0.0000000   0.0000000   0.0000000   0.0000000   0.0000000   0.0000000   0.0000000   0.0000000   2.6288670   0.0000000
 AtZNuc=   8.0000000   6.0000000   8.0000000   6.0000000   6.0000000   6.0000000   6.0000000   6.0000000   9.0000000   6.0000000

  Atom        11          12          13          14          15          16          17          18          19          20
 IAtWgt=          12          12          12          12          12          12          12          12          12          12
 AtmWgt=  12.0000000  12.0000000  12.0000000  12.0000000  12.0000000  12.0000000  12.0000000  12.0000000  12.0000000  12.0000000
 NucSpn=           0           0           0           0           0           0           0           0           0           0
 AtZEff=  -0.0000000  -0.0000000  -0.0000000  -0.0000000  -0.0000000  -0.0000000  -0.0000000  -0.0000000  -0.0000000  -0.0000000
 NQMom=    0.0000000   0.0000000   0.0000000   0.0000000   0.0000000   0.0000000   0.0000000   0.0000000   0.0000000   0.0000000
 NMagM=    0.0000000   0.0000000   0.0000000   0.0000000   0.0000000   0.0000000   0.0000000   0.0000000   0.0000000   0.0000000
 AtZNuc=   6.0000000   6.0000000   6.0000000   6.0000000   6.0000000   6.0000000   6.0000000   6.0000000   6.0000000   6.0000000

  Atom        21          22          23          24          25          26          27          28          29          30
 IAtWgt=          32          12          16          12          12           1           1           1           1           1
 AtmWgt=  31.9720718  12.0000000  15.9949146  12.0000000  12.0000000   1.0078250   1.0078250   1.0078250   1.0078250   1.0078250
 NucSpn=           0           0           0           0           0           1           1           1           1           1
 AtZEff=  -0.0000000  -0.0000000  -0.0000000  -0.0000000  -0.0000000  -0.0000000  -0.0000000  -0.0000000  -0.0000000  -0.0000000
 NQMom=    0.0000000   0.0000000   0.0000000   0.0000000   0.0000000   0.0000000   0.0000000   0.0000000   0.0000000   0.0000000
 NMagM=    0.0000000   0.0000000   0.0000000   0.0000000   0.0000000   2.7928460   2.7928460   2.7928460   2.7928460   2.7928460
 AtZNuc=  16.0000000   6.0000000   8.0000000   6.0000000   6.0000000   1.0000000   1.0000000   1.0000000   1.0000000   1.0000000

  Atom        31          32          33          34          35          36          37          38          39          40
 IAtWgt=           1           1           1           1           1           1           1           1           1           1
 AtmWgt=   1.0078250   1.0078250   1.0078250   1.0078250   1.0078250   1.0078250   1.0078250   1.0078250   1.0078250   1.0078250
 NucSpn=           1           1           1           1           1           1           1           1           1           1
 AtZEff=  -0.0000000  -0.0000000  -0.0000000  -0.0000000  -0.0000000  -0.0000000  -0.0000000  -0.0000000  -0.0000000  -0.0000000
 NQMom=    0.0000000   0.0000000   0.0000000   0.0000000   0.0000000   0.0000000   0.0000000   0.0000000   0.0000000   0.0000000
 NMagM=    2.7928460   2.7928460   2.7928460   2.7928460   2.7928460   2.7928460   2.7928460   2.7928460   2.7928460   2.7928460
 AtZNuc=   1.0000000   1.0000000   1.0000000   1.0000000   1.0000000   1.0000000   1.0000000   1.0000000   1.0000000   1.0000000

  Atom        41          42
 IAtWgt=           1           1
 AtmWgt=   1.0078250   1.0078250
 NucSpn=           1           1
 AtZEff=  -0.0000000  -0.0000000
 NQMom=    0.0000000   0.0000000
 NMagM=    2.7928460   2.7928460
 AtZNuc=   1.0000000   1.0000000
 Leave Link  101 at Sun Oct 13 23:16:55 2019, MaxMem= 10737418240 cpu:               9.1 elap:               0.4
 (Enter /apps/cent7/gaussian/g16-A.03/g16-haswell/g16/l103.exe)

 GradGradGradGradGradGradGradGradGradGradGradGradGradGradGradGradGradGrad
 Berny optimization.
 Initialization pass.
                           ----------------------------
                           !    Initial Parameters    !
                           ! (Angstroms and Degrees)  !
 --------------------------                            --------------------------
 ! Name  Definition              Value          Derivative Info.                !
 --------------------------------------------------------------------------------
 ! R1    R(1,2)                  1.2519         estimate D2E/DX2                !
 ! R2    R(2,3)                  1.3563         estimate D2E/DX2                !
 ! R3    R(2,4)                  1.4778         estimate D2E/DX2                !
 ! R4    R(3,26)                 0.9601         estimate D2E/DX2                !
 ! R5    R(4,5)                  1.4646         estimate D2E/DX2                !
 ! R6    R(4,27)                 1.0901         estimate D2E/DX2                !
 ! R7    R(4,28)                 1.09           estimate D2E/DX2                !
 ! R8    R(5,6)                  1.371          estimate D2E/DX2                !
 ! R9    R(5,13)                 1.3483         estimate D2E/DX2                !
 ! R10   R(6,7)                  1.4119         estimate D2E/DX2                !
 ! R11   R(6,12)                 1.3948         estimate D2E/DX2                !
 ! R12   R(7,8)                  1.4085         estimate D2E/DX2                !
 ! R13   R(7,29)                 1.09           estimate D2E/DX2                !
 ! R14   R(8,9)                  1.3044         estimate D2E/DX2                !
 ! R15   R(8,10)                 1.409          estimate D2E/DX2                !
 ! R16   R(10,11)                1.4084         estimate D2E/DX2                !
 ! R17   R(10,30)                1.0901         estimate D2E/DX2                !
 ! R18   R(11,12)                1.4135         estimate D2E/DX2                !
 ! R19   R(11,31)                1.0901         estimate D2E/DX2                !
 ! R20   R(12,15)                1.3841         estimate D2E/DX2                !
 ! R21   R(13,14)                1.4648         estimate D2E/DX2                !
 ! R22   R(13,15)                1.376          estimate D2E/DX2                !
 ! R23   R(14,32)                1.09           estimate D2E/DX2                !
 ! R24   R(14,33)                1.0899         estimate D2E/DX2                !
 ! R25   R(14,34)                1.09           estimate D2E/DX2                !
 ! R26   R(15,16)                1.3553         estimate D2E/DX2                !
 ! R27   R(16,17)                1.3874         estimate D2E/DX2                !
 ! R28   R(16,35)                1.09           estimate D2E/DX2                !
 ! R29   R(17,18)                1.4148         estimate D2E/DX2                !
 ! R30   R(17,25)                1.4149         estimate D2E/DX2                !
 ! R31   R(18,19)                1.406          estimate D2E/DX2                !
 ! R32   R(18,36)                1.0899         estimate D2E/DX2                !
 ! R33   R(19,20)                1.4126         estimate D2E/DX2                !
 ! R34   R(19,37)                1.09           estimate D2E/DX2                !
 ! R35   R(20,21)                1.7737         estimate D2E/DX2                !
 ! R36   R(20,24)                1.411          estimate D2E/DX2                !
 ! R37   R(21,22)                1.83           estimate D2E/DX2                !
 ! R38   R(21,23)                1.6043         estimate D2E/DX2                !
 ! R39   R(22,38)                1.09           estimate D2E/DX2                !
 ! R40   R(22,39)                1.09           estimate D2E/DX2                !
 ! R41   R(22,40)                1.0899         estimate D2E/DX2                !
 ! R42   R(24,25)                1.4062         estimate D2E/DX2                !
 ! R43   R(24,41)                1.09           estimate D2E/DX2                !
 ! R44   R(25,42)                1.09           estimate D2E/DX2                !
 ! A1    A(1,2,3)              118.2316         estimate D2E/DX2                !
 ! A2    A(1,2,4)              119.3621         estimate D2E/DX2                !
 ! A3    A(3,2,4)              122.4009         estimate D2E/DX2                !
 ! A4    A(2,3,26)             109.4751         estimate D2E/DX2                !
 ! A5    A(2,4,5)              113.9273         estimate D2E/DX2                !
 ! A6    A(2,4,27)             105.9913         estimate D2E/DX2                !
 ! A7    A(2,4,28)             105.9892         estimate D2E/DX2                !
 ! A8    A(5,4,27)             105.6463         estimate D2E/DX2                !
 ! A9    A(5,4,28)             105.651          estimate D2E/DX2                !
 ! A10   A(27,4,28)            119.9936         estimate D2E/DX2                !
 ! A11   A(4,5,6)              125.1413         estimate D2E/DX2                !
 ! A12   A(4,5,13)             127.3999         estimate D2E/DX2                !
 ! A13   A(6,5,13)             107.4465         estimate D2E/DX2                !
 ! A14   A(5,6,7)              130.7487         estimate D2E/DX2                !
 ! A15   A(5,6,12)             108.0548         estimate D2E/DX2                !
 ! A16   A(7,6,12)             121.1672         estimate D2E/DX2                !
 ! A17   A(6,7,8)              119.1334         estimate D2E/DX2                !
 ! A18   A(6,7,29)             120.5518         estimate D2E/DX2                !
 ! A19   A(8,7,29)             120.3147         estimate D2E/DX2                !
 ! A20   A(7,8,9)              120.0052         estimate D2E/DX2                !
 ! A21   A(7,8,10)             119.961          estimate D2E/DX2                !
 ! A22   A(9,8,10)             120.031          estimate D2E/DX2                !
 ! A23   A(8,10,11)            120.3646         estimate D2E/DX2                !
 ! A24   A(8,10,30)            119.84           estimate D2E/DX2                !
 ! A25   A(11,10,30)           119.7953         estimate D2E/DX2                !
 ! A26   A(10,11,12)           119.5893         estimate D2E/DX2                !
 ! A27   A(10,11,31)           120.0237         estimate D2E/DX2                !
 ! A28   A(12,11,31)           120.387          estimate D2E/DX2                !
 ! A29   A(6,12,11)            119.5896         estimate D2E/DX2                !
 ! A30   A(6,12,15)            107.4932         estimate D2E/DX2                !
 ! A31   A(11,12,15)           132.8927         estimate D2E/DX2                !
 ! A32   A(5,13,14)            125.3799         estimate D2E/DX2                !
 ! A33   A(5,13,15)            110.3987         estimate D2E/DX2                !
 ! A34   A(14,13,15)           124.2103         estimate D2E/DX2                !
 ! A35   A(13,14,32)           109.4738         estimate D2E/DX2                !
 ! A36   A(13,14,33)           109.4743         estimate D2E/DX2                !
 ! A37   A(13,14,34)           109.4689         estimate D2E/DX2                !
 ! A38   A(32,14,33)           109.4713         estimate D2E/DX2                !
 ! A39   A(32,14,34)           109.4671         estimate D2E/DX2                !
 ! A40   A(33,14,34)           109.4719         estimate D2E/DX2                !
 ! A41   A(12,15,13)           106.2504         estimate D2E/DX2                !
 ! A42   A(12,15,16)           129.0494         estimate D2E/DX2                !
 ! A43   A(13,15,16)           124.6773         estimate D2E/DX2                !
 ! A44   A(15,16,17)           129.1096         estimate D2E/DX2                !
 ! A45   A(15,16,35)           114.0422         estimate D2E/DX2                !
 ! A46   A(17,16,35)           116.8482         estimate D2E/DX2                !
 ! A47   A(16,17,18)           119.7843         estimate D2E/DX2                !
 ! A48   A(16,17,25)           121.5132         estimate D2E/DX2                !
 ! A49   A(18,17,25)           118.4951         estimate D2E/DX2                !
 ! A50   A(17,18,19)           120.7003         estimate D2E/DX2                !
 ! A51   A(17,18,36)           119.9643         estimate D2E/DX2                !
 ! A52   A(19,18,36)           119.3354         estimate D2E/DX2                !
 ! A53   A(18,19,20)           120.5474         estimate D2E/DX2                !
 ! A54   A(18,19,37)           119.4926         estimate D2E/DX2                !
 ! A55   A(20,19,37)           119.96           estimate D2E/DX2                !
 ! A56   A(19,20,21)           120.6695         estimate D2E/DX2                !
 ! A57   A(19,20,24)           118.9567         estimate D2E/DX2                !
 ! A58   A(21,20,24)           120.3122         estimate D2E/DX2                !
 ! A59   A(20,21,22)           107.4296         estimate D2E/DX2                !
 ! A60   A(20,21,23)           107.0342         estimate D2E/DX2                !
 ! A61   A(22,21,23)           103.9825         estimate D2E/DX2                !
 ! A62   A(21,22,38)           109.4694         estimate D2E/DX2                !
 ! A63   A(21,22,39)           109.4688         estimate D2E/DX2                !
 ! A64   A(21,22,40)           109.4701         estimate D2E/DX2                !
 ! A65   A(38,22,39)           109.4684         estimate D2E/DX2                !
 ! A66   A(38,22,40)           109.4778         estimate D2E/DX2                !
 ! A67   A(39,22,40)           109.4728         estimate D2E/DX2                !
 ! A68   A(20,24,25)           120.4687         estimate D2E/DX2                !
 ! A69   A(20,24,41)           119.9419         estimate D2E/DX2                !
 ! A70   A(25,24,41)           119.5894         estimate D2E/DX2                !
 ! A71   A(17,25,24)           120.8022         estimate D2E/DX2                !
 ! A72   A(17,25,42)           119.9088         estimate D2E/DX2                !
 ! A73   A(24,25,42)           119.2889         estimate D2E/DX2                !
 ! D1    D(1,2,3,26)           -67.0537         estimate D2E/DX2                !
 ! D2    D(4,2,3,26)           113.7942         estimate D2E/DX2                !
 ! D3    D(1,2,4,5)            174.3264         estimate D2E/DX2                !
 ! D4    D(1,2,4,27)           -69.9462         estimate D2E/DX2                !
 ! D5    D(1,2,4,28)            58.5946         estimate D2E/DX2                !
 ! D6    D(3,2,4,5)             -6.5307         estimate D2E/DX2                !
 ! D7    D(3,2,4,27)           109.1967         estimate D2E/DX2                !
 ! D8    D(3,2,4,28)          -122.2626         estimate D2E/DX2                !
 ! D9    D(2,4,5,6)             95.0334         estimate D2E/DX2                !
 ! D10   D(2,4,5,13)           -83.5323         estimate D2E/DX2                !
 ! D11   D(27,4,5,6)           -20.896          estimate D2E/DX2                !
 ! D12   D(27,4,5,13)          160.5383         estimate D2E/DX2                !
 ! D13   D(28,4,5,6)          -149.0368         estimate D2E/DX2                !
 ! D14   D(28,4,5,13)           32.3975         estimate D2E/DX2                !
 ! D15   D(4,5,6,7)             -1.1356         estimate D2E/DX2                !
 ! D16   D(4,5,6,12)          -179.1361         estimate D2E/DX2                !
 ! D17   D(13,5,6,7)           177.6701         estimate D2E/DX2                !
 ! D18   D(13,5,6,12)           -0.3304         estimate D2E/DX2                !
 ! D19   D(4,5,13,14)            1.5953         estimate D2E/DX2                !
 ! D20   D(4,5,13,15)         -177.2346         estimate D2E/DX2                !
 ! D21   D(6,5,13,14)         -177.1753         estimate D2E/DX2                !
 ! D22   D(6,5,13,15)            3.9948         estimate D2E/DX2                !
 ! D23   D(5,6,7,8)           -178.2853         estimate D2E/DX2                !
 ! D24   D(5,6,7,29)             1.7061         estimate D2E/DX2                !
 ! D25   D(12,6,7,8)            -0.5071         estimate D2E/DX2                !
 ! D26   D(12,6,7,29)          179.4842         estimate D2E/DX2                !
 ! D27   D(5,6,12,11)          175.0554         estimate D2E/DX2                !
 ! D28   D(5,6,12,15)           -3.3686         estimate D2E/DX2                !
 ! D29   D(7,6,12,11)           -3.1743         estimate D2E/DX2                !
 ! D30   D(7,6,12,15)          178.4016         estimate D2E/DX2                !
 ! D31   D(6,7,8,9)           -178.5343         estimate D2E/DX2                !
 ! D32   D(6,7,8,10)             2.0715         estimate D2E/DX2                !
 ! D33   D(29,7,8,9)             1.4743         estimate D2E/DX2                !
 ! D34   D(29,7,8,10)         -177.9198         estimate D2E/DX2                !
 ! D35   D(7,8,10,11)            0.0555         estimate D2E/DX2                !
 ! D36   D(7,8,10,30)         -179.9401         estimate D2E/DX2                !
 ! D37   D(9,8,10,11)         -179.3385         estimate D2E/DX2                !
 ! D38   D(9,8,10,30)            0.6659         estimate D2E/DX2                !
 ! D39   D(8,10,11,12)          -3.74           estimate D2E/DX2                !
 ! D40   D(8,10,11,31)         176.2543         estimate D2E/DX2                !
 ! D41   D(30,10,11,12)        176.2556         estimate D2E/DX2                !
 ! D42   D(30,10,11,31)         -3.7502         estimate D2E/DX2                !
 ! D43   D(10,11,12,6)           5.2721         estimate D2E/DX2                !
 ! D44   D(10,11,12,15)       -176.7797         estimate D2E/DX2                !
 ! D45   D(31,11,12,6)        -174.7222         estimate D2E/DX2                !
 ! D46   D(31,11,12,15)          3.2261         estimate D2E/DX2                !
 ! D47   D(6,12,15,13)           5.6479         estimate D2E/DX2                !
 ! D48   D(6,12,15,16)        -172.651          estimate D2E/DX2                !
 ! D49   D(11,12,15,13)       -172.4815         estimate D2E/DX2                !
 ! D50   D(11,12,15,16)          9.2196         estimate D2E/DX2                !
 ! D51   D(5,13,14,32)         175.6076         estimate D2E/DX2                !
 ! D52   D(5,13,14,33)         -64.3888         estimate D2E/DX2                !
 ! D53   D(5,13,14,34)          55.6125         estimate D2E/DX2                !
 ! D54   D(15,13,14,32)         -5.7186         estimate D2E/DX2                !
 ! D55   D(15,13,14,33)        114.285          estimate D2E/DX2                !
 ! D56   D(15,13,14,34)       -125.7137         estimate D2E/DX2                !
 ! D57   D(5,13,15,12)          -6.0444         estimate D2E/DX2                !
 ! D58   D(5,13,15,16)         172.3492         estimate D2E/DX2                !
 ! D59   D(14,13,15,12)        175.1092         estimate D2E/DX2                !
 ! D60   D(14,13,15,16)         -6.4972         estimate D2E/DX2                !
 ! D61   D(12,15,16,17)          6.0727         estimate D2E/DX2                !
 ! D62   D(12,15,16,35)       -173.9261         estimate D2E/DX2                !
 ! D63   D(13,15,16,17)       -171.9413         estimate D2E/DX2                !
 ! D64   D(13,15,16,35)          8.0599         estimate D2E/DX2                !
 ! D65   D(15,16,17,18)       -130.2789         estimate D2E/DX2                !
 ! D66   D(15,16,17,25)         55.0336         estimate D2E/DX2                !
 ! D67   D(35,16,17,18)         49.7199         estimate D2E/DX2                !
 ! D68   D(35,16,17,25)       -124.9676         estimate D2E/DX2                !
 ! D69   D(16,17,18,19)       -175.9739         estimate D2E/DX2                !
 ! D70   D(16,17,18,36)          4.0247         estimate D2E/DX2                !
 ! D71   D(25,17,18,19)         -1.1268         estimate D2E/DX2                !
 ! D72   D(25,17,18,36)        178.8719         estimate D2E/DX2                !
 ! D73   D(16,17,25,24)        176.735          estimate D2E/DX2                !
 ! D74   D(16,17,25,42)         -3.2597         estimate D2E/DX2                !
 ! D75   D(18,17,25,24)          1.981          estimate D2E/DX2                !
 ! D76   D(18,17,25,42)       -178.0137         estimate D2E/DX2                !
 ! D77   D(17,18,19,20)         -0.3762         estimate D2E/DX2                !
 ! D78   D(17,18,19,37)        179.6337         estimate D2E/DX2                !
 ! D79   D(36,18,19,20)        179.6252         estimate D2E/DX2                !
 ! D80   D(36,18,19,37)         -0.365          estimate D2E/DX2                !
 ! D81   D(18,19,20,21)        178.1968         estimate D2E/DX2                !
 ! D82   D(18,19,20,24)          1.0418         estimate D2E/DX2                !
 ! D83   D(37,19,20,21)         -1.8131         estimate D2E/DX2                !
 ! D84   D(37,19,20,24)       -178.9681         estimate D2E/DX2                !
 ! D85   D(19,20,21,22)         49.4057         estimate D2E/DX2                !
 ! D86   D(19,20,21,23)        160.5711         estimate D2E/DX2                !
 ! D87   D(24,20,21,22)       -133.4779         estimate D2E/DX2                !
 ! D88   D(24,20,21,23)        -22.3125         estimate D2E/DX2                !
 ! D89   D(19,20,24,25)         -0.1911         estimate D2E/DX2                !
 ! D90   D(19,20,24,41)        179.8164         estimate D2E/DX2                !
 ! D91   D(21,20,24,25)       -177.3565         estimate D2E/DX2                !
 ! D92   D(21,20,24,41)          2.6509         estimate D2E/DX2                !
 ! D93   D(20,21,22,38)        -64.8923         estimate D2E/DX2                !
 ! D94   D(20,21,22,39)         55.1017         estimate D2E/DX2                !
 ! D95   D(20,21,22,40)        175.1014         estimate D2E/DX2                !
 ! D96   D(23,21,22,38)       -178.1326         estimate D2E/DX2                !
 ! D97   D(23,21,22,39)        -58.1386         estimate D2E/DX2                !
 ! D98   D(23,21,22,40)         61.8611         estimate D2E/DX2                !
 ! D99   D(20,24,25,17)         -1.3392         estimate D2E/DX2                !
 ! D100  D(20,24,25,42)        178.6555         estimate D2E/DX2                !
 ! D101  D(41,24,25,17)        178.6534         estimate D2E/DX2                !
 ! D102  D(41,24,25,42)         -1.3519         estimate D2E/DX2                !
 --------------------------------------------------------------------------------
 Trust Radius=3.00D-01 FncErr=1.00D-07 GrdErr=1.00D-06 EigMax=2.50D+02 EigMin=1.00D-04
 Number of steps in this run=    229 maximum allowed number of steps=    252.
 GradGradGradGradGradGradGradGradGradGradGradGradGradGradGradGradGradGrad

 Leave Link  103 at Sun Oct 13 23:16:55 2019, MaxMem= 10737418240 cpu:               0.3 elap:               0.0
 (Enter /apps/cent7/gaussian/g16-A.03/g16-haswell/g16/l202.exe)
                          Input orientation:                          
 ---------------------------------------------------------------------
 Center     Atomic      Atomic             Coordinates (Angstroms)
 Number     Number       Type             X           Y           Z
 ---------------------------------------------------------------------
      1          8           0       -2.884600   10.479600    5.384600
      2          6           0       -2.630800    9.411700    4.782500
      3          8           0       -3.670600    8.666100    4.332600
      4          6           0       -1.222700    9.016500    4.570300
      5          6           0       -1.061900    7.689100    3.972700
      6          6           0       -0.903200    7.440400    2.633800
      7          6           0       -0.874000    8.320400    1.530100
      8          6           0       -0.730300    7.789500    0.233400
      9          9           0       -0.672500    8.588600   -0.795900
     10          6           0       -0.661900    6.394500    0.047800
     11          6           0       -0.737600    5.524700    1.152900
     12          6           0       -0.803000    6.060200    2.459400
     13          6           0       -1.067400    6.499300    4.607000
     14          6           0       -1.272500    6.305400    6.044400
     15          6           0       -0.825700    5.479400    3.715500
     16          6           0       -0.621500    4.185000    4.061500
     17          6           0       -0.224800    3.118900    3.267200
     18          6           0       -0.951200    1.905400    3.305600
     19          6           0       -0.518000    0.786000    2.573400
     20          6           0        0.647800    0.855200    1.778700
     21         16           0        1.223700   -0.568500    0.891400
     22          6           0       -0.203500   -1.259200   -0.022400
     23          8           0        2.203300   -0.038200   -0.263100
     24          6           0        1.383500    2.058800    1.748500
     25          6           0        0.959600    3.172500    2.495000
     26          1           0       -4.160000    8.315200    5.080300
     27          1           0       -0.820600    9.718500    3.839700
     28          1           0       -0.777200    8.948100    5.562800
     29          1           0       -0.961500    9.396900    1.677300
     30          1           0       -0.549700    5.985800   -0.956500
     31          1           0       -0.745600    4.445700    0.998200
     32          1           0       -1.304200    5.238700    6.266300
     33          1           0       -0.452000    6.766600    6.594000
     34          1           0       -2.214100    6.766600    6.342500
     35          1           0       -0.799500    3.973800    5.115900
     36          1           0       -1.856900    1.831900    3.907500
     37          1           0       -1.089400   -0.140900    2.622000
     38          1           0       -0.948800   -1.619800    0.686600
     39          1           0       -0.643600   -0.483400   -0.649000
     40          1           0        0.131800   -2.085600   -0.649000
     41          1           0        2.287200    2.129000    1.143100
     42          1           0        1.554500    4.085600    2.475000
 ---------------------------------------------------------------------
                    Distance matrix (angstroms):
                    1          2          3          4          5
     1  O    0.000000
     2  C    1.251938   0.000000
     3  O    2.239036   1.356287   0.000000
     4  C    2.359165   1.477822   2.484250   0.000000
     5  C    3.619750   2.466693   2.808803   1.464573   0.000000
     6  C    4.552975   3.389327   3.470845   2.517182   1.371018
     7  C    4.854053   3.854269   3.974228   3.138306   2.529850
     8  C    6.197783   5.190158   5.120277   4.533948   3.755317
     9  F    6.831387   5.969169   5.941054   5.411277   4.868293
    10  C    7.078833   5.949575   5.707184   5.257603   4.152208
    11  C    6.860607   5.645084   5.346155   4.909848   3.569464
    12  C    5.693940   4.468803   4.303803   3.656741   2.238397
    13  C    4.444060   3.310150   3.398083   2.522253   1.348329
    14  C    4.523068   3.617523   3.775453   3.086343   2.500184
    15  C    5.659237   4.456440   4.316170   3.660515   2.237122
    16  C    6.818666   5.645841   5.426856   4.895274   3.532783
    17  C    8.107886   6.905382   6.616649   6.121728   4.699489
    18  C    9.032009   7.832422   7.359139   7.227788   5.823097
    19  C   10.366751   9.151325   8.667736   8.498549   7.064464
    20  C   10.867817   9.642911   9.283380   8.826019   7.378272
    21  S   12.614574  11.384297  11.003357  10.554213   9.105292
    22  C   13.199370  11.951860  11.379736  11.301401   9.837162
    23  O   12.977186  11.752753  11.462460  10.820667   9.397590
    24  C   10.116708   8.909820   8.710793   7.947605   6.528960
    25  C    8.747650   7.553227   7.415873   6.574317   5.164275
    26  H    2.530587   1.905111   0.960051   3.062622   3.349179
    27  H    2.688138   2.063934   3.077823   1.090076   2.048018
    28  H    2.611203   2.063886   3.156688   1.090048   2.048061
    29  H    4.314467   3.525486   3.863148   2.929570   2.862782
    30  H    8.115143   7.000278   6.700642   6.339053   5.240286
    31  H    7.760398   6.521968   6.122550   5.820630   4.412181
    32  H    5.544555   4.623360   4.591962   4.141839   3.365081
    33  H    4.600713   3.876242   4.368228   3.122722   2.845030
    34  H    3.892751   3.098999   3.125570   3.030778   2.791867
    35  H    6.837052   5.747658   5.556479   5.089755   3.896051
    36  H    8.832933   7.669284   7.083538   7.242927   5.911266
    37  H   11.119790   9.914426   9.335523   9.363312   7.945694
    38  H   13.123033  11.886947  11.247277  11.326474   9.872531
    39  H   12.712741  11.461377  10.848614  10.854702   9.398130
    40  H   14.261390  13.012343  12.444824  12.342301  10.877950
    41  H   10.699082   9.511555   9.402232   8.455930   7.080806
    42  H    8.309911   7.156021   7.192588   6.034641   4.698283
                    6          7          8          9         10
     6  C    0.000000
     7  C    1.411880   0.000000
     8  C    2.431807   1.408522   0.000000
     9  F    3.624145   2.350066   1.304362   0.000000
    10  C    2.799916   2.439527   1.408954   2.350748   0.000000
    11  C    2.427014   2.824327   2.444351   3.631741   1.408378
    12  C    1.394779   2.444820   2.819723   4.123932   2.438746
    13  C    2.192293   3.580659   4.572377   5.806242   4.578397
    14  C    3.613419   4.959630   6.021981   7.236208   6.028265
    15  C    2.240893   3.584632   4.179795   5.481179   3.783684
    16  C    3.565854   4.855232   5.259145   6.556571   4.581846
    17  C    4.420043   5.522190   5.592314   6.828385   4.613583
    18  C    5.575827   6.656620   6.641524   7.846346   5.554185
    19  C    6.665813   7.614617   7.387130   8.500389   6.152612
    20  C    6.819212   7.622787   7.236824   8.256951   5.949384
    21  S    8.467712   9.155371   8.608556   9.502370   7.262955
    22  C    9.122939   9.727721   9.067631   9.889258   7.667736
    23  O    8.600688   9.085788   8.374092   9.109104   7.048806
    24  C    5.913913   6.659703   6.293219   7.303382   5.086682
    25  C    4.658783   5.549234   5.411773   6.544304   4.358823
    26  H    4.166219   4.837535   5.960842   6.838650   6.422760
    27  H    2.578906   2.700331   4.090794   4.773614   5.045064
    28  H    3.296677   4.082407   5.454086   6.369715   6.078601
    29  H    2.178574   1.090035   2.173024   2.617936   3.429203
    30  H    3.889869   3.426180   2.168366   2.610640   1.090066
    31  H    3.415882   3.913145   3.430182   4.515281   2.169813
    32  H    4.266537   5.666881   6.575091   7.841909   6.357528
    33  H    4.042372   5.313705   6.448334   7.614389   6.560126
    34  H    3.990855   5.231573   6.369387   7.526817   6.493923
    35  H    4.264843   5.635286   6.197028   7.500792   5.618217
    36  H    5.829848   6.979882   7.089516   8.317317   6.094475
    37  H    7.583595   8.534181   8.290091   9.384030   7.037096
    38  H    9.267194   9.976205   9.422742  10.319185   8.044836
    39  H    8.580838   9.072401   8.320278   9.073235   6.913131
    40  H   10.128804  10.679183   9.951856  10.705467   8.545618
    41  H    6.372739   6.962499   6.478744   7.365187   5.300129
    42  H    4.161753   4.972321   4.895299   5.994608   4.016808
                   11         12         13         14         15
    11  C    0.000000
    12  C    1.413499   0.000000
    13  C    3.604084   2.207918   0.000000
    14  C    4.982207   3.623918   1.464849   0.000000
    15  C    2.564514   1.384063   1.376004   2.511112   0.000000
    16  C    3.204408   2.473063   2.419170   2.975196   1.355317
    17  C    3.243625   3.104529   3.732579   4.354802   2.476694
    18  C    4.216524   4.242686   4.776093   5.192712   3.599617
    19  C    4.951901   5.283125   6.089266   6.563603   4.840152
    20  C    4.910722   5.446118   6.541946   7.182509   5.225478
    21  S    6.406416   7.106743   8.307143   8.946224   6.982312
    22  C    6.905642   7.751925   9.075902   9.755614   7.730961
    23  O    6.449791   7.323956   8.783750   9.597239   7.446342
    24  C    4.106856   4.614907   5.822025   6.598690   4.522185
    25  C    3.196023   3.383318   4.431351   5.234078   3.162073
    26  H    5.909669   4.819086   3.617414   3.647799   4.584975
    27  H    4.981339   3.910076   3.318570   4.088296   4.240922
    28  H    5.582871   4.239307   2.644691   2.731506   3.930235
    29  H    3.913957   3.430797   4.121946   5.359632   4.418089
    30  H    2.167369   3.426087   5.611081   7.045366   4.707462
    31  H    1.090063   2.178304   4.164645   5.403725   2.908379
    32  H    5.152639   3.926646   2.097251   1.089997   2.606430
    33  H    5.588332   4.209171   2.097221   1.089948   3.175263
    34  H    5.536634   4.191500   2.097220   1.090037   3.238158
    35  H    4.256112   3.377879   2.590154   2.553860   2.056365
    36  H    4.741036   4.591973   4.785105   4.992000   3.795325
    37  H    5.863535   6.209839   6.930582   7.300762   5.731758
    38  H    7.162815   7.883304   9.016839   9.571813   7.719328
    39  H    6.273193   7.246120   8.750042   9.554314   7.391685
    40  H    7.868886   8.768698  10.137264  10.825089   8.786062
    41  H    4.547559   5.170717   6.507800   7.357753   5.247149
    42  H    3.012089   3.075239   4.152798   5.065576   3.024379
                   16         17         18         19         20
    16  C    0.000000
    17  C    1.387391   0.000000
    18  C    2.424183   1.414819   0.000000
    19  C    3.711921   2.451479   1.406000   0.000000
    20  C    4.232005   2.846296   2.447681   1.412596   0.000000
    21  S    6.004170   4.619469   4.083960   2.774403   1.773664
    22  C    6.818525   5.476284   4.652884   3.319628   2.905058
    23  O    6.672112   5.322215   5.144324   4.016281   2.717847
    24  C    3.727026   2.452935   2.810501   2.432320   1.410964
    25  C    2.445190   1.414910   2.431825   2.807994   2.445442
    26  H    5.533307   6.765698   7.384544   8.731413   9.469272
    27  H    5.541521   6.651124   7.832423   9.026884   9.217484
    28  H    4.996525   6.289237   7.397625   8.696182   9.046826
    29  H    5.741421   6.517959   7.666423   8.668753   8.692570
    30  H    5.331825   5.115107   5.914082   6.284832   5.936193
    31  H    3.076877   2.679551   3.437949   3.990797   3.929686
    32  H    2.537224   3.827957   4.472275   5.837993   6.569926
    33  H    3.620352   4.942159   5.890165   7.206744   7.703332
    34  H    3.795259   5.169188   5.869322   7.269831   7.997712
    35  H    1.089977   2.116324   2.752903   4.087251   4.791372
    36  H    2.662144   2.174880   1.089944   2.160181   3.429177
    37  H    4.583067   3.433673   2.161886   1.089956   2.172840
    38  H    6.722557   5.444167   4.391606   3.087633   3.141248
    39  H    6.631987   5.337470   4.630318   3.465691   3.058315
    40  H    7.878877   6.523083   5.721873   4.364881   3.848154
    41  H    4.604859   3.435382   3.900466   3.423237   2.171218
    42  H    2.694780   2.174396   3.423697   3.897730   3.426722
                   21         22         23         24         25
    21  S    0.000000
    22  C    1.830026   0.000000
    23  O    1.604277   2.709514   0.000000
    24  C    2.768187   4.082129   3.019274   0.000000
    25  C    4.078770   5.227817   4.411632   1.406158   0.000000
    26  H   11.200502  11.548185  11.782309   8.998546   7.703340
    27  H   10.894678  11.653606  11.007731   8.240278   6.915739
    28  H   10.788478  11.649574  11.116568   8.165780   6.766493
    29  H   10.232396  10.817394  10.139143   7.704012   6.565243
    30  H    7.036940   7.313168   6.659459   5.145446   4.701648
    31  H    5.388112   5.820771   5.512916   3.285317   2.601760
    32  H    8.306829   9.109445   9.098423   6.143778   4.859699
    33  H    9.440938  10.404421  10.018769   7.000808   5.631338
    34  H    9.764049  10.438771  10.461963   7.497396   6.147616
    35  H    6.524740   7.358100   7.351639   4.446583   3.256629
    36  H    4.934458   5.266189   6.113624   3.900379   3.424184
    37  H    2.920317   3.004707   4.379066   3.422998   3.897839
    38  H    2.422175   1.090039   3.652276   4.483230   5.466117
    39  H    2.422165   1.090037   2.907226   4.039792   5.081397
    40  H    2.422121   1.089950   2.938006   4.948819   6.182039
    41  H    2.910480   4.363700   2.584800   1.090005   2.163111
    42  H    4.927257   6.155847   4.992380   2.159852   1.089981
                   26         27         28         29         30
    26  H    0.000000
    27  H    3.828829   0.000000
    28  H    3.475155   1.887981   0.000000
    29  H    4.793838   2.190720   3.915673   0.000000
    30  H    7.409678   6.083582   7.164374   4.329213   0.000000
    31  H    6.579871   5.990173   6.411566   5.002217   2.496225
    32  H    4.362000   5.117701   3.812124   6.202176   7.300429
    33  H    4.294032   4.054103   2.434763   5.599286   7.591393
    34  H    2.788877   4.113340   2.726088   5.500143   7.526970
    35  H    5.490171   5.884786   4.994385   6.423412   6.401920
    36  H    6.979463   7.954683   7.385531   7.937554   6.528564
    37  H    9.326170   9.937948   9.558017   9.585324   7.115714
    38  H   11.327870  11.769262  11.639900  11.061163   7.791291
    39  H   11.072728  11.147131  11.294136  10.155445   6.477185
    40  H   12.626206  12.664607  12.694695  11.766681   8.105954
    41  H    9.764067   8.633110   8.684723   7.978834   5.227928
    42  H    7.571830   6.263631   6.214116   5.930977   4.451248
                   31         32         33         34         35
    31  H    0.000000
    32  H    5.356656   0.000000
    33  H    6.065126   1.779919   0.000000
    34  H    6.008711   1.779945   1.779957   0.000000
    35  H    4.145003   1.782727   3.178878   3.362346   0.000000
    36  H    4.065829   4.180395   5.791571   5.514352   2.676950
    37  H    4.877686   6.501320   7.993536   7.925946   4.820201
    38  H    6.076897   8.848637  10.270146  10.194209   7.136480
    39  H    5.198048   9.000011  10.249891  10.193628   7.288690
    40  H    6.792715  10.174912  11.452655  11.521535   8.415326
    41  H    3.819158   6.986814   7.663084   8.294745   5.358558
    42  H    2.757004   4.886283   5.308480   6.028902   3.539515
                   36         37         38         39         40
    36  H    0.000000
    37  H    2.476592   0.000000
    38  H    4.807606   2.439813   0.000000
    39  H    5.253038   3.318958   1.779994   0.000000
    40  H    6.329568   3.996577   1.780026   1.779969   0.000000
    41  H    4.990365   4.329090   4.973288   4.315767   5.061642
    42  H    4.332305   4.987496   6.482012   5.955399   7.061668
                   41         42
    41  H    0.000000
    42  H    2.477719   0.000000
 Stoichiometry    C20H17FO3S
 Framework group  C1[X(C20H17FO3S)]
 Deg. of freedom   120
 Full point group                 C1      NOp   1
 Largest Abelian subgroup         C1      NOp   1
 Largest concise Abelian subgroup C1      NOp   1
                         Standard orientation:                         
 ---------------------------------------------------------------------
 Center     Atomic      Atomic             Coordinates (Angstroms)
 Number     Number       Type             X           Y           Z
 ---------------------------------------------------------------------
      1          8           0        6.666774   -1.039742    0.232946
      2          6           0        5.441550   -0.824502    0.373827
      3          8           0        4.924673   -0.855544    1.627377
      4          6           0        4.616144   -0.529532   -0.815986
      5          6           0        3.182659   -0.426969   -0.533893
      6          6           0        2.508732    0.740969   -0.286035
      7          6           0        2.969636    2.073582   -0.214509
      8          6           0        2.055850    3.099480    0.096077
      9          9           0        2.457319    4.339795    0.138504
     10          6           0        0.711013    2.783748    0.373350
     11          6           0        0.273088    1.445526    0.343161
     12          6           0        1.171652    0.425681   -0.044754
     13          6           0        2.292014   -1.435040   -0.441503
     14          6           0        2.605988   -2.859344   -0.577739
     15          6           0        1.026974   -0.938983   -0.224733
     16          6           0       -0.105353   -1.683724   -0.233732
     17          6           0       -1.427483   -1.266870   -0.178440
     18          6           0       -2.312936   -1.859644    0.752316
     19          6           0       -3.675335   -1.512589    0.768415
     20          6           0       -4.183951   -0.558454   -0.140631
     21         16           0       -5.910623   -0.153137   -0.154998
     22          6           0       -6.406325    0.195071    1.571857
     23          8           0       -6.054557    1.264084   -0.892881
     24          6           0       -3.307699    0.024848   -1.080183
     25          6           0       -1.948847   -0.335780   -1.107536
     26          1           0        4.969700   -1.751216    1.970075
     27          1           0        4.920701    0.460796   -1.154750
     28          1           0        4.724920   -1.389066   -1.477480
     29          1           0        4.018531    2.307631   -0.396764
     30          1           0        0.005285    3.579352    0.612524
     31          1           0       -0.753072    1.201117    0.617928
     32          1           0        1.710941   -3.449256   -0.380284
     33          1           0        2.956604   -3.058919   -1.590272
     34          1           0        3.384090   -3.129747    0.136137
     35          1           0        0.070063   -2.757850   -0.293158
     36          1           0       -1.940416   -2.593718    1.466698
     37          1           0       -4.341148   -1.985894    1.489995
     38          1           0       -6.308698   -0.712351    2.167877
     39          1           0       -5.762923    0.971997    1.984895
     40          1           0       -7.442397    0.532959    1.591316
     41          1           0       -3.683703    0.760616   -1.791082
     42          1           0       -1.293708    0.110361   -1.855740
 ---------------------------------------------------------------------
 Rotational constants (GHZ):           0.4054777           0.0892739           0.0773897
 Leave Link  202 at Sun Oct 13 23:16:55 2019, MaxMem= 10737418240 cpu:               0.4 elap:               0.0
 (Enter /apps/cent7/gaussian/g16-A.03/g16-haswell/g16/l301.exe)
 Standard basis: 6-311++G(d,p) (5D, 7F)
 Ernie: Thresh=  0.10000D-02 Tol=  0.10000D-05 Strict=F.
 There are   702 symmetry adapted cartesian basis functions of A   symmetry.
 There are   677 symmetry adapted basis functions of A   symmetry.
   677 basis functions,  1067 primitive gaussians,   702 cartesian basis functions
    93 alpha electrons       93 beta electrons
       nuclear repulsion energy      2185.1401129961 Hartrees.
 IExCor= 4336 DFT=T Ex+Corr=M062X ExCW=0 ScaHFX=  0.540000
 ScaDFX=  1.000000  1.000000  1.000000  1.000000 ScalE2=  1.000000  1.000000
 IRadAn=      5 IRanWt=     -1 IRanGd=            0 ICorTp=0 IEmpDi=  4
 NAtoms=   42 NActive=   42 NUniq=   42 SFac= 1.00D+00 NAtFMM=   60 NAOKFM=F Big=F
 Integral buffers will be    131072 words long.
 Raffenetti 2 integral format.
 Two-electron integral symmetry is turned on.
 Leave Link  301 at Sun Oct 13 23:16:55 2019, MaxMem= 10737418240 cpu:               1.6 elap:               0.1
 (Enter /apps/cent7/gaussian/g16-A.03/g16-haswell/g16/l302.exe)
 NPDir=0 NMtPBC=     1 NCelOv=     1 NCel=       1 NClECP=     1 NCelD=      1
         NCelK=      1 NCelE2=     1 NClLst=     1 CellRange=     0.0.
 One-electron integrals computed using PRISM.
 One-electron integral symmetry used in STVInt
 NBasis=   677 RedAO= T EigKep=  1.06D-06  NBF=   677
 NBsUse=   668 1.00D-06 EigRej=  7.76D-07 NBFU=   668
 Precomputing XC quadrature grid using
 IXCGrd= 4 IRadAn=           5 IRanWt=          -1 IRanGd=           0 AccXCQ= 0.00D+00.
 Generated NRdTot=       0 NPtTot=           0 NUsed=           0 NTot=          32
 NSgBfM=   685   685   685   685   685 MxSgAt=    42 MxSgA2=    42.
 Leave Link  302 at Sun Oct 13 23:16:56 2019, MaxMem= 10737418240 cpu:              16.0 elap:               0.7
 (Enter /apps/cent7/gaussian/g16-A.03/g16-haswell/g16/l303.exe)
 DipDrv:  MaxL=1.
 Leave Link  303 at Sun Oct 13 23:16:56 2019, MaxMem= 10737418240 cpu:               2.0 elap:               0.1
 (Enter /apps/cent7/gaussian/g16-A.03/g16-haswell/g16/l401.exe)
 ExpMin= 3.60D-02 ExpMax= 9.34D+04 ExpMxC= 3.17D+03 IAcc=3 IRadAn=         5 AccDes= 0.00D+00
 Harris functional with IExCor= 1009 and IRadAn=       5 diagonalized for initial guess.
 HarFok:  IExCor= 1009 AccDes= 0.00D+00 IRadAn=         5 IDoV= 1 UseB2=F ITyADJ=14
 ICtDFT=  3500011 ScaDFX=  1.000000  1.000000  1.000000  1.000000
 FoFCou: FMM=F IPFlag=           0 FMFlag=      100000 FMFlg1=           0
         NFxFlg=           0 DoJE=T BraDBF=F KetDBF=T FulRan=T
         wScrn=  0.000000 ICntrl=       500 IOpCl=  0 I1Cent=   200000004 NGrid=           0
         NMat0=    1 NMatS0=      1 NMatT0=    0 NMatD0=    1 NMtDS0=    0 NMtDT0=    0
 Petite list used in FoFCou.
 Harris En= -1495.18261423579    
 JPrj=0 DoOrth=F DoCkMO=F.
 Leave Link  401 at Sun Oct 13 23:16:58 2019, MaxMem= 10737418240 cpu:              42.9 elap:               1.8
 (Enter /apps/cent7/gaussian/g16-A.03/g16-haswell/g16/l502.exe)
 Integral symmetry usage will be decided dynamically.
 Closed shell SCF:
 Using DIIS extrapolation, IDIIS=  1040.
 NGot= 10737418240 LenX= 10736409179 LenY= 10735915673
 Requested convergence on RMS density matrix=1.00D-08 within 128 cycles.
 Requested convergence on MAX density matrix=1.00D-06.
 Requested convergence on             energy=1.00D-06.
 No special actions if energy rises.
 Fock matrices will be formed incrementally for  20 cycles.

 Cycle   1  Pass 1  IDiag  1:
 FoFJK:  IHMeth= 1 ICntrl=       0 DoSepK=F KAlg= 0 I1Cent=           0 FoldK=F
 IRaf= 780000000 NMat=       1 IRICut=       1 DoRegI=T DoRafI=F ISym2E= 0 IDoP0=0 IntGTp=1.
 FoFCou: FMM=F IPFlag=           0 FMFlag=      100000 FMFlg1=           0
         NFxFlg=           0 DoJE=F BraDBF=F KetDBF=F FulRan=T
         wScrn=  0.000000 ICntrl=         0 IOpCl=  0 I1Cent=           0 NGrid=           0
         NMat0=    1 NMatS0=      1 NMatT0=    0 NMatD0=    1 NMtDS0=    0 NMtDT0=    0
 Symmetry not used in FoFCou.
 E= -1495.01226964527    
 DIIS: error= 2.34D-02 at cycle   1 NSaved=   1.
 NSaved= 1 IEnMin= 1 EnMin= -1495.01226964527     IErMin= 1 ErrMin= 2.34D-02
 ErrMax= 2.34D-02  0.00D+00 EMaxC= 1.00D-01 BMatC= 1.03D+00 BMatP= 1.03D+00
 IDIUse=3 WtCom= 7.66D-01 WtEn= 2.34D-01
 Coeff-Com:  0.100D+01
 Coeff-En:   0.100D+01
 Coeff:      0.100D+01
 Gap=     0.334 Goal=   None    Shift=    0.000
 GapD=    0.334 DampG=1.000 DampE=0.500 DampFc=0.5000 IDamp=-1.
 Damping current iteration by 5.00D-01
 RMSDP=1.72D-01 MaxDP=2.84D+01              OVMax= 2.75D-01

 Cycle   2  Pass 1  IDiag  1:
 RMSU=  6.55D-02    CP:  1.66D+00
 E= -1495.32011946199     Delta-E=       -0.307849816722 Rises=F Damp=T
 DIIS: error= 7.62D-03 at cycle   2 NSaved=   2.
 NSaved= 2 IEnMin= 2 EnMin= -1495.32011946199     IErMin= 2 ErrMin= 7.62D-03
 ErrMax= 7.62D-03  0.00D+00 EMaxC= 1.00D-01 BMatC= 1.12D-01 BMatP= 1.03D+00
 IDIUse=3 WtCom= 9.24D-01 WtEn= 7.62D-02
 Coeff-Com:  0.558D-01 0.944D+00
 Coeff-En:   0.165D+00 0.835D+00
 Coeff:      0.641D-01 0.936D+00
 Gap=     0.249 Goal=   None    Shift=    0.000
 RMSDP=7.65D-02 MaxDP=1.18D+01 DE=-3.08D-01 OVMax= 1.63D-01

 Cycle   3  Pass 1  IDiag  1:
 RMSU=  1.13D-02    CP:  9.89D-01  2.35D-01
 E= -1495.69481421059     Delta-E=       -0.374694748606 Rises=F Damp=F
 DIIS: error= 1.23D-02 at cycle   3 NSaved=   3.
 NSaved= 3 IEnMin= 3 EnMin= -1495.69481421059     IErMin= 2 ErrMin= 7.62D-03
 ErrMax= 1.23D-02  0.00D+00 EMaxC= 1.00D-01 BMatC= 1.18D-01 BMatP= 1.12D-01
 IDIUse=3 WtCom= 8.77D-01 WtEn= 1.23D-01
 Coeff-Com: -0.681D-01 0.533D+00 0.535D+00
 Coeff-En:   0.000D+00 0.000D+00 0.100D+01
 Coeff:     -0.597D-01 0.467D+00 0.593D+00
 Gap=     0.189 Goal=   None    Shift=    0.000
 RMSDP=2.97D-02 MaxDP=4.96D+00 DE=-3.75D-01 OVMax= 9.77D-02

 Cycle   4  Pass 1  IDiag  1:
 RMSU=  5.86D-03    CP:  1.21D+00  5.73D-01  8.73D-01
 E= -1495.77808861314     Delta-E=       -0.083274402552 Rises=F Damp=F
 DIIS: error= 3.02D-03 at cycle   4 NSaved=   4.
 NSaved= 4 IEnMin= 4 EnMin= -1495.77808861314     IErMin= 4 ErrMin= 3.02D-03
 ErrMax= 3.02D-03  0.00D+00 EMaxC= 1.00D-01 BMatC= 1.65D-02 BMatP= 1.12D-01
 IDIUse=3 WtCom= 9.70D-01 WtEn= 3.02D-02
 Coeff-Com: -0.304D-01 0.101D+00 0.307D+00 0.622D+00
 Coeff-En:   0.000D+00 0.000D+00 0.113D+00 0.887D+00
 Coeff:     -0.295D-01 0.981D-01 0.301D+00 0.630D+00
 Gap=     0.190 Goal=   None    Shift=    0.000
 RMSDP=1.01D-02 MaxDP=1.58D+00 DE=-8.33D-02 OVMax= 2.91D-02

 Cycle   5  Pass 1  IDiag  1:
 RMSU=  1.94D-03    CP:  1.13D+00  4.69D-01  9.09D-01  5.81D-01
 E= -1495.79115023301     Delta-E=       -0.013061619870 Rises=F Damp=F
 DIIS: error= 7.09D-04 at cycle   5 NSaved=   5.
 NSaved= 5 IEnMin= 5 EnMin= -1495.79115023301     IErMin= 5 ErrMin= 7.09D-04
 ErrMax= 7.09D-04  0.00D+00 EMaxC= 1.00D-01 BMatC= 8.61D-04 BMatP= 1.65D-02
 IDIUse=3 WtCom= 9.93D-01 WtEn= 7.09D-03
 Coeff-Com: -0.949D-02 0.154D-01 0.106D+00 0.307D+00 0.582D+00
 Coeff-En:   0.000D+00 0.000D+00 0.000D+00 0.000D+00 0.100D+01
 Coeff:     -0.943D-02 0.153D-01 0.105D+00 0.304D+00 0.585D+00
 Gap=     0.188 Goal=   None    Shift=    0.000
 RMSDP=7.54D-04 MaxDP=8.93D-02 DE=-1.31D-02 OVMax= 6.29D-03

 Cycle   6  Pass 1  IDiag  1:
 RMSU=  3.87D-04    CP:  1.13D+00  4.77D-01  9.07D-01  6.37D-01  9.00D-01
 E= -1495.79184498688     Delta-E=       -0.000694753864 Rises=F Damp=F
 DIIS: error= 2.96D-04 at cycle   6 NSaved=   6.
 NSaved= 6 IEnMin= 6 EnMin= -1495.79184498688     IErMin= 6 ErrMin= 2.96D-04
 ErrMax= 2.96D-04  0.00D+00 EMaxC= 1.00D-01 BMatC= 9.59D-05 BMatP= 8.61D-04
 IDIUse=3 WtCom= 9.97D-01 WtEn= 2.96D-03
 Coeff-Com: -0.289D-03-0.487D-02 0.123D-01 0.678D-01 0.283D+00 0.642D+00
 Coeff-En:   0.000D+00 0.000D+00 0.000D+00 0.000D+00 0.183D-02 0.998D+00
 Coeff:     -0.288D-03-0.486D-02 0.123D-01 0.676D-01 0.282D+00 0.644D+00
 Gap=     0.188 Goal=   None    Shift=    0.000
 RMSDP=5.99D-04 MaxDP=9.73D-02 DE=-6.95D-04 OVMax= 3.16D-03

 Cycle   7  Pass 1  IDiag  1:
 RMSU=  1.59D-04    CP:  1.13D+00  4.69D-01  9.10D-01  6.39D-01  8.81D-01
                    CP:  1.05D+00
 E= -1495.79193735448     Delta-E=       -0.000092367604 Rises=F Damp=F
 DIIS: error= 1.04D-04 at cycle   7 NSaved=   7.
 NSaved= 7 IEnMin= 7 EnMin= -1495.79193735448     IErMin= 7 ErrMin= 1.04D-04
 ErrMax= 1.04D-04  0.00D+00 EMaxC= 1.00D-01 BMatC= 1.71D-05 BMatP= 9.59D-05
 IDIUse=3 WtCom= 9.99D-01 WtEn= 1.04D-03
 Coeff-Com:  0.151D-02-0.506D-02-0.938D-02-0.122D-01 0.492D-01 0.333D+00
 Coeff-Com:  0.643D+00
 Coeff-En:   0.000D+00 0.000D+00 0.000D+00 0.000D+00 0.000D+00 0.506D-02
 Coeff-En:   0.995D+00
 Coeff:      0.151D-02-0.505D-02-0.938D-02-0.122D-01 0.491D-01 0.333D+00
 Coeff:      0.643D+00
 Gap=     0.188 Goal=   None    Shift=    0.000
 RMSDP=2.60D-04 MaxDP=4.03D-02 DE=-9.24D-05 OVMax= 1.49D-03

 Cycle   8  Pass 1  IDiag  1:
 RMSU=  8.04D-05    CP:  1.13D+00  4.67D-01  9.10D-01  6.31D-01  9.11D-01
                    CP:  1.18D+00  9.40D-01
 E= -1495.79195599903     Delta-E=       -0.000018644551 Rises=F Damp=F
 DIIS: error= 3.51D-05 at cycle   8 NSaved=   8.
 NSaved= 8 IEnMin= 8 EnMin= -1495.79195599903     IErMin= 8 ErrMin= 3.51D-05
 ErrMax= 3.51D-05  0.00D+00 EMaxC= 1.00D-01 BMatC= 1.49D-06 BMatP= 1.71D-05
 IDIUse=1 WtCom= 1.00D+00 WtEn= 0.00D+00
 Coeff-Com:  0.766D-03-0.171D-02-0.561D-02-0.147D-01-0.216D-01 0.502D-01
 Coeff-Com:  0.254D+00 0.738D+00
 Coeff:      0.766D-03-0.171D-02-0.561D-02-0.147D-01-0.216D-01 0.502D-01
 Coeff:      0.254D+00 0.738D+00
 Gap=     0.188 Goal=   None    Shift=    0.000
 RMSDP=1.39D-04 MaxDP=2.15D-02 DE=-1.86D-05 OVMax= 6.25D-04

 Cycle   9  Pass 1  IDiag  1:
 RMSU=  2.55D-05    CP:  1.13D+00  4.66D-01  9.09D-01  6.28D-01  9.25D-01
                    CP:  1.26D+00  1.03D+00  1.15D+00
 E= -1495.79195791836     Delta-E=       -0.000001919327 Rises=F Damp=F
 DIIS: error= 1.51D-05 at cycle   9 NSaved=   9.
 NSaved= 9 IEnMin= 9 EnMin= -1495.79195791836     IErMin= 9 ErrMin= 1.51D-05
 ErrMax= 1.51D-05  0.00D+00 EMaxC= 1.00D-01 BMatC= 3.91D-07 BMatP= 1.49D-06
 IDIUse=1 WtCom= 1.00D+00 WtEn= 0.00D+00
 Coeff-Com:  0.218D-03-0.259D-03-0.171D-02-0.621D-02-0.193D-01-0.177D-01
 Coeff-Com:  0.456D-01 0.392D+00 0.607D+00
 Coeff:      0.218D-03-0.259D-03-0.171D-02-0.621D-02-0.193D-01-0.177D-01
 Coeff:      0.456D-01 0.392D+00 0.607D+00
 Gap=     0.188 Goal=   None    Shift=    0.000
 RMSDP=7.88D-05 MaxDP=1.35D-02 DE=-1.92D-06 OVMax= 2.38D-04

 Cycle  10  Pass 1  IDiag  1:
 RMSU=  9.62D-06    CP:  1.13D+00  4.65D-01  9.09D-01  6.27D-01  9.26D-01
                    CP:  1.29D+00  1.06D+00  1.29D+00  1.01D+00
 E= -1495.79195836507     Delta-E=       -0.000000446708 Rises=F Damp=F
 DIIS: error= 8.81D-06 at cycle  10 NSaved=  10.
 NSaved=10 IEnMin=10 EnMin= -1495.79195836507     IErMin=10 ErrMin= 8.81D-06
 ErrMax= 8.81D-06  0.00D+00 EMaxC= 1.00D-01 BMatC= 5.68D-08 BMatP= 3.91D-07
 IDIUse=1 WtCom= 1.00D+00 WtEn= 0.00D+00
 Coeff-Com:  0.131D-05 0.950D-04-0.281D-05-0.776D-03-0.698D-02-0.173D-01
 Coeff-Com: -0.195D-01 0.798D-01 0.303D+00 0.662D+00
 Coeff:      0.131D-05 0.950D-04-0.281D-05-0.776D-03-0.698D-02-0.173D-01
 Coeff:     -0.195D-01 0.798D-01 0.303D+00 0.662D+00
 Gap=     0.188 Goal=   None    Shift=    0.000
 RMSDP=1.78D-05 MaxDP=3.13D-03 DE=-4.47D-07 OVMax= 7.59D-05

 Cycle  11  Pass 1  IDiag  1:
 RMSU=  4.19D-06    CP:  1.13D+00  4.65D-01  9.08D-01  6.26D-01  9.27D-01
                    CP:  1.30D+00  1.08D+00  1.32D+00  1.13D+00  1.13D+00
 E= -1495.79195842344     Delta-E=       -0.000000058375 Rises=F Damp=F
 DIIS: error= 2.68D-06 at cycle  11 NSaved=  11.
 NSaved=11 IEnMin=11 EnMin= -1495.79195842344     IErMin=11 ErrMin= 2.68D-06
 ErrMax= 2.68D-06  0.00D+00 EMaxC= 1.00D-01 BMatC= 9.20D-09 BMatP= 5.68D-08
 IDIUse=1 WtCom= 1.00D+00 WtEn= 0.00D+00
 Coeff-Com: -0.337D-04 0.879D-04 0.305D-03 0.752D-03-0.275D-03-0.504D-02
 Coeff-Com: -0.162D-01-0.281D-01 0.359D-01 0.328D+00 0.685D+00
 Coeff:     -0.337D-04 0.879D-04 0.305D-03 0.752D-03-0.275D-03-0.504D-02
 Coeff:     -0.162D-01-0.281D-01 0.359D-01 0.328D+00 0.685D+00
 Gap=     0.188 Goal=   None    Shift=    0.000
 RMSDP=1.07D-05 MaxDP=1.77D-03 DE=-5.84D-08 OVMax= 3.83D-05

 Cycle  12  Pass 1  IDiag  1:
 RMSU=  1.77D-06    CP:  1.13D+00  4.65D-01  9.08D-01  6.26D-01  9.27D-01
                    CP:  1.31D+00  1.08D+00  1.35D+00  1.21D+00  1.22D+00
                    CP:  1.11D+00
 E= -1495.79195843348     Delta-E=       -0.000000010033 Rises=F Damp=F
 DIIS: error= 6.62D-07 at cycle  12 NSaved=  12.
 NSaved=12 IEnMin=12 EnMin= -1495.79195843348     IErMin=12 ErrMin= 6.62D-07
 ErrMax= 6.62D-07  0.00D+00 EMaxC= 1.00D-01 BMatC= 7.33D-10 BMatP= 9.20D-09
 IDIUse=1 WtCom= 1.00D+00 WtEn= 0.00D+00
 Coeff-Com: -0.102D-04 0.193D-04 0.113D-03 0.352D-03 0.494D-03-0.257D-03
 Coeff-Com: -0.414D-02-0.170D-01-0.167D-01 0.544D-01 0.262D+00 0.721D+00
 Coeff:     -0.102D-04 0.193D-04 0.113D-03 0.352D-03 0.494D-03-0.257D-03
 Coeff:     -0.414D-02-0.170D-01-0.167D-01 0.544D-01 0.262D+00 0.721D+00
 Gap=     0.188 Goal=   None    Shift=    0.000
 RMSDP=2.79D-06 MaxDP=4.25D-04 DE=-1.00D-08 OVMax= 1.39D-05

 Cycle  13  Pass 1  IDiag  1:
 RMSU=  6.50D-07    CP:  1.13D+00  4.65D-01  9.08D-01  6.26D-01  9.27D-01
                    CP:  1.31D+00  1.08D+00  1.36D+00  1.23D+00  1.26D+00
                    CP:  1.21D+00  1.08D+00
 E= -1495.79195843451     Delta-E=       -0.000000001028 Rises=F Damp=F
 DIIS: error= 3.12D-07 at cycle  13 NSaved=  13.
 NSaved=13 IEnMin=13 EnMin= -1495.79195843451     IErMin=13 ErrMin= 3.12D-07
 ErrMax= 3.12D-07  0.00D+00 EMaxC= 1.00D-01 BMatC= 1.37D-10 BMatP= 7.33D-10
 IDIUse=1 WtCom= 1.00D+00 WtEn= 0.00D+00
 Coeff-Com:  0.689D-06-0.407D-05 0.727D-05 0.455D-04 0.287D-03 0.706D-03
 Coeff-Com:  0.560D-03-0.353D-02-0.139D-01-0.255D-01 0.118D-01 0.318D+00
 Coeff-Com:  0.712D+00
 Coeff:      0.689D-06-0.407D-05 0.727D-05 0.455D-04 0.287D-03 0.706D-03
 Coeff:      0.560D-03-0.353D-02-0.139D-01-0.255D-01 0.118D-01 0.318D+00
 Coeff:      0.712D+00
 Gap=     0.188 Goal=   None    Shift=    0.000
 RMSDP=1.25D-06 MaxDP=1.70D-04 DE=-1.03D-09 OVMax= 7.23D-06

 Cycle  14  Pass 1  IDiag  1:
 RMSU=  2.31D-07    CP:  1.13D+00  4.65D-01  9.08D-01  6.26D-01  9.27D-01
                    CP:  1.31D+00  1.09D+00  1.37D+00  1.24D+00  1.27D+00
                    CP:  1.26D+00  1.27D+00  1.04D+00
 E= -1495.79195843477     Delta-E=       -0.000000000269 Rises=F Damp=F
 DIIS: error= 9.82D-08 at cycle  14 NSaved=  14.
 NSaved=14 IEnMin=14 EnMin= -1495.79195843477     IErMin=14 ErrMin= 9.82D-08
 ErrMax= 9.82D-08  0.00D+00 EMaxC= 1.00D-01 BMatC= 2.32D-11 BMatP= 1.37D-10
 IDIUse=1 WtCom= 1.00D+00 WtEn= 0.00D+00
 Coeff-Com:  0.183D-05-0.459D-05-0.149D-04-0.408D-04 0.375D-04 0.323D-03
 Coeff-Com:  0.915D-03 0.177D-02-0.243D-02-0.198D-01-0.443D-01 0.892D-02
 Coeff-Com:  0.311D+00 0.744D+00
 Coeff:      0.183D-05-0.459D-05-0.149D-04-0.408D-04 0.375D-04 0.323D-03
 Coeff:      0.915D-03 0.177D-02-0.243D-02-0.198D-01-0.443D-01 0.892D-02
 Coeff:      0.311D+00 0.744D+00
 Gap=     0.188 Goal=   None    Shift=    0.000
 RMSDP=6.31D-07 MaxDP=8.28D-05 DE=-2.69D-10 OVMax= 3.90D-06

 Cycle  15  Pass 1  IDiag  1:
 RMSU=  7.87D-08    CP:  1.13D+00  4.65D-01  9.08D-01  6.26D-01  9.27D-01
                    CP:  1.31D+00  1.09D+00  1.37D+00  1.25D+00  1.28D+00
                    CP:  1.29D+00  1.35D+00  1.21D+00  1.15D+00
 E= -1495.79195843481     Delta-E=       -0.000000000037 Rises=F Damp=F
 DIIS: error= 5.45D-08 at cycle  15 NSaved=  15.
 NSaved=15 IEnMin=15 EnMin= -1495.79195843481     IErMin=15 ErrMin= 5.45D-08
 ErrMax= 5.45D-08  0.00D+00 EMaxC= 1.00D-01 BMatC= 4.72D-12 BMatP= 2.32D-11
 IDIUse=1 WtCom= 1.00D+00 WtEn= 0.00D+00
 Coeff-Com:  0.513D-06-0.106D-05-0.816D-05-0.254D-04-0.301D-04 0.232D-04
 Coeff-Com:  0.318D-03 0.137D-02 0.133D-02-0.450D-02-0.225D-01-0.515D-01
 Coeff-Com:  0.184D-01 0.350D+00 0.708D+00
 Coeff:      0.513D-06-0.106D-05-0.816D-05-0.254D-04-0.301D-04 0.232D-04
 Coeff:      0.318D-03 0.137D-02 0.133D-02-0.450D-02-0.225D-01-0.515D-01
 Coeff:      0.184D-01 0.350D+00 0.708D+00
 Gap=     0.188 Goal=   None    Shift=    0.000
 RMSDP=1.99D-07 MaxDP=2.18D-05 DE=-3.68D-11 OVMax= 1.57D-06

 Cycle  16  Pass 1  IDiag  1:
 RMSU=  3.78D-08    CP:  1.13D+00  4.65D-01  9.08D-01  6.26D-01  9.27D-01
                    CP:  1.31D+00  1.09D+00  1.37D+00  1.25D+00  1.28D+00
                    CP:  1.30D+00  1.39D+00  1.29D+00  1.26D+00  1.16D+00
 E= -1495.79195843482     Delta-E=       -0.000000000010 Rises=F Damp=F
 DIIS: error= 2.87D-08 at cycle  16 NSaved=  16.
 NSaved=16 IEnMin=16 EnMin= -1495.79195843482     IErMin=16 ErrMin= 2.87D-08
 ErrMax= 2.87D-08  0.00D+00 EMaxC= 1.00D-01 BMatC= 8.04D-13 BMatP= 4.72D-12
 IDIUse=1 WtCom= 1.00D+00 WtEn= 0.00D+00
 Coeff-Com: -0.191D-06 0.553D-06-0.128D-05-0.404D-05-0.248D-04-0.582D-04
 Coeff-Com: -0.170D-04 0.347D-03 0.115D-02 0.145D-02-0.243D-02-0.265D-01
 Coeff-Com: -0.527D-01 0.171D-01 0.308D+00 0.753D+00
 Coeff:     -0.191D-06 0.553D-06-0.128D-05-0.404D-05-0.248D-04-0.582D-04
 Coeff:     -0.170D-04 0.347D-03 0.115D-02 0.145D-02-0.243D-02-0.265D-01
 Coeff:     -0.527D-01 0.171D-01 0.308D+00 0.753D+00
 Gap=     0.188 Goal=   None    Shift=    0.000
 RMSDP=1.10D-07 MaxDP=1.03D-05 DE=-1.05D-11 OVMax= 7.48D-07

 Cycle  17  Pass 1  IDiag  1:
 RMSU=  1.36D-08    CP:  1.13D+00  4.65D-01  9.08D-01  6.26D-01  9.27D-01
                    CP:  1.31D+00  1.09D+00  1.37D+00  1.25D+00  1.28D+00
                    CP:  1.30D+00  1.41D+00  1.32D+00  1.32D+00  1.28D+00
                    CP:  1.03D+00
 E= -1495.79195843483     Delta-E=       -0.000000000011 Rises=F Damp=F
 DIIS: error= 7.91D-09 at cycle  17 NSaved=  17.
 NSaved=17 IEnMin=17 EnMin= -1495.79195843483     IErMin=17 ErrMin= 7.91D-09
 ErrMax= 7.91D-09  0.00D+00 EMaxC= 1.00D-01 BMatC= 1.22D-13 BMatP= 8.04D-13
 IDIUse=1 WtCom= 1.00D+00 WtEn= 0.00D+00
 Coeff-Com: -0.162D-06 0.377D-06 0.462D-06 0.194D-05-0.592D-05-0.263D-04
 Coeff-Com: -0.478D-04-0.673D-04 0.257D-03 0.117D-02 0.226D-02-0.344D-02
 Coeff-Com: -0.250D-01-0.422D-01 0.296D-01 0.348D+00 0.690D+00
 Coeff:     -0.162D-06 0.377D-06 0.462D-06 0.194D-05-0.592D-05-0.263D-04
 Coeff:     -0.478D-04-0.673D-04 0.257D-03 0.117D-02 0.226D-02-0.344D-02
 Coeff:     -0.250D-01-0.422D-01 0.296D-01 0.348D+00 0.690D+00
 Gap=     0.188 Goal=   None    Shift=    0.000
 RMSDP=2.72D-08 MaxDP=2.57D-06 DE=-1.14D-11 OVMax= 1.80D-07

 Cycle  18  Pass 1  IDiag  1:
 RMSU=  5.82D-09    CP:  1.13D+00  4.65D-01  9.08D-01  6.26D-01  9.27D-01
                    CP:  1.31D+00  1.09D+00  1.37D+00  1.25D+00  1.28D+00
                    CP:  1.30D+00  1.41D+00  1.33D+00  1.35D+00  1.34D+00
                    CP:  1.10D+00  1.00D+00
 E= -1495.79195843478     Delta-E=        0.000000000050 Rises=F Damp=F
 DIIS: error= 2.64D-09 at cycle  18 NSaved=  18.
 NSaved=18 IEnMin=17 EnMin= -1495.79195843483     IErMin=18 ErrMin= 2.64D-09
 ErrMax= 2.64D-09  0.00D+00 EMaxC= 1.00D-01 BMatC= 8.29D-15 BMatP= 1.22D-13
 IDIUse=1 WtCom= 1.00D+00 WtEn= 0.00D+00
 Coeff-Com: -0.260D-07 0.613D-07 0.253D-06 0.878D-06 0.416D-06-0.252D-05
 Coeff-Com: -0.107D-04-0.471D-04-0.271D-04 0.182D-03 0.840D-03 0.167D-02
 Coeff-Com: -0.161D-02-0.137D-01-0.253D-01 0.264D-01 0.206D+00 0.806D+00
 Coeff:     -0.260D-07 0.613D-07 0.253D-06 0.878D-06 0.416D-06-0.252D-05
 Coeff:     -0.107D-04-0.471D-04-0.271D-04 0.182D-03 0.840D-03 0.167D-02
 Coeff:     -0.161D-02-0.137D-01-0.253D-01 0.264D-01 0.206D+00 0.806D+00
 Gap=     0.188 Goal=   None    Shift=    0.000
 RMSDP=5.73D-09 MaxDP=6.26D-07 DE= 5.05D-11 OVMax= 4.70D-08

 SCF Done:  E(RM062X) =  -1495.79195843     A.U. after   18 cycles
            NFock= 18  Conv=0.57D-08     -V/T= 2.0028
 KE= 1.491639091178D+03 PE=-7.877885346666D+03 EE= 2.705314184058D+03
 Leave Link  502 at Sun Oct 13 23:20:03 2019, MaxMem= 10737418240 cpu:            4417.7 elap:             184.7
 (Enter /apps/cent7/gaussian/g16-A.03/g16-haswell/g16/l601.exe)
 Copying SCF densities to generalized density rwf, IOpCl= 0 IROHF=0.

 **********************************************************************

            Population analysis using the SCF density.

 **********************************************************************

 Orbital symmetries:
       Occupied  (A) (A) (A) (A) (A) (A) (A) (A) (A) (A) (A) (A)
                 (A) (A) (A) (A) (A) (A) (A) (A) (A) (A) (A) (A)
                 (A) (A) (A) (A) (A) (A) (A) (A) (A) (A) (A) (A)
                 (A) (A) (A) (A) (A) (A) (A) (A) (A) (A) (A) (A)
                 (A) (A) (A) (A) (A) (A) (A) (A) (A) (A) (A) (A)
                 (A) (A) (A) (A) (A) (A) (A) (A) (A) (A) (A) (A)
                 (A) (A) (A) (A) (A) (A) (A) (A) (A) (A) (A) (A)
                 (A) (A) (A) (A) (A) (A) (A) (A) (A)
       Virtual   (A) (A) (A) (A) (A) (A) (A) (A) (A) (A) (A) (A)
                 (A) (A) (A) (A) (A) (A) (A) (A) (A) (A) (A) (A)
                 (A) (A) (A) (A) (A) (A) (A) (A) (A) (A) (A) (A)
                 (A) (A) (A) (A) (A) (A) (A) (A) (A) (A) (A) (A)
                 (A) (A) (A) (A) (A) (A) (A) (A) (A) (A) (A) (A)
                 (A) (A) (A) (A) (A) (A) (A) (A) (A) (A) (A) (A)
                 (A) (A) (A) (A) (A) (A) (A) (A) (A) (A) (A) (A)
                 (A) (A) (A) (A) (A) (A) (A) (A) (A) (A) (A) (A)
                 (A) (A) (A) (A) (A) (A) (A) (A) (A) (A) (A) (A)
                 (A) (A) (A) (A) (A) (A) (A) (A) (A) (A) (A) (A)
                 (A) (A) (A) (A) (A) (A) (A) (A) (A) (A) (A) (A)
                 (A) (A) (A) (A) (A) (A) (A) (A) (A) (A) (A) (A)
                 (A) (A) (A) (A) (A) (A) (A) (A) (A) (A) (A) (A)
                 (A) (A) (A) (A) (A) (A) (A) (A) (A) (A) (A) (A)
                 (A) (A) (A) (A) (A) (A) (A) (A) (A) (A) (A) (A)
                 (A) (A) (A) (A) (A) (A) (A) (A) (A) (A) (A) (A)
                 (A) (A) (A) (A) (A) (A) (A) (A) (A) (A) (A) (A)
                 (A) (A) (A) (A) (A) (A) (A) (A) (A) (A) (A) (A)
                 (A) (A) (A) (A) (A) (A) (A) (A) (A) (A) (A) (A)
                 (A) (A) (A) (A) (A) (A) (A) (A) (A) (A) (A) (A)
                 (A) (A) (A) (A) (A) (A) (A) (A) (A) (A) (A) (A)
                 (A) (A) (A) (A) (A) (A) (A) (A) (A) (A) (A) (A)
                 (A) (A) (A) (A) (A) (A) (A) (A) (A) (A) (A) (A)
                 (A) (A) (A) (A) (A) (A) (A) (A) (A) (A) (A) (A)
                 (A) (A) (A) (A) (A) (A) (A) (A) (A) (A) (A) (A)
                 (A) (A) (A) (A) (A) (A) (A) (A) (A) (A) (A) (A)
                 (A) (A) (A) (A) (A) (A) (A) (A) (A) (A) (A) (A)
                 (A) (A) (A) (A) (A) (A) (A) (A) (A) (A) (A) (A)
                 (A) (A) (A) (A) (A) (A) (A) (A) (A) (A) (A) (A)
                 (A) (A) (A) (A) (A) (A) (A) (A) (A) (A) (A) (A)
                 (A) (A) (A) (A) (A) (A) (A) (A) (A) (A) (A) (A)
                 (A) (A) (A) (A) (A) (A) (A) (A) (A) (A) (A) (A)
                 (A) (A) (A) (A) (A) (A) (A) (A) (A) (A) (A) (A)
                 (A) (A) (A) (A) (A) (A) (A) (A) (A) (A) (A) (A)
                 (A) (A) (A) (A) (A) (A) (A) (A) (A) (A) (A) (A)
                 (A) (A) (A) (A) (A) (A) (A) (A) (A) (A) (A) (A)
                 (A) (A) (A) (A) (A) (A) (A) (A) (A) (A) (A) (A)
                 (A) (A) (A) (A) (A) (A) (A) (A) (A) (A) (A) (A)
                 (A) (A) (A) (A) (A) (A) (A) (A) (A) (A) (A) (A)
                 (A) (A) (A) (A) (A) (A) (A) (A) (A) (A) (A) (A)
                 (A) (A) (A) (A) (A) (A) (A) (A) (A) (A) (A) (A)
                 (A) (A) (A) (A) (A) (A) (A) (A) (A) (A) (A) (A)
                 (A) (A) (A) (A) (A) (A) (A) (A) (A) (A) (A) (A)
                 (A) (A) (A) (A) (A) (A) (A) (A) (A) (A) (A) (A)
                 (A) (A) (A) (A) (A) (A) (A) (A) (A) (A) (A) (A)
                 (A) (A) (A) (A) (A) (A) (A) (A) (A) (A) (A) (A)
                 (A) (A) (A) (A) (A) (A) (A) (A) (A) (A) (A) (A)
                 (A) (A) (A) (A) (A) (A) (A) (A) (A) (A) (A)
 The electronic state is 1-A.
 Alpha  occ. eigenvalues --  -90.01347 -25.26609 -19.67246 -19.62783 -19.58524
 Alpha  occ. eigenvalues --  -10.69870 -10.64226 -10.60666 -10.59058 -10.59020
 Alpha  occ. eigenvalues --  -10.58603 -10.58417 -10.58122 -10.57996 -10.57919
 Alpha  occ. eigenvalues --  -10.57551 -10.56538 -10.56074 -10.56001 -10.55565
 Alpha  occ. eigenvalues --  -10.55513 -10.55423 -10.55168 -10.55055 -10.54692
 Alpha  occ. eigenvalues --   -8.36969  -6.29021  -6.28997  -6.28588  -1.39997
 Alpha  occ. eigenvalues --   -1.23697  -1.13417  -1.09407  -1.04468  -0.99980
 Alpha  occ. eigenvalues --   -0.95121  -0.94261  -0.91293  -0.88279  -0.87534
 Alpha  occ. eigenvalues --   -0.87336  -0.85690  -0.83431  -0.79262  -0.77934
 Alpha  occ. eigenvalues --   -0.74061  -0.72714  -0.71817  -0.70415  -0.69398
 Alpha  occ. eigenvalues --   -0.67319  -0.64924  -0.62679  -0.61891  -0.59703
 Alpha  occ. eigenvalues --   -0.59475  -0.58564  -0.57512  -0.57192  -0.56483
 Alpha  occ. eigenvalues --   -0.56055  -0.54947  -0.54234  -0.53446  -0.53322
 Alpha  occ. eigenvalues --   -0.52974  -0.51949  -0.51793  -0.51068  -0.50273
 Alpha  occ. eigenvalues --   -0.49694  -0.48273  -0.47925  -0.47701  -0.47317
 Alpha  occ. eigenvalues --   -0.46256  -0.45107  -0.44803  -0.43711  -0.43253
 Alpha  occ. eigenvalues --   -0.42700  -0.42567  -0.40874  -0.40453  -0.39522
 Alpha  occ. eigenvalues --   -0.37029  -0.35140  -0.34223  -0.33943  -0.33270
 Alpha  occ. eigenvalues --   -0.29859  -0.27925  -0.26620
 Alpha virt. eigenvalues --   -0.07772  -0.02492  -0.02073  -0.01589  -0.01190
 Alpha virt. eigenvalues --   -0.00402  -0.00210   0.00050   0.00305   0.00798
 Alpha virt. eigenvalues --    0.01081   0.01747   0.01974   0.02200   0.02626
 Alpha virt. eigenvalues --    0.02675   0.03361   0.03622   0.04188   0.04574
 Alpha virt. eigenvalues --    0.05146   0.05186   0.05593   0.06181   0.06300
 Alpha virt. eigenvalues --    0.06427   0.06489   0.07233   0.07301   0.07522
 Alpha virt. eigenvalues --    0.07899   0.08295   0.08670   0.09152   0.09315
 Alpha virt. eigenvalues --    0.09627   0.09798   0.10083   0.10343   0.10921
 Alpha virt. eigenvalues --    0.10981   0.11232   0.11414   0.11702   0.11867
 Alpha virt. eigenvalues --    0.12212   0.12491   0.12697   0.13004   0.13219
 Alpha virt. eigenvalues --    0.13313   0.13897   0.14074   0.14137   0.14261
 Alpha virt. eigenvalues --    0.14489   0.14845   0.15019   0.15357   0.15422
 Alpha virt. eigenvalues --    0.15797   0.16152   0.16591   0.16690   0.16858
 Alpha virt. eigenvalues --    0.17166   0.17358   0.17503   0.17719   0.17942
 Alpha virt. eigenvalues --    0.18083   0.18383   0.18788   0.18964   0.19340
 Alpha virt. eigenvalues --    0.19561   0.19785   0.20305   0.20577   0.20655
 Alpha virt. eigenvalues --    0.20838   0.21065   0.21720   0.21803   0.22030
 Alpha virt. eigenvalues --    0.22325   0.22762   0.23076   0.23491   0.23546
 Alpha virt. eigenvalues --    0.24216   0.24239   0.24629   0.24959   0.25235
 Alpha virt. eigenvalues --    0.25333   0.26119   0.26395   0.26438   0.26906
 Alpha virt. eigenvalues --    0.27100   0.27455   0.27859   0.28169   0.28381
 Alpha virt. eigenvalues --    0.28793   0.29060   0.29304   0.29838   0.30043
 Alpha virt. eigenvalues --    0.30118   0.30583   0.30950   0.31147   0.31326
 Alpha virt. eigenvalues --    0.31611   0.32387   0.32739   0.32767   0.33079
 Alpha virt. eigenvalues --    0.33239   0.33693   0.34001   0.34272   0.34498
 Alpha virt. eigenvalues --    0.34826   0.35163   0.35342   0.35667   0.36074
 Alpha virt. eigenvalues --    0.36539   0.36767   0.37103   0.37287   0.37536
 Alpha virt. eigenvalues --    0.37771   0.38245   0.38339   0.38654   0.38864
 Alpha virt. eigenvalues --    0.39454   0.39983   0.40322   0.40846   0.41003
 Alpha virt. eigenvalues --    0.42098   0.42742   0.43656   0.44046   0.44505
 Alpha virt. eigenvalues --    0.44833   0.45783   0.45851   0.46618   0.47682
 Alpha virt. eigenvalues --    0.47990   0.48352   0.49385   0.50006   0.50416
 Alpha virt. eigenvalues --    0.51650   0.52318   0.53290   0.53424   0.55115
 Alpha virt. eigenvalues --    0.55381   0.56043   0.56812   0.56911   0.57714
 Alpha virt. eigenvalues --    0.58250   0.58608   0.58826   0.60193   0.60336
 Alpha virt. eigenvalues --    0.61277   0.61466   0.61835   0.62247   0.62617
 Alpha virt. eigenvalues --    0.62750   0.63169   0.64061   0.64678   0.65228
 Alpha virt. eigenvalues --    0.65431   0.65914   0.66606   0.67015   0.67466
 Alpha virt. eigenvalues --    0.68111   0.68808   0.69086   0.70149   0.70438
 Alpha virt. eigenvalues --    0.70954   0.71392   0.71477   0.71828   0.72698
 Alpha virt. eigenvalues --    0.73521   0.73783   0.74021   0.74764   0.75004
 Alpha virt. eigenvalues --    0.75198   0.75760   0.76172   0.76989   0.77490
 Alpha virt. eigenvalues --    0.77885   0.78633   0.78941   0.79761   0.80364
 Alpha virt. eigenvalues --    0.80476   0.80968   0.81121   0.81460   0.82174
 Alpha virt. eigenvalues --    0.82499   0.83301   0.83963   0.84241   0.84897
 Alpha virt. eigenvalues --    0.85618   0.85846   0.86918   0.87998   0.88500
[...]
 .00049446,0.00018999,-0.01212723,-0.00332469,0.01132612,0.12021454,0.0
 2128211,-0.11505267,-0.00701308,-0.00035492,-0.00250000,-0.00001561,-0
 .00015128,-0.00011551,-0.00014168,0.00013693,0.00005865,0.00000433,-0.
 00000248,0.00000165,-0.00000008,0.00000142,-0.00000064,-0.00000037,0.0
 0000085,0.00000148,0.00000078,0.00000121,-0.00000032,0.00000519,-0.000
 00250,-0.00000144,0.00001950,0.00000018,0.00000791,0.00000267,-0.00000
 142,-0.00000213,-0.00000198,-0.00000131,-0.00000138,-0.00000079,0.0000
 0282,0.00000161,-0.00001033,0.00000274,0.00000955,0.00001837,-0.000043
 56,0.00000268,-0.00011330,-0.00004076,-0.00068236,-0.13086617,-0.02190
 746,0.12132911,0.00000146,-0.00000140,-0.00000482,0.00000128,0.0000004
 5,0.00000878,-0.00000293,-0.00000243,-0.00000547,0.00000050,0.00000058
 ,-0.00000176,-0.00000225,0.00000260,0.00000074,-0.00000401,0.00000313,
 0.00000515,0.00000200,-0.00000696,-0.00000363,-0.00000211,0.00002033,-
 0.00000561,-0.00000137,-0.00000884,0.00000669,-0.00001496,-0.00000944,
 -0.00000347,-0.00002531,0.00001664,-0.00000121,-0.00000145,-0.00001690
 ,0.00000928,-0.00000313,-0.00000665,-0.00000845,-0.00000273,0.00000113
 ,-0.00000091,0.00001287,0.00000040,0.00000988,0.00000202,-0.00000401,0
 .00000572,-0.00020360,-0.00012617,0.00011559,-0.00005526,0.00041843,0.
 00000472,-0.00000799,-0.00033254,0.00000500,0.00024490,0.00103080,0.00
 246408,-0.00686989,0.01912865,-0.02161312,-0.04297684,0.00040261,0.004
 53770,0.00370819,-0.00255240,0.00511646,0.00019742,-0.00002943,0.00017
 529,0.00001749,-0.00017463,-0.00024405,0.00000028,0.00000309,0.0000015
 6,0.00000055,0.00000051,0.00000105,0.00000030,-0.00000002,-0.00000131,
 0.00000136,0.00000011,-0.00000075,0.00001915,0.00000990,-0.00000463,0.
 00003995,0.00000992,0.00000797,-0.00000021,0.00000024,0.00000025,0.000
 00074,0.00000078,-0.00000051,0.00000155,-0.00000029,-0.00000016,-0.000
 00075,0.00000229,0.00000041,0.00000430,-0.00001263,0.00000607,0.000081
 17,0.00004619,0.00001382,0.00293734,-0.02431658,0.01209747,0.04351232,
 -0.00001840,0.00000290,0.00001062,0.00003362,-0.00000416,-0.00000640,-
 0.00001267,0.00000759,-0.00000320,-0.00000865,0.00000373,0.00000206,-0
 .00000597,0.00000735,-0.00002121,0.00000003,0.00000298,0.00002869,-0.0
 0000257,0.00000906,-0.00001716,0.00000455,-0.00002775,0.00004415,-0.00
 000518,0.00003278,-0.00003992,-0.00000050,0.00001564,0.00000769,0.0000
 0216,-0.00004271,-0.00000604,0.00000106,0.00001078,0.00001590,0.000012
 78,-0.00001850,-0.00001295,-0.00000014,0.00000363,0.00000205,0.0000010
 7,0.00002636,0.00000735,-0.00002146,-0.00002839,-0.00003777,-0.0000238
 5,0.00001392,0.00002597,0.00009090,-0.00005640,0.00007193,-0.00002460,
 0.00014570,0.00009002,0.00001752,0.00165398,-0.00085507,-0.00169502,0.
 00088045,-0.00113202,-0.00255635,-0.27016515,0.11570973,0.00147588,0.0
 0014163,-0.00091417,-0.00012017,0.00028580,0.00050492,0.00016155,-0.00
 006465,0.00002459,0.00000385,-0.00000383,0.00000151,-0.00000018,0.0000
 0064,-0.00000133,-0.00000116,0.00000110,0.00000184,0.00000018,0.000001
 01,0.00000043,0.00000286,-0.00000928,0.00000687,0.00000094,0.00000615,
 -0.00001685,0.00000175,-0.00000159,-0.00000010,-0.00000136,-0.00000113
 ,-0.00000006,0.00000002,0.00000226,0.00000210,-0.00000291,0.00000586,0
 .00000514,0.00001118,-0.00000567,0.00001934,-0.00006841,0.00000264,-0.
 00004040,0.00092087,-0.00145592,-0.00058397,0.00239872,0.28525145,-0.0
 0002631,0.00000520,0.00001774,0.00004762,-0.00000626,-0.00001208,-0.00
 001618,0.00001338,-0.00000294,-0.00001479,0.00000536,0.00000168,-0.000
 00008,0.00001590,-0.00003410,-0.00000688,-0.00000252,0.00005507,0.0000
 0150,0.00000893,-0.00003860,0.00000126,-0.00002919,0.00007101,-0.00000
 671,0.00005321,-0.00006988,0.00000934,0.00002459,0.00003469,0.00001041
 ,-0.00006652,-0.00002188,0.00000875,0.00001314,0.00002325,0.00001682,-
 0.00003669,-0.00002878,-0.00000380,0.00000887,0.00000437,-0.00000563,0
 .00002143,0.00001012,0.00001057,-0.00004972,-0.00002074,-0.00015600,-0
 .00015783,0.00005532,-0.00004033,0.00028463,-0.00005899,0.00065539,-0.
 00026305,-0.00024643,0.00061015,0.00132910,0.00180486,-0.00718029,0.01
 637318,-0.01801978,0.00536560,0.11817876,-0.10405579,0.00256548,-0.002
 74817,0.00362661,-0.00003613,-0.00030356,0.00020624,0.00004625,-0.0002
 0536,-0.00023480,0.00000473,-0.00000810,0.00000108,-0.00000018,0.00000
 173,-0.00000213,-0.00000147,0.00000192,0.00000291,-0.00000111,0.000001
 03,-0.00000035,-0.00000499,-0.00000422,0.00000521,-0.00001280,-0.00002
 832,-0.00000563,0.00000208,-0.00000169,-0.00000164,-0.00000047,-0.0000
 0184,-0.00000069,0.00000004,0.00000435,0.00000311,-0.00001021,0.000011
 90,0.00000855,-0.00000084,-0.00000736,-0.00000420,-0.00007336,-0.00001
 587,0.00009118,-0.00152854,0.01084995,-0.00589714,-0.00019469,-0.12456
 014,0.11091395,0.00002574,-0.00000300,-0.00001353,-0.00005032,0.000003
 06,0.00000322,0.00001804,-0.00000907,0.00000777,0.00001870,-0.00000639
 ,0.00000183,0.00000550,-0.00002750,0.00005629,0.00000252,-0.00000940,-
 0.00008323,-0.00000190,-0.00000039,0.00006703,0.00000496,-0.00001432,-
 0.00006954,0.00000318,-0.00003129,0.00005172,-0.00000151,0.00001731,-0
 .00001058,0.00001906,-0.00001002,0.00003261,-0.00001764,0.00004372,-0.
 00006115,-0.00003204,0.00006119,0.00005038,0.00000019,-0.00001194,-0.0
 0000510,0.00000413,-0.00004813,-0.00003848,-0.00001963,0.00011715,0.00
 000628,0.00012442,-0.00000122,-0.00022165,0.00026414,-0.00036881,0.000
 16047,0.00012073,-0.00023147,0.00023587,-0.00420827,0.00058914,-0.0031
 4781,0.00226204,-0.01628600,-0.01644696,-0.05235040,0.03338058,0.03225
 585,0.00125102,0.00107517,0.00230188,0.00037451,-0.00060272,-0.0006370
 8,0.00018983,-0.00008296,0.00054219,-0.00000405,0.00000422,-0.00000128
 ,-0.00000020,-0.00000283,0.00000029,0.00000039,-0.00000126,-0.00000197
 ,0.00000036,-0.00000089,0.00000141,0.00000067,-0.00000539,0.00000472,-
 0.00001964,0.00000711,-0.00002181,-0.00000340,0.00000226,0.00000172,0.
 00000310,0.00000210,0.00000283,0.00000112,-0.00000413,-0.00000282,0.00
 002503,-0.00002625,-0.00002085,0.00002317,-0.00002604,-0.00003328,-0.0
 0009190,0.00020115,-0.00040184,-0.00158492,0.02120785,0.01716903,-0.00
 051637,-0.00043897,0.00008555,0.05428953,0.00001068,-0.00000228,-0.000
 00598,-0.00002017,0.00000332,0.00000255,0.00000777,-0.00000536,0.00000
 302,0.00000593,-0.00000227,-0.00000194,0.00000452,-0.00000635,0.000015
 79,-0.00000268,-0.00000356,-0.00002544,0.00000387,-0.00000529,0.000016
 09,-0.00000618,0.00001792,-0.00003369,0.00000267,-0.00002331,0.0000304
 9,0.00000219,-0.00000986,-0.00000616,-0.00000764,0.00002746,0.00000194
 ,-0.00000249,-0.00000364,-0.00000722,-0.00000847,0.00001278,0.00001154
 ,0.00000236,-0.00000319,-0.00000139,0.00000289,0.00000212,-0.00000649,
 0.00000335,-0.00001749,-0.00000445,0.00011325,0.00011756,-0.00002848,-
 0.00001717,-0.00027400,-0.00003011,-0.00032967,0.00025024,0.00031308,0
 .00099132,0.00033795,-0.00076362,-0.00040827,0.00112346,0.00098022,0.0
 3554814,-0.20515515,-0.13544813,-0.00091389,-0.00031179,0.00112572,-0.
 00012361,0.00054599,0.00023952,0.00001938,0.00020730,-0.00007977,-0.00
 000221,0.00000302,-0.00000095,0.00000006,-0.00000108,0.00000060,0.0000
 0035,-0.00000067,-0.00000090,0.00000078,-0.00000058,-0.00000016,0.0000
 0164,0.00000538,-0.00000311,0.00000111,0.00000560,0.00000687,-0.000001
 04,0.00000032,0.00000036,0.00000064,0.00000092,0.00000043,0.00000025,-
 0.00000162,-0.00000115,-0.00000471,-0.00000558,-0.00000157,0.00000838,
 -0.00000050,0.00001590,-0.00002158,0.00000045,-0.00009965,-0.00068400,
 0.00445223,0.00521223,0.00419881,-0.01669134,-0.01876482,-0.03840292,0
 .21542849,0.00003735,-0.00000404,-0.00002082,-0.00006924,0.00000605,0.
 00000993,0.00002490,-0.00001185,0.00000834,0.00002459,-0.00001002,0.00
 000153,-0.00000259,-0.00002948,0.00006003,0.00000189,-0.00000372,-0.00
 008982,-0.00000095,-0.00000329,0.00007893,0.00000334,-0.00001231,-0.00
 008222,0.00000550,-0.00004088,0.00006237,0.00000252,0.00001719,-0.0000
 1813,0.00001972,-0.00001685,0.00005079,-0.00000531,0.00004271,-0.00006
 753,-0.00003844,0.00006544,0.00005513,0.00000071,-0.00001395,-0.000007
 83,0.00002271,-0.00004841,-0.00005531,-0.00000098,0.00008607,0.0000626
 7,-0.00028723,-0.00024260,0.00005896,0.00003825,0.00020451,0.00022127,
 -0.00010037,-0.00043634,-0.00002054,-0.00337999,0.00004762,-0.00239439
 ,0.00339455,-0.01302003,-0.01277567,0.03258589,-0.13714462,-0.16411835
 ,0.00039108,0.00110085,0.00160655,0.00022551,0.00038090,-0.00047422,0.
 00044243,-0.00041113,-0.00001073,-0.00000664,0.00000545,-0.00000168,-0
 .00000031,-0.00000330,0.00000062,0.00000049,-0.00000210,-0.00000272,-0
 .00000041,-0.00000114,0.00000183,-0.00000153,-0.00000604,0.00000597,-0
 .00001637,-0.00000249,-0.00003138,-0.00000397,0.00000343,0.00000295,0.
 00000302,0.00000210,0.00000325,0.00000112,-0.00000540,-0.00000361,0.00
 001853,-0.00002257,-0.00002338,0.00000806,-0.00000531,-0.00003863,0.00
 005318,0.00001276,0.00002941,0.00060979,-0.00939350,-0.00812948,-0.002
 39720,0.01167205,0.01181886,-0.03152687,0.14728189,0.17438911,0.000018
 57,-0.00000309,-0.00002009,-0.00002531,0.00000304,0.00002548,0.0000056
 6,-0.00000810,-0.00001003,0.00000594,-0.00000203,-0.00000670,0.0000033
 8,-0.00000379,0.00001106,-0.00002298,-0.00003863,0.00000441,0.00000568
 ,-0.00001467,-0.00005191,-0.00001770,0.00009973,-0.00000013,0.00001122
 ,-0.00004707,0.00003164,-0.00000103,-0.00007534,-0.00001123,-0.0000140
 8,0.00016949,0.00000201,-0.00000363,-0.00002579,-0.00003987,0.00000496
 ,0.00001181,-0.00001139,-0.00000084,0.,-0.00000343,-0.00001614,-0.0001
 0620,0.00010283,-0.00007444,0.00013496,0.00008576,0.00397650,-0.000472
 44,0.00273086,0.00000393,-0.00001892,-0.00093812,0.00198872,-0.0032031
 2,0.00241853,-0.00845798,-0.00248065,0.00921406,-0.00210049,0.00175396
 ,0.00057801,-0.00009719,-0.00071265,-0.00018250,-0.00070658,0.00184850
 ,0.00002294,-0.22406301,-0.01139102,0.14687670,-0.00018826,-0.00149890
 ,0.00305564,-0.00000343,0.00000623,0.00000067,0.00000141,0.00000192,0.
 00000399,0.00000271,-0.00000195,-0.00000435,0.00000340,-0.00000189,-0.
 00000200,-0.00001623,0.00002330,-0.00001518,-0.00006522,-0.00001269,0.
 00005557,-0.00000001,0.00000046,-0.00000255,-0.00000051,0.00000284,-0.
 00000260,0.00000082,-0.00000219,-0.00000235,-0.00004618,0.00006418,0.0
 0000007,-0.00038214,0.00017358,-0.00033005,-0.00024255,0.00013799,0.00
 046922,-0.00002226,0.00002767,-0.00005642,-0.00011196,-0.00010739,-0.0
 0011971,-0.00013985,0.00005025,-0.00012541,0.23205225,-0.00000275,0.00
 000125,0.00000853,-0.00000742,-0.00000535,-0.00002187,0.00000347,-0.00
 000044,0.00001432,0.00001721,-0.00000507,0.00000891,0.00000583,-0.0000
 4971,0.00004721,0.00001626,-0.00001712,-0.00010110,-0.00001091,0.00000
 669,0.00008765,0.00001906,-0.00008861,-0.00003890,-0.00000689,0.000013
 22,0.00000995,-0.00003925,0.00004978,0.00003329,-0.00003509,-0.0000802
 6,0.00003641,0.00002525,0.00007580,-0.00007858,-0.00007141,0.00005231,
 0.00007025,0.00001081,-0.00001806,-0.00000270,-0.00001198,-0.00006363,
 -0.00012912,0.00070253,0.00041855,-0.00051975,0.00016358,-0.00298532,-
 0.00391084,0.00013267,-0.00119905,-0.00018255,-0.00345713,-0.00477372,
 -0.00121967,-0.01958217,0.00467842,0.01703057,-0.00372541,-0.00276647,
 0.00260705,0.00042530,0.00011511,-0.00025307,0.00200520,0.00175986,-0.
 00080409,-0.01039811,-0.05682903,0.00211843,0.01915239,0.00578207,-0.0
 1529031,0.00000218,-0.00000061,-0.00000019,0.00000046,-0.00000718,-0.0
 0000344,-0.00000083,-0.00000129,0.00000148,0.00000285,-0.00000010,0.00
 000191,0.00003084,-0.00000817,0.00001839,0.00007975,0.00005470,-0.0000
 3624,-0.00001043,-0.00000225,0.00000681,0.00000482,0.00000461,0.000003
 94,-0.00000178,-0.00000365,0.00000005,0.00004258,-0.00021983,-0.000150
 08,0.00019823,-0.00000440,0.00017069,-0.00111920,0.00001257,0.00099297
 ,0.00018410,0.00004992,0.00014800,-0.00007841,0.00003627,0.00005276,0.
 00000297,-0.00004722,0.00001860,0.01489464,0.05558915,-0.00000296,0.00
 000342,-0.00000593,0.00000946,-0.00000728,0.00001141,-0.00000778,0.000
 00400,-0.00000944,0.00000477,0.00000021,0.00000170,0.00000446,-0.00001
 934,0.00001161,-0.00001231,-0.00006344,-0.00000883,0.00000154,0.000005
 30,-0.00004091,-0.00000190,0.00002099,0.00004994,0.00000352,0.00001757
 ,-0.00003649,-0.00001726,-0.00000533,0.00003240,-0.00003394,0.00002960
 ,-0.00000619,-0.00000394,0.00006012,-0.00007139,-0.00002312,0.00001332
 ,0.00001738,0.00000169,-0.00000346,0.00000099,-0.00003448,-0.00013734,
 -0.00000459,0.00030697,0.00044256,-0.00013907,0.00340060,-0.00374152,0
 .00349112,-0.00087533,-0.00018048,-0.00049567,0.00270619,-0.00133769,0
 .00381963,0.00310851,0.00399424,0.00276688,-0.00080964,-0.00003017,-0.
 00133697,0.00038898,-0.00078335,-0.00065529,-0.00022397,-0.00102345,-0
 .00198623,0.14627060,0.00179947,-0.15993585,0.01042722,0.00213466,-0.0
 0391540,0.00000188,-0.00000078,0.00000230,0.00000095,-0.00000043,0.,0.
 00000109,-0.00000213,-0.00000144,0.00000223,-0.00000003,-0.00000150,-0
 .00001597,0.00000947,-0.00000597,0.00005872,-0.00002506,0.00004335,-0.
 00000164,-0.00000067,-0.00000062,-0.00000025,0.00000080,-0.00000579,-0
 .00000092,0.00000069,-0.00000081,0.00004067,-0.00002695,-0.00005409,-0
 .00039862,0.00015417,-0.00051162,-0.00007889,-0.00024153,0.00020531,0.
 00008395,0.00007532,0.00007039,-0.00009394,-0.00000262,0.00000332,-0.0
 0024092,0.00004564,-0.00016634,-0.16161457,-0.00219782,0.16082119,0.00
 005260,-0.00000576,-0.00006072,-0.00006353,0.00002213,0.00009238,0.000
 01552,-0.00001772,-0.00003873,-0.00004153,-0.00000546,-0.00003301,-0.0
 0003303,0.00007021,-0.00008188,0.00002113,0.00039660,0.00019627,-0.000
 00443,-0.00013809,0.00010119,-0.00005012,0.00006657,-0.00022076,0.0000
 2252,-0.00019707,0.00021784,0.00005362,-0.00005757,-0.00017305,-0.0000
 1434,0.00033099,-0.00012912,-0.00017549,-0.00004509,0.00010678,0.00025
 252,0.00010982,-0.00016615,0.00000670,-0.00004093,-0.00002923,-0.00057
 729,0.00042719,0.00072458,-0.00104053,0.00036921,-0.00244704,-0.007154
 07,-0.02157703,0.00112182,-0.00039337,-0.00034900,0.00610383,-0.000888
 51,0.00088707,0.00014946,0.00325892,0.00120681,0.00389557,0.00045910,0
 .00058948,-0.00011694,-0.00005418,0.00007823,0.00005765,-0.00007319,-0
 .00021491,0.00005708,0.00839395,0.00892158,-0.00023123,-0.12353155,-0.
 12610507,0.02209109,-0.00001330,0.00000983,-0.00000059,0.00000874,0.00
 000319,0.00001461,0.00001406,-0.00000878,-0.00001585,0.00000298,-0.000
 01005,0.00001547,0.00001764,-0.00000065,0.00001808,-0.00056885,-0.0002
 6476,-0.00035251,0.00000011,0.00000175,-0.00001249,0.00000105,0.000009
 24,-0.00001175,0.00000045,-0.00000493,-0.00002077,0.00027415,-0.000102
 53,-0.00010793,-0.00039244,-0.00113807,0.00012376,-0.00040131,0.000102
 76,-0.00053728,-0.00001588,0.00000760,0.00000245,0.00001598,-0.0000255
 8,-0.00000004,0.00000993,-0.00002388,0.00004866,-0.00126513,0.00043618
 ,-0.00233164,0.12387043,0.00000537,0.00000323,0.00000484,-0.00001849,-
 0.00001524,-0.00001892,0.00000885,-0.00000213,0.00001183,0.00005087,-0
 .00000134,-0.00000090,-0.00000193,-0.00003126,-0.00003200,-0.00002009,
 -0.00006004,-0.00007613,-0.00000149,-0.00003236,-0.00000607,0.00000390
 ,-0.00008393,0.00003464,-0.00001965,0.00003160,-0.00005863,0.00007406,
 0.00001676,-0.00004788,0.00066801,-0.00008168,0.00069487,0.00032682,-0
 .00026375,-0.00025113,-0.00017446,-0.00012154,-0.00000902,-0.00000887,
 -0.00000068,0.00000366,0.00029905,0.00016642,0.00009315,0.00121984,-0.
 00020105,0.00030776,0.00047656,0.00199693,-0.00082083,-0.00060733,0.00
 180989,-0.00120983,0.00085370,0.00024961,-0.00021028,0.00073584,-0.002
 10884,-0.00409324,-0.00095261,-0.00068442,0.00054011,0.00010508,-0.000
 16427,-0.00007873,0.00030962,0.00039138,-0.00020103,-0.01268789,-0.015
 49889,0.00343397,-0.12792826,-0.26782776,0.01864596,0.00000094,0.00000
 068,-0.00000045,-0.00000055,-0.00000113,-0.00000300,-0.00000310,-0.000
 00170,0.00000279,-0.00000573,0.00000054,-0.00000459,-0.00000207,0.0000
 1405,-0.00001237,0.00011653,-0.00022997,0.00005146,0.00000480,0.000003
 84,0.00000547,0.00000098,0.00000175,0.00000808,0.00000100,0.00000098,0
 .00000531,-0.00007479,0.00014718,0.00008404,0.00010461,0.00012340,-0.0
 0010356,0.00011476,-0.00011490,0.00021720,-0.00000608,0.00000052,-0.00
 000358,-0.00001662,0.00002480,0.00000190,-0.00006169,0.00002962,-0.000
 05626,0.00082400,0.00047627,0.00101931,0.13628649,0.28203746,-0.000049
 14,0.00000191,-0.00000303,0.00012219,-0.00000099,0.00005649,-0.0000522
 8,0.00001381,-0.00005916,-0.00006964,0.00001318,-0.00002274,0.00001484
 ,0.00010601,0.00002199,-0.00003783,0.00018469,0.00013278,-0.00000702,-
 0.00009157,0.00002201,-0.00001128,0.00001957,-0.00003215,-0.00000579,-
 0.00003318,-0.00001024,0.00010168,0.00003308,-0.00022226,-0.00002252,0
 .00016862,0.00004430,0.00004778,-0.00045647,0.00071707,0.00013344,-0.0
 0009334,-0.00021024,0.00001714,0.00003313,0.00000368,-0.00042070,-0.00
 019932,0.00024163,-0.00215206,0.00295549,-0.00169614,0.01035852,0.0158
 2757,0.00104237,0.00618915,-0.00119477,0.00115261,-0.00016613,-0.00014
 904,-0.00099439,0.00397816,-0.00431949,0.00253789,-0.00047421,-0.00071
 288,0.00014994,0.00003434,-0.00007245,0.00000865,0.00024849,0.00030474
 ,-0.00002615,-0.00818158,-0.01519526,0.00562446,0.02118192,0.01832070,
 -0.05007108,0.00000397,-0.00000300,0.00000409,0.00000695,0.00001709,0.
 00001258,0.00000983,0.00000175,-0.00000802,0.00000025,0.00000348,-0.00
 000112,-0.00002789,0.00001605,-0.00002990,-0.00071177,-0.00008237,-0.0
 0022304,-0.00000960,0.00000127,-0.00001045,0.00000870,0.00000310,-0.00
 004038,-0.00000406,-0.00000171,0.00000725,0.00032734,-0.00018103,-0.00
 005713,0.00043139,0.00092403,0.00005416,-0.00057209,0.00023838,-0.0005
 1831,-0.00002161,0.00000730,-0.00000126,-0.00000797,-0.00000358,-0.000
 00252,-0.00005218,0.00001129,0.00000429,-0.00213886,0.00145215,-0.0019
 5251,-0.02801983,-0.01786793,0.04435397\\-0.00000577,-0.00000597,0.000
 01228,0.00000398,0.00001089,-0.00001536,-0.00000220,0.00000330,0.00000
 019,-0.00000089,-0.00001431,-0.00000165,-0.00000622,0.00000850,0.00001
 682,-0.00000938,0.00000054,-0.00000570,0.00000141,0.00000183,0.0000000
 5,0.00001980,0.00000029,0.00000200,-0.00000598,0.00000159,-0.00000229,
 -0.00000342,0.00000070,-0.00000185,0.00000499,-0.00000130,0.00000380,-
 0.00000412,0.00000195,-0.00001238,0.00001208,-0.00000911,0.00000373,-0
 .00000598,-0.00000278,-0.00000837,-0.00000272,-0.00000406,0.00000965,-
 0.00000327,0.00001229,0.00000380,0.00000021,-0.00001185,-0.00000649,-0
 .00000274,0.00000287,-0.00000206,0.00000154,-0.00000178,-0.00000172,-0
 .00000275,0.00000240,0.00000245,-0.00000140,-0.00000530,0.00000229,0.0
 0000039,0.00000098,-0.00000142,0.00000572,0.00000289,-0.00000121,0.000
 00270,-0.00000125,0.00000187,0.00000138,0.00000439,0.00000243,-0.00000
 020,-0.00000439,-0.00000203,0.00000182,-0.00000027,-0.00000122,-0.0000
 0275,0.00000348,0.00000204,-0.00000034,-0.00000018,0.00000017,0.000001
 06,0.00000026,0.00000001,0.00000088,-0.00000063,-0.00000077,-0.0000018
 0,-0.00000021,0.00000073,-0.00000380,0.00000152,0.00000228,-0.00000082
 ,0.00000148,0.00000270,0.00000310,-0.00000062,0.00000132,-0.00000087,-
 0.00000055,-0.00000115,0.00000001,-0.00000019,-0.00000075,0.00000207,-
 0.00000045,-0.00000166,0.00000189,0.00000044,-0.00000110,0.00000148,0.
 00000052,-0.00000180,0.00000092,0.00000148,0.00000003,-0.00000005,0.00
 000066,0.00000033\\\@


 I DON'T PRETEND TO UNDERSTAND THE UNIVERSE --
 IT'S A GREAT DEAL BIGGER THAN I AM.
       -- ATTR. TO WILLIAM ALLINGHAM (1828-89)
 Job cpu time:       0 days 16 hours 55 minutes  2.1 seconds.
 Elapsed time:       0 days  0 hours 42 minutes 25.5 seconds.
 File lengths (MBytes):  RWF=   1735 Int=      0 D2E=      0 Chk=     38 Scr=      1
 Normal termination of Gaussian 16 at Mon Oct 14 01:52:00 2019.
real 9305.45
user 221658.87
sys 131.05
Machine:
brown-a428
brown-a428
brown-a428
brown-a428
brown-a428
brown-a428
brown-a428
brown-a428
brown-a428
brown-a428
brown-a428
brown-a428
brown-a428
brown-a428
brown-a428
brown-a428
brown-a428
brown-a428
brown-a428
brown-a428
brown-a428
brown-a428
brown-a428
brown-a428
