 Entering Gaussian System, Link 0=/apps/cent7/gaussian/g16-A.03/g16-haswell/g16/g16
 Initial command:
 /apps/cent7/gaussian/g16-A.03/g16-haswell/g16/l1.exe "/scratch/brown/finej/gaussian/Gau-348501.inp" -scrdir="/scratch/brown/finej/gaussian/"
 Entering Link 1 = /apps/cent7/gaussian/g16-A.03/g16-haswell/g16/l1.exe PID=    348502.
  
 Copyright (c) 1988,1990,1992,1993,1995,1998,2003,2009,2016,
            Gaussian, Inc.  All Rights Reserved.
  
 This is part of the Gaussian(R) 16 program.  It is based on
 the Gaussian(R) 09 system (copyright 2009, Gaussian, Inc.),
 the Gaussian(R) 03 system (copyright 2003, Gaussian, Inc.),
 the Gaussian(R) 98 system (copyright 1998, Gaussian, Inc.),
 the Gaussian(R) 94 system (copyright 1995, Gaussian, Inc.),
 the Gaussian 92(TM) system (copyright 1992, Gaussian, Inc.),
 the Gaussian 90(TM) system (copyright 1990, Gaussian, Inc.),
 the Gaussian 88(TM) system (copyright 1988, Gaussian, Inc.),
 the Gaussian 86(TM) system (copyright 1986, Carnegie Mellon
 University), and the Gaussian 82(TM) system (copyright 1983,
 Carnegie Mellon University). Gaussian is a federally registered
 trademark of Gaussian, Inc.
  
 This software contains proprietary and confidential information,
 including trade secrets, belonging to Gaussian, Inc.
  
 This software is provided under written license and may be
 used, copied, transmitted, or stored only in accord with that
 written license.
  
 The following legend is applicable only to US Government
 contracts under FAR:
  
                    RESTRICTED RIGHTS LEGEND
  
 Use, reproduction and disclosure by the US Government is
 subject to restrictions as set forth in subparagraphs (a)
 and (c) of the Commercial Computer Software - Restricted
 Rights clause in FAR 52.227-19.
  
 Gaussian, Inc.
 340 Quinnipiac St., Bldg. 40, Wallingford CT 06492
  
  
 ---------------------------------------------------------------
 Warning -- This program may not be used in any manner that
 competes with the business of Gaussian, Inc. or will provide
 assistance to any competitor of Gaussian, Inc.  The licensee
 of this program is prohibited from giving any competitor of
 Gaussian, Inc. access to this program.  By using this program,
 the user acknowledges that Gaussian, Inc. is engaged in the
 business of creating and licensing software in the field of
 computational chemistry and represents and warrants to the
 licensee that it is not a competitor of Gaussian, Inc. and that
 it will not use this program in any manner prohibited above.
 ---------------------------------------------------------------
  

 Cite this work as:
 Gaussian 16, Revision A.03,
 M. J. Frisch, G. W. Trucks, H. B. Schlegel, G. E. Scuseria, 
 M. A. Robb, J. R. Cheeseman, G. Scalmani, V. Barone, 
 G. A. Petersson, H. Nakatsuji, X. Li, M. Caricato, A. V. Marenich, 
 J. Bloino, B. G. Janesko, R. Gomperts, B. Mennucci, H. P. Hratchian, 
 J. V. Ortiz, A. F. Izmaylov, J. L. Sonnenberg, D. Williams-Young, 
 F. Ding, F. Lipparini, F. Egidi, J. Goings, B. Peng, A. Petrone, 
 T. Henderson, D. Ranasinghe, V. G. Zakrzewski, J. Gao, N. Rega, 
 G. Zheng, W. Liang, M. Hada, M. Ehara, K. Toyota, R. Fukuda, 
 J. Hasegawa, M. Ishida, T. Nakajima, Y. Honda, O. Kitao, H. Nakai, 
 T. Vreven, K. Throssell, J. A. Montgomery, Jr., J. E. Peralta, 
 F. Ogliaro, M. J. Bearpark, J. J. Heyd, E. N. Brothers, K. N. Kudin, 
 V. N. Staroverov, T. A. Keith, R. Kobayashi, J. Normand, 
 K. Raghavachari, A. P. Rendell, J. C. Burant, S. S. Iyengar, 
 J. Tomasi, M. Cossi, J. M. Millam, M. Klene, C. Adamo, R. Cammi, 
 J. W. Ochterski, R. L. Martin, K. Morokuma, O. Farkas, 
 J. B. Foresman, and D. J. Fox, Gaussian, Inc., Wallingford CT, 2016.
 
 ******************************************
 Gaussian 16:  ES64L-G16RevA.03 25-Dec-2016
                13-Oct-2019 
 ******************************************
 %chk=35_p.chk
 %nprocshared=24
 Will use up to   24 processors via shared memory.
 %mem=80GB
 -------------------------------------------------------------------
 #P opt freq m062x/6-311++g(d,p) geom=connectivity temperature=0.001
 -------------------------------------------------------------------
 1/18=20,19=15,26=3,38=1,57=2,112=-1000/1,3;
 2/9=110,12=2,17=6,18=5,40=1/2;
 3/5=4,6=6,7=1111,11=2,25=1,30=1,71=1,74=-55/1,2,3;
 4//1;
 5/5=2,38=5/2;
 6/7=2,8=2,9=2,10=2,28=1/1;
 7//1,2,3,16;
 1/18=20,19=15,26=3/3(2);
 2/9=110/2;
 99//99;
 2/9=110/2;
 3/5=4,6=6,7=1111,11=2,25=1,30=1,71=1,74=-55/1,2,3;
 4/5=5,16=3,69=1/1;
 5/5=2,38=5/2;
 7//1,2,3,16;
 1/18=20,19=15,26=3/3(-5);
 2/9=110/2;
 6/7=2,8=2,9=2,10=2,19=2,28=1/1;
 99/9=1/99;
 Leave Link    1 at Sun Oct 13 23:20:36 2019, MaxMem= 10737418240 cpu:               1.9 elap:               0.1
 (Enter /apps/cent7/gaussian/g16-A.03/g16-haswell/g16/l101.exe)
 -------------------
 Title Card Required
 -------------------
 Symbolic Z-matrix:
 Charge =  1 Multiplicity = 1
 O                    -2.8846    10.4796   5.3846 
 C                    -2.6308    9.4117    4.7825 
 O                    -3.6706    8.6661    4.3326 
 C                    -1.2227    9.0165    4.5703 
 C                    -1.0619    7.6891    3.9727 
 C                    -0.9032    7.4404    2.6338 
 C                    -0.874     8.3204    1.5301 
 C                    -0.7303    7.7895    0.2334 
 F                    -0.6725    8.5886   -0.7959 
 C                    -0.6619    6.3945    0.0478 
 C                    -0.7376    5.5247    1.1529 
 C                    -0.803     6.0602    2.4594 
 C                    -1.0674    6.4993    4.607 
 C                    -1.2725    6.3054    6.0444 
 C                    -0.8257    5.4794    3.7155 
 C                    -0.6215    4.185     4.0615 
 C                    -0.2248    3.1189    3.2672 
 C                    -0.9512    1.9054    3.3056 
 C                    -0.518     0.786     2.5734 
 C                     0.6478    0.8552    1.7787 
 S                     1.2237   -0.5685    0.8914 
 C                    -0.2035   -1.2592   -0.0224 
 O                     2.2033   -0.0382   -0.2631 
 C                     1.3835    2.0588    1.7485 
 C                     0.9596    3.1725    2.495 
 H                    -4.16      8.3152    5.0803 
 H                    -0.8206    9.7185    3.8397 
 H                    -0.7772    8.9481    5.5628 
 H                    -0.9615    9.3969    1.6773 
 H                    -0.5497    5.9858   -0.9565 
 H                    -0.7456    4.4457    0.9982 
 H                    -1.3042    5.2387    6.2663 
 H                    -0.452     6.7666    6.594 
 H                    -2.2141    6.7666    6.3425 
 H                    -0.7995    3.9738    5.1159 
 H                    -1.8569    1.8319    3.9075 
 H                    -1.0894   -0.1409    2.622 
 H                    -0.9488   -1.6198    0.6866 
 H                    -0.6436   -0.4834   -0.649 
 H                     0.1318   -2.0856   -0.649 
 H                     2.2872    2.129     1.1431 
 H                     1.5545    4.0856    2.475 
 H                     3.15479  -0.09143  -0.14721 
 
 ITRead=  0  0  0  0  0  0  0  0  0  0  0  0  0  0  0  0  0  0  0  0
 ITRead=  0  0  0  0  0  0  0  0  0  0  0  0  0  0  0  0  0  0  0  0
 ITRead=  0  0  0
 MicOpt= -1 -1 -1 -1 -1 -1 -1 -1 -1 -1 -1 -1 -1 -1 -1 -1 -1 -1 -1 -1
 MicOpt= -1 -1 -1 -1 -1 -1 -1 -1 -1 -1 -1 -1 -1 -1 -1 -1 -1 -1 -1 -1
 MicOpt= -1 -1 -1
 NAtoms=     43 NQM=       43 NQMF=       0 NMMI=      0 NMMIF=      0
                NMic=       0 NMicF=      0.
                    Isotopes and Nuclear Properties:
 (Nuclear quadrupole moments (NQMom) in fm**2, nuclear magnetic moments (NMagM)
  in nuclear magnetons)

  Atom         1           2           3           4           5           6           7           8           9          10
 IAtWgt=          16          12          16          12          12          12          12          12          19          12
 AtmWgt=  15.9949146  12.0000000  15.9949146  12.0000000  12.0000000  12.0000000  12.0000000  12.0000000  18.9984033  12.0000000
 NucSpn=           0           0           0           0           0           0           0           0           1           0
 AtZEff=  -0.0000000  -0.0000000  -0.0000000  -0.0000000  -0.0000000  -0.0000000  -0.0000000  -0.0000000  -0.0000000  -0.0000000
 NQMom=    0.0000000   0.0000000   0.0000000   0.0000000   0.0000000   0.0000000   0.0000000   0.0000000   0.0000000   0.0000000
 NMagM=    0.0000000   0.0000000   0.0000000   0.0000000   0.0000000   0.0000000   0.0000000   0.0000000   2.6288670   0.0000000
 AtZNuc=   8.0000000   6.0000000   8.0000000   6.0000000   6.0000000   6.0000000   6.0000000   6.0000000   9.0000000   6.0000000

  Atom        11          12          13          14          15          16          17          18          19          20
 IAtWgt=          12          12          12          12          12          12          12          12          12          12
 AtmWgt=  12.0000000  12.0000000  12.0000000  12.0000000  12.0000000  12.0000000  12.0000000  12.0000000  12.0000000  12.0000000
 NucSpn=           0           0           0           0           0           0           0           0           0           0
 AtZEff=  -0.0000000  -0.0000000  -0.0000000  -0.0000000  -0.0000000  -0.0000000  -0.0000000  -0.0000000  -0.0000000  -0.0000000
 NQMom=    0.0000000   0.0000000   0.0000000   0.0000000   0.0000000   0.0000000   0.0000000   0.0000000   0.0000000   0.0000000
 NMagM=    0.0000000   0.0000000   0.0000000   0.0000000   0.0000000   0.0000000   0.0000000   0.0000000   0.0000000   0.0000000
 AtZNuc=   6.0000000   6.0000000   6.0000000   6.0000000   6.0000000   6.0000000   6.0000000   6.0000000   6.0000000   6.0000000

  Atom        21          22          23          24          25          26          27          28          29          30
 IAtWgt=          32          12          16          12          12           1           1           1           1           1
 AtmWgt=  31.9720718  12.0000000  15.9949146  12.0000000  12.0000000   1.0078250   1.0078250   1.0078250   1.0078250   1.0078250
 NucSpn=           0           0           0           0           0           1           1           1           1           1
 AtZEff=  -0.0000000  -0.0000000  -0.0000000  -0.0000000  -0.0000000  -0.0000000  -0.0000000  -0.0000000  -0.0000000  -0.0000000
 NQMom=    0.0000000   0.0000000   0.0000000   0.0000000   0.0000000   0.0000000   0.0000000   0.0000000   0.0000000   0.0000000
 NMagM=    0.0000000   0.0000000   0.0000000   0.0000000   0.0000000   2.7928460   2.7928460   2.7928460   2.7928460   2.7928460
 AtZNuc=  16.0000000   6.0000000   8.0000000   6.0000000   6.0000000   1.0000000   1.0000000   1.0000000   1.0000000   1.0000000

  Atom        31          32          33          34          35          36          37          38          39          40
 IAtWgt=           1           1           1           1           1           1           1           1           1           1
 AtmWgt=   1.0078250   1.0078250   1.0078250   1.0078250   1.0078250   1.0078250   1.0078250   1.0078250   1.0078250   1.0078250
 NucSpn=           1           1           1           1           1           1           1           1           1           1
 AtZEff=  -0.0000000  -0.0000000  -0.0000000  -0.0000000  -0.0000000  -0.0000000  -0.0000000  -0.0000000  -0.0000000  -0.0000000
 NQMom=    0.0000000   0.0000000   0.0000000   0.0000000   0.0000000   0.0000000   0.0000000   0.0000000   0.0000000   0.0000000
 NMagM=    2.7928460   2.7928460   2.7928460   2.7928460   2.7928460   2.7928460   2.7928460   2.7928460   2.7928460   2.7928460
 AtZNuc=   1.0000000   1.0000000   1.0000000   1.0000000   1.0000000   1.0000000   1.0000000   1.0000000   1.0000000   1.0000000

  Atom        41          42          43
 IAtWgt=           1           1           1
 AtmWgt=   1.0078250   1.0078250   1.0078250
 NucSpn=           1           1           1
 AtZEff=  -0.0000000  -0.0000000  -0.0000000
 NQMom=    0.0000000   0.0000000   0.0000000
 NMagM=    2.7928460   2.7928460   2.7928460
 AtZNuc=   1.0000000   1.0000000   1.0000000
 Leave Link  101 at Sun Oct 13 23:20:36 2019, MaxMem= 10737418240 cpu:               9.7 elap:               0.4
 (Enter /apps/cent7/gaussian/g16-A.03/g16-haswell/g16/l103.exe)

 GradGradGradGradGradGradGradGradGradGradGradGradGradGradGradGradGradGrad
 Berny optimization.
 Initialization pass.
                           ----------------------------
                           !    Initial Parameters    !
                           ! (Angstroms and Degrees)  !
 --------------------------                            --------------------------
 ! Name  Definition              Value          Derivative Info.                !
 --------------------------------------------------------------------------------
 ! R1    R(1,2)                  1.2519         estimate D2E/DX2                !
 ! R2    R(2,3)                  1.3563         estimate D2E/DX2                !
 ! R3    R(2,4)                  1.4778         estimate D2E/DX2                !
 ! R4    R(3,26)                 0.9601         estimate D2E/DX2                !
 ! R5    R(4,5)                  1.4646         estimate D2E/DX2                !
 ! R6    R(4,27)                 1.0901         estimate D2E/DX2                !
 ! R7    R(4,28)                 1.09           estimate D2E/DX2                !
 ! R8    R(5,6)                  1.371          estimate D2E/DX2                !
 ! R9    R(5,13)                 1.3483         estimate D2E/DX2                !
 ! R10   R(6,7)                  1.4119         estimate D2E/DX2                !
 ! R11   R(6,12)                 1.3948         estimate D2E/DX2                !
 ! R12   R(7,8)                  1.4085         estimate D2E/DX2                !
 ! R13   R(7,29)                 1.09           estimate D2E/DX2                !
 ! R14   R(8,9)                  1.3044         estimate D2E/DX2                !
 ! R15   R(8,10)                 1.409          estimate D2E/DX2                !
 ! R16   R(10,11)                1.4084         estimate D2E/DX2                !
 ! R17   R(10,30)                1.0901         estimate D2E/DX2                !
 ! R18   R(11,12)                1.4135         estimate D2E/DX2                !
 ! R19   R(11,31)                1.0901         estimate D2E/DX2                !
 ! R20   R(12,15)                1.3841         estimate D2E/DX2                !
 ! R21   R(13,14)                1.4648         estimate D2E/DX2                !
 ! R22   R(13,15)                1.376          estimate D2E/DX2                !
 ! R23   R(14,32)                1.09           estimate D2E/DX2                !
 ! R24   R(14,33)                1.0899         estimate D2E/DX2                !
 ! R25   R(14,34)                1.09           estimate D2E/DX2                !
 ! R26   R(15,16)                1.3553         estimate D2E/DX2                !
 ! R27   R(16,17)                1.3874         estimate D2E/DX2                !
 ! R28   R(16,35)                1.09           estimate D2E/DX2                !
 ! R29   R(17,18)                1.4148         estimate D2E/DX2                !
 ! R30   R(17,25)                1.4149         estimate D2E/DX2                !
 ! R31   R(18,19)                1.406          estimate D2E/DX2                !
 ! R32   R(18,36)                1.0899         estimate D2E/DX2                !
 ! R33   R(19,20)                1.4126         estimate D2E/DX2                !
 ! R34   R(19,37)                1.09           estimate D2E/DX2                !
 ! R35   R(20,21)                1.7737         estimate D2E/DX2                !
 ! R36   R(20,24)                1.411          estimate D2E/DX2                !
 ! R37   R(21,22)                1.83           estimate D2E/DX2                !
 ! R38   R(21,23)                1.6043         estimate D2E/DX2                !
 ! R39   R(22,38)                1.09           estimate D2E/DX2                !
 ! R40   R(22,39)                1.09           estimate D2E/DX2                !
 ! R41   R(22,40)                1.0899         estimate D2E/DX2                !
 ! R42   R(23,43)                0.96           estimate D2E/DX2                !
 ! R43   R(24,25)                1.4062         estimate D2E/DX2                !
 ! R44   R(24,41)                1.09           estimate D2E/DX2                !
 ! R45   R(25,42)                1.09           estimate D2E/DX2                !
 ! A1    A(1,2,3)              118.2316         estimate D2E/DX2                !
 ! A2    A(1,2,4)              119.3621         estimate D2E/DX2                !
 ! A3    A(3,2,4)              122.4009         estimate D2E/DX2                !
 ! A4    A(2,3,26)             109.4751         estimate D2E/DX2                !
 ! A5    A(2,4,5)              113.9273         estimate D2E/DX2                !
 ! A6    A(2,4,27)             105.9913         estimate D2E/DX2                !
 ! A7    A(2,4,28)             105.9892         estimate D2E/DX2                !
 ! A8    A(5,4,27)             105.6463         estimate D2E/DX2                !
 ! A9    A(5,4,28)             105.651          estimate D2E/DX2                !
 ! A10   A(27,4,28)            119.9936         estimate D2E/DX2                !
 ! A11   A(4,5,6)              125.1413         estimate D2E/DX2                !
 ! A12   A(4,5,13)             127.3999         estimate D2E/DX2                !
 ! A13   A(6,5,13)             107.4465         estimate D2E/DX2                !
 ! A14   A(5,6,7)              130.7487         estimate D2E/DX2                !
 ! A15   A(5,6,12)             108.0548         estimate D2E/DX2                !
 ! A16   A(7,6,12)             121.1672         estimate D2E/DX2                !
 ! A17   A(6,7,8)              119.1334         estimate D2E/DX2                !
 ! A18   A(6,7,29)             120.5518         estimate D2E/DX2                !
 ! A19   A(8,7,29)             120.3147         estimate D2E/DX2                !
 ! A20   A(7,8,9)              120.0052         estimate D2E/DX2                !
 ! A21   A(7,8,10)             119.961          estimate D2E/DX2                !
 ! A22   A(9,8,10)             120.031          estimate D2E/DX2                !
 ! A23   A(8,10,11)            120.3646         estimate D2E/DX2                !
 ! A24   A(8,10,30)            119.84           estimate D2E/DX2                !
 ! A25   A(11,10,30)           119.7953         estimate D2E/DX2                !
 ! A26   A(10,11,12)           119.5893         estimate D2E/DX2                !
 ! A27   A(10,11,31)           120.0237         estimate D2E/DX2                !
 ! A28   A(12,11,31)           120.387          estimate D2E/DX2                !
 ! A29   A(6,12,11)            119.5896         estimate D2E/DX2                !
 ! A30   A(6,12,15)            107.4932         estimate D2E/DX2                !
 ! A31   A(11,12,15)           132.8927         estimate D2E/DX2                !
 ! A32   A(5,13,14)            125.3799         estimate D2E/DX2                !
 ! A33   A(5,13,15)            110.3987         estimate D2E/DX2                !
 ! A34   A(14,13,15)           124.2103         estimate D2E/DX2                !
 ! A35   A(13,14,32)           109.4738         estimate D2E/DX2                !
 ! A36   A(13,14,33)           109.4743         estimate D2E/DX2                !
 ! A37   A(13,14,34)           109.4689         estimate D2E/DX2                !
 ! A38   A(32,14,33)           109.4713         estimate D2E/DX2                !
 ! A39   A(32,14,34)           109.4671         estimate D2E/DX2                !
 ! A40   A(33,14,34)           109.4719         estimate D2E/DX2                !
 ! A41   A(12,15,13)           106.2504         estimate D2E/DX2                !
 ! A42   A(12,15,16)           129.0494         estimate D2E/DX2                !
 ! A43   A(13,15,16)           124.6773         estimate D2E/DX2                !
 ! A44   A(15,16,17)           129.1096         estimate D2E/DX2                !
 ! A45   A(15,16,35)           114.0422         estimate D2E/DX2                !
 ! A46   A(17,16,35)           116.8482         estimate D2E/DX2                !
 ! A47   A(16,17,18)           119.7843         estimate D2E/DX2                !
 ! A48   A(16,17,25)           121.5132         estimate D2E/DX2                !
 ! A49   A(18,17,25)           118.4951         estimate D2E/DX2                !
 ! A50   A(17,18,19)           120.7003         estimate D2E/DX2                !
 ! A51   A(17,18,36)           119.9643         estimate D2E/DX2                !
 ! A52   A(19,18,36)           119.3354         estimate D2E/DX2                !
 ! A53   A(18,19,20)           120.5474         estimate D2E/DX2                !
 ! A54   A(18,19,37)           119.4926         estimate D2E/DX2                !
 ! A55   A(20,19,37)           119.96           estimate D2E/DX2                !
 ! A56   A(19,20,21)           120.6695         estimate D2E/DX2                !
 ! A57   A(19,20,24)           118.9567         estimate D2E/DX2                !
 ! A58   A(21,20,24)           120.3122         estimate D2E/DX2                !
 ! A59   A(20,21,22)           107.4296         estimate D2E/DX2                !
 ! A60   A(20,21,23)           107.0342         estimate D2E/DX2                !
 ! A61   A(22,21,23)           103.9825         estimate D2E/DX2                !
 ! A62   A(21,22,38)           109.4694         estimate D2E/DX2                !
 ! A63   A(21,22,39)           109.4688         estimate D2E/DX2                !
 ! A64   A(21,22,40)           109.4701         estimate D2E/DX2                !
 ! A65   A(38,22,39)           109.4684         estimate D2E/DX2                !
 ! A66   A(38,22,40)           109.4778         estimate D2E/DX2                !
 ! A67   A(39,22,40)           109.4728         estimate D2E/DX2                !
 ! A68   A(21,23,43)           120.0            estimate D2E/DX2                !
 ! A69   A(20,24,25)           120.4687         estimate D2E/DX2                !
 ! A70   A(20,24,41)           119.9419         estimate D2E/DX2                !
 ! A71   A(25,24,41)           119.5894         estimate D2E/DX2                !
 ! A72   A(17,25,24)           120.8022         estimate D2E/DX2                !
 ! A73   A(17,25,42)           119.9088         estimate D2E/DX2                !
 ! A74   A(24,25,42)           119.2889         estimate D2E/DX2                !
 ! D1    D(1,2,3,26)           -67.0537         estimate D2E/DX2                !
 ! D2    D(4,2,3,26)           113.7942         estimate D2E/DX2                !
 ! D3    D(1,2,4,5)            174.3264         estimate D2E/DX2                !
 ! D4    D(1,2,4,27)           -69.9462         estimate D2E/DX2                !
 ! D5    D(1,2,4,28)            58.5946         estimate D2E/DX2                !
 ! D6    D(3,2,4,5)             -6.5307         estimate D2E/DX2                !
 ! D7    D(3,2,4,27)           109.1967         estimate D2E/DX2                !
 ! D8    D(3,2,4,28)          -122.2626         estimate D2E/DX2                !
 ! D9    D(2,4,5,6)             95.0334         estimate D2E/DX2                !
 ! D10   D(2,4,5,13)           -83.5323         estimate D2E/DX2                !
 ! D11   D(27,4,5,6)           -20.896          estimate D2E/DX2                !
 ! D12   D(27,4,5,13)          160.5383         estimate D2E/DX2                !
 ! D13   D(28,4,5,6)          -149.0368         estimate D2E/DX2                !
 ! D14   D(28,4,5,13)           32.3975         estimate D2E/DX2                !
 ! D15   D(4,5,6,7)             -1.1356         estimate D2E/DX2                !
 ! D16   D(4,5,6,12)          -179.1361         estimate D2E/DX2                !
 ! D17   D(13,5,6,7)           177.6701         estimate D2E/DX2                !
 ! D18   D(13,5,6,12)           -0.3304         estimate D2E/DX2                !
 ! D19   D(4,5,13,14)            1.5953         estimate D2E/DX2                !
 ! D20   D(4,5,13,15)         -177.2346         estimate D2E/DX2                !
 ! D21   D(6,5,13,14)         -177.1753         estimate D2E/DX2                !
 ! D22   D(6,5,13,15)            3.9948         estimate D2E/DX2                !
 ! D23   D(5,6,7,8)           -178.2853         estimate D2E/DX2                !
 ! D24   D(5,6,7,29)             1.7061         estimate D2E/DX2                !
 ! D25   D(12,6,7,8)            -0.5071         estimate D2E/DX2                !
 ! D26   D(12,6,7,29)          179.4842         estimate D2E/DX2                !
 ! D27   D(5,6,12,11)          175.0554         estimate D2E/DX2                !
 ! D28   D(5,6,12,15)           -3.3686         estimate D2E/DX2                !
 ! D29   D(7,6,12,11)           -3.1743         estimate D2E/DX2                !
 ! D30   D(7,6,12,15)          178.4016         estimate D2E/DX2                !
 ! D31   D(6,7,8,9)           -178.5343         estimate D2E/DX2                !
 ! D32   D(6,7,8,10)             2.0715         estimate D2E/DX2                !
 ! D33   D(29,7,8,9)             1.4743         estimate D2E/DX2                !
 ! D34   D(29,7,8,10)         -177.9198         estimate D2E/DX2                !
 ! D35   D(7,8,10,11)            0.0555         estimate D2E/DX2                !
 ! D36   D(7,8,10,30)         -179.9401         estimate D2E/DX2                !
 ! D37   D(9,8,10,11)         -179.3385         estimate D2E/DX2                !
 ! D38   D(9,8,10,30)            0.6659         estimate D2E/DX2                !
 ! D39   D(8,10,11,12)          -3.74           estimate D2E/DX2                !
 ! D40   D(8,10,11,31)         176.2543         estimate D2E/DX2                !
 ! D41   D(30,10,11,12)        176.2556         estimate D2E/DX2                !
 ! D42   D(30,10,11,31)         -3.7502         estimate D2E/DX2                !
 ! D43   D(10,11,12,6)           5.2721         estimate D2E/DX2                !
 ! D44   D(10,11,12,15)       -176.7797         estimate D2E/DX2                !
 ! D45   D(31,11,12,6)        -174.7222         estimate D2E/DX2                !
 ! D46   D(31,11,12,15)          3.2261         estimate D2E/DX2                !
 ! D47   D(6,12,15,13)           5.6479         estimate D2E/DX2                !
 ! D48   D(6,12,15,16)        -172.651          estimate D2E/DX2                !
 ! D49   D(11,12,15,13)       -172.4815         estimate D2E/DX2                !
 ! D50   D(11,12,15,16)          9.2196         estimate D2E/DX2                !
 ! D51   D(5,13,14,32)         175.6076         estimate D2E/DX2                !
 ! D52   D(5,13,14,33)         -64.3888         estimate D2E/DX2                !
 ! D53   D(5,13,14,34)          55.6125         estimate D2E/DX2                !
 ! D54   D(15,13,14,32)         -5.7186         estimate D2E/DX2                !
 ! D55   D(15,13,14,33)        114.285          estimate D2E/DX2                !
 ! D56   D(15,13,14,34)       -125.7137         estimate D2E/DX2                !
 ! D57   D(5,13,15,12)          -6.0444         estimate D2E/DX2                !
 ! D58   D(5,13,15,16)         172.3492         estimate D2E/DX2                !
 ! D59   D(14,13,15,12)        175.1092         estimate D2E/DX2                !
 ! D60   D(14,13,15,16)         -6.4972         estimate D2E/DX2                !
 ! D61   D(12,15,16,17)          6.0727         estimate D2E/DX2                !
 ! D62   D(12,15,16,35)       -173.9261         estimate D2E/DX2                !
 ! D63   D(13,15,16,17)       -171.9413         estimate D2E/DX2                !
 ! D64   D(13,15,16,35)          8.0599         estimate D2E/DX2                !
 ! D65   D(15,16,17,18)       -130.2789         estimate D2E/DX2                !
 ! D66   D(15,16,17,25)         55.0336         estimate D2E/DX2                !
 ! D67   D(35,16,17,18)         49.7199         estimate D2E/DX2                !
 ! D68   D(35,16,17,25)       -124.9676         estimate D2E/DX2                !
 ! D69   D(16,17,18,19)       -175.9739         estimate D2E/DX2                !
 ! D70   D(16,17,18,36)          4.0247         estimate D2E/DX2                !
 ! D71   D(25,17,18,19)         -1.1268         estimate D2E/DX2                !
 ! D72   D(25,17,18,36)        178.8719         estimate D2E/DX2                !
 ! D73   D(16,17,25,24)        176.735          estimate D2E/DX2                !
 ! D74   D(16,17,25,42)         -3.2597         estimate D2E/DX2                !
 ! D75   D(18,17,25,24)          1.981          estimate D2E/DX2                !
 ! D76   D(18,17,25,42)       -178.0137         estimate D2E/DX2                !
 ! D77   D(17,18,19,20)         -0.3762         estimate D2E/DX2                !
 ! D78   D(17,18,19,37)        179.6337         estimate D2E/DX2                !
 ! D79   D(36,18,19,20)        179.6252         estimate D2E/DX2                !
 ! D80   D(36,18,19,37)         -0.365          estimate D2E/DX2                !
 ! D81   D(18,19,20,21)        178.1968         estimate D2E/DX2                !
 ! D82   D(18,19,20,24)          1.0418         estimate D2E/DX2                !
 ! D83   D(37,19,20,21)         -1.8131         estimate D2E/DX2                !
 ! D84   D(37,19,20,24)       -178.9681         estimate D2E/DX2                !
 ! D85   D(19,20,21,22)         49.4057         estimate D2E/DX2                !
 ! D86   D(19,20,21,23)        160.5711         estimate D2E/DX2                !
 ! D87   D(24,20,21,22)       -133.4779         estimate D2E/DX2                !
 ! D88   D(24,20,21,23)        -22.3125         estimate D2E/DX2                !
 ! D89   D(19,20,24,25)         -0.1911         estimate D2E/DX2                !
 ! D90   D(19,20,24,41)        179.8164         estimate D2E/DX2                !
 ! D91   D(21,20,24,25)       -177.3565         estimate D2E/DX2                !
 ! D92   D(21,20,24,41)          2.6509         estimate D2E/DX2                !
 ! D93   D(20,21,22,38)        -64.8923         estimate D2E/DX2                !
 ! D94   D(20,21,22,39)         55.1017         estimate D2E/DX2                !
 ! D95   D(20,21,22,40)        175.1014         estimate D2E/DX2                !
 ! D96   D(23,21,22,38)       -178.1326         estimate D2E/DX2                !
 ! D97   D(23,21,22,39)        -58.1386         estimate D2E/DX2                !
 ! D98   D(23,21,22,40)         61.8611         estimate D2E/DX2                !
 ! D99   D(20,21,23,43)        101.1035         estimate D2E/DX2                !
 ! D100  D(22,21,23,43)       -145.3726         estimate D2E/DX2                !
 ! D101  D(20,24,25,17)         -1.3392         estimate D2E/DX2                !
 ! D102  D(20,24,25,42)        178.6555         estimate D2E/DX2                !
 ! D103  D(41,24,25,17)        178.6534         estimate D2E/DX2                !
 ! D104  D(41,24,25,42)         -1.3519         estimate D2E/DX2                !
 --------------------------------------------------------------------------------
 Trust Radius=3.00D-01 FncErr=1.00D-07 GrdErr=1.00D-06 EigMax=2.50D+02 EigMin=1.00D-04
 Number of steps in this run=    233 maximum allowed number of steps=    258.
 GradGradGradGradGradGradGradGradGradGradGradGradGradGradGradGradGradGrad

 Leave Link  103 at Sun Oct 13 23:20:36 2019, MaxMem= 10737418240 cpu:               0.4 elap:               0.0
 (Enter /apps/cent7/gaussian/g16-A.03/g16-haswell/g16/l202.exe)
                          Input orientation:                          
 ---------------------------------------------------------------------
 Center     Atomic      Atomic             Coordinates (Angstroms)
 Number     Number       Type             X           Y           Z
 ---------------------------------------------------------------------
      1          8           0       -2.884600   10.479600    5.384600
      2          6           0       -2.630800    9.411700    4.782500
      3          8           0       -3.670600    8.666100    4.332600
      4          6           0       -1.222700    9.016500    4.570300
      5          6           0       -1.061900    7.689100    3.972700
      6          6           0       -0.903200    7.440400    2.633800
      7          6           0       -0.874000    8.320400    1.530100
      8          6           0       -0.730300    7.789500    0.233400
      9          9           0       -0.672500    8.588600   -0.795900
     10          6           0       -0.661900    6.394500    0.047800
     11          6           0       -0.737600    5.524700    1.152900
     12          6           0       -0.803000    6.060200    2.459400
     13          6           0       -1.067400    6.499300    4.607000
     14          6           0       -1.272500    6.305400    6.044400
     15          6           0       -0.825700    5.479400    3.715500
     16          6           0       -0.621500    4.185000    4.061500
     17          6           0       -0.224800    3.118900    3.267200
     18          6           0       -0.951200    1.905400    3.305600
     19          6           0       -0.518000    0.786000    2.573400
     20          6           0        0.647800    0.855200    1.778700
     21         16           0        1.223700   -0.568500    0.891400
     22          6           0       -0.203500   -1.259200   -0.022400
     23          8           0        2.203300   -0.038200   -0.263100
     24          6           0        1.383500    2.058800    1.748500
     25          6           0        0.959600    3.172500    2.495000
     26          1           0       -4.160000    8.315200    5.080300
     27          1           0       -0.820600    9.718500    3.839700
     28          1           0       -0.777200    8.948100    5.562800
     29          1           0       -0.961500    9.396900    1.677300
     30          1           0       -0.549700    5.985800   -0.956500
     31          1           0       -0.745600    4.445700    0.998200
     32          1           0       -1.304200    5.238700    6.266300
     33          1           0       -0.452000    6.766600    6.594000
     34          1           0       -2.214100    6.766600    6.342500
     35          1           0       -0.799500    3.973800    5.115900
     36          1           0       -1.856900    1.831900    3.907500
     37          1           0       -1.089400   -0.140900    2.622000
     38          1           0       -0.948800   -1.619800    0.686600
     39          1           0       -0.643600   -0.483400   -0.649000
     40          1           0        0.131800   -2.085600   -0.649000
     41          1           0        2.287200    2.129000    1.143100
     42          1           0        1.554500    4.085600    2.475000
     43          1           0        3.154791   -0.091433   -0.147207
 ---------------------------------------------------------------------
                    Distance matrix (angstroms):
                    1          2          3          4          5
     1  O    0.000000
     2  C    1.251938   0.000000
     3  O    2.239036   1.356287   0.000000
     4  C    2.359165   1.477822   2.484250   0.000000
     5  C    3.619750   2.466693   2.808803   1.464573   0.000000
     6  C    4.552975   3.389327   3.470845   2.517182   1.371018
     7  C    4.854053   3.854269   3.974228   3.138306   2.529850
     8  C    6.197783   5.190158   5.120277   4.533948   3.755317
     9  F    6.831387   5.969169   5.941054   5.411277   4.868293
    10  C    7.078833   5.949575   5.707184   5.257603   4.152208
    11  C    6.860607   5.645084   5.346155   4.909848   3.569464
    12  C    5.693940   4.468803   4.303803   3.656741   2.238397
    13  C    4.444060   3.310150   3.398083   2.522253   1.348329
    14  C    4.523068   3.617523   3.775453   3.086343   2.500184
    15  C    5.659237   4.456440   4.316170   3.660515   2.237122
    16  C    6.818666   5.645841   5.426856   4.895274   3.532783
    17  C    8.107886   6.905382   6.616649   6.121728   4.699489
    18  C    9.032009   7.832422   7.359139   7.227788   5.823097
    19  C   10.366751   9.151325   8.667736   8.498549   7.064464
    20  C   10.867817   9.642911   9.283380   8.826019   7.378272
    21  S   12.614574  11.384297  11.003357  10.554213   9.105292
    22  C   13.199370  11.951860  11.379736  11.301401   9.837162
    23  O   12.977186  11.752753  11.462460  10.820667   9.397590
    24  C   10.116708   8.909820   8.710793   7.947605   6.528960
    25  C    8.747650   7.553227   7.415873   6.574317   5.164275
    26  H    2.530587   1.905111   0.960051   3.062622   3.349179
    27  H    2.688138   2.063934   3.077823   1.090076   2.048018
    28  H    2.611203   2.063886   3.156688   1.090048   2.048061
    29  H    4.314467   3.525486   3.863148   2.929570   2.862782
    30  H    8.115143   7.000278   6.700642   6.339053   5.240286
    31  H    7.760398   6.521968   6.122550   5.820630   4.412181
    32  H    5.544555   4.623360   4.591962   4.141839   3.365081
    33  H    4.600713   3.876242   4.368228   3.122722   2.845030
    34  H    3.892751   3.098999   3.125570   3.030778   2.791867
    35  H    6.837052   5.747658   5.556479   5.089755   3.896051
    36  H    8.832933   7.669284   7.083538   7.242927   5.911266
    37  H   11.119790   9.914426   9.335523   9.363312   7.945694
    38  H   13.123033  11.886947  11.247277  11.326474   9.872531
    39  H   12.712741  11.461377  10.848614  10.854702   9.398130
    40  H   14.261390  13.012343  12.444824  12.342301  10.877950
    41  H   10.699082   9.511555   9.402232   8.455930   7.080806
    42  H    8.309911   7.156021   7.192588   6.034641   4.698283
    43  H   13.372430  12.169002  11.972845  11.152208   9.761702
                    6          7          8          9         10
     6  C    0.000000
     7  C    1.411880   0.000000
     8  C    2.431807   1.408522   0.000000
     9  F    3.624145   2.350066   1.304362   0.000000
    10  C    2.799916   2.439527   1.408954   2.350748   0.000000
    11  C    2.427014   2.824327   2.444351   3.631741   1.408378
    12  C    1.394779   2.444820   2.819723   4.123932   2.438746
    13  C    2.192293   3.580659   4.572377   5.806242   4.578397
    14  C    3.613419   4.959630   6.021981   7.236208   6.028265
    15  C    2.240893   3.584632   4.179795   5.481179   3.783684
    16  C    3.565854   4.855232   5.259145   6.556571   4.581846
    17  C    4.420043   5.522190   5.592314   6.828385   4.613583
    18  C    5.575827   6.656620   6.641524   7.846346   5.554185
    19  C    6.665813   7.614617   7.387130   8.500389   6.152612
    20  C    6.819212   7.622787   7.236824   8.256951   5.949384
    21  S    8.467712   9.155371   8.608556   9.502370   7.262955
    22  C    9.122939   9.727721   9.067631   9.889258   7.667736
    23  O    8.600688   9.085788   8.374092   9.109104   7.048806
    24  C    5.913913   6.659703   6.293219   7.303382   5.086682
    25  C    4.658783   5.549234   5.411773   6.544304   4.358823
    26  H    4.166219   4.837535   5.960842   6.838650   6.422760
    27  H    2.578906   2.700331   4.090794   4.773614   5.045064
    28  H    3.296677   4.082407   5.454086   6.369715   6.078601
    29  H    2.178574   1.090035   2.173024   2.617936   3.429203
    30  H    3.889869   3.426180   2.168366   2.610640   1.090066
    31  H    3.415882   3.913145   3.430182   4.515281   2.169813
    32  H    4.266537   5.666881   6.575091   7.841909   6.357528
    33  H    4.042372   5.313705   6.448334   7.614389   6.560126
    34  H    3.990855   5.231573   6.369387   7.526817   6.493923
    35  H    4.264843   5.635286   6.197028   7.500792   5.618217
    36  H    5.829848   6.979882   7.089516   8.317317   6.094475
    37  H    7.583595   8.534181   8.290091   9.384030   7.037096
    38  H    9.267194   9.976205   9.422742  10.319185   8.044836
    39  H    8.580838   9.072401   8.320278   9.073235   6.913131
    40  H   10.128804  10.679183   9.951856  10.705467   8.545618
    41  H    6.372739   6.962499   6.478744   7.365187   5.300129
    42  H    4.161753   4.972321   4.895299   5.994608   4.016808
    43  H    8.996099   9.476469   8.794766   9.508519   7.528113
                   11         12         13         14         15
    11  C    0.000000
    12  C    1.413499   0.000000
    13  C    3.604084   2.207918   0.000000
    14  C    4.982207   3.623918   1.464849   0.000000
    15  C    2.564514   1.384063   1.376004   2.511112   0.000000
    16  C    3.204408   2.473063   2.419170   2.975196   1.355317
    17  C    3.243625   3.104529   3.732579   4.354802   2.476694
    18  C    4.216524   4.242686   4.776093   5.192712   3.599617
    19  C    4.951901   5.283125   6.089266   6.563603   4.840152
    20  C    4.910722   5.446118   6.541946   7.182509   5.225478
    21  S    6.406416   7.106743   8.307143   8.946224   6.982312
    22  C    6.905642   7.751925   9.075902   9.755614   7.730961
    23  O    6.449791   7.323956   8.783750   9.597239   7.446342
    24  C    4.106856   4.614907   5.822025   6.598690   4.522185
    25  C    3.196023   3.383318   4.431351   5.234078   3.162073
    26  H    5.909669   4.819086   3.617414   3.647799   4.584975
    27  H    4.981339   3.910076   3.318570   4.088296   4.240922
    28  H    5.582871   4.239307   2.644691   2.731506   3.930235
    29  H    3.913957   3.430797   4.121946   5.359632   4.418089
    30  H    2.167369   3.426087   5.611081   7.045366   4.707462
    31  H    1.090063   2.178304   4.164645   5.403725   2.908379
    32  H    5.152639   3.926646   2.097251   1.089997   2.606430
    33  H    5.588332   4.209171   2.097221   1.089948   3.175263
    34  H    5.536634   4.191500   2.097220   1.090037   3.238158
    35  H    4.256112   3.377879   2.590154   2.553860   2.056365
    36  H    4.741036   4.591973   4.785105   4.992000   3.795325
    37  H    5.863535   6.209839   6.930582   7.300762   5.731758
    38  H    7.162815   7.883304   9.016839   9.571813   7.719328
    39  H    6.273193   7.246120   8.750042   9.554314   7.391685
    40  H    7.868886   8.768698  10.137264  10.825089   8.786062
    41  H    4.547559   5.170717   6.507800   7.357753   5.247149
    42  H    3.012089   3.075239   4.152798   5.065576   3.024379
    43  H    6.955713   7.765379   9.157901   9.942655   7.861234
                   16         17         18         19         20
    16  C    0.000000
    17  C    1.387391   0.000000
    18  C    2.424183   1.414819   0.000000
    19  C    3.711921   2.451479   1.406000   0.000000
    20  C    4.232005   2.846296   2.447681   1.412596   0.000000
    21  S    6.004170   4.619469   4.083960   2.774403   1.773664
    22  C    6.818525   5.476284   4.652884   3.319628   2.905058
    23  O    6.672112   5.322215   5.144324   4.016281   2.717847
    24  C    3.727026   2.452935   2.810501   2.432320   1.410964
    25  C    2.445190   1.414910   2.431825   2.807994   2.445442
    26  H    5.533307   6.765698   7.384544   8.731413   9.469272
    27  H    5.541521   6.651124   7.832423   9.026884   9.217484
    28  H    4.996525   6.289237   7.397625   8.696182   9.046826
    29  H    5.741421   6.517959   7.666423   8.668753   8.692570
    30  H    5.331825   5.115107   5.914082   6.284832   5.936193
    31  H    3.076877   2.679551   3.437949   3.990797   3.929686
    32  H    2.537224   3.827957   4.472275   5.837993   6.569926
    33  H    3.620352   4.942159   5.890165   7.206744   7.703332
    34  H    3.795259   5.169188   5.869322   7.269831   7.997712
    35  H    1.089977   2.116324   2.752903   4.087251   4.791372
    36  H    2.662144   2.174880   1.089944   2.160181   3.429177
    37  H    4.583067   3.433673   2.161886   1.089956   2.172840
    38  H    6.722557   5.444167   4.391606   3.087633   3.141248
    39  H    6.631987   5.337470   4.630318   3.465691   3.058315
    40  H    7.878877   6.523083   5.721873   4.364881   3.848154
    41  H    4.604859   3.435382   3.900466   3.423237   2.171218
    42  H    2.694780   2.174396   3.423697   3.897730   3.426722
    43  H    7.089533   5.778067   5.724368   4.654137   3.300036
                   21         22         23         24         25
    21  S    0.000000
    22  C    1.830026   0.000000
    23  O    1.604277   2.709514   0.000000
    24  C    2.768187   4.082129   3.019274   0.000000
    25  C    4.078770   5.227817   4.411632   1.406158   0.000000
    26  H   11.200502  11.548185  11.782309   8.998546   7.703340
    27  H   10.894678  11.653606  11.007731   8.240278   6.915739
    28  H   10.788478  11.649574  11.116568   8.165780   6.766493
    29  H   10.232396  10.817394  10.139143   7.704012   6.565243
    30  H    7.036940   7.313168   6.659459   5.145446   4.701648
    31  H    5.388112   5.820771   5.512916   3.285317   2.601760
    32  H    8.306829   9.109445   9.098423   6.143778   4.859699
    33  H    9.440938  10.404421  10.018769   7.000808   5.631338
    34  H    9.764049  10.438771  10.461963   7.497396   6.147616
    35  H    6.524740   7.358100   7.351639   4.446583   3.256629
    36  H    4.934458   5.266189   6.113624   3.900379   3.424184
    37  H    2.920317   3.004707   4.379066   3.422998   3.897839
    38  H    2.422175   1.090039   3.652276   4.483230   5.466117
    39  H    2.422165   1.090037   2.907226   4.039792   5.081397
    40  H    2.422121   1.089950   2.938006   4.948819   6.182039
    41  H    2.910480   4.363700   2.584800   1.090005   2.163111
    42  H    4.927257   6.155847   4.992380   2.159852   1.089981
    43  H    2.243972   3.557720   0.960000   3.369671   4.738500
                   26         27         28         29         30
    26  H    0.000000
    27  H    3.828829   0.000000
    28  H    3.475155   1.887981   0.000000
    29  H    4.793838   2.190720   3.915673   0.000000
    30  H    7.409678   6.083582   7.164374   4.329213   0.000000
    31  H    6.579871   5.990173   6.411566   5.002217   2.496225
    32  H    4.362000   5.117701   3.812124   6.202176   7.300429
    33  H    4.294032   4.054103   2.434763   5.599286   7.591393
    34  H    2.788877   4.113340   2.726088   5.500143   7.526970
    35  H    5.490171   5.884786   4.994385   6.423412   6.401920
    36  H    6.979463   7.954683   7.385531   7.937554   6.528564
    37  H    9.326170   9.937948   9.558017   9.585324   7.115714
    38  H   11.327870  11.769262  11.639900  11.061163   7.791291
    39  H   11.072728  11.147131  11.294136  10.155445   6.477185
    40  H   12.626206  12.664607  12.694695  11.766681   8.105954
    41  H    9.764067   8.633110   8.684723   7.978834   5.227928
    42  H    7.571830   6.263631   6.214116   5.930977   4.451248
    43  H   12.308716  11.310789  11.392010  10.502435   7.163168
                   31         32         33         34         35
    31  H    0.000000
    32  H    5.356656   0.000000
    33  H    6.065126   1.779919   0.000000
    34  H    6.008711   1.779945   1.779957   0.000000
    35  H    4.145003   1.782727   3.178878   3.362346   0.000000
    36  H    4.065829   4.180395   5.791571   5.514352   2.676950
    37  H    4.877686   6.501320   7.993536   7.925946   4.820201
    38  H    6.076897   8.848637  10.270146  10.194209   7.136480
    39  H    5.198048   9.000011  10.249891  10.193628   7.288690
    40  H    6.792715  10.174912  11.452655  11.521535   8.415326
    41  H    3.819158   6.986814   7.663084   8.294745   5.358558
    42  H    2.757004   4.886283   5.308480   6.028902   3.539515
    43  H    6.091846   9.456532  10.270610  10.861580   7.737108
                   36         37         38         39         40
    36  H    0.000000
    37  H    2.476592   0.000000
    38  H    4.807606   2.439813   0.000000
    39  H    5.253038   3.318958   1.779994   0.000000
    40  H    6.329568   3.996577   1.780026   1.779969   0.000000
    41  H    4.990365   4.329090   4.973288   4.315767   5.061642
    42  H    4.332305   4.987496   6.482012   5.955399   7.061668
    43  H    6.727326   5.067950   4.457645   3.851390   3.656087
                   41         42         43
    41  H    0.000000
    42  H    2.477719   0.000000
    43  H    2.710707   5.185027   0.000000
 Stoichiometry    C20H18FO3S(1+)
 Framework group  C1[X(C20H18FO3S)]
 Deg. of freedom   123
 Full point group                 C1      NOp   1
 Largest Abelian subgroup         C1      NOp   1
 Largest concise Abelian subgroup C1      NOp   1
                         Standard orientation:                         
 ---------------------------------------------------------------------
 Center     Atomic      Atomic             Coordinates (Angstroms)
 Number     Number       Type             X           Y           Z
 ---------------------------------------------------------------------
      1          8           0        6.705227   -1.024381    0.209968
      2          6           0        5.479844   -0.814181    0.356938
      3          8           0        4.968198   -0.853518    1.612399
      4          6           0        4.648564   -0.515969   -0.827967
      5          6           0        3.215893   -0.419905   -0.539525
      6          6           0        2.538906    0.744360   -0.282882
      7          6           0        2.995439    2.078198   -0.206323
      8          6           0        2.079348    3.099258    0.113285
      9          9           0        2.476651    4.340741    0.160508
     10          6           0        0.736766    2.777372    0.394378
     11          6           0        0.303399    1.437793    0.359034
     12          6           0        1.203931    0.423131   -0.037808
     13          6           0        2.329160   -1.431564   -0.448743
     14          6           0        2.647549   -2.854033   -0.593633
     15          6           0        1.063289   -0.941084   -0.224268
     16          6           0       -0.066456   -1.689745   -0.232526
     17          6           0       -1.389798   -1.277832   -0.169704
     18          6           0       -2.269369   -1.878517    0.761557
     19          6           0       -3.632895   -1.536341    0.784988
     20          6           0       -4.148548   -0.579315   -0.117026
     21         16           0       -5.876669   -0.180001   -0.122278
     22          6           0       -6.366534    0.157532    1.608358
     23          8           0       -6.028564    1.240500   -0.852215
     24          6           0       -3.278180    0.011912   -1.057095
     25          6           0       -1.918199   -0.343791   -1.091837
     26          1           0        5.017753   -1.750785    1.950266
     27          1           0        4.948274    0.477161   -1.162829
     28          1           0        4.757642   -1.371685   -1.494343
     29          1           0        4.042757    2.316871   -0.391623
     30          1           0        0.029243    3.569244    0.640538
     31          1           0       -0.720771    1.188361    0.636697
     32          1           0        1.755383   -3.448101   -0.395604
     33          1           0        2.994727   -3.047139   -1.608603
     34          1           0        3.429498   -3.125385    0.115665
     35          1           0        0.112468   -2.762926   -0.298230
     36          1           0       -1.891374   -2.614959    1.470606
     37          1           0       -4.294100   -2.015707    1.506805
     38          1           0       -6.263305   -0.752609    2.199266
     39          1           0       -5.724170    0.934570    2.022800
     40          1           0       -7.403692    0.491672    1.633777
     41          1           0       -3.659650    0.750018   -1.762638
     42          1           0       -1.267681    0.108511   -1.840374
     43          1           0       -6.317688    1.281760   -1.766712
 ---------------------------------------------------------------------
 Rotational constants (GHZ):           0.4039415           0.0885885           0.0768896
 Leave Link  202 at Sun Oct 13 23:20:36 2019, MaxMem= 10737418240 cpu:               1.1 elap:               0.1
 (Enter /apps/cent7/gaussian/g16-A.03/g16-haswell/g16/l301.exe)
 Standard basis: 6-311++G(d,p) (5D, 7F)
 Ernie: Thresh=  0.10000D-02 Tol=  0.10000D-05 Strict=F.
 There are   709 symmetry adapted cartesian basis functions of A   symmetry.
 There are   684 symmetry adapted basis functions of A   symmetry.
   684 basis functions,  1076 primitive gaussians,   709 cartesian basis functions
    93 alpha electrons       93 beta electrons
       nuclear repulsion energy      2205.9252657283 Hartrees.
 IExCor= 4336 DFT=T Ex+Corr=M062X ExCW=0 ScaHFX=  0.540000
 ScaDFX=  1.000000  1.000000  1.000000  1.000000 ScalE2=  1.000000  1.000000
 IRadAn=      5 IRanWt=     -1 IRanGd=            0 ICorTp=0 IEmpDi=  4
 NAtoms=   43 NActive=   43 NUniq=   43 SFac= 1.00D+00 NAtFMM=   60 NAOKFM=F Big=F
 Integral buffers will be    131072 words long.
 Raffenetti 2 integral format.
 Two-electron integral symmetry is turned on.
 Leave Link  301 at Sun Oct 13 23:20:36 2019, MaxMem= 10737418240 cpu:               1.4 elap:               0.1
 (Enter /apps/cent7/gaussian/g16-A.03/g16-haswell/g16/l302.exe)
 NPDir=0 NMtPBC=     1 NCelOv=     1 NCel=       1 NClECP=     1 NCelD=      1
         NCelK=      1 NCelE2=     1 NClLst=     1 CellRange=     0.0.
 One-electron integrals computed using PRISM.
 One-electron integral symmetry used in STVInt
 NBasis=   684 RedAO= T EigKep=  1.46D-06  NBF=   684
 NBsUse=   674 1.00D-06 EigRej=  9.88D-07 NBFU=   674
 Precomputing XC quadrature grid using
 IXCGrd= 4 IRadAn=           5 IRanWt=          -1 IRanGd=           0 AccXCQ= 0.00D+00.
 Generated NRdTot=       0 NPtTot=           0 NUsed=           0 NTot=          32
 NSgBfM=   692   692   692   692   692 MxSgAt=    43 MxSgA2=    43.
 Leave Link  302 at Sun Oct 13 23:20:37 2019, MaxMem= 10737418240 cpu:              16.2 elap:               0.7
 (Enter /apps/cent7/gaussian/g16-A.03/g16-haswell/g16/l303.exe)
 DipDrv:  MaxL=1.
 Leave Link  303 at Sun Oct 13 23:20:37 2019, MaxMem= 10737418240 cpu:               2.6 elap:               0.1
 (Enter /apps/cent7/gaussian/g16-A.03/g16-haswell/g16/l401.exe)
 ExpMin= 3.60D-02 ExpMax= 9.34D+04 ExpMxC= 3.17D+03 IAcc=3 IRadAn=         5 AccDes= 0.00D+00
 Harris functional with IExCor= 1009 and IRadAn=       5 diagonalized for initial guess.
 HarFok:  IExCor= 1009 AccDes= 0.00D+00 IRadAn=         5 IDoV= 1 UseB2=F ITyADJ=14
 ICtDFT=  3500011 ScaDFX=  1.000000  1.000000  1.000000  1.000000
 FoFCou: FMM=F IPFlag=           0 FMFlag=      100000 FMFlg1=           0
         NFxFlg=           0 DoJE=T BraDBF=F KetDBF=T FulRan=T
         wScrn=  0.000000 ICntrl=       500 IOpCl=  0 I1Cent=   200000004 NGrid=           0
         NMat0=    1 NMatS0=      1 NMatT0=    0 NMatD0=    1 NMtDS0=    0 NMtDT0=    0
 Petite list used in FoFCou.
 Harris En= -1495.56681646654    
 JPrj=0 DoOrth=F DoCkMO=F.
 Leave Link  401 at Sun Oct 13 23:20:39 2019, MaxMem= 10737418240 cpu:              44.1 elap:               1.9
 (Enter /apps/cent7/gaussian/g16-A.03/g16-haswell/g16/l502.exe)
 Integral symmetry usage will be decided dynamically.
 Closed shell SCF:
 Using DIIS extrapolation, IDIIS=  1040.
 NGot= 10737418240 LenX= 10736389172 LenY= 10735885782
 Requested convergence on RMS density matrix=1.00D-08 within 128 cycles.
 Requested convergence on MAX density matrix=1.00D-06.
 Requested convergence on             energy=1.00D-06.
 No special actions if energy rises.
 Fock matrices will be formed incrementally for  20 cycles.

 Cycle   1  Pass 1  IDiag  1:
 FoFJK:  IHMeth= 1 ICntrl=       0 DoSepK=F KAlg= 0 I1Cent=           0 FoldK=F
 IRaf= 780000000 NMat=       1 IRICut=       1 DoRegI=T DoRafI=F ISym2E= 0 IDoP0=0 IntGTp=1.
 FoFCou: FMM=F IPFlag=           0 FMFlag=      100000 FMFlg1=           0
         NFxFlg=           0 DoJE=F BraDBF=F KetDBF=F FulRan=T
         wScrn=  0.000000 ICntrl=         0 IOpCl=  0 I1Cent=           0 NGrid=           0
         NMat0=    1 NMatS0=      1 NMatT0=    0 NMatD0=    1 NMtDS0=    0 NMtDT0=    0
 Symmetry not used in FoFCou.
 E= -1495.39250846888    
 DIIS: error= 1.79D-02 at cycle   1 NSaved=   1.
 NSaved= 1 IEnMin= 1 EnMin= -1495.39250846888     IErMin= 1 ErrMin= 1.79D-02
 ErrMax= 1.79D-02  0.00D+00 EMaxC= 1.00D-01 BMatC= 9.69D-01 BMatP= 9.69D-01
 IDIUse=3 WtCom= 8.21D-01 WtEn= 1.79D-01
 Coeff-Com:  0.100D+01
 Coeff-En:   0.100D+01
 Coeff:      0.100D+01
 Gap=     0.506 Goal=   None    Shift=    0.000
 GapD=    0.506 DampG=2.000 DampE=0.500 DampFc=1.0000 IDamp=-1.
 RMSDP=1.10D-01 MaxDP=1.11D+01              OVMax= 8.78D-01

 Cycle   2  Pass 1  IDiag  1:
 RMSU=  1.06D-01    CP:  1.58D+00
 E= -1493.76595750659     Delta-E=        1.626550962293 Rises=F Damp=F
 DIIS: error= 3.11D-02 at cycle   2 NSaved=   2.
 NSaved= 2 IEnMin= 1 EnMin= -1495.39250846888     IErMin= 1 ErrMin= 1.79D-02
 ErrMax= 3.11D-02  0.00D+00 EMaxC= 1.00D-01 BMatC= 1.68D+00 BMatP= 9.69D-01
 IDIUse=2 WtCom= 0.00D+00 WtEn= 1.00D+00
 Coeff-En:   0.752D+00 0.248D+00
 Coeff:      0.752D+00 0.248D+00
 Gap=     0.294 Goal=   None    Shift=    0.000
 RMSDP=1.06D-01 MaxDP=1.10D+01 DE= 1.63D+00 OVMax= 9.51D-01

 Cycle   3  Pass 1  IDiag  1:
 RMSU=  1.26D-02    CP:  1.01D+00  4.57D-02
 E= -1496.00616176076     Delta-E=       -2.240204254176 Rises=F Damp=F
 DIIS: error= 9.83D-03 at cycle   3 NSaved=   3.
 NSaved= 3 IEnMin= 3 EnMin= -1496.00616176076     IErMin= 3 ErrMin= 9.83D-03
 ErrMax= 9.83D-03  0.00D+00 EMaxC= 1.00D-01 BMatC= 1.67D-01 BMatP= 9.69D-01
 IDIUse=3 WtCom= 9.02D-01 WtEn= 9.83D-02
 Coeff-Com:  0.303D+00 0.124D+00 0.573D+00
 Coeff-En:   0.000D+00 0.000D+00 0.100D+01
 Coeff:      0.273D+00 0.112D+00 0.615D+00
 Gap=     0.154 Goal=   None    Shift=    0.000
 RMSDP=7.75D-03 MaxDP=5.64D-01 DE=-2.24D+00 OVMax= 9.40D-02

 Cycle   4  Pass 1  IDiag  1:
 RMSU=  3.91D-03    CP:  9.24D-01  3.86D-02  5.87D-01
 E= -1496.12182695028     Delta-E=       -0.115665189521 Rises=F Damp=F
 DIIS: error= 6.68D-03 at cycle   4 NSaved=   4.
 NSaved= 4 IEnMin= 4 EnMin= -1496.12182695028     IErMin= 4 ErrMin= 6.68D-03
 ErrMax= 6.68D-03  0.00D+00 EMaxC= 1.00D-01 BMatC= 3.57D-02 BMatP= 1.67D-01
 IDIUse=3 WtCom= 9.33D-01 WtEn= 6.68D-02
 Coeff-Com:  0.581D-01 0.365D-01 0.303D+00 0.603D+00
 Coeff-En:   0.000D+00 0.000D+00 0.848D-01 0.915D+00
 Coeff:      0.542D-01 0.340D-01 0.288D+00 0.624D+00
 Gap=     0.150 Goal=   None    Shift=    0.000
 RMSDP=2.44D-03 MaxDP=1.72D-01 DE=-1.16D-01 OVMax= 5.48D-02

 Cycle   5  Pass 1  IDiag  1:
 RMSU=  1.89D-03    CP:  9.30D-01  4.57D-02  6.85D-01  8.92D-01
 E= -1496.14493718314     Delta-E=       -0.023110232852 Rises=F Damp=F
 DIIS: error= 3.05D-03 at cycle   5 NSaved=   5.
 NSaved= 5 IEnMin= 5 EnMin= -1496.14493718314     IErMin= 5 ErrMin= 3.05D-03
 ErrMax= 3.05D-03  0.00D+00 EMaxC= 1.00D-01 BMatC= 4.99D-03 BMatP= 3.57D-02
 IDIUse=3 WtCom= 9.69D-01 WtEn= 3.05D-02
 Coeff-Com:  0.130D-02 0.949D-02 0.938D-01 0.343D+00 0.553D+00
 Coeff-En:   0.000D+00 0.000D+00 0.000D+00 0.620D-01 0.938D+00
 Coeff:      0.126D-02 0.920D-02 0.910D-01 0.334D+00 0.565D+00
 Gap=     0.151 Goal=   None    Shift=    0.000
 RMSDP=8.17D-04 MaxDP=1.05D-01 DE=-2.31D-02 OVMax= 1.85D-02

 Cycle   6  Pass 1  IDiag  1:
 RMSU=  6.39D-04    CP:  9.22D-01  4.68D-02  6.79D-01  9.13D-01  8.46D-01
 E= -1496.14890730844     Delta-E=       -0.003970125304 Rises=F Damp=F
 DIIS: error= 7.91D-04 at cycle   6 NSaved=   6.
 NSaved= 6 IEnMin= 6 EnMin= -1496.14890730844     IErMin= 6 ErrMin= 7.91D-04
 ErrMax= 7.91D-04  0.00D+00 EMaxC= 1.00D-01 BMatC= 5.20D-04 BMatP= 4.99D-03
 IDIUse=3 WtCom= 9.92D-01 WtEn= 7.91D-03
 Coeff-Com: -0.417D-02 0.108D-02 0.921D-02 0.825D-01 0.290D+00 0.622D+00
 Coeff-En:   0.000D+00 0.000D+00 0.000D+00 0.000D+00 0.595D-02 0.994D+00
 Coeff:     -0.414D-02 0.107D-02 0.914D-02 0.818D-01 0.287D+00 0.625D+00
 Gap=     0.156 Goal=   None    Shift=    0.000
 RMSDP=3.90D-04 MaxDP=2.82D-02 DE=-3.97D-03 OVMax= 6.18D-03

 Cycle   7  Pass 1  IDiag  1:
 RMSU=  3.05D-04    CP:  9.23D-01  4.64D-02  6.69D-01  9.42D-01  9.05D-01
                    CP:  8.28D-01
 E= -1496.14935584796     Delta-E=       -0.000448539515 Rises=F Damp=F
 DIIS: error= 1.81D-04 at cycle   7 NSaved=   7.
 NSaved= 7 IEnMin= 7 EnMin= -1496.14935584796     IErMin= 7 ErrMin= 1.81D-04
 ErrMax= 1.81D-04  0.00D+00 EMaxC= 1.00D-01 BMatC= 5.00D-05 BMatP= 5.20D-04
 IDIUse=3 WtCom= 9.98D-01 WtEn= 1.81D-03
 Coeff-Com: -0.126D-02-0.100D-02-0.544D-02-0.886D-02 0.522D-01 0.275D+00
 Coeff-Com:  0.689D+00
 Coeff-En:   0.000D+00 0.000D+00 0.000D+00 0.000D+00 0.000D+00 0.000D+00
 Coeff-En:   0.100D+01
 Coeff:     -0.126D-02-0.100D-02-0.543D-02-0.884D-02 0.521D-01 0.274D+00
 Coeff:      0.690D+00
 Gap=     0.158 Goal=   None    Shift=    0.000
 RMSDP=1.12D-04 MaxDP=6.95D-03 DE=-4.49D-04 OVMax= 4.53D-03

 Cycle   8  Pass 1  IDiag  1:
 RMSU=  8.89D-05    CP:  9.24D-01  4.60D-02  6.71D-01  9.37D-01  8.98D-01
                    CP:  8.16D-01  8.94D-01
 E= -1496.14941381605     Delta-E=       -0.000057968096 Rises=F Damp=F
 DIIS: error= 1.03D-04 at cycle   8 NSaved=   8.
 NSaved= 8 IEnMin= 8 EnMin= -1496.14941381605     IErMin= 8 ErrMin= 1.03D-04
 ErrMax= 1.03D-04  0.00D+00 EMaxC= 1.00D-01 BMatC= 9.51D-06 BMatP= 5.00D-05
 IDIUse=3 WtCom= 9.99D-01 WtEn= 1.03D-03
 Coeff-Com:  0.212D-03-0.856D-03-0.222D-02-0.137D-01-0.147D-01 0.340D-01
 Coeff-Com:  0.318D+00 0.679D+00
 Coeff-En:   0.000D+00 0.000D+00 0.000D+00 0.000D+00 0.000D+00 0.000D+00
 Coeff-En:   0.000D+00 0.100D+01
 Coeff:      0.212D-03-0.855D-03-0.222D-02-0.137D-01-0.146D-01 0.339D-01
 Coeff:      0.318D+00 0.679D+00
 Gap=     0.159 Goal=   None    Shift=    0.000
 RMSDP=6.43D-05 MaxDP=4.59D-03 DE=-5.80D-05 OVMax= 1.37D-03

 Cycle   9  Pass 1  IDiag  1:
 RMSU=  3.95D-05    CP:  9.24D-01  4.60D-02  6.71D-01  9.37D-01  9.11D-01
                    CP:  8.14D-01  1.03D+00  9.47D-01
 E= -1496.14942448933     Delta-E=       -0.000010673275 Rises=F Damp=F
 DIIS: error= 4.38D-05 at cycle   9 NSaved=   9.
 NSaved= 9 IEnMin= 9 EnMin= -1496.14942448933     IErMin= 9 ErrMin= 4.38D-05
 ErrMax= 4.38D-05  0.00D+00 EMaxC= 1.00D-01 BMatC= 1.92D-06 BMatP= 9.51D-06
 IDIUse=1 WtCom= 1.00D+00 WtEn= 0.00D+00
 Coeff-Com:  0.438D-03-0.386D-03 0.860D-03-0.368D-02-0.159D-01-0.384D-01
 Coeff-Com:  0.313D-01 0.330D+00 0.696D+00
 Coeff:      0.438D-03-0.386D-03 0.860D-03-0.368D-02-0.159D-01-0.384D-01
 Coeff:      0.313D-01 0.330D+00 0.696D+00
 Gap=     0.159 Goal=   None    Shift=    0.000
 RMSDP=3.67D-05 MaxDP=3.90D-03 DE=-1.07D-05 OVMax= 1.11D-03

 Cycle  10  Pass 1  IDiag  1:
 RMSU=  2.07D-05    CP:  9.23D-01  4.59D-02  6.71D-01  9.34D-01  9.03D-01
                    CP:  8.17D-01  1.06D+00  1.04D+00  1.07D+00
 E= -1496.14942699536     Delta-E=       -0.000002506034 Rises=F Damp=F
 DIIS: error= 2.19D-05 at cycle  10 NSaved=  10.
 NSaved=10 IEnMin=10 EnMin= -1496.14942699536     IErMin=10 ErrMin= 2.19D-05
 ErrMax= 2.19D-05  0.00D+00 EMaxC= 1.00D-01 BMatC= 4.39D-07 BMatP= 1.92D-06
 IDIUse=1 WtCom= 1.00D+00 WtEn= 0.00D+00
 Coeff-Com:  0.173D-03-0.152D-03 0.102D-02 0.699D-03-0.407D-02-0.224D-01
 Coeff-Com: -0.276D-01 0.141D-01 0.329D+00 0.709D+00
 Coeff:      0.173D-03-0.152D-03 0.102D-02 0.699D-03-0.407D-02-0.224D-01
 Coeff:     -0.276D-01 0.141D-01 0.329D+00 0.709D+00
 Gap=     0.159 Goal=   None    Shift=    0.000
 RMSDP=1.25D-05 MaxDP=8.85D-04 DE=-2.51D-06 OVMax= 2.83D-04

 Cycle  11  Pass 1  IDiag  1:
 RMSU=  8.55D-06    CP:  9.23D-01  4.59D-02  6.71D-01  9.34D-01  9.04D-01
                    CP:  8.11D-01  1.07D+00  1.05D+00  1.16D+00  9.75D-01
 E= -1496.14942749533     Delta-E=       -0.000000499964 Rises=F Damp=F
 DIIS: error= 8.90D-06 at cycle  11 NSaved=  11.
 NSaved=11 IEnMin=11 EnMin= -1496.14942749533     IErMin=11 ErrMin= 8.90D-06
 ErrMax= 8.90D-06  0.00D+00 EMaxC= 1.00D-01 BMatC= 5.69D-08 BMatP= 4.39D-07
 IDIUse=1 WtCom= 1.00D+00 WtEn= 0.00D+00
 Coeff-Com:  0.222D-04-0.452D-04 0.463D-03 0.103D-02 0.118D-02-0.377D-02
 Coeff-Com: -0.157D-01-0.593D-01 0.329D-01 0.304D+00 0.739D+00
 Coeff:      0.222D-04-0.452D-04 0.463D-03 0.103D-02 0.118D-02-0.377D-02
 Coeff:     -0.157D-01-0.593D-01 0.329D-01 0.304D+00 0.739D+00
 Gap=     0.159 Goal=   None    Shift=    0.000
 RMSDP=5.81D-06 MaxDP=3.04D-04 DE=-5.00D-07 OVMax= 1.14D-04

 Cycle  12  Pass 1  IDiag  1:
 RMSU=  2.35D-06    CP:  9.23D-01  4.59D-02  6.71D-01  9.33D-01  9.03D-01
                    CP:  8.09D-01  1.08D+00  1.05D+00  1.22D+00  1.11D+00
                    CP:  8.87D-01
 E= -1496.14942757310     Delta-E=       -0.000000077779 Rises=F Damp=F
 DIIS: error= 1.87D-06 at cycle  12 NSaved=  12.
 NSaved=12 IEnMin=12 EnMin= -1496.14942757310     IErMin=12 ErrMin= 1.87D-06
 ErrMax= 1.87D-06  0.00D+00 EMaxC= 1.00D-01 BMatC= 6.83D-09 BMatP= 5.69D-08
 IDIUse=1 WtCom= 1.00D+00 WtEn= 0.00D+00
 Coeff-Com:  0.872D-06-0.124D-04 0.155D-03 0.411D-03 0.101D-02 0.689D-03
 Coeff-Com: -0.323D-02-0.282D-01-0.142D-01 0.586D-01 0.330D+00 0.655D+00
 Coeff:      0.872D-06-0.124D-04 0.155D-03 0.411D-03 0.101D-02 0.689D-03
 Coeff:     -0.323D-02-0.282D-01-0.142D-01 0.586D-01 0.330D+00 0.655D+00
 Gap=     0.159 Goal=   None    Shift=    0.000
 RMSDP=1.44D-06 MaxDP=1.33D-04 DE=-7.78D-08 OVMax= 5.00D-05

 Cycle  13  Pass 1  IDiag  1:
 RMSU=  7.42D-07    CP:  9.23D-01  4.59D-02  6.71D-01  9.33D-01  9.03D-01
                    CP:  8.09D-01  1.08D+00  1.05D+00  1.23D+00  1.12D+00
                    CP:  9.42D-01  8.89D-01
 E= -1496.14942758199     Delta-E=       -0.000000008882 Rises=F Damp=F
 DIIS: error= 1.04D-06 at cycle  13 NSaved=  13.
 NSaved=13 IEnMin=13 EnMin= -1496.14942758199     IErMin=13 ErrMin= 1.04D-06
 ErrMax= 1.04D-06  0.00D+00 EMaxC= 1.00D-01 BMatC= 8.83D-10 BMatP= 6.83D-09
 IDIUse=1 WtCom= 1.00D+00 WtEn= 0.00D+00
 Coeff-Com: -0.352D-05-0.125D-05-0.187D-05 0.789D-05 0.246D-03 0.935D-03
 Coeff-Com:  0.114D-02-0.333D-02-0.109D-01-0.298D-01 0.745D-02 0.249D+00
 Coeff-Com:  0.785D+00
 Coeff:     -0.352D-05-0.125D-05-0.187D-05 0.789D-05 0.246D-03 0.935D-03
 Coeff:      0.114D-02-0.333D-02-0.109D-01-0.298D-01 0.745D-02 0.249D+00
 Coeff:      0.785D+00
 Gap=     0.159 Goal=   None    Shift=    0.000
 RMSDP=7.50D-07 MaxDP=4.84D-05 DE=-8.88D-09 OVMax= 3.12D-05

 Cycle  14  Pass 1  IDiag  1:
 RMSU=  3.14D-07    CP:  9.23D-01  4.59D-02  6.71D-01  9.33D-01  9.03D-01
                    CP:  8.08D-01  1.08D+00  1.05D+00  1.23D+00  1.13D+00
                    CP:  9.62D-01  9.89D-01  1.11D+00
 E= -1496.14942758397     Delta-E=       -0.000000001988 Rises=F Damp=F
 DIIS: error= 2.85D-07 at cycle  14 NSaved=  14.
 NSaved=14 IEnMin=14 EnMin= -1496.14942758397     IErMin=14 ErrMin= 2.85D-07
 ErrMax= 2.85D-07  0.00D+00 EMaxC= 1.00D-01 BMatC= 9.30D-11 BMatP= 8.83D-10
 IDIUse=1 WtCom= 1.00D+00 WtEn= 0.00D+00
 Coeff-Com: -0.116D-05 0.121D-05-0.164D-04-0.384D-04-0.463D-04 0.157D-03
 Coeff-Com:  0.662D-03 0.206D-02-0.108D-02-0.155D-01-0.378D-01-0.146D-01
 Coeff-Com:  0.233D+00 0.833D+00
 Coeff:     -0.116D-05 0.121D-05-0.164D-04-0.384D-04-0.463D-04 0.157D-03
 Coeff:      0.662D-03 0.206D-02-0.108D-02-0.155D-01-0.378D-01-0.146D-01
 Coeff:      0.233D+00 0.833D+00
 Gap=     0.159 Goal=   None    Shift=    0.000
 RMSDP=2.35D-07 MaxDP=1.89D-05 DE=-1.99D-09 OVMax= 1.56D-05

 Cycle  15  Pass 1  IDiag  1:
 RMSU=  1.28D-07    CP:  9.23D-01  4.59D-02  6.71D-01  9.33D-01  9.03D-01
                    CP:  8.08D-01  1.08D+00  1.05D+00  1.23D+00  1.13D+00
                    CP:  9.71D-01  1.01D+00  1.25D+00  1.13D+00
 E= -1496.14942758426     Delta-E=       -0.000000000287 Rises=F Damp=F
 DIIS: error= 1.78D-07 at cycle  15 NSaved=  15.
 NSaved=15 IEnMin=15 EnMin= -1496.14942758426     IErMin=15 ErrMin= 1.78D-07
 ErrMax= 1.78D-07  0.00D+00 EMaxC= 1.00D-01 BMatC= 2.72D-11 BMatP= 9.30D-11
 IDIUse=1 WtCom= 1.00D+00 WtEn= 0.00D+00
 Coeff-Com: -0.407D-07 0.821D-06-0.785D-05-0.177D-04-0.608D-04-0.971D-04
 Coeff-Com:  0.151D-03 0.156D-02 0.162D-02-0.904D-03-0.174D-01-0.534D-01
 Coeff-Com: -0.473D-01 0.388D+00 0.728D+00
 Coeff:     -0.407D-07 0.821D-06-0.785D-05-0.177D-04-0.608D-04-0.971D-04
 Coeff:      0.151D-03 0.156D-02 0.162D-02-0.904D-03-0.174D-01-0.534D-01
 Coeff:     -0.473D-01 0.388D+00 0.728D+00
 Gap=     0.159 Goal=   None    Shift=    0.000
 RMSDP=1.02D-07 MaxDP=8.79D-06 DE=-2.87D-10 OVMax= 7.93D-06

 Cycle  16  Pass 1  IDiag  1:
 RMSU=  5.82D-08    CP:  9.23D-01  4.59D-02  6.71D-01  9.33D-01  9.03D-01
                    CP:  8.08D-01  1.08D+00  1.05D+00  1.23D+00  1.13D+00
                    CP:  9.70D-01  1.01D+00  1.32D+00  1.26D+00  9.94D-01
 E= -1496.14942758433     Delta-E=       -0.000000000066 Rises=F Damp=F
 DIIS: error= 4.63D-08 at cycle  16 NSaved=  16.
 NSaved=16 IEnMin=16 EnMin= -1496.14942758433     IErMin=16 ErrMin= 4.63D-08
 ErrMax= 4.63D-08  0.00D+00 EMaxC= 1.00D-01 BMatC= 3.16D-12 BMatP= 2.72D-11
 IDIUse=1 WtCom= 1.00D+00 WtEn= 0.00D+00
 Coeff-Com:  0.662D-07 0.815D-07-0.599D-06 0.449D-06-0.111D-04-0.673D-04
 Coeff-Com: -0.756D-04 0.857D-04 0.555D-03 0.264D-02 0.186D-02-0.148D-01
 Coeff-Com: -0.700D-01-0.259D-01 0.233D+00 0.873D+00
 Coeff:      0.662D-07 0.815D-07-0.599D-06 0.449D-06-0.111D-04-0.673D-04
 Coeff:     -0.756D-04 0.857D-04 0.555D-03 0.264D-02 0.186D-02-0.148D-01
 Coeff:     -0.700D-01-0.259D-01 0.233D+00 0.873D+00
 Gap=     0.159 Goal=   None    Shift=    0.000
 RMSDP=4.72D-08 MaxDP=3.76D-06 DE=-6.59D-11 OVMax= 4.10D-06

 Cycle  17  Pass 1  IDiag  1:
 RMSU=  1.95D-08    CP:  9.23D-01  4.59D-02  6.71D-01  9.33D-01  9.03D-01
                    CP:  8.08D-01  1.08D+00  1.05D+00  1.23D+00  1.13D+00
                    CP:  9.71D-01  1.01D+00  1.34D+00  1.32D+00  1.15D+00
                    CP:  1.16D+00
 E= -1496.14942758435     Delta-E=       -0.000000000018 Rises=F Damp=F
 DIIS: error= 1.73D-08 at cycle  17 NSaved=  17.
 NSaved=17 IEnMin=17 EnMin= -1496.14942758435     IErMin=17 ErrMin= 1.73D-08
 ErrMax= 1.73D-08  0.00D+00 EMaxC= 1.00D-01 BMatC= 5.47D-13 BMatP= 3.16D-12
 IDIUse=1 WtCom= 1.00D+00 WtEn= 0.00D+00
 Coeff-Com:  0.653D-07-0.516D-07 0.337D-06 0.889D-06 0.282D-06-0.209D-04
 Coeff-Com: -0.447D-04-0.109D-03 0.566D-04 0.104D-02 0.226D-02 0.206D-03
 Coeff-Com: -0.238D-01-0.476D-01 0.722D-02 0.353D+00 0.708D+00
 Coeff:      0.653D-07-0.516D-07 0.337D-06 0.889D-06 0.282D-06-0.209D-04
 Coeff:     -0.447D-04-0.109D-03 0.566D-04 0.104D-02 0.226D-02 0.206D-03
 Coeff:     -0.238D-01-0.476D-01 0.722D-02 0.353D+00 0.708D+00
 Gap=     0.159 Goal=   None    Shift=    0.000
 RMSDP=1.29D-08 MaxDP=1.01D-06 DE=-1.82D-11 OVMax= 1.10D-06

 Cycle  18  Pass 1  IDiag  1:
 RMSU=  6.26D-09    CP:  9.23D-01  4.59D-02  6.71D-01  9.33D-01  9.03D-01
                    CP:  8.08D-01  1.08D+00  1.05D+00  1.23D+00  1.13D+00
                    CP:  9.71D-01  1.01D+00  1.34D+00  1.34D+00  1.17D+00
                    CP:  1.26D+00  1.07D+00
 E= -1496.14942758433     Delta-E=        0.000000000011 Rises=F Damp=F
 DIIS: error= 9.53D-09 at cycle  18 NSaved=  18.
 NSaved=18 IEnMin=17 EnMin= -1496.14942758435     IErMin=18 ErrMin= 9.53D-09
 ErrMax= 9.53D-09  0.00D+00 EMaxC= 1.00D-01 BMatC= 8.74D-14 BMatP= 5.47D-13
 IDIUse=1 WtCom= 1.00D+00 WtEn= 0.00D+00
 Coeff-Com:  0.336D-07-0.564D-07 0.359D-06 0.340D-06 0.217D-05 0.205D-05
 Coeff-Com: -0.563D-05-0.486D-04-0.460D-04-0.420D-04 0.437D-03 0.237D-02
 Coeff-Com:  0.160D-02-0.102D-01-0.361D-01-0.969D-02 0.275D+00 0.776D+00
 Coeff:      0.336D-07-0.564D-07 0.359D-06 0.340D-06 0.217D-05 0.205D-05
 Coeff:     -0.563D-05-0.486D-04-0.460D-04-0.420D-04 0.437D-03 0.237D-02
 Coeff:      0.160D-02-0.102D-01-0.361D-01-0.969D-02 0.275D+00 0.776D+00
 Gap=     0.159 Goal=   None    Shift=    0.000
 RMSDP=4.69D-09 MaxDP=2.60D-07 DE= 1.09D-11 OVMax= 4.04D-07

 SCF Done:  E(RM062X) =  -1496.14942758     A.U. after   18 cycles
            NFock= 18  Conv=0.47D-08     -V/T= 2.0027
 KE= 1.492104828681D+03 PE=-7.899345914565D+03 EE= 2.705166392572D+03
 Leave Link  502 at Sun Oct 13 23:23:51 2019, MaxMem= 10737418240 cpu:            4597.9 elap:             192.2
 (Enter /apps/cent7/gaussian/g16-A.03/g16-haswell/g16/l601.exe)
 Copying SCF densities to generalized density rwf, IOpCl= 0 IROHF=0.

 **********************************************************************

            Population analysis using the SCF density.

 **********************************************************************

 Orbital symmetries:
       Occupied  (A) (A) (A) (A) (A) (A) (A) (A) (A) (A) (A) (A)
                 (A) (A) (A) (A) (A) (A) (A) (A) (A) (A) (A) (A)
                 (A) (A) (A) (A) (A) (A) (A) (A) (A) (A) (A) (A)
                 (A) (A) (A) (A) (A) (A) (A) (A) (A) (A) (A) (A)
                 (A) (A) (A) (A) (A) (A) (A) (A) (A) (A) (A) (A)
                 (A) (A) (A) (A) (A) (A) (A) (A) (A) (A) (A) (A)
                 (A) (A) (A) (A) (A) (A) (A) (A) (A) (A) (A) (A)
                 (A) (A) (A) (A) (A) (A) (A) (A) (A)
       Virtual   (A) (A) (A) (A) (A) (A) (A) (A) (A) (A) (A) (A)
                 (A) (A) (A) (A) (A) (A) (A) (A) (A) (A) (A) (A)
                 (A) (A) (A) (A) (A) (A) (A) (A) (A) (A) (A) (A)
                 (A) (A) (A) (A) (A) (A) (A) (A) (A) (A) (A) (A)
                 (A) (A) (A) (A) (A) (A) (A) (A) (A) (A) (A) (A)
                 (A) (A) (A) (A) (A) (A) (A) (A) (A) (A) (A) (A)
                 (A) (A) (A) (A) (A) (A) (A) (A) (A) (A) (A) (A)
                 (A) (A) (A) (A) (A) (A) (A) (A) (A) (A) (A) (A)
                 (A) (A) (A) (A) (A) (A) (A) (A) (A) (A) (A) (A)
                 (A) (A) (A) (A) (A) (A) (A) (A) (A) (A) (A) (A)
                 (A) (A) (A) (A) (A) (A) (A) (A) (A) (A) (A) (A)
                 (A) (A) (A) (A) (A) (A) (A) (A) (A) (A) (A) (A)
                 (A) (A) (A) (A) (A) (A) (A) (A) (A) (A) (A) (A)
                 (A) (A) (A) (A) (A) (A) (A) (A) (A) (A) (A) (A)
                 (A) (A) (A) (A) (A) (A) (A) (A) (A) (A) (A) (A)
                 (A) (A) (A) (A) (A) (A) (A) (A) (A) (A) (A) (A)
                 (A) (A) (A) (A) (A) (A) (A) (A) (A) (A) (A) (A)
                 (A) (A) (A) (A) (A) (A) (A) (A) (A) (A) (A) (A)
                 (A) (A) (A) (A) (A) (A) (A) (A) (A) (A) (A) (A)
                 (A) (A) (A) (A) (A) (A) (A) (A) (A) (A) (A) (A)
                 (A) (A) (A) (A) (A) (A) (A) (A) (A) (A) (A) (A)
                 (A) (A) (A) (A) (A) (A) (A) (A) (A) (A) (A) (A)
                 (A) (A) (A) (A) (A) (A) (A) (A) (A) (A) (A) (A)
                 (A) (A) (A) (A) (A) (A) (A) (A) (A) (A) (A) (A)
                 (A) (A) (A) (A) (A) (A) (A) (A) (A) (A) (A) (A)
                 (A) (A) (A) (A) (A) (A) (A) (A) (A) (A) (A) (A)
                 (A) (A) (A) (A) (A) (A) (A) (A) (A) (A) (A) (A)
                 (A) (A) (A) (A) (A) (A) (A) (A) (A) (A) (A) (A)
                 (A) (A) (A) (A) (A) (A) (A) (A) (A) (A) (A) (A)
                 (A) (A) (A) (A) (A) (A) (A) (A) (A) (A) (A) (A)
                 (A) (A) (A) (A) (A) (A) (A) (A) (A) (A) (A) (A)
                 (A) (A) (A) (A) (A) (A) (A) (A) (A) (A) (A) (A)
                 (A) (A) (A) (A) (A) (A) (A) (A) (A) (A) (A) (A)
                 (A) (A) (A) (A) (A) (A) (A) (A) (A) (A) (A) (A)
                 (A) (A) (A) (A) (A) (A) (A) (A) (A) (A) (A) (A)
                 (A) (A) (A) (A) (A) (A) (A) (A) (A) (A) (A) (A)
                 (A) (A) (A) (A) (A) (A) (A) (A) (A) (A) (A) (A)
                 (A) (A) (A) (A) (A) (A) (A) (A) (A) (A) (A) (A)
                 (A) (A) (A) (A) (A) (A) (A) (A) (A) (A) (A) (A)
                 (A) (A) (A) (A) (A) (A) (A) (A) (A) (A) (A) (A)
                 (A) (A) (A) (A) (A) (A) (A) (A) (A) (A) (A) (A)
                 (A) (A) (A) (A) (A) (A) (A) (A) (A) (A) (A) (A)
                 (A) (A) (A) (A) (A) (A) (A) (A) (A) (A) (A) (A)
                 (A) (A) (A) (A) (A) (A) (A) (A) (A) (A) (A) (A)
                 (A) (A) (A) (A) (A) (A) (A) (A) (A) (A) (A) (A)
                 (A) (A) (A) (A) (A) (A) (A) (A) (A) (A) (A) (A)
                 (A) (A) (A) (A) (A) (A) (A) (A) (A) (A) (A) (A)
                 (A) (A) (A) (A) (A) (A) (A) (A) (A) (A) (A) (A)
                 (A) (A) (A) (A) (A)
 The electronic state is 1-A.
 Alpha  occ. eigenvalues --  -90.22022 -25.34006 -19.87258 -19.73353 -19.68834
 Alpha  occ. eigenvalues --  -10.76314 -10.76043 -10.75442 -10.72249 -10.72161
 Alpha  occ. eigenvalues --  -10.71751 -10.70378 -10.70091 -10.69863 -10.66357
 Alpha  occ. eigenvalues --  -10.65266 -10.65094 -10.64340 -10.63908 -10.63699
 Alpha  occ. eigenvalues --  -10.63615 -10.63284 -10.62985 -10.62814 -10.62502
 Alpha  occ. eigenvalues --   -8.57767  -6.49967  -6.49647  -6.49287  -1.47358
 Alpha  occ. eigenvalues --   -1.40458  -1.29779  -1.19433  -1.14409  -1.12708
 Alpha  occ. eigenvalues --   -1.09912  -1.04066  -1.02831  -1.00137  -0.99523
 Alpha  occ. eigenvalues --   -0.96549  -0.95287  -0.93653  -0.92286  -0.87132
 Alpha  occ. eigenvalues --   -0.86479  -0.85469  -0.82373  -0.80291  -0.78718
 Alpha  occ. eigenvalues --   -0.77903  -0.76683  -0.75161  -0.73341  -0.72899
 Alpha  occ. eigenvalues --   -0.70792  -0.70067  -0.68526  -0.68075  -0.67564
 Alpha  occ. eigenvalues --   -0.67173  -0.66660  -0.65914  -0.65816  -0.64236
 Alpha  occ. eigenvalues --   -0.64123  -0.63465  -0.62952  -0.62531  -0.61434
 Alpha  occ. eigenvalues --   -0.60867  -0.59507  -0.59315  -0.58079  -0.57850
 Alpha  occ. eigenvalues --   -0.56462  -0.56346  -0.55449  -0.55253  -0.54935
 Alpha  occ. eigenvalues --   -0.53823  -0.52207  -0.51043  -0.49663  -0.48888
 Alpha  occ. eigenvalues --   -0.48300  -0.46687  -0.46244  -0.45348  -0.43492
 Alpha  occ. eigenvalues --   -0.41711  -0.36801  -0.34648
 Alpha virt. eigenvalues --   -0.18750  -0.17417  -0.14309  -0.13108  -0.12266
 Alpha virt. eigenvalues --   -0.11100  -0.10654  -0.10271  -0.09554  -0.08334
 Alpha virt. eigenvalues --   -0.08229  -0.07928  -0.07362  -0.06933  -0.06562
 Alpha virt. eigenvalues --   -0.06071  -0.05886  -0.05561  -0.05399  -0.04521
 Alpha virt. eigenvalues --   -0.04185  -0.04054  -0.03923  -0.03549  -0.02845
 Alpha virt. eigenvalues --   -0.02383  -0.02209  -0.01827  -0.01413  -0.01174
 Alpha virt. eigenvalues --   -0.00906  -0.00761  -0.00479  -0.00316   0.00495
 Alpha virt. eigenvalues --    0.00640   0.00944   0.01185   0.01526   0.01711
 Alpha virt. eigenvalues --    0.01934   0.02311   0.02420   0.02620   0.03068
 Alpha virt. eigenvalues --    0.03392   0.03568   0.03824   0.03934   0.04076
 Alpha virt. eigenvalues --    0.04288   0.04407   0.04948   0.05138   0.05317
 Alpha virt. eigenvalues --    0.05592   0.06083   0.06225   0.06704   0.06803
 Alpha virt. eigenvalues --    0.06959   0.07222   0.07458   0.07632   0.07796
 Alpha virt. eigenvalues --    0.08041   0.08433   0.08494   0.08940   0.09349
 Alpha virt. eigenvalues --    0.09651   0.09956   0.10132   0.10388   0.10456
 Alpha virt. eigenvalues --    0.10665   0.11066   0.11342   0.11483   0.11807
 Alpha virt. eigenvalues --    0.11870   0.12167   0.12432   0.12702   0.12874
 Alpha virt. eigenvalues --    0.13234   0.13627   0.13679   0.13956   0.14095
 Alpha virt. eigenvalues --    0.14550   0.14696   0.15093   0.15771   0.15811
 Alpha virt. eigenvalues --    0.16001   0.16366   0.16471   0.16890   0.17133
 Alpha virt. eigenvalues --    0.17336   0.17552   0.18036   0.18329   0.18598
 Alpha virt. eigenvalues --    0.18971   0.19368   0.19772   0.20021   0.20195
 Alpha virt. eigenvalues --    0.20531   0.20729   0.21189   0.21279   0.21659
 Alpha virt. eigenvalues --    0.21864   0.22237   0.22603   0.22868   0.23231
 Alpha virt. eigenvalues --    0.23576   0.24182   0.24262   0.24633   0.24946
 Alpha virt. eigenvalues --    0.25161   0.25646   0.25882   0.26232   0.27150
 Alpha virt. eigenvalues --    0.27428   0.27532   0.27871   0.28152   0.28595
 Alpha virt. eigenvalues --    0.28636   0.29427   0.29766   0.30040   0.30301
 Alpha virt. eigenvalues --    0.30523   0.31220   0.31378   0.32148   0.32194
 Alpha virt. eigenvalues --    0.32782   0.33224   0.33798   0.34323   0.34667
[...]
 50,-0.00000157,-0.00000025,-0.00000010,-0.00000132,0.00000084,0.000000
 81,0.00000015,-0.00004136,-0.00000805,0.00000319,-0.00002191,0.0000273
 6,-0.00002461,-0.00020829,-0.00001798,0.00009121,-0.00142227,-0.004502
 75,0.00118914,-0.03710319,-0.05692701,0.06503709,0.00000209,-0.0000008
 1,-0.00000191,-0.00000597,0.00000010,0.00000034,0.00000113,-0.00000221
 ,0.00000037,0.00000221,-0.00000046,0.00000067,0.00000555,-0.00000069,0
 .00000532,0.00000183,-0.00000018,-0.00001233,-0.00000464,0.00000038,0.
 00001034,0.00000549,-0.00000142,-0.00001125,0.00000096,-0.00000580,0.0
 0000859,-0.00001418,0.00000136,-0.00000308,0.00001870,0.00000146,0.000
 00358,0.00000298,0.00000918,-0.00000912,0.00000068,0.00000543,0.000010
 08,0.00000276,-0.00000163,-0.00000039,-0.00001163,0.00000043,-0.000008
 66,-0.00000441,0.00000181,0.00003448,0.00005049,0.00007661,-0.00012087
 ,0.00019267,-0.00003778,-0.00009213,-0.00009975,-0.00046315,-0.0003020
 2,0.00051849,0.00066287,-0.00137431,0.00026149,-0.00495331,-0.00549988
 ,-0.06720074,0.06072150,0.04450052,-0.00063996,-0.00016602,0.00049770,
 0.00012386,-0.00022173,-0.00006301,-0.00011690,0.00012319,0.00006069,0
 .00000019,0.00000159,0.00000017,0.00000029,-0.00000025,0.00000039,0.00
 000049,0.00000011,-0.00000021,0.00000089,0.00000004,0.00000013,0.00000
 342,-0.00000209,0.00000113,-0.00001453,-0.00000033,-0.00000649,-0.0000
 0047,-0.00000083,0.00000014,-0.00000008,0.00000120,0.00000072,-0.00000
 026,-0.00000059,-0.00000033,0.00000994,0.00000521,-0.00000245,0.000032
 47,-0.00004461,0.00000834,-0.00003402,0.00002866,-0.00002451,-0.004582
 75,0.02266239,0.01812501,0.00495206,-0.01245030,-0.01092758,0.06629924
 ,-0.00004064,0.00000623,0.00002494,0.00008586,-0.00001050,-0.00001405,
 -0.00003051,0.00001698,-0.00000896,-0.00003582,0.00001973,0.00000539,0
 .00000187,-0.00001673,-0.00004878,0.00000827,-0.00001891,0.00011214,-0
 .00001186,0.00000041,-0.00012085,0.00001559,0.00002287,0.00012185,-0.0
 0001253,0.00004902,-0.00007774,-0.00001228,-0.00002048,0.00002033,0.00
 000231,0.00002510,-0.00003850,0.00001145,-0.00001767,0.00001814,0.0000
 1726,0.00001183,-0.00004861,-0.00000111,0.00001414,0.00000182,-0.00002
 483,-0.00021046,0.00009709,-0.00003273,0.00027975,0.00006197,0.0001789
 6,-0.00023632,-0.00018551,-0.00026963,0.00033884,-0.00013036,0.0003373
 5,0.00046223,-0.00021298,0.00118769,-0.00020928,0.00311846,-0.00307032
 ,0.00752611,0.00514990,0.06127905,-0.23026806,-0.12619118,-0.00082905,
 -0.00010052,-0.00002336,-0.00026726,-0.00047617,0.00014857,-0.00037473
 ,0.00036472,0.00015122,0.00000752,-0.00000819,0.00000078,0.00000132,0.
 00000257,0.00000022,0.00000027,0.00000179,0.00000143,-0.00000099,-0.00
 000107,-0.00000159,-0.00000165,0.00000536,-0.00000584,0.00000906,0.000
 00052,0.00002449,0.00000380,-0.00000363,-0.00000371,-0.00000373,-0.000
 00309,-0.00000235,-0.00000080,0.00000429,0.00000224,0.00004648,0.00003
 254,0.00001424,-0.00001470,0.00005459,0.00004032,0.00010208,-0.0000209
 7,0.00006587,-0.00062481,-0.00306743,-0.00129158,0.00816648,-0.0150739
 9,-0.01361937,-0.06607005,0.24025974,0.00004816,-0.00000542,-0.0000298
 7,-0.00010478,0.00000984,0.00001542,0.00003604,-0.00001796,0.00001155,
 0.00004803,-0.00002644,-0.00000636,-0.00000415,0.00002754,0.00005926,-
 0.00000965,0.00002457,-0.00015895,0.00001399,0.00000365,0.00016910,-0.
 00001465,-0.00005135,-0.00015714,0.00001438,-0.00005388,0.00009419,0.0
 0000699,0.00003787,-0.00002423,0.00000265,-0.00003993,0.00004691,-0.00
 002686,0.00002626,-0.00001911,-0.00001861,-0.00003155,0.00006659,0.000
 00402,-0.00002093,0.00000021,0.00003666,0.00034634,-0.00015014,0.00006
 243,-0.00050926,-0.00008959,-0.00009549,0.00058097,0.00011305,0.000538
 55,-0.00081823,0.00009350,-0.00125852,-0.00075591,0.00011695,0.0000191
 8,0.00120055,-0.00604217,0.00675701,-0.02010465,-0.01879346,0.04144888
 ,-0.12521819,-0.12957256,0.00076814,0.00034765,0.00198552,0.00039377,0
 .00127146,0.00010261,0.00046882,-0.00027555,-0.00038070,-0.00000808,0.
 00000811,-0.00000077,-0.00000214,-0.00000425,-0.00000139,-0.00000072,-
 0.00000307,-0.00000124,0.00000202,0.00000154,0.00000222,0.00000429,-0.
 00001024,0.00000920,-0.00001356,0.00000304,-0.00002967,-0.00000416,0.0
 0000442,0.00000382,0.00000321,0.00000478,0.00000353,0.00000138,-0.0000
 0510,-0.00000289,-0.00006895,-0.00003962,-0.00001789,0.00007386,-0.000
 10790,0.00000128,-0.00015686,0.00001387,-0.00016913,-0.00044806,0.0045
 4554,0.00385873,-0.00323410,0.00685866,0.00661257,-0.04492320,0.132705
 92,0.14222003,-0.00001401,0.00000057,0.00000119,0.00003821,-0.00000202
 ,0.00001131,-0.00001648,0.00000356,-0.00001426,-0.00002398,0.00001078,
 -0.00000101,-0.00000110,-0.00001233,-0.00002905,-0.00001969,-0.0000918
 3,0.00009378,-0.00000106,-0.00001028,-0.00018370,-0.00000596,0.0001477
 4,0.00013374,-0.00000004,-0.00000275,-0.00004364,-0.00000657,-0.000112
 78,0.00001886,-0.00003386,0.00023735,-0.00001609,-0.00007718,0.0000012
 5,-0.00008149,0.00004639,-0.00000164,-0.00005319,-0.00000332,0.0000084
 3,-0.00000647,0.00007518,-0.00022397,0.00025054,-0.00044014,0.00042389
 ,-0.00008638,0.00539763,-0.00042327,0.00307646,-0.00047494,0.00026284,
 -0.00098090,0.00330247,-0.00269684,0.00207215,-0.00525006,0.00096563,0
 .00670552,-0.00119052,0.00035977,-0.00013433,-0.00004455,0.00014785,0.
 00022780,-0.00042138,0.00004445,0.00006873,-0.17949566,-0.01770311,0.1
 5373301,-0.00002622,-0.00159068,0.00554742,0.00000208,0.00000052,0.000
 00187,0.00000299,0.00000255,0.00000197,0.00000267,0.00000004,-0.000003
 07,0.00000456,-0.00000139,-0.00000441,-0.00002165,0.00002587,-0.000017
 19,-0.00005092,-0.00002289,0.00006228,-0.00000071,-0.00000073,-0.00000
 215,0.00000135,0.00000110,-0.00000389,0.00000162,0.00000026,0.00000124
 ,-0.00010043,0.00004366,0.00000500,-0.00050559,0.00009681,-0.00034205,
 0.00029410,0.00003674,0.00071105,-0.00000014,-0.00010270,-0.00002942,0
 .00024831,-0.00060441,-0.00092034,0.00016165,0.00038195,-0.00027087,0.
 18073219,0.00000936,-0.00000294,0.00000172,-0.00003446,0.00000077,-0.0
 0001753,0.00001357,-0.00000746,0.00001719,0.00002635,-0.00001299,0.000
 00292,0.00000769,-0.00003026,0.00004076,0.00000500,0.00001737,-0.00012
 052,0.00000303,0.00000215,0.00013367,0.00000437,-0.00009557,-0.0000913
 5,0.00000241,-0.00001198,0.00004516,-0.00004825,0.00004122,0.00002926,
 -0.00001870,-0.00005712,0.00004665,0.00002253,0.00004284,-0.00004569,-
 0.00005791,0.00002685,0.00007692,0.00001102,-0.00002637,-0.00000398,-0
 .00005985,0.00003692,-0.00016330,0.00065653,0.00051624,-0.00058090,-0.
 00018460,-0.00376968,-0.00332851,0.00026156,-0.00066731,-0.00020275,-0
 .00235332,-0.00516757,-0.00044490,-0.01746575,0.00153861,0.02031126,-0
 .00198585,0.00031567,0.00186427,0.00015418,-0.00043335,-0.00007613,0.0
 0075425,0.00027563,-0.00046902,-0.01729141,-0.05837980,0.01231919,0.01
 784297,0.00676709,-0.01940934,0.00000001,0.00000316,-0.00000097,-0.000
 00002,-0.00000806,-0.00000284,-0.00000043,-0.00000107,0.00000124,0.000
 00324,-0.00000116,0.00000220,0.00003630,-0.00000767,0.00001580,0.00006
 893,0.00005055,-0.00005175,-0.00001211,0.00000061,0.00000955,0.0000065
 8,0.00000656,0.00000560,-0.00000211,-0.00000571,0.00000006,0.00008478,
 -0.00023848,-0.00016024,0.00015021,0.00008996,0.00011104,-0.00082690,0
 .00015850,0.00100991,0.00005284,0.00017674,0.00003176,-0.00044238,-0.0
 0030777,-0.00101141,0.00005774,0.00006064,-0.00010975,0.01972865,0.058
 49682,-0.00000060,-0.00000114,-0.00000140,0.00000330,-0.00000003,0.000
 00212,-0.00000235,0.00000011,-0.00000192,-0.00000460,-0.00000084,0.000
 00514,-0.00000633,-0.00003298,-0.00000564,-0.00000458,-0.00008397,0.00
 002398,0.00000205,-0.00000120,-0.00009322,-0.00000323,0.00006338,0.000
 08222,0.00000370,0.00001155,-0.00003312,-0.00002475,-0.00002945,0.0000
 4026,-0.00004061,0.00006748,-0.00001716,-0.00005553,0.00008922,-0.0001
 2469,0.00001500,0.00001714,0.00001300,0.00000422,-0.00001204,-0.000009
 99,0.00003144,-0.00020589,0.00011382,-0.00004461,0.00095090,-0.0005934
 4,0.00457339,-0.00376823,0.00246624,-0.00105645,-0.00087607,-0.0005314
 1,0.00229612,0.00046632,0.00382178,0.00242828,0.00145788,-0.00198869,0
 .00027968,0.00027689,-0.00144261,-0.00010823,-0.00042272,-0.00007095,-
 0.00110004,-0.00058801,-0.00016582,0.15151286,0.01065790,-0.20157325,0
 .01126959,0.00307359,-0.00579381,0.00000044,0.00000065,0.00000117,0.00
 000166,-0.00000299,-0.00000070,0.00000149,-0.00000049,-0.00000121,0.00
 000299,-0.00000134,-0.00000139,-0.00001483,0.00000484,-0.00000198,0.00
 004868,0.00000174,-0.00000714,-0.00000975,0.00000050,0.00000565,0.0000
 0664,0.00000351,-0.00000018,-0.00000106,-0.00000359,0.00000142,0.00002
 851,-0.00016632,-0.00010026,-0.00042794,0.00010603,-0.00039713,0.00050
 201,-0.00026678,0.00032224,-0.00002657,-0.00003450,0.00000115,-0.00046
 003,-0.00105049,-0.00059454,0.00010502,0.00012179,-0.00005531,-0.16705
 562,-0.01073834,0.20808305,0.00002095,-0.00000460,-0.00005363,0.000005
 56,0.00001668,0.00010041,-0.00001045,-0.00001379,-0.00005681,-0.000080
 86,0.00001129,-0.00003137,0.00001281,0.00000273,-0.00003510,0.00006383
 ,0.00047923,0.00023030,-0.00002235,-0.00016719,0.00011598,-0.00004131,
 0.00007870,-0.00024087,0.00003535,-0.00022607,0.00023975,-0.00000204,-
 0.00005081,-0.00023275,-0.00023758,0.00050061,-0.00036726,-0.00014211,
 0.00000140,0.00032405,0.00020013,0.00024619,-0.00019300,0.00000685,-0.
 00003663,-0.00003531,-0.00062085,-0.00014133,0.00092756,-0.00173425,0.
 00127482,-0.00203857,-0.00338084,-0.01905425,0.00289618,0.00137514,-0.
 00010015,0.00570729,-0.00094812,0.00068326,-0.00002675,0.00448381,0.00
 096170,0.00430470,0.00068269,0.00083610,0.00018513,0.00004416,0.000140
 62,-0.00013443,-0.00029781,-0.00025044,-0.00004271,0.00708346,0.008820
 66,-0.00078907,-0.10091470,-0.11136089,0.03421749,-0.00001120,0.000010
 97,0.00000204,0.00001754,0.00000607,0.00001723,0.00001785,-0.00000905,
 -0.00002141,0.00000287,-0.00000385,0.00001737,0.00002092,-0.00000039,0
 .00001321,-0.00083090,-0.00024183,-0.00036870,-0.00000574,-0.00000211,
 -0.00001529,0.00000443,0.00000801,-0.00002439,-0.00000148,-0.00000059,
 -0.00002282,0.00033017,-0.00010059,-0.00010014,-0.00038898,-0.00089730
 ,0.00000221,-0.00045472,0.00003810,-0.00041674,-0.00001092,-0.00002800
 ,0.00001258,-0.00000527,-0.00003796,-0.00002263,-0.00000552,-0.0000366
 4,0.00003266,-0.00217959,0.00059369,-0.00272793,0.09783567,0.00000678,
 0.00000378,0.00001030,-0.00004301,-0.00001898,-0.00003727,0.00001517,-
 0.00000317,0.00002558,0.00008079,-0.00002518,-0.00000370,-0.00002831,-
 0.00004407,-0.00000709,-0.00002179,-0.00010873,-0.00024724,0.00001157,
 -0.00005896,0.00011195,0.00001750,-0.00026893,0.00001340,-0.00004720,0
 .00007374,-0.00009812,0.00010450,0.00012614,-0.00011840,0.00120789,-0.
 00023163,0.00106808,0.00035520,-0.00045708,-0.00040414,-0.00014764,-0.
 00018600,0.00005247,-0.00000392,-0.00001048,0.00001673,0.00038609,0.00
 046426,-0.00012271,0.00093721,-0.00047867,-0.00013630,0.00041006,0.003
 49059,-0.00046550,-0.00025433,0.00082680,-0.00108945,0.00037521,0.0006
 1859,0.00009918,0.00060082,-0.00127258,-0.00364777,-0.00056551,-0.0009
 7084,0.00000832,0.00000236,-0.00007573,0.00010547,0.00026078,0.0002068
 9,0.00005029,-0.01008525,-0.01628188,0.00569123,-0.11246370,-0.2821852
 3,0.05029215,0.00000389,0.00000073,-0.00000016,-0.00000327,-0.00000972
 ,-0.00000883,-0.00000546,-0.00000387,0.00000580,-0.00000588,0.00000033
 ,-0.00000574,0.00000542,0.00002624,-0.00001736,0.00009735,-0.00040663,
 0.00004389,0.00000061,0.00000657,0.00001149,0.00000574,0.00000479,0.00
 000933,0.00000079,-0.00000173,0.00000813,-0.00006698,0.00005605,0.0000
 3867,0.00015745,0.00018235,-0.00008969,0.00005898,-0.00005393,0.000113
 72,0.00001144,0.00000114,-0.00001507,-0.00000338,0.00000159,-0.0000089
 2,-0.00000242,0.00004162,-0.00003404,0.00064395,0.00057536,0.00077190,
 0.11804660,0.29646513,-0.00005592,0.00000642,0.00000597,0.00014477,-0.
 00001657,0.00003901,-0.00006159,0.00002068,-0.00005405,-0.00007364,0.0
 0002679,-0.00000657,0.00005843,0.00003854,0.00010455,-0.00005956,0.000
 04207,0.00007758,-0.00002436,-0.00006682,-0.00002971,0.00002146,0.0000
 5254,0.00000626,-0.00001486,0.00000017,-0.00004663,0.00005466,0.000075
 33,-0.00023072,-0.00020611,0.00014881,-0.00004462,0.00013577,-0.000412
 28,0.00074177,0.00002246,0.00000039,-0.00016490,0.00001469,0.00004800,
 -0.00000002,-0.00007928,-0.00036138,0.00005186,-0.00223942,0.00232231,
 -0.00084663,0.01029535,0.02000212,-0.00149486,0.00602432,-0.00074199,-
 0.00088475,-0.00008555,-0.00038339,-0.00117857,0.00411945,-0.00331276,
 0.00218548,-0.00005630,-0.00145821,-0.00000476,0.00006566,0.00017666,0
 .00002854,0.00001047,0.00011518,0.00005345,-0.00685697,-0.01686095,0.0
 0714295,0.03382587,0.05031828,-0.06296942,0.00000615,-0.00000496,0.000
 00344,0.00000843,0.00001617,0.00001197,0.00000898,0.00000121,-0.000009
 43,0.00000398,0.00000887,-0.00000618,-0.00005030,0.00001658,-0.0000330
 8,-0.00076902,0.00013489,-0.00002992,-0.00000796,-0.00000237,-0.000010
 89,0.00000349,0.00000008,-0.00003886,-0.00000066,-0.00000180,0.0000109
 1,0.00013526,-0.00016214,-0.00001810,0.00014185,0.00113669,-0.00022159
 ,-0.00046429,0.00013347,-0.00026912,0.00000358,-0.00001005,-0.00001307
 ,-0.00005314,-0.00005547,-0.00005813,-0.00001227,0.00000723,0.00002537
 ,-0.00251722,0.00091466,-0.00153905,-0.04140820,-0.05192391,0.05972372
 ,0.00007509,-0.00001540,-0.00006059,-0.00015324,0.00001964,0.00004901,
 0.00004904,-0.00003700,0.00000177,0.00006442,-0.00003634,-0.00001357,-
 0.00000840,0.00003213,0.00007476,-0.00001967,0.00003117,-0.00017083,0.
 00001912,-0.00001922,0.00017652,-0.00003571,0.00003399,-0.00021960,0.0
 0002621,-0.00012223,0.00015833,0.00000869,-0.00000579,-0.00004590,0.00
 002180,0.00002459,0.00005963,-0.00000527,-0.00000836,-0.00003779,-0.00
 003440,-0.00002783,0.00007971,0.00001215,-0.00003127,-0.00000962,0.000
 05082,0.00029142,-0.00013684,0.00012408,-0.00040175,-0.00000328,-0.000
 28353,0.00037023,0.00023400,-0.00000482,-0.00033859,0.00001695,-0.0002
 2292,0.00010272,0.00028049,-0.00078584,-0.00084513,0.00082284,-0.01996
 845,0.02015815,-0.02308737,-0.00708844,-0.00100747,0.00011650,-0.10795
 707,0.09821771,-0.11847649,0.00008495,0.00023359,-0.00036564,0.0001407
 9,-0.00028945,-0.00030879,-0.00001267,0.00002267,0.00000161,0.00000049
 ,-0.00000399,0.00000294,0.00000273,-0.00000428,-0.00000609,0.00000440,
 0.00000181,0.00000182,0.00000192,0.00000945,0.00000021,-0.00003231,-0.
 00001298,-0.00002387,-0.00000969,0.00000804,0.00000756,0.00000478,0.00
 001078,0.00000378,0.00000054,-0.00001038,-0.00000597,-0.00004487,-0.00
 003802,-0.00001944,0.00002971,-0.00002267,-0.00000930,-0.00009107,-0.0
 0001832,0.00014872,0.00050421,0.00026487,-0.00183893,0.00008417,0.0000
 9126,0.00070923,0.00008381,-0.00007794,-0.00012169,0.00009434,0.000226
 23,0.00005858,0.00008343,-0.00005610,-0.00000847,0.13518668,-0.0000891
 1,0.00001521,0.00006247,0.00017513,-0.00002753,-0.00004849,-0.00006174
 ,0.00003880,-0.00000738,-0.00006406,0.00003654,0.00001429,0.00001823,-
 0.00003427,-0.00006798,0.00000533,-0.00002508,0.00015445,-0.00001079,0
 .00001347,-0.00015743,0.00002998,-0.00004250,0.00020986,-0.00002899,0.
 00011652,-0.00015239,-0.00000340,0.00000695,0.00003851,-0.00002475,-0.
 00001894,-0.00004713,0.00000568,0.00000581,0.00003823,0.00001904,0.000
 01732,-0.00007369,-0.00000017,0.00002944,0.00000920,-0.00004961,-0.000
 26957,0.00011581,-0.00012544,0.00034773,-0.00000294,0.00029452,-0.0003
 6177,-0.00032505,-0.00001950,0.00021135,0.00000421,0.00034425,0.000106
 10,-0.00023146,0.00007291,-0.00016681,0.00045473,-0.00274895,0.0025938
 2,-0.00617940,-0.00444064,0.00070133,0.00061823,0.12357441,-0.17409477
 ,0.21515950,-0.00002470,-0.00077764,-0.00009072,-0.00026026,0.00011412
 ,0.00034670,0.00001729,-0.00002032,-0.00000010,0.00000126,0.00000248,-
 0.00000220,-0.00000022,0.00000344,0.00000342,0.00000024,-0.00000192,-0
 .00000174,0.00000380,-0.00000811,0.00000004,0.00003029,0.00001054,0.00
 001728,0.00000554,-0.00000710,-0.00000604,-0.00000347,-0.00000800,-0.0
 0000844,-0.00000046,0.00000953,0.00000355,0.00005270,0.00003274,0.0000
 1866,-0.00002164,0.00002646,0.00000326,-0.00002186,0.00007300,-0.00002
 266,-0.00005052,0.00058763,-0.00141435,0.00001978,0.00012847,-0.000196
 31,0.00006540,0.00016184,0.00022064,0.00002740,0.00003203,0.00014407,0
 .00000704,-0.00001869,0.00001091,-0.11671994,0.17046037,0.00002961,-0.
 00000115,-0.00003581,-0.00005473,-0.00000140,0.00004045,0.00001053,-0.
 00000995,-0.00001258,0.00002555,-0.00001353,-0.00000630,0.00001141,0.0
 0001383,0.00002657,-0.00000826,0.00001388,-0.00006971,0.00000297,-0.00
 000762,0.00006409,-0.00000753,0.00000229,-0.00006969,0.00000772,-0.000
 03851,0.00004522,0.00000219,0.00000344,-0.00002076,0.00000368,0.000016
 07,0.00003129,-0.00001112,-0.00000659,-0.00002766,-0.00001774,-0.00001
 532,0.00004857,0.00000994,-0.00001640,-0.00000118,0.00001027,0.0001307
 3,-0.00006359,0.00008344,-0.00022195,-0.00002094,-0.00000657,0.0001993
 9,0.00016744,-0.00004890,-0.00016347,-0.00042892,-0.00007892,-0.000845
 25,0.00034553,0.00190973,-0.00046262,0.00000653,0.00891770,-0.00423598
 ,0.00409253,-0.00021859,0.00031509,-0.00000143,-0.15278585,0.21434144,
 -0.26764094,0.00010487,0.00014825,-0.00057056,-0.00006071,-0.00020724,
 -0.00025154,-0.00000331,0.00000855,0.00000286,0.00000089,-0.00000078,0
 .00000153,0.00000169,-0.00000342,-0.00000310,0.00000180,0.00000056,0.0
 0000172,-0.00000056,0.00000599,-0.00000055,-0.00000990,-0.00000197,-0.
 00000457,-0.00000131,0.00000260,0.00000069,-0.00000206,0.00000420,-0.0
 0000082,0.00000094,-0.00000424,-0.00000429,-0.00001786,-0.00003836,-0.
 00001064,0.00000727,-0.00009721,-0.00006282,0.00016370,0.00006521,0.00
 019667,-0.00013442,-0.00003238,0.00022162,0.00004249,-0.00021483,0.000
 20507,0.00002227,0.00000900,0.00009095,0.00007283,0.00003843,0.0001627
 6,0.00005977,-0.00006666,-0.00000919,0.14196511,-0.20861214,0.26356550
 \\0.00000292,-0.00000004,-0.00000167,-0.00000908,-0.00000590,0.0000012
 5,0.00000244,0.00000043,0.00000272,0.00001326,0.00000763,0.00000544,-0
 .00000764,0.00000511,0.00000743,-0.00000136,0.00000162,-0.00000827,0.,
 0.00000007,-0.00000054,-0.00000733,-0.00000120,0.00000146,0.00000332,0
 .00000022,-0.00000029,-0.00000011,-0.00000037,-0.00000008,-0.00000642,
 -0.00000091,0.00000062,0.00001429,0.00000482,-0.00000403,0.00000254,-0
 .00001065,-0.00000336,-0.00000083,-0.00000017,-0.00000238,-0.00000590,
 0.00000438,0.00000555,0.00000565,-0.00000875,-0.00000009,0.00000234,0.
 00000694,0.00000263,0.00000517,-0.00000153,0.00000384,-0.00000178,0.,-
 0.00000209,-0.00000144,0.00000231,0.00000014,0.00000831,-0.00000253,-0
 .00000049,0.00000096,-0.00000129,-0.00000071,-0.00000609,0.00000514,0.
 00000108,0.00000188,-0.00000046,0.00000047,-0.00000402,-0.00000059,-0.
 00000405,-0.00000060,-0.00000075,-0.00000227,-0.00000046,0.,-0.0000003
 3,-0.00000282,-0.00000128,-0.00000107,-0.00000089,-0.00000089,0.000000
 89,-0.00000045,0.00000081,-0.00000006,-0.00000037,0.00000106,-0.000000
 02,-0.00000035,-0.00000013,0.00000184,-0.00000105,0.00000168,0.0000012
 2,0.00000127,-0.00000182,0.00000153,-0.00000765,-0.00000134,-0.0000023
 6,0.00000048,0.00000004,0.00000002,0.00000058,0.00000027,0.00000012,0.
 00000054,0.00000059,0.00000009,-0.00000030,0.00000067,-0.00000023,-0.0
 0000018,0.00000029,-0.00000112,-0.00000003,0.00000007,-0.00000013,0.00
 000089,-0.00000067,0.00000022,0.00000034,-0.00000287,-0.00000293\\\@


 THE WORLD IS NOT A HAMBURGER - YOU CAN'T HAVE IT YOUR WAY.
 Job cpu time:       0 days 15 hours 26 minutes 18.6 seconds.
 Elapsed time:       0 days  0 hours 38 minutes 43.0 seconds.
 File lengths (MBytes):  RWF=   1798 Int=      0 D2E=      0 Chk=     44 Scr=      1
 Normal termination of Gaussian 16 at Mon Oct 14 01:49:09 2019.
real 8913.26
user 212703.19
sys 122.99
Machine:
brown-a136
brown-a136
brown-a136
brown-a136
brown-a136
brown-a136
brown-a136
brown-a136
brown-a136
brown-a136
brown-a136
brown-a136
brown-a136
brown-a136
brown-a136
brown-a136
brown-a136
brown-a136
brown-a136
brown-a136
brown-a136
brown-a136
brown-a136
brown-a136
