 Entering Gaussian System, Link 0=/apps/cent7/gaussian/g16-A.03/g16-haswell/g16/g16
 Initial command:
 /apps/cent7/gaussian/g16-A.03/g16-haswell/g16/l1.exe "/scratch/brown/finej/gaussian/Gau-456484.inp" -scrdir="/scratch/brown/finej/gaussian/"
 Entering Link 1 = /apps/cent7/gaussian/g16-A.03/g16-haswell/g16/l1.exe PID=    456485.
  
 Copyright (c) 1988,1990,1992,1993,1995,1998,2003,2009,2016,
            Gaussian, Inc.  All Rights Reserved.
  
 This is part of the Gaussian(R) 16 program.  It is based on
 the Gaussian(R) 09 system (copyright 2009, Gaussian, Inc.),
 the Gaussian(R) 03 system (copyright 2003, Gaussian, Inc.),
 the Gaussian(R) 98 system (copyright 1998, Gaussian, Inc.),
 the Gaussian(R) 94 system (copyright 1995, Gaussian, Inc.),
 the Gaussian 92(TM) system (copyright 1992, Gaussian, Inc.),
 the Gaussian 90(TM) system (copyright 1990, Gaussian, Inc.),
 the Gaussian 88(TM) system (copyright 1988, Gaussian, Inc.),
 the Gaussian 86(TM) system (copyright 1986, Carnegie Mellon
 University), and the Gaussian 82(TM) system (copyright 1983,
 Carnegie Mellon University). Gaussian is a federally registered
 trademark of Gaussian, Inc.
  
 This software contains proprietary and confidential information,
 including trade secrets, belonging to Gaussian, Inc.
  
 This software is provided under written license and may be
 used, copied, transmitted, or stored only in accord with that
 written license.
  
 The following legend is applicable only to US Government
 contracts under FAR:
  
                    RESTRICTED RIGHTS LEGEND
  
 Use, reproduction and disclosure by the US Government is
 subject to restrictions as set forth in subparagraphs (a)
 and (c) of the Commercial Computer Software - Restricted
 Rights clause in FAR 52.227-19.
  
 Gaussian, Inc.
 340 Quinnipiac St., Bldg. 40, Wallingford CT 06492
  
  
 ---------------------------------------------------------------
 Warning -- This program may not be used in any manner that
 competes with the business of Gaussian, Inc. or will provide
 assistance to any competitor of Gaussian, Inc.  The licensee
 of this program is prohibited from giving any competitor of
 Gaussian, Inc. access to this program.  By using this program,
 the user acknowledges that Gaussian, Inc. is engaged in the
 business of creating and licensing software in the field of
 computational chemistry and represents and warrants to the
 licensee that it is not a competitor of Gaussian, Inc. and that
 it will not use this program in any manner prohibited above.
 ---------------------------------------------------------------
  

 Cite this work as:
 Gaussian 16, Revision A.03,
 M. J. Frisch, G. W. Trucks, H. B. Schlegel, G. E. Scuseria, 
 M. A. Robb, J. R. Cheeseman, G. Scalmani, V. Barone, 
 G. A. Petersson, H. Nakatsuji, X. Li, M. Caricato, A. V. Marenich, 
 J. Bloino, B. G. Janesko, R. Gomperts, B. Mennucci, H. P. Hratchian, 
 J. V. Ortiz, A. F. Izmaylov, J. L. Sonnenberg, D. Williams-Young, 
 F. Ding, F. Lipparini, F. Egidi, J. Goings, B. Peng, A. Petrone, 
 T. Henderson, D. Ranasinghe, V. G. Zakrzewski, J. Gao, N. Rega, 
 G. Zheng, W. Liang, M. Hada, M. Ehara, K. Toyota, R. Fukuda, 
 J. Hasegawa, M. Ishida, T. Nakajima, Y. Honda, O. Kitao, H. Nakai, 
 T. Vreven, K. Throssell, J. A. Montgomery, Jr., J. E. Peralta, 
 F. Ogliaro, M. J. Bearpark, J. J. Heyd, E. N. Brothers, K. N. Kudin, 
 V. N. Staroverov, T. A. Keith, R. Kobayashi, J. Normand, 
 K. Raghavachari, A. P. Rendell, J. C. Burant, S. S. Iyengar, 
 J. Tomasi, M. Cossi, J. M. Millam, M. Klene, C. Adamo, R. Cammi, 
 J. W. Ochterski, R. L. Martin, K. Morokuma, O. Farkas, 
 J. B. Foresman, and D. J. Fox, Gaussian, Inc., Wallingford CT, 2016.
 
 ******************************************
 Gaussian 16:  ES64L-G16RevA.03 25-Dec-2016
                13-Oct-2019 
 ******************************************
 %chk=36.chk
 %nprocshared=24
 Will use up to   24 processors via shared memory.
 %mem=80GB
 -------------------------------------------------------------------
 #P opt freq m062x/6-311++g(d,p) geom=connectivity temperature=0.001
 -------------------------------------------------------------------
 1/18=20,19=15,26=3,38=1,57=2,112=-1000/1,3;
 2/9=110,12=2,17=6,18=5,40=1/2;
 3/5=4,6=6,7=1111,11=2,25=1,30=1,71=1,74=-55/1,2,3;
 4//1;
 5/5=2,38=5/2;
 6/7=2,8=2,9=2,10=2,28=1/1;
 7//1,2,3,16;
 1/18=20,19=15,26=3/3(2);
 2/9=110/2;
 99//99;
 2/9=110/2;
 3/5=4,6=6,7=1111,11=2,25=1,30=1,71=1,74=-55/1,2,3;
 4/5=5,16=3,69=1/1;
 5/5=2,38=5/2;
 7//1,2,3,16;
 1/18=20,19=15,26=3/3(-5);
 2/9=110/2;
 6/7=2,8=2,9=2,10=2,19=2,28=1/1;
 99/9=1/99;
 Leave Link    1 at Sun Oct 13 23:20:43 2019, MaxMem= 10737418240 cpu:               0.8 elap:               0.0
 (Enter /apps/cent7/gaussian/g16-A.03/g16-haswell/g16/l101.exe)
 -------------------
 Title Card Required
 -------------------
 Symbolic Z-matrix:
 Charge =  0 Multiplicity = 1
 O                    -3.4512    3.7224   -10.3097 
 S                    -3.6228    5.1285   -9.5563 
 C                    -5.3523    5.1564   -8.9642 
 C                    -2.6134    5.0071   -8.0324 
 C                    -1.1071    4.9157   -8.3583 
 C                    -0.2241    4.8424   -7.0857 
 C                     1.2828    4.7484   -7.4373 
 C                     2.1913    4.6813   -6.1828 
 C                     3.6989    4.5903   -6.5437 
 C                     4.6062    4.5253   -5.2855 
 C                     6.1166    4.4342   -5.6359 
 C                     7.0299    4.3683   -4.3794 
 C                     8.5389    4.2771   -4.7426 
 C                     9.4638    4.2106   -3.4964 
 C                     10.9635   4.12     -3.8615 
 H                    -5.3633    5.1566   -7.8743 
 H                    -5.848     6.0546   -9.3327 
 H                    -5.8768    4.2748   -9.3327 
 H                    -2.6907    5.9398   -7.4736 
 H                    -2.8189    4.0574   -7.5386 
 H                    -0.9689    3.968    -8.8787 
 H                    -0.8492    5.852    -8.8533 
 H                    -0.358     5.7908   -6.5654 
 H                    -0.481     3.9071   -6.5885 
 H                     1.4127    3.7978   -7.9546 
 H                     1.5334    5.6818   -7.9413 
 H                     2.0606    5.631    -5.6641 
 H                     1.9431    3.7468   -5.6796 
 H                     3.8298    3.6399   -7.0611 
 H                     3.9467    5.5241   -7.0482 
 H                     4.4733    5.4758   -4.7687 
 H                     4.3566    3.5915   -4.7817 
 H                     6.248     3.484    -6.1537 
 H                     6.3649    5.3683   -6.1398 
 H                     6.9003    5.3184   -3.8611 
 H                     6.7832    3.4341   -3.8748 
 H                     8.6663    3.3272   -5.2617 
 H                     8.7834    5.2114   -5.2481 
 H                     9.3393    5.1604   -2.9763 
 H                     9.2222    3.2761   -2.99 
 H                     11.5581   4.0841   -2.9487 
 H                     11.1411   3.2177   -4.4466 
 H                     11.2484   4.9944   -4.4466 
 
 ITRead=  0  0  0  0  0  0  0  0  0  0  0  0  0  0  0  0  0  0  0  0
 ITRead=  0  0  0  0  0  0  0  0  0  0  0  0  0  0  0  0  0  0  0  0
 ITRead=  0  0  0
 MicOpt= -1 -1 -1 -1 -1 -1 -1 -1 -1 -1 -1 -1 -1 -1 -1 -1 -1 -1 -1 -1
 MicOpt= -1 -1 -1 -1 -1 -1 -1 -1 -1 -1 -1 -1 -1 -1 -1 -1 -1 -1 -1 -1
 MicOpt= -1 -1 -1
 NAtoms=     43 NQM=       43 NQMF=       0 NMMI=      0 NMMIF=      0
                NMic=       0 NMicF=      0.
                    Isotopes and Nuclear Properties:
 (Nuclear quadrupole moments (NQMom) in fm**2, nuclear magnetic moments (NMagM)
  in nuclear magnetons)

  Atom         1           2           3           4           5           6           7           8           9          10
 IAtWgt=          16          32          12          12          12          12          12          12          12          12
 AtmWgt=  15.9949146  31.9720718  12.0000000  12.0000000  12.0000000  12.0000000  12.0000000  12.0000000  12.0000000  12.0000000
 NucSpn=           0           0           0           0           0           0           0           0           0           0
 AtZEff=  -0.0000000  -0.0000000  -0.0000000  -0.0000000  -0.0000000  -0.0000000  -0.0000000  -0.0000000  -0.0000000  -0.0000000
 NQMom=    0.0000000   0.0000000   0.0000000   0.0000000   0.0000000   0.0000000   0.0000000   0.0000000   0.0000000   0.0000000
 NMagM=    0.0000000   0.0000000   0.0000000   0.0000000   0.0000000   0.0000000   0.0000000   0.0000000   0.0000000   0.0000000
 AtZNuc=   8.0000000  16.0000000   6.0000000   6.0000000   6.0000000   6.0000000   6.0000000   6.0000000   6.0000000   6.0000000

  Atom        11          12          13          14          15          16          17          18          19          20
 IAtWgt=          12          12          12          12          12           1           1           1           1           1
 AtmWgt=  12.0000000  12.0000000  12.0000000  12.0000000  12.0000000   1.0078250   1.0078250   1.0078250   1.0078250   1.0078250
 NucSpn=           0           0           0           0           0           1           1           1           1           1
 AtZEff=  -0.0000000  -0.0000000  -0.0000000  -0.0000000  -0.0000000  -0.0000000  -0.0000000  -0.0000000  -0.0000000  -0.0000000
 NQMom=    0.0000000   0.0000000   0.0000000   0.0000000   0.0000000   0.0000000   0.0000000   0.0000000   0.0000000   0.0000000
 NMagM=    0.0000000   0.0000000   0.0000000   0.0000000   0.0000000   2.7928460   2.7928460   2.7928460   2.7928460   2.7928460
 AtZNuc=   6.0000000   6.0000000   6.0000000   6.0000000   6.0000000   1.0000000   1.0000000   1.0000000   1.0000000   1.0000000

  Atom        21          22          23          24          25          26          27          28          29          30
 IAtWgt=           1           1           1           1           1           1           1           1           1           1
 AtmWgt=   1.0078250   1.0078250   1.0078250   1.0078250   1.0078250   1.0078250   1.0078250   1.0078250   1.0078250   1.0078250
 NucSpn=           1           1           1           1           1           1           1           1           1           1
 AtZEff=  -0.0000000  -0.0000000  -0.0000000  -0.0000000  -0.0000000  -0.0000000  -0.0000000  -0.0000000  -0.0000000  -0.0000000
 NQMom=    0.0000000   0.0000000   0.0000000   0.0000000   0.0000000   0.0000000   0.0000000   0.0000000   0.0000000   0.0000000
 NMagM=    2.7928460   2.7928460   2.7928460   2.7928460   2.7928460   2.7928460   2.7928460   2.7928460   2.7928460   2.7928460
 AtZNuc=   1.0000000   1.0000000   1.0000000   1.0000000   1.0000000   1.0000000   1.0000000   1.0000000   1.0000000   1.0000000

  Atom        31          32          33          34          35          36          37          38          39          40
 IAtWgt=           1           1           1           1           1           1           1           1           1           1
 AtmWgt=   1.0078250   1.0078250   1.0078250   1.0078250   1.0078250   1.0078250   1.0078250   1.0078250   1.0078250   1.0078250
 NucSpn=           1           1           1           1           1           1           1           1           1           1
 AtZEff=  -0.0000000  -0.0000000  -0.0000000  -0.0000000  -0.0000000  -0.0000000  -0.0000000  -0.0000000  -0.0000000  -0.0000000
 NQMom=    0.0000000   0.0000000   0.0000000   0.0000000   0.0000000   0.0000000   0.0000000   0.0000000   0.0000000   0.0000000
 NMagM=    2.7928460   2.7928460   2.7928460   2.7928460   2.7928460   2.7928460   2.7928460   2.7928460   2.7928460   2.7928460
 AtZNuc=   1.0000000   1.0000000   1.0000000   1.0000000   1.0000000   1.0000000   1.0000000   1.0000000   1.0000000   1.0000000

  Atom        41          42          43
 IAtWgt=           1           1           1
 AtmWgt=   1.0078250   1.0078250   1.0078250
 NucSpn=           1           1           1
 AtZEff=  -0.0000000  -0.0000000  -0.0000000
 NQMom=    0.0000000   0.0000000   0.0000000
 NMagM=    2.7928460   2.7928460   2.7928460
 AtZNuc=   1.0000000   1.0000000   1.0000000
 Leave Link  101 at Sun Oct 13 23:20:43 2019, MaxMem= 10737418240 cpu:              14.0 elap:               0.6
 (Enter /apps/cent7/gaussian/g16-A.03/g16-haswell/g16/l103.exe)

 GradGradGradGradGradGradGradGradGradGradGradGradGradGradGradGradGradGrad
 Berny optimization.
 Initialization pass.
                           ----------------------------
                           !    Initial Parameters    !
                           ! (Angstroms and Degrees)  !
 --------------------------                            --------------------------
 ! Name  Definition              Value          Derivative Info.                !
 --------------------------------------------------------------------------------
 ! R1    R(1,2)                  1.6044         estimate D2E/DX2                !
 ! R2    R(2,3)                  1.8283         estimate D2E/DX2                !
 ! R3    R(2,4)                  1.8319         estimate D2E/DX2                !
 ! R4    R(3,16)                 1.09           estimate D2E/DX2                !
 ! R5    R(3,17)                 1.0901         estimate D2E/DX2                !
 ! R6    R(3,18)                 1.09           estimate D2E/DX2                !
 ! R7    R(4,5)                  1.5439         estimate D2E/DX2                !
 ! R8    R(4,19)                 1.09           estimate D2E/DX2                !
 ! R9    R(4,20)                 1.09           estimate D2E/DX2                !
 ! R10   R(5,6)                  1.5507         estimate D2E/DX2                !
 ! R11   R(5,21)                 1.09           estimate D2E/DX2                !
 ! R12   R(5,22)                 1.09           estimate D2E/DX2                !
 ! R13   R(6,7)                  1.5502         estimate D2E/DX2                !
 ! R14   R(6,23)                 1.09           estimate D2E/DX2                !
 ! R15   R(6,24)                 1.09           estimate D2E/DX2                !
 ! R16   R(7,8)                  1.5504         estimate D2E/DX2                !
 ! R17   R(7,25)                 1.09           estimate D2E/DX2                !
 ! R18   R(7,26)                 1.09           estimate D2E/DX2                !
 ! R19   R(8,9)                  1.5529         estimate D2E/DX2                !
 ! R20   R(8,27)                 1.09           estimate D2E/DX2                !
 ! R21   R(8,28)                 1.09           estimate D2E/DX2                !
 ! R22   R(9,10)                 1.5526         estimate D2E/DX2                !
 ! R23   R(9,29)                 1.09           estimate D2E/DX2                !
 ! R24   R(9,30)                 1.0899         estimate D2E/DX2                !
 ! R25   R(10,11)                1.5532         estimate D2E/DX2                !
 ! R26   R(10,31)                1.09           estimate D2E/DX2                !
 ! R27   R(10,32)                1.09           estimate D2E/DX2                !
 ! R28   R(11,12)                1.5548         estimate D2E/DX2                !
 ! R29   R(11,33)                1.0901         estimate D2E/DX2                !
 ! R30   R(11,34)                1.09           estimate D2E/DX2                !
 ! R31   R(12,13)                1.5548         estimate D2E/DX2                !
 ! R32   R(12,35)                1.09           estimate D2E/DX2                !
 ! R33   R(12,36)                1.0901         estimate D2E/DX2                !
 ! R34   R(13,14)                1.5533         estimate D2E/DX2                !
 ! R35   R(13,37)                1.09           estimate D2E/DX2                !
 ! R36   R(13,38)                1.0901         estimate D2E/DX2                !
 ! R37   R(14,15)                1.5462         estimate D2E/DX2                !
 ! R38   R(14,39)                1.09           estimate D2E/DX2                !
 ! R39   R(14,40)                1.09           estimate D2E/DX2                !
 ! R40   R(15,41)                1.09           estimate D2E/DX2                !
 ! R41   R(15,42)                1.09           estimate D2E/DX2                !
 ! R42   R(15,43)                1.09           estimate D2E/DX2                !
 ! A1    A(1,2,3)              105.4637         estimate D2E/DX2                !
 ! A2    A(1,2,4)              105.8794         estimate D2E/DX2                !
 ! A3    A(3,2,4)              104.6462         estimate D2E/DX2                !
 ! A4    A(2,3,16)             109.4749         estimate D2E/DX2                !
 ! A5    A(2,3,17)             109.4672         estimate D2E/DX2                !
 ! A6    A(2,3,18)             109.4733         estimate D2E/DX2                !
 ! A7    A(16,3,17)            109.4686         estimate D2E/DX2                !
 ! A8    A(16,3,18)            109.472          estimate D2E/DX2                !
 ! A9    A(17,3,18)            109.4713         estimate D2E/DX2                !
 ! A10   A(2,4,5)              111.4646         estimate D2E/DX2                !
 ! A11   A(2,4,19)             109.3096         estimate D2E/DX2                !
 ! A12   A(2,4,20)             109.313          estimate D2E/DX2                !
 ! A13   A(5,4,19)             103.1831         estimate D2E/DX2                !
 ! A14   A(5,4,20)             103.1796         estimate D2E/DX2                !
 ! A15   A(19,4,20)            119.9958         estimate D2E/DX2                !
 ! A16   A(4,5,6)              112.6522         estimate D2E/DX2                !
 ! A17   A(4,5,21)             106.0196         estimate D2E/DX2                !
 ! A18   A(4,5,22)             106.0125         estimate D2E/DX2                !
 ! A19   A(6,5,21)             106.1723         estimate D2E/DX2                !
 ! A20   A(6,5,22)             106.174          estimate D2E/DX2                !
 ! A21   A(21,5,22)            120.0017         estimate D2E/DX2                !
 ! A22   A(5,6,7)              111.731          estimate D2E/DX2                !
 ! A23   A(5,6,23)             106.2997         estimate D2E/DX2                !
 ! A24   A(5,6,24)             106.3029         estimate D2E/DX2                !
 ! A25   A(7,6,23)             106.286          estimate D2E/DX2                !
 ! A26   A(7,6,24)             106.2924         estimate D2E/DX2                !
 ! A27   A(23,6,24)            119.9957         estimate D2E/DX2                !
 ! A28   A(6,7,8)              112.8745         estimate D2E/DX2                !
 ! A29   A(6,7,25)             106.0432         estimate D2E/DX2                !
 ! A30   A(6,7,26)             106.0475         estimate D2E/DX2                !
 ! A31   A(8,7,25)             106.0476         estimate D2E/DX2                !
 ! A32   A(8,7,26)             106.0507         estimate D2E/DX2                !
 ! A33   A(25,7,26)            119.9987         estimate D2E/DX2                !
 ! A34   A(7,8,9)              112.5437         estimate D2E/DX2                !
 ! A35   A(7,8,27)             106.0865         estimate D2E/DX2                !
 ! A36   A(7,8,28)             106.0945         estimate D2E/DX2                !
 ! A37   A(9,8,27)             106.1452         estimate D2E/DX2                !
 ! A38   A(9,8,28)             106.148          estimate D2E/DX2                !
 ! A39   A(27,8,28)            120.0002         estimate D2E/DX2                !
 ! A40   A(8,9,10)             112.4242         estimate D2E/DX2                !
 ! A41   A(8,9,29)             106.1413         estimate D2E/DX2                !
 ! A42   A(8,9,30)             106.1469         estimate D2E/DX2                !
 ! A43   A(10,9,29)            106.1405         estimate D2E/DX2                !
 ! A44   A(10,9,30)            106.1482         estimate D2E/DX2                !
 ! A45   A(29,9,30)            120.0009         estimate D2E/DX2                !
 ! A46   A(9,10,11)            112.8249         estimate D2E/DX2                !
 ! A47   A(9,10,31)            106.0491         estimate D2E/DX2                !
 ! A48   A(9,10,32)            106.0583         estimate D2E/DX2                !
 ! A49   A(11,10,31)           106.0614         estimate D2E/DX2                !
 ! A50   A(11,10,32)           106.0638         estimate D2E/DX2                !
 ! A51   A(31,10,32)           119.9982         estimate D2E/DX2                !
 ! A52   A(10,11,12)           113.042          estimate D2E/DX2                !
 ! A53   A(10,11,33)           105.9925         estimate D2E/DX2                !
 ! A54   A(10,11,34)           105.9948         estimate D2E/DX2                !
 ! A55   A(12,11,33)           106.0296         estimate D2E/DX2                !
 ! A56   A(12,11,34)           106.0287         estimate D2E/DX2                !
 ! A57   A(33,11,34)           119.9968         estimate D2E/DX2                !
 ! A58   A(11,12,13)           112.571          estimate D2E/DX2                !
 ! A59   A(11,12,35)           106.1107         estimate D2E/DX2                !
 ! A60   A(11,12,36)           106.1106         estimate D2E/DX2                !
 ! A61   A(13,12,35)           106.1173         estimate D2E/DX2                !
 ! A62   A(13,12,36)           106.1125         estimate D2E/DX2                !
 ! A63   A(35,12,36)           119.9997         estimate D2E/DX2                !
 ! A64   A(12,13,14)           113.141          estimate D2E/DX2                !
 ! A65   A(12,13,37)           106.0109         estimate D2E/DX2                !
 ! A66   A(12,13,38)           106.0068         estimate D2E/DX2                !
 ! A67   A(14,13,37)           105.9728         estimate D2E/DX2                !
 ! A68   A(14,13,38)           105.9728         estimate D2E/DX2                !
 ! A69   A(37,13,38)           119.9933         estimate D2E/DX2                !
 ! A70   A(13,14,15)           112.9918         estimate D2E/DX2                !
 ! A71   A(13,14,39)           106.1105         estimate D2E/DX2                !
 ! A72   A(13,14,40)           106.1081         estimate D2E/DX2                !
 ! A73   A(15,14,39)           105.9333         estimate D2E/DX2                !
 ! A74   A(15,14,40)           105.9297         estimate D2E/DX2                !
 ! A75   A(39,14,40)           120.0041         estimate D2E/DX2                !
 ! A76   A(14,15,41)           109.4696         estimate D2E/DX2                !
 ! A77   A(14,15,42)           109.4698         estimate D2E/DX2                !
 ! A78   A(14,15,43)           109.4675         estimate D2E/DX2                !
 ! A79   A(41,15,42)           109.475          estimate D2E/DX2                !
 ! A80   A(41,15,43)           109.4737         estimate D2E/DX2                !
 ! A81   A(42,15,43)           109.4718         estimate D2E/DX2                !
 ! D1    D(1,2,3,16)           114.853          estimate D2E/DX2                !
 ! D2    D(1,2,3,17)          -125.1504         estimate D2E/DX2                !
 ! D3    D(1,2,3,18)            -5.1515         estimate D2E/DX2                !
 ! D4    D(4,2,3,16)             3.4009         estimate D2E/DX2                !
 ! D5    D(4,2,3,17)           123.3975         estimate D2E/DX2                !
 ! D6    D(4,2,3,18)          -116.6036         estimate D2E/DX2                !
 ! D7    D(1,2,4,5)             66.6011         estimate D2E/DX2                !
 ! D8    D(1,2,4,19)          -179.9808         estimate D2E/DX2                !
 ! D9    D(1,2,4,20)           -46.8147         estimate D2E/DX2                !
 ! D10   D(3,2,4,5)            177.7541         estimate D2E/DX2                !
 ! D11   D(3,2,4,19)           -68.8278         estimate D2E/DX2                !
 ! D12   D(3,2,4,20)            64.3383         estimate D2E/DX2                !
 ! D13   D(2,4,5,6)            178.7699         estimate D2E/DX2                !
 ! D14   D(2,4,5,21)           -65.5196         estimate D2E/DX2                !
 ! D15   D(2,4,5,22)            63.0616         estimate D2E/DX2                !
 ! D16   D(19,4,5,6)            61.574          estimate D2E/DX2                !
 ! D17   D(19,4,5,21)          177.2845         estimate D2E/DX2                !
 ! D18   D(19,4,5,22)          -54.1343         estimate D2E/DX2                !
 ! D19   D(20,4,5,6)           -64.0322         estimate D2E/DX2                !
 ! D20   D(20,4,5,21)           51.6783         estimate D2E/DX2                !
 ! D21   D(20,4,5,22)         -179.7405         estimate D2E/DX2                !
 ! D22   D(4,5,6,7)            179.8845         estimate D2E/DX2                !
 ! D23   D(4,5,6,23)           -64.5795         estimate D2E/DX2                !
 ! D24   D(4,5,6,24)            64.3391         estimate D2E/DX2                !
 ! D25   D(21,5,6,7)            64.2658         estimate D2E/DX2                !
 ! D26   D(21,5,6,23)          179.8017         estimate D2E/DX2                !
 ! D27   D(21,5,6,24)          -51.2797         estimate D2E/DX2                !
 ! D28   D(22,5,6,7)           -64.5041         estimate D2E/DX2                !
 ! D29   D(22,5,6,23)           51.0318         estimate D2E/DX2                !
 ! D30   D(22,5,6,24)          179.9504         estimate D2E/DX2                !
 ! D31   D(5,6,7,8)            179.6942         estimate D2E/DX2                !
 ! D32   D(5,6,7,25)           -64.6153         estimate D2E/DX2                !
 ! D33   D(5,6,7,26)            63.9973         estimate D2E/DX2                !
 ! D34   D(23,6,7,8)            64.1499         estimate D2E/DX2                !
 ! D35   D(23,6,7,25)          179.8404         estimate D2E/DX2                !
 ! D36   D(23,6,7,26)          -51.547          estimate D2E/DX2                !
 ! D37   D(24,6,7,8)           -64.7539         estimate D2E/DX2                !
 ! D38   D(24,6,7,25)           50.9366         estimate D2E/DX2                !
 ! D39   D(24,6,7,26)          179.5492         estimate D2E/DX2                !
 ! D40   D(6,7,8,9)           -179.8812         estimate D2E/DX2                !
 ! D41   D(6,7,8,27)           -64.2195         estimate D2E/DX2                !
 ! D42   D(6,7,8,28)            64.4489         estimate D2E/DX2                !
 ! D43   D(25,7,8,9)            64.4309         estimate D2E/DX2                !
 ! D44   D(25,7,8,27)         -179.9074         estimate D2E/DX2                !
 ! D45   D(25,7,8,28)          -51.239          estimate D2E/DX2                !
 ! D46   D(26,7,8,9)           -64.1863         estimate D2E/DX2                !
 ! D47   D(26,7,8,27)           51.4754         estimate D2E/DX2                !
 ! D48   D(26,7,8,28)         -179.8561         estimate D2E/DX2                !
 ! D49   D(7,8,9,10)           179.9181         estimate D2E/DX2                !
 ! D50   D(7,8,9,29)           -64.4551         estimate D2E/DX2                !
 ! D51   D(7,8,9,30)            64.2788         estimate D2E/DX2                !
 ! D52   D(27,8,9,10)           64.2918         estimate D2E/DX2                !
 ! D53   D(27,8,9,29)          179.9186         estimate D2E/DX2                !
 ! D54   D(27,8,9,30)          -51.3475         estimate D2E/DX2                !
 ! D55   D(28,8,9,10)          -64.4443         estimate D2E/DX2                !
 ! D56   D(28,8,9,29)           51.1826         estimate D2E/DX2                !
 ! D57   D(28,8,9,30)          179.9164         estimate D2E/DX2                !
 ! D58   D(8,9,10,11)         -179.9941         estimate D2E/DX2                !
 ! D59   D(8,9,10,31)          -64.3094         estimate D2E/DX2                !
 ! D60   D(8,9,10,32)           64.3126         estimate D2E/DX2                !
 ! D61   D(29,9,10,11)          64.3786         estimate D2E/DX2                !
 ! D62   D(29,9,10,31)        -179.9366         estimate D2E/DX2                !
 ! D63   D(29,9,10,32)         -51.3147         estimate D2E/DX2                !
 ! D64   D(30,9,10,11)         -64.3556         estimate D2E/DX2                !
 ! D65   D(30,9,10,31)          51.3292         estimate D2E/DX2                !
 ! D66   D(30,9,10,32)         179.9512         estimate D2E/DX2                !
 ! D67   D(9,10,11,12)        -179.9784         estimate D2E/DX2                !
 ! D68   D(9,10,11,33)         -64.2529         estimate D2E/DX2                !
 ! D69   D(9,10,11,34)          64.2958         estimate D2E/DX2                !
 ! D70   D(31,10,11,12)         64.3442         estimate D2E/DX2                !
 ! D71   D(31,10,11,33)       -179.9303         estimate D2E/DX2                !
 ! D72   D(31,10,11,34)        -51.3817         estimate D2E/DX2                !
 ! D73   D(32,10,11,12)        -64.2885         estimate D2E/DX2                !
 ! D74   D(32,10,11,33)         51.437          estimate D2E/DX2                !
 ! D75   D(32,10,11,34)        179.9857         estimate D2E/DX2                !
 ! D76   D(10,11,12,13)        179.9888         estimate D2E/DX2                !
 ! D77   D(10,11,12,35)        -64.3543         estimate D2E/DX2                !
 ! D78   D(10,11,12,36)         64.3378         estimate D2E/DX2                !
 ! D79   D(33,11,12,13)         64.2854         estimate D2E/DX2                !
 ! D80   D(33,11,12,35)        179.9423         estimate D2E/DX2                !
 ! D81   D(33,11,12,36)        -51.3656         estimate D2E/DX2                !
 ! D82   D(34,11,12,13)        -64.3055         estimate D2E/DX2                !
 ! D83   D(34,11,12,35)         51.3514         estimate D2E/DX2                !
 ! D84   D(34,11,12,36)       -179.9566         estimate D2E/DX2                !
 ! D85   D(11,12,13,14)        179.9981         estimate D2E/DX2                !
 ! D86   D(11,12,13,37)        -64.2819         estimate D2E/DX2                !
 ! D87   D(11,12,13,38)         64.2806         estimate D2E/DX2                !
 ! D88   D(35,12,13,14)         64.3452         estimate D2E/DX2                !
 ! D89   D(35,12,13,37)       -179.9348         estimate D2E/DX2                !
 ! D90   D(35,12,13,38)        -51.3723         estimate D2E/DX2                !
 ! D91   D(36,12,13,14)        -64.352          estimate D2E/DX2                !
 ! D92   D(36,12,13,37)         51.368          estimate D2E/DX2                !
 ! D93   D(36,12,13,38)        179.9305         estimate D2E/DX2                !
 ! D94   D(12,13,14,15)       -179.9997         estimate D2E/DX2                !
 ! D95   D(12,13,14,39)        -64.3447         estimate D2E/DX2                !
 ! D96   D(12,13,14,40)         64.3511         estimate D2E/DX2                !
 ! D97   D(37,13,14,15)         64.2576         estimate D2E/DX2                !
 ! D98   D(37,13,14,39)        179.9126         estimate D2E/DX2                !
 ! D99   D(37,13,14,40)        -51.3916         estimate D2E/DX2                !
 ! D100  D(38,13,14,15)        -64.262          estimate D2E/DX2                !
 ! D101  D(38,13,14,39)         51.393          estimate D2E/DX2                !
 ! D102  D(38,13,14,40)       -179.9112         estimate D2E/DX2                !
 ! D103  D(13,14,15,41)        179.5739         estimate D2E/DX2                !
 ! D104  D(13,14,15,42)        -60.4234         estimate D2E/DX2                !
 ! D105  D(13,14,15,43)         59.5742         estimate D2E/DX2                !
 ! D106  D(39,14,15,41)         63.8132         estimate D2E/DX2                !
 ! D107  D(39,14,15,42)       -176.1841         estimate D2E/DX2                !
 ! D108  D(39,14,15,43)        -56.1865         estimate D2E/DX2                !
 ! D109  D(40,14,15,41)        -64.6705         estimate D2E/DX2                !
 ! D110  D(40,14,15,42)         55.3323         estimate D2E/DX2                !
 ! D111  D(40,14,15,43)        175.3299         estimate D2E/DX2                !
 --------------------------------------------------------------------------------
 Trust Radius=3.00D-01 FncErr=1.00D-07 GrdErr=1.00D-06 EigMax=2.50D+02 EigMin=1.00D-04
 Number of steps in this run=    244 maximum allowed number of steps=    258.
 GradGradGradGradGradGradGradGradGradGradGradGradGradGradGradGradGradGrad

 Leave Link  103 at Sun Oct 13 23:20:44 2019, MaxMem= 10737418240 cpu:               0.3 elap:               0.0
 (Enter /apps/cent7/gaussian/g16-A.03/g16-haswell/g16/l202.exe)
                          Input orientation:                          
 ---------------------------------------------------------------------
 Center     Atomic      Atomic             Coordinates (Angstroms)
 Number     Number       Type             X           Y           Z
 ---------------------------------------------------------------------
      1          8           0       -3.451200    3.722400  -10.309700
      2         16           0       -3.622800    5.128500   -9.556300
      3          6           0       -5.352300    5.156400   -8.964200
      4          6           0       -2.613400    5.007100   -8.032400
      5          6           0       -1.107100    4.915700   -8.358300
      6          6           0       -0.224100    4.842400   -7.085700
      7          6           0        1.282800    4.748400   -7.437300
      8          6           0        2.191300    4.681300   -6.182800
      9          6           0        3.698900    4.590300   -6.543700
     10          6           0        4.606200    4.525300   -5.285500
     11          6           0        6.116600    4.434200   -5.635900
     12          6           0        7.029900    4.368300   -4.379400
     13          6           0        8.538900    4.277100   -4.742600
     14          6           0        9.463800    4.210600   -3.496400
     15          6           0       10.963500    4.120000   -3.861500
     16          1           0       -5.363300    5.156600   -7.874300
     17          1           0       -5.848000    6.054600   -9.332700
     18          1           0       -5.876800    4.274800   -9.332700
     19          1           0       -2.690700    5.939800   -7.473600
     20          1           0       -2.818900    4.057400   -7.538600
     21          1           0       -0.968900    3.968000   -8.878700
     22          1           0       -0.849200    5.852000   -8.853300
     23          1           0       -0.358000    5.790800   -6.565400
     24          1           0       -0.481000    3.907100   -6.588500
     25          1           0        1.412700    3.797800   -7.954600
     26          1           0        1.533400    5.681800   -7.941300
     27          1           0        2.060600    5.631000   -5.664100
     28          1           0        1.943100    3.746800   -5.679600
     29          1           0        3.829800    3.639900   -7.061100
     30          1           0        3.946700    5.524100   -7.048200
     31          1           0        4.473300    5.475800   -4.768700
     32          1           0        4.356600    3.591500   -4.781700
     33          1           0        6.248000    3.484000   -6.153700
     34          1           0        6.364900    5.368300   -6.139800
     35          1           0        6.900300    5.318400   -3.861100
     36          1           0        6.783200    3.434100   -3.874800
     37          1           0        8.666300    3.327200   -5.261700
     38          1           0        8.783400    5.211400   -5.248100
     39          1           0        9.339300    5.160400   -2.976300
     40          1           0        9.222200    3.276100   -2.990000
     41          1           0       11.558100    4.084100   -2.948700
     42          1           0       11.141100    3.217700   -4.446600
     43          1           0       11.248400    4.994400   -4.446600
 ---------------------------------------------------------------------
                    Distance matrix (angstroms):
                    1          2          3          4          5
     1  O    0.000000
     2  S    1.604424   0.000000
     3  C    2.735125   1.828259   0.000000
     4  C    2.745625   1.831911   2.896915   0.000000
     5  C    3.275169   2.794501   4.294971   1.543860   0.000000
     6  C    4.697100   4.211517   5.470447   2.575291   1.550668
     7  C    5.631529   5.357196   6.820736   3.949866   2.566681
     8  C    7.056104   6.736783   8.054055   5.158712   3.958180
     9  C    8.127726   7.935535   9.386347   6.498852   5.147455
    10  C    9.529372   9.290857  10.634982   7.739523   6.498947
    11  C   10.672107  10.521763  11.963897   9.071071   7.734672
    12  C   12.059814  11.868370  13.227259  10.331782   9.074253
    13  C   13.231130  13.107385  14.545120  11.650300  10.321163
    14  C   14.610155  14.450745  15.821131  12.925497  11.656722
    15  C   15.796232  15.691015  17.126500  14.230796  12.905570
    16  H    3.412364   2.420590   1.089956   2.758495   4.290399
    17  H    3.484011   2.420573   1.090080   3.640147   4.972191
    18  H    2.672678   2.420603   1.090005   3.588429   4.910219
    19  H    3.679495   2.421705   3.149558   1.090028   2.083090
    20  H    2.861996   2.421699   3.107773   1.089954   2.082990
    21  H    2.875742   2.974742   4.542444   2.121399   1.089977
    22  H    3.664246   2.951359   4.557858   2.121352   1.090044
    23  H    5.278821   4.476946   5.576714   2.802339   2.131066
    24  H    4.764822   4.491165   5.561858   2.800353   2.131072
    25  H    5.404600   5.449079   6.973544   4.204514   2.786048
    26  H    5.856177   5.431461   6.981063   4.202317   2.780834
    27  H    7.456829   6.906719   8.128160   5.276777   4.219561
    28  H    7.108931   6.922221   8.123942   5.280693   4.224391
    29  H    7.973278   7.998950   9.499080   6.657889   5.261499
    30  H    8.283262   7.984009   9.501456   6.653634   5.256178
    31  H    9.827247   9.412150  10.688623   7.816184   6.658814
    32  H    9.567532   9.424967  10.686672   7.819966   6.663152
    33  H   10.554793  10.569520  12.052501   9.185519   7.810731
    34  H   10.791333  10.558604  12.054664   9.182716   7.807520
    35  H   12.299805  11.966913  13.273812  10.392648   9.192683
    36  H   12.092725  11.976446  13.271724  10.395002   9.195311
    37  H   13.132871  13.141927  14.614227  11.735863  10.374566
    38  H   13.323751  13.133212  14.616102  11.733760  10.372212
    39  H   14.813625  14.536625  15.864995  12.979009  11.753854
    40  H   14.642140  14.544473  15.863248  12.980893  11.755908
    41  H   16.721072  16.589481  17.980481  15.084010  13.797196
    42  H   15.734226  15.739534  17.210448  14.326416  12.969310
    43  H   15.876781  15.725127  17.205179  14.318087  12.960169
                    6          7          8          9         10
     6  C    0.000000
     7  C    1.550228   0.000000
     8  C    2.583668   1.550369   0.000000
     9  C    3.968280   2.580902   1.552864   0.000000
    10  C    5.164598   3.965477   2.580935   1.552574   0.000000
    11  C    6.517133   5.168112   3.970911   2.587227   1.553186
    12  C    7.756890   6.521073   5.173226   3.978573   2.592294
    13  C    9.088446   7.754645   6.521471   5.173747   3.977747
    14  C   10.350732   9.096630   7.767082   6.531790   5.186154
    15  C   11.665321  10.339109   9.091479   7.758208   6.527427
    16  H    5.208838   6.672948   7.756227   9.176855  10.319465
    17  H    6.176301   7.493131   8.742892  10.053158  11.314101
    18  H    6.109353   7.421368   8.670718   9.978582  11.239923
    19  H    2.727429   4.148428   5.204220   6.596427   7.748119
    20  H    2.748514   4.160731   5.227767   6.614796   7.773513
    21  H    2.129355   2.785105   4.214681   5.256219   6.656081
    22  H    2.129425   2.787187   4.212689   5.254651   6.652121
    23  H    1.090002   2.130500   2.806475   4.230852   5.280428
    24  H    1.089950   2.130549   2.811613   4.235603   5.287682
    25  H    2.127273   1.090006   2.127455   2.800965   4.225138
    26  H    2.127311   1.089978   2.127476   2.798937   4.222898
    27  H    2.804049   2.127955   1.089983   2.130910   2.801069
    28  H    2.806103   2.128076   1.090002   2.130961   2.802406
    29  H    4.228560   2.803125   2.130870   1.089999   2.130607
    30  H    4.226310   2.801691   2.130882   1.089912   2.130646
    31  H    5.275912   4.222538   2.799720   2.129420   1.090044
    32  H    5.277876   4.223609   2.799870   2.129510   1.089999
    33  H    6.678469   5.282002   4.229798   2.806049   2.129221
    34  H    6.677291   5.281621   4.229983   2.806417   2.129202
    35  H    7.834647   6.683593   5.288749   4.239745   2.814395
    36  H    7.835524   6.683801   5.288470   4.239426   2.814271
    37  H    9.201197   7.827459   6.678895   5.283371   4.233252
    38  H    9.200434   7.827258   6.679106   5.283605   4.233336
    39  H   10.413785   9.218322   7.848891   6.698169   5.304526
    40  H   10.414444   9.218472   7.848701   6.697966   5.304458
    41  H   12.510397  11.232569   9.927386   8.657210   7.347394
    42  H   11.780164  10.415057   9.233387   7.852910   6.717030
    43  H   11.773114  10.407593   9.227323   7.845768   6.711381
                   11         12         13         14         15
    11  C    0.000000
    12  C    1.554751   0.000000
    13  C    2.586543   1.554771   0.000000
    14  C    3.978845   2.593921   1.553344   0.000000
    15  C    5.171040   3.975309   2.584512   1.546159   0.000000
    16  H   11.718379  12.900665  14.277683  15.488829  16.844628
    17  H   12.627101  13.900327  15.205638  16.489814  17.784916
    18  H   12.551230  13.824863  15.128828  16.413425  17.707447
    19  H    9.122089  10.321519  11.675909  12.905043  14.240650
    20  H    9.143599  10.347757  11.698953  12.931650  14.264625
    21  H    7.806241   9.186117  10.373096  11.741773  12.945176
    22  H    7.802832   9.181360  10.368924  11.736632  12.940548
    23  H    6.680178   7.834741   9.206993  10.410742  11.759210
    24  H    6.686823   7.842605   9.214274  10.418841  11.766836
    25  H    5.282807   6.682848   7.831309   9.212283  10.395916
    26  H    5.279877   6.680114   7.828275   9.209387  10.392823
    27  H    4.228979   5.285717   6.682109   7.843713   9.208372
    28  H    4.229956   5.286995   6.683095   7.844897   9.209364
    29  H    2.809192   4.238245   5.287446   6.691393   7.833110
    30  H    2.809082   4.238454   5.287637   6.691708   7.833392
    31  H    2.130118   2.813239   4.238710   5.303260   6.692078
    32  H    2.130118   2.812792   4.238303   5.302714   6.691577
    33  H    1.090075   2.131078   2.805073   4.234449   5.281535
    34  H    1.090005   2.131017   2.805203   4.234503   5.281669
    35  H    2.132114   1.090010   2.132219   2.816338   4.236243
    36  H    2.132142   1.090051   2.132184   2.816337   4.236218
    37  H    2.804718   2.130762   1.089957   2.129011   2.804678
    38  H    2.804684   2.130779   1.090058   2.129084   2.804755
    39  H    4.241065   2.815926   2.130886   1.090011   2.122272
    40  H    4.241077   2.815939   2.130846   1.090001   2.122217
    41  H    6.078942   4.757338   3.517228   2.168426   1.089973
    42  H    5.304706   4.269703   2.825135   2.168425   1.089967
    43  H    5.297512   4.265238   2.818426   2.168414   1.089993
                   16         17         18         19         20
    16  H    0.000000
    17  H    1.779963   0.000000
    18  H    1.779939   1.780033   0.000000
    19  H    2.813673   3.665784   4.047186   0.000000
    20  H    2.791936   4.047598   3.552015   1.887880   0.000000
    21  H    4.661796   5.325940   4.938393   2.971009   2.286123
    22  H    4.671094   5.025821   5.290949   2.302695   2.971320
    23  H    5.212337   6.153669   6.357150   2.507692   3.163514
    24  H    5.201095   6.398990   6.064692   3.130183   2.528054
    25  H    6.911365   7.727229   7.433942   4.653753   4.259916
    26  H    6.916993   7.520641   7.669857   4.257737   4.662977
    27  H    7.760434   8.728346   8.848741   5.093574   5.458891
    28  H    7.758075   8.909114   8.647240   5.431371   5.121425
    29  H    9.352794  10.229895   9.989061   6.926515   6.678886
    30  H    9.353801  10.071570  10.162718   6.663997   6.940104
    31  H   10.320142  11.300192  11.375283   7.671680   7.928454
    32  H   10.319407  11.441692  11.220560   7.900967   7.700997
    33  H   11.856658  12.768212  12.559545   9.363410   9.189963
    34  H   11.857655  12.642015  12.698408   9.171125   9.381753
    35  H   12.904567  13.892428  13.938500  10.267598  10.467902
    36  H   12.903506  14.007245  13.811989  10.439573  10.296225
    37  H   14.387566  15.319160  15.131845  11.861687  11.731466
    38  H   14.388504  15.214230  15.247381  11.710610  11.882402
    39  H   15.496995  16.488102  16.514170  12.866782  13.032767
    40  H   15.496112  16.584958  16.407530  13.004428  12.895281
    41  H   17.656318  18.644319  18.567918  15.064748  15.091919
    42  H   16.967725  17.903952  17.736977  14.418434  14.322959
    43  H   16.962429  17.812493  17.823139  14.295280  14.433550
                   21         22         23         24         25
    21  H    0.000000
    22  H    1.887970   0.000000
    23  H    3.007849   2.340835   0.000000
    24  H    2.342386   3.007911   1.887853   0.000000
    25  H    2.560263   3.184900   3.006211   2.337579   0.000000
    26  H    3.174482   2.556853   2.341447   3.006233   1.887909
    27  H    4.719861   4.322820   2.586021   3.207191   3.004461
    28  H    4.331618   4.722412   3.202755   2.593850   2.336568
    29  H    5.141871   5.477080   4.733895   4.344852   2.581791
    30  H    5.471316   5.134838   4.339892   4.736089   3.197316
    31  H    6.984490   6.719709   5.164186   5.506140   4.725771
    32  H    6.729644   6.984851   5.499633   5.173635   4.333175
    33  H    7.729394   7.953962   7.009284   6.756294   5.169317
    34  H    7.952800   7.722712   6.749595   7.014470   5.503113
    35  H    9.429963   9.233718   7.760111   7.994627   7.013039
    36  H    9.242246   9.427897   7.986871   7.768944   6.754207
    37  H   10.311663  10.479454   9.444943   9.261198   7.751638
    38  H   10.480203  10.305087   9.253982   9.451295   7.978134
    39  H   11.938138  11.782316  10.359376  10.538360   9.458918
    40  H   11.790421  11.935101  10.530310  10.368194   9.268641
    41  H   13.860163  13.853912  12.569279  12.578529  11.316808
    42  H   12.917374  13.043229  11.972446  11.837914  10.357816
    43  H   13.036849  12.903736  11.825062  11.972835  10.510895
                   26         27         28         29         30
    26  H    0.000000
    27  H    2.337982   0.000000
    28  H    3.004558   1.887924   0.000000
    29  H    3.196492   3.007683   2.340856   0.000000
    30  H    2.578083   2.341908   3.007702   1.887867   0.000000
    31  H    4.330224   2.578168   3.197044   3.006613   2.340034
    32  H    4.724710   3.195279   2.579792   2.339984   3.006656
    33  H    5.500299   4.731135   4.338894   2.587541   3.202830
    34  H    5.165954   4.338468   4.732162   3.203575   2.587886
    35  H    6.751571   5.174092   5.509147   4.741870   4.350135
    36  H    7.010633   5.507351   5.175099   4.349418   4.741761
    37  H    7.975128   7.007474   6.749231   5.169850   5.503869
    38  H    7.748361   6.748715   7.008634   5.504065   5.170281
    39  H    9.265806   7.773365   8.000617   7.025105   6.767036
    40  H    9.456237   7.999055   7.774368   6.766401   7.025197
    41  H   11.312529   9.998440  10.000991   8.765601   8.764297
    42  H   10.516302   9.474271   9.295345   7.776180   7.990444
    43  H   10.347303   9.289953   9.469182   7.981598   7.769410
                   31         32         33         34         35
    31  H    0.000000
    32  H    1.887955   0.000000
    33  H    3.005836   2.339088   0.000000
    34  H    2.338722   3.005782   1.887974   0.000000
    35  H    2.595928   3.209377   3.007746   2.341285   0.000000
    36  H    3.209865   2.595309   2.341434   3.007712   1.887985
    37  H    4.737170   4.344395   2.582329   3.198998   3.007543
    38  H    4.344732   4.736894   3.198793   2.582419   2.341214
    39  H    5.195203   5.527044   4.739443   4.347184   2.599338
    40  H    5.527613   5.194587   4.347193   4.739484   3.212635
    41  H    7.446047   7.447425   6.231317   6.229094   4.904189
    42  H    7.047150   6.803048   5.189175   5.504915   4.768662
    43  H    6.799814   7.041117   5.495407   5.182210   4.399291
                   36         37         38         39         40
    36  H    0.000000
    37  H    2.341150   0.000000
    38  H    3.007582   1.887884   0.000000
    39  H    3.212641   3.006095   2.339380   0.000000
    40  H    2.599338   2.339286   3.006152   1.887985   0.000000
    41  H    4.907120   3.779600   3.775845   2.466223   2.472043
    42  H    4.400577   2.607875   3.189983   3.030239   2.409828
    43  H    4.764399   3.179809   2.601099   2.415368   3.029806
                   41         42         43
    41  H    0.000000
    42  H    1.779956   0.000000
    43  H    1.779962   1.779937   0.000000
 Stoichiometry    C13H28OS
 Framework group  C1[X(C13H28OS)]
 Deg. of freedom   123
 Full point group                 C1      NOp   1
 Largest Abelian subgroup         C1      NOp   1
 Largest concise Abelian subgroup C1      NOp   1
                         Standard orientation:                         
 ---------------------------------------------------------------------
 Center     Atomic      Atomic             Coordinates (Angstroms)
 Number     Number       Type             X           Y           Z
 ---------------------------------------------------------------------
      1          8           0        6.421723    1.565075    0.617721
      2         16           0        6.368045    0.310253   -0.380637
      3          6           0        7.759978   -0.766648    0.114679
      4          6           0        4.866377   -0.632619    0.079669
      5          6           0        3.581588    0.167845   -0.223772
      6          6           0        2.291575   -0.617664    0.127536
      7          6           0        1.015523    0.206177   -0.182598
      8          6           0       -0.291286   -0.557957    0.152058
      9          6           0       -1.564450    0.272957   -0.164209
     10          6           0       -2.871405   -0.495575    0.170026
     11          6           0       -4.151020    0.327221   -0.142990
     12          6           0       -5.462969   -0.437567    0.190388
     13          6           0       -6.736601    0.395859   -0.126751
     14          6           0       -8.055587   -0.356085    0.201475
     15          6           0       -9.319852    0.475759   -0.115190
     16          1           0        7.371093   -1.710344    0.497052
     17          1           0        8.395723   -0.959213   -0.749625
     18          1           0        8.343104   -0.272429    0.891739
     19          1           0        4.775197   -1.504180   -0.568582
     20          1           0        4.834193   -0.753120    1.162463
     21          1           0        3.601432    1.031702    0.440613
     22          1           0        3.564909    0.311445   -1.304187
     23          1           0        2.267801   -1.480328   -0.538308
     24          1           0        2.306563   -0.763231    1.207618
     25          1           0        1.041818    1.065830    0.487043
     26          1           0        1.008796    0.356331   -1.262163
     27          1           0       -0.317390   -1.418722   -0.516122
     28          1           0       -0.286546   -0.706219    1.231918
     29          1           0       -1.539039    1.132939    0.505032
     30          1           0       -1.568373    0.422487   -1.243807
     31          1           0       -2.894732   -1.355721   -0.499152
     32          1           0       -2.865552   -0.645078    1.249708
     33          1           0       -4.125918    1.187630    0.525836
     34          1           0       -4.155614    0.476276   -1.222746
     35          1           0       -5.489932   -1.297790   -0.478498
     36          1           0       -5.460123   -0.586672    1.270190
     37          1           0       -6.707292    1.255988    0.542072
     38          1           0       -6.737068    0.544996   -1.206559
     39          1           0       -8.087962   -1.216107   -0.467434
     40          1           0       -8.058153   -0.504989    1.281254
     41          1           0      -10.208379   -0.106627    0.128504
     42          1           0       -9.310910    1.390318    0.477710
     43          1           0       -9.331392    0.729950   -1.175067
 ---------------------------------------------------------------------
 Rotational constants (GHZ):           3.5487711           0.0703487           0.0697003
 Leave Link  202 at Sun Oct 13 23:20:44 2019, MaxMem= 10737418240 cpu:               1.0 elap:               0.1
 (Enter /apps/cent7/gaussian/g16-A.03/g16-haswell/g16/l301.exe)
 Standard basis: 6-311++G(d,p) (5D, 7F)
 Ernie: Thresh=  0.10000D-02 Tol=  0.10000D-05 Strict=F.
 There are   549 symmetry adapted cartesian basis functions of A   symmetry.
 There are   534 symmetry adapted basis functions of A   symmetry.
   534 basis functions,   806 primitive gaussians,   549 cartesian basis functions
    65 alpha electrons       65 beta electrons
       nuclear repulsion energy      1019.6513322686 Hartrees.
 IExCor= 4336 DFT=T Ex+Corr=M062X ExCW=0 ScaHFX=  0.540000
 ScaDFX=  1.000000  1.000000  1.000000  1.000000 ScalE2=  1.000000  1.000000
 IRadAn=      5 IRanWt=     -1 IRanGd=            0 ICorTp=0 IEmpDi=  4
 NAtoms=   43 NActive=   43 NUniq=   43 SFac= 1.00D+00 NAtFMM=   60 NAOKFM=F Big=F
 Integral buffers will be    131072 words long.
 Raffenetti 2 integral format.
 Two-electron integral symmetry is turned on.
 Leave Link  301 at Sun Oct 13 23:20:44 2019, MaxMem= 10737418240 cpu:               1.3 elap:               0.1
 (Enter /apps/cent7/gaussian/g16-A.03/g16-haswell/g16/l302.exe)
 NPDir=0 NMtPBC=     1 NCelOv=     1 NCel=       1 NClECP=     1 NCelD=      1
         NCelK=      1 NCelE2=     1 NClLst=     1 CellRange=     0.0.
 One-electron integrals computed using PRISM.
 One-electron integral symmetry used in STVInt
 NBasis=   534 RedAO= T EigKep=  3.41D-06  NBF=   534
 NBsUse=   533 1.00D-06 EigRej=  8.69D-07 NBFU=   533
 Precomputing XC quadrature grid using
 IXCGrd= 4 IRadAn=           5 IRanWt=          -1 IRanGd=           0 AccXCQ= 0.00D+00.
 Generated NRdTot=       0 NPtTot=           0 NUsed=           0 NTot=          32
 NSgBfM=   506   506   506   506   506 MxSgAt=    43 MxSgA2=    43.
 Leave Link  302 at Sun Oct 13 23:20:44 2019, MaxMem= 10737418240 cpu:              11.4 elap:               0.5
 (Enter /apps/cent7/gaussian/g16-A.03/g16-haswell/g16/l303.exe)
 DipDrv:  MaxL=1.
 Leave Link  303 at Sun Oct 13 23:20:44 2019, MaxMem= 10737418240 cpu:               1.6 elap:               0.1
 (Enter /apps/cent7/gaussian/g16-A.03/g16-haswell/g16/l401.exe)
 ExpMin= 3.60D-02 ExpMax= 9.34D+04 ExpMxC= 3.17D+03 IAcc=3 IRadAn=         5 AccDes= 0.00D+00
 Harris functional with IExCor= 1009 and IRadAn=       5 diagonalized for initial guess.
 HarFok:  IExCor= 1009 AccDes= 0.00D+00 IRadAn=         5 IDoV= 1 UseB2=F ITyADJ=14
 ICtDFT=  3500011 ScaDFX=  1.000000  1.000000  1.000000  1.000000
 FoFCou: FMM=F IPFlag=           0 FMFlag=      100000 FMFlg1=           0
         NFxFlg=           0 DoJE=T BraDBF=F KetDBF=T FulRan=T
         wScrn=  0.000000 ICntrl=       500 IOpCl=  0 I1Cent=   200000004 NGrid=           0
         NMat0=    1 NMatS0=      1 NMatT0=    0 NMatD0=    1 NMtDS0=    0 NMtDT0=    0
 Petite list used in FoFCou.
 Harris En= -985.220055050817    
 JPrj=0 DoOrth=F DoCkMO=F.
 Leave Link  401 at Sun Oct 13 23:20:46 2019, MaxMem= 10737418240 cpu:              29.7 elap:               1.3
 (Enter /apps/cent7/gaussian/g16-A.03/g16-haswell/g16/l502.exe)
 Integral symmetry usage will be decided dynamically.
 Closed shell SCF:
 Using DIIS extrapolation, IDIIS=  1040.
 NGot= 10737418240 LenX= 10736796692 LenY= 10736494742
 Requested convergence on RMS density matrix=1.00D-08 within 128 cycles.
 Requested convergence on MAX density matrix=1.00D-06.
 Requested convergence on             energy=1.00D-06.
 No special actions if energy rises.
 Fock matrices will be formed incrementally for  20 cycles.

 Cycle   1  Pass 1  IDiag  1:
 FoFJK:  IHMeth= 1 ICntrl=       0 DoSepK=F KAlg= 0 I1Cent=           0 FoldK=F
 IRaf= 750000000 NMat=       1 IRICut=       1 DoRegI=T DoRafI=F ISym2E= 0 IDoP0=0 IntGTp=1.
 FoFCou: FMM=F IPFlag=           0 FMFlag=      100000 FMFlg1=           0
         NFxFlg=           0 DoJE=F BraDBF=F KetDBF=F FulRan=T
         wScrn=  0.000000 ICntrl=         0 IOpCl=  0 I1Cent=           0 NGrid=           0
         NMat0=    1 NMatS0=      1 NMatT0=    0 NMatD0=    1 NMtDS0=    0 NMtDT0=    0
 Symmetry not used in FoFCou.
 E= -984.700835249839    
 DIIS: error= 3.76D-02 at cycle   1 NSaved=   1.
 NSaved= 1 IEnMin= 1 EnMin= -984.700835249839     IErMin= 1 ErrMin= 3.76D-02
 ErrMax= 3.76D-02  0.00D+00 EMaxC= 1.00D-01 BMatC= 8.48D-01 BMatP= 8.48D-01
 IDIUse=3 WtCom= 6.24D-01 WtEn= 3.76D-01
 Coeff-Com:  0.100D+01
 Coeff-En:   0.100D+01
 Coeff:      0.100D+01
 Gap=     0.337 Goal=   None    Shift=    0.000
 GapD=    0.337 DampG=1.000 DampE=0.500 DampFc=0.5000 IDamp=-1.
 Damping current iteration by 5.00D-01
 RMSDP=2.15D-02 MaxDP=1.86D+00              OVMax= 2.66D-01

 Cycle   2  Pass 1  IDiag  1:
 RMSU=  1.07D-02    CP:  1.05D+00
 E= -985.011474716668     Delta-E=       -0.310639466829 Rises=F Damp=T
 DIIS: error= 1.16D-02 at cycle   2 NSaved=   2.
 NSaved= 2 IEnMin= 2 EnMin= -985.011474716668     IErMin= 2 ErrMin= 1.16D-02
 ErrMax= 1.16D-02  0.00D+00 EMaxC= 1.00D-01 BMatC= 6.79D-02 BMatP= 8.48D-01
 IDIUse=3 WtCom= 8.84D-01 WtEn= 1.16D-01
 Coeff-Com:  0.409D-01 0.959D+00
 Coeff-En:   0.104D+00 0.896D+00
 Coeff:      0.482D-01 0.952D+00
 Gap=     0.346 Goal=   None    Shift=    0.000
 RMSDP=1.11D-02 MaxDP=9.93D-01 DE=-3.11D-01 OVMax= 1.81D-01

 Cycle   3  Pass 1  IDiag  1:
 RMSU=  5.22D-03    CP:  6.87D-01  2.17D-01
 E= -985.352806783752     Delta-E=       -0.341332067083 Rises=F Damp=F
 DIIS: error= 2.19D-02 at cycle   3 NSaved=   3.
 NSaved= 3 IEnMin= 3 EnMin= -985.352806783752     IErMin= 2 ErrMin= 1.16D-02
 ErrMax= 2.19D-02  0.00D+00 EMaxC= 1.00D-01 BMatC= 8.99D-02 BMatP= 6.79D-02
 IDIUse=2 WtCom= 0.00D+00 WtEn= 1.00D+00
 Coeff-En:   0.000D+00 0.000D+00 0.100D+01
 Coeff:      0.000D+00 0.000D+00 0.100D+01
 Gap=     0.280 Goal=   None    Shift=    0.000
 RMSDP=1.27D-02 MaxDP=1.01D+00 DE=-3.41D-01 OVMax= 2.39D-01

 Cycle   4  Pass 1  IDiag  1:
 RMSU=  3.61D-03    CP:  9.96D-01  1.24D+00  4.29D-01
 E= -985.146443919283     Delta-E=        0.206362864468 Rises=F Damp=F
 DIIS: error= 3.79D-02 at cycle   4 NSaved=   4.
 NSaved= 4 IEnMin= 3 EnMin= -985.352806783752     IErMin= 2 ErrMin= 1.16D-02
 ErrMax= 3.79D-02  0.00D+00 EMaxC= 1.00D-01 BMatC= 3.41D-01 BMatP= 6.79D-02
 IDIUse=2 WtCom= 0.00D+00 WtEn= 1.00D+00
 Coeff-En:   0.000D+00 0.000D+00 0.756D+00 0.244D+00
 Coeff:      0.000D+00 0.000D+00 0.756D+00 0.244D+00
 Gap=     0.253 Goal=   None    Shift=    0.000
 RMSDP=8.77D-03 MaxDP=8.62D-01 DE= 2.06D-01 OVMax= 1.36D-01

 Cycle   5  Pass 1  IDiag  1:
 RMSU=  1.31D-03    CP:  8.03D-01  5.38D-01  8.83D-01  3.42D-01
 E= -985.409444793150     Delta-E=       -0.263000873867 Rises=F Damp=F
 DIIS: error= 8.75D-03 at cycle   5 NSaved=   5.
 NSaved= 5 IEnMin= 5 EnMin= -985.409444793150     IErMin= 5 ErrMin= 8.75D-03
 ErrMax= 8.75D-03  0.00D+00 EMaxC= 1.00D-01 BMatC= 1.78D-02 BMatP= 6.79D-02
 IDIUse=3 WtCom= 9.12D-01 WtEn= 8.75D-02
 Coeff-Com: -0.672D-02 0.136D-01 0.216D+00-0.978D-01 0.874D+00
 Coeff-En:   0.000D+00 0.000D+00 0.187D+00 0.000D+00 0.813D+00
 Coeff:     -0.613D-02 0.124D-01 0.214D+00-0.892D-01 0.869D+00
 Gap=     0.279 Goal=   None    Shift=    0.000
 RMSDP=1.60D-03 MaxDP=1.18D-01 DE=-2.63D-01 OVMax= 3.60D-02

 Cycle   6  Pass 1  IDiag  1:
 RMSU=  1.77D-04    CP:  7.64D-01  4.10D-01  9.44D-01  2.12D-01  8.96D-01
 E= -985.423275288782     Delta-E=       -0.013830495632 Rises=F Damp=F
 DIIS: error= 3.61D-04 at cycle   6 NSaved=   6.
 NSaved= 6 IEnMin= 6 EnMin= -985.423275288782     IErMin= 6 ErrMin= 3.61D-04
 ErrMax= 3.61D-04  0.00D+00 EMaxC= 1.00D-01 BMatC= 2.56D-05 BMatP= 1.78D-02
 IDIUse=3 WtCom= 9.96D-01 WtEn= 3.61D-03
 Coeff-Com: -0.839D-03-0.485D-04 0.118D-01-0.201D-01 0.135D+00 0.874D+00
 Coeff-En:   0.000D+00 0.000D+00 0.000D+00 0.000D+00 0.000D+00 0.100D+01
 Coeff:     -0.836D-03-0.484D-04 0.118D-01-0.200D-01 0.134D+00 0.875D+00
 Gap=     0.277 Goal=   None    Shift=    0.000
 RMSDP=6.14D-05 MaxDP=3.30D-03 DE=-1.38D-02 OVMax= 1.97D-03

 Cycle   7  Pass 1  IDiag  1:
 RMSU=  4.16D-05    CP:  7.64D-01  4.06D-01  9.46D-01  2.11D-01  9.09D-01
                    CP:  1.08D+00
 E= -985.423302907481     Delta-E=       -0.000027618699 Rises=F Damp=F
 DIIS: error= 6.19D-05 at cycle   7 NSaved=   7.
 NSaved= 7 IEnMin= 7 EnMin= -985.423302907481     IErMin= 7 ErrMin= 6.19D-05
 ErrMax= 6.19D-05  0.00D+00 EMaxC= 1.00D-01 BMatC= 3.98D-06 BMatP= 2.56D-05
 IDIUse=1 WtCom= 1.00D+00 WtEn= 0.00D+00
 Coeff-Com:  0.490D-03-0.187D-02-0.148D-01 0.802D-03-0.261D-01 0.336D+00
 Coeff-Com:  0.705D+00
 Coeff:      0.490D-03-0.187D-02-0.148D-01 0.802D-03-0.261D-01 0.336D+00
 Coeff:      0.705D+00
 Gap=     0.277 Goal=   None    Shift=    0.000
 RMSDP=3.51D-05 MaxDP=2.40D-03 DE=-2.76D-05 OVMax= 6.90D-04

 Cycle   8  Pass 1  IDiag  1:
 RMSU=  1.33D-05    CP:  7.64D-01  4.04D-01  9.47D-01  2.09D-01  9.10D-01
                    CP:  1.14D+00  9.89D-01
 E= -985.423308187637     Delta-E=       -0.000005280156 Rises=F Damp=F
 DIIS: error= 4.17D-05 at cycle   8 NSaved=   8.
 NSaved= 8 IEnMin= 8 EnMin= -985.423308187637     IErMin= 8 ErrMin= 4.17D-05
 ErrMax= 4.17D-05  0.00D+00 EMaxC= 1.00D-01 BMatC= 3.13D-07 BMatP= 3.98D-06
 IDIUse=1 WtCom= 1.00D+00 WtEn= 0.00D+00
 Coeff-Com:  0.809D-04 0.886D-04-0.520D-02 0.173D-02-0.189D-01-0.580D-01
 Coeff-Com:  0.109D+00 0.971D+00
 Coeff:      0.809D-04 0.886D-04-0.520D-02 0.173D-02-0.189D-01-0.580D-01
 Coeff:      0.109D+00 0.971D+00
 Gap=     0.277 Goal=   None    Shift=    0.000
 RMSDP=1.05D-05 MaxDP=8.88D-04 DE=-5.28D-06 OVMax= 3.87D-04

 Cycle   9  Pass 1  IDiag  1:
 RMSU=  5.76D-06    CP:  7.64D-01  4.03D-01  9.47D-01  2.09D-01  9.12D-01
                    CP:  1.16D+00  1.09D+00  1.01D+00
 E= -985.423308824352     Delta-E=       -0.000000636715 Rises=F Damp=F
 DIIS: error= 8.67D-06 at cycle   9 NSaved=   9.
 NSaved= 9 IEnMin= 9 EnMin= -985.423308824352     IErMin= 9 ErrMin= 8.67D-06
 ErrMax= 8.67D-06  0.00D+00 EMaxC= 1.00D-01 BMatC= 3.54D-08 BMatP= 3.13D-07
 IDIUse=1 WtCom= 1.00D+00 WtEn= 0.00D+00
 Coeff-Com: -0.164D-04 0.154D-03-0.479D-03 0.357D-03-0.289D-02-0.413D-01
 Coeff-Com: -0.284D-01 0.301D+00 0.771D+00
 Coeff:     -0.164D-04 0.154D-03-0.479D-03 0.357D-03-0.289D-02-0.413D-01
 Coeff:     -0.284D-01 0.301D+00 0.771D+00
 Gap=     0.277 Goal=   None    Shift=    0.000
 RMSDP=3.79D-06 MaxDP=1.85D-04 DE=-6.37D-07 OVMax= 7.76D-05

 Cycle  10  Pass 1  IDiag  1:
 RMSU=  1.27D-06    CP:  7.64D-01  4.03D-01  9.47D-01  2.08D-01  9.12D-01
                    CP:  1.16D+00  1.10D+00  1.14D+00  9.20D-01
 E= -985.423308869769     Delta-E=       -0.000000045417 Rises=F Damp=F
 DIIS: error= 2.23D-06 at cycle  10 NSaved=  10.
 NSaved=10 IEnMin=10 EnMin= -985.423308869769     IErMin=10 ErrMin= 2.23D-06
 ErrMax= 2.23D-06  0.00D+00 EMaxC= 1.00D-01 BMatC= 4.19D-09 BMatP= 3.54D-08
 IDIUse=1 WtCom= 1.00D+00 WtEn= 0.00D+00
 Coeff-Com: -0.785D-05 0.250D-04 0.448D-03-0.667D-04 0.122D-02-0.783D-02
 Coeff-Com: -0.240D-01-0.714D-03 0.278D+00 0.753D+00
 Coeff:     -0.785D-05 0.250D-04 0.448D-03-0.667D-04 0.122D-02-0.783D-02
 Coeff:     -0.240D-01-0.714D-03 0.278D+00 0.753D+00
 Gap=     0.277 Goal=   None    Shift=    0.000
 RMSDP=8.89D-07 MaxDP=7.64D-05 DE=-4.54D-08 OVMax= 1.95D-05

 Cycle  11  Pass 1  IDiag  1:
 RMSU=  4.38D-07    CP:  7.64D-01  4.03D-01  9.47D-01  2.08D-01  9.12D-01
                    CP:  1.16D+00  1.10D+00  1.14D+00  1.01D+00  9.75D-01
 E= -985.423308874457     Delta-E=       -0.000000004688 Rises=F Damp=F
 DIIS: error= 7.56D-07 at cycle  11 NSaved=  11.
 NSaved=11 IEnMin=11 EnMin= -985.423308874457     IErMin=11 ErrMin= 7.56D-07
 ErrMax= 7.56D-07  0.00D+00 EMaxC= 1.00D-01 BMatC= 3.27D-10 BMatP= 4.19D-09
 IDIUse=1 WtCom= 1.00D+00 WtEn= 0.00D+00
 Coeff-Com:  0.100D-05-0.482D-05 0.175D-03-0.506D-04 0.555D-03 0.860D-03
 Coeff-Com: -0.416D-02-0.218D-01 0.147D-01 0.210D+00 0.800D+00
 Coeff:      0.100D-05-0.482D-05 0.175D-03-0.506D-04 0.555D-03 0.860D-03
 Coeff:     -0.416D-02-0.218D-01 0.147D-01 0.210D+00 0.800D+00
 Gap=     0.277 Goal=   None    Shift=    0.000
 RMSDP=2.43D-07 MaxDP=1.53D-05 DE=-4.69D-09 OVMax= 5.75D-06

 Cycle  12  Pass 1  IDiag  1:
 RMSU=  1.13D-07    CP:  7.64D-01  4.03D-01  9.47D-01  2.08D-01  9.12D-01
                    CP:  1.16D+00  1.10D+00  1.14D+00  1.01D+00  1.02D+00
                    CP:  8.67D-01
 E= -985.423308874785     Delta-E=       -0.000000000328 Rises=F Damp=F
 DIIS: error= 1.72D-07 at cycle  12 NSaved=  12.
 NSaved=12 IEnMin=12 EnMin= -985.423308874785     IErMin=12 ErrMin= 1.72D-07
 ErrMax= 1.72D-07  0.00D+00 EMaxC= 1.00D-01 BMatC= 2.88D-11 BMatP= 3.27D-10
 IDIUse=1 WtCom= 1.00D+00 WtEn= 0.00D+00
 Coeff-Com:  0.104D-05-0.277D-05 0.255D-04-0.130D-04 0.821D-04 0.590D-03
 Coeff-Com:  0.347D-03-0.501D-02-0.134D-01 0.960D-02 0.237D+00 0.771D+00
 Coeff:      0.104D-05-0.277D-05 0.255D-04-0.130D-04 0.821D-04 0.590D-03
 Coeff:      0.347D-03-0.501D-02-0.134D-01 0.960D-02 0.237D+00 0.771D+00
 Gap=     0.277 Goal=   None    Shift=    0.000
 RMSDP=6.59D-08 MaxDP=4.12D-06 DE=-3.28D-10 OVMax= 2.03D-06

 Cycle  13  Pass 1  IDiag  1:
 RMSU=  3.28D-08    CP:  7.64D-01  4.03D-01  9.47D-01  2.08D-01  9.12D-01
                    CP:  1.16D+00  1.10D+00  1.14D+00  1.02D+00  1.03D+00
                    CP:  9.11D-01  9.78D-01
 E= -985.423308874803     Delta-E=       -0.000000000018 Rises=F Damp=F
 DIIS: error= 5.26D-08 at cycle  13 NSaved=  13.
 NSaved=13 IEnMin=13 EnMin= -985.423308874803     IErMin=13 ErrMin= 5.26D-08
 ErrMax= 5.26D-08  0.00D+00 EMaxC= 1.00D-01 BMatC= 2.76D-12 BMatP= 2.88D-11
 IDIUse=1 WtCom= 1.00D+00 WtEn= 0.00D+00
 Coeff-Com:  0.407D-06-0.973D-06-0.144D-05-0.162D-05-0.590D-05 0.163D-03
 Coeff-Com:  0.406D-03-0.531D-03-0.681D-02-0.120D-01 0.353D-01 0.305D+00
 Coeff-Com:  0.679D+00
 Coeff:      0.407D-06-0.973D-06-0.144D-05-0.162D-05-0.590D-05 0.163D-03
 Coeff:      0.406D-03-0.531D-03-0.681D-02-0.120D-01 0.353D-01 0.305D+00
 Coeff:      0.679D+00
 Gap=     0.277 Goal=   None    Shift=    0.000
 RMSDP=2.57D-08 MaxDP=1.19D-06 DE=-1.84D-11 OVMax= 6.30D-07

 Cycle  14  Pass 1  IDiag  1:
 RMSU=  1.09D-08    CP:  7.64D-01  4.03D-01  9.47D-01  2.08D-01  9.12D-01
                    CP:  1.16D+00  1.10D+00  1.14D+00  1.01D+00  1.03D+00
                    CP:  9.24D-01  1.07D+00  1.14D+00
 E= -985.423308874824     Delta-E=       -0.000000000021 Rises=F Damp=F
 DIIS: error= 1.64D-08 at cycle  14 NSaved=  14.
 NSaved=14 IEnMin=14 EnMin= -985.423308874824     IErMin=14 ErrMin= 1.64D-08
 ErrMax= 1.64D-08  0.00D+00 EMaxC= 1.00D-01 BMatC= 1.53D-13 BMatP= 2.76D-12
 IDIUse=1 WtCom= 1.00D+00 WtEn= 0.00D+00
 Coeff-Com: -0.930D-07 0.205D-06-0.265D-05 0.591D-06-0.628D-05-0.230D-04
 Coeff-Com:  0.464D-04 0.434D-03-0.207D-03-0.394D-02-0.190D-01-0.262D-01
 Coeff-Com:  0.120D+00 0.929D+00
 Coeff:     -0.930D-07 0.205D-06-0.265D-05 0.591D-06-0.628D-05-0.230D-04
 Coeff:      0.464D-04 0.434D-03-0.207D-03-0.394D-02-0.190D-01-0.262D-01
 Coeff:      0.120D+00 0.929D+00
 Gap=     0.277 Goal=   None    Shift=    0.000
 RMSDP=9.49D-09 MaxDP=4.66D-07 DE=-2.14D-11 OVMax= 4.49D-07

 SCF Done:  E(RM062X) =  -985.423308875     A.U. after   14 cycles
            NFock= 14  Conv=0.95D-08     -V/T= 2.0034
 KE= 9.820944707314D+02 PE=-4.348047625247D+03 EE= 1.360878513372D+03
 Leave Link  502 at Sun Oct 13 23:22:01 2019, MaxMem= 10737418240 cpu:            1795.1 elap:              75.1
 (Enter /apps/cent7/gaussian/g16-A.03/g16-haswell/g16/l601.exe)
 Copying SCF densities to generalized density rwf, IOpCl= 0 IROHF=0.

 **********************************************************************

            Population analysis using the SCF density.

 **********************************************************************

 Orbital symmetries:
       Occupied  (A) (A) (A) (A) (A) (A) (A) (A) (A) (A) (A) (A)
                 (A) (A) (A) (A) (A) (A) (A) (A) (A) (A) (A) (A)
                 (A) (A) (A) (A) (A) (A) (A) (A) (A) (A) (A) (A)
                 (A) (A) (A) (A) (A) (A) (A) (A) (A) (A) (A) (A)
                 (A) (A) (A) (A) (A) (A) (A) (A) (A) (A) (A) (A)
                 (A) (A) (A) (A) (A)
       Virtual   (A) (A) (A) (A) (A) (A) (A) (A) (A) (A) (A) (A)
                 (A) (A) (A) (A) (A) (A) (A) (A) (A) (A) (A) (A)
                 (A) (A) (A) (A) (A) (A) (A) (A) (A) (A) (A) (A)
                 (A) (A) (A) (A) (A) (A) (A) (A) (A) (A) (A) (A)
                 (A) (A) (A) (A) (A) (A) (A) (A) (A) (A) (A) (A)
                 (A) (A) (A) (A) (A) (A) (A) (A) (A) (A) (A) (A)
                 (A) (A) (A) (A) (A) (A) (A) (A) (A) (A) (A) (A)
                 (A) (A) (A) (A) (A) (A) (A) (A) (A) (A) (A) (A)
                 (A) (A) (A) (A) (A) (A) (A) (A) (A) (A) (A) (A)
                 (A) (A) (A) (A) (A) (A) (A) (A) (A) (A) (A) (A)
                 (A) (A) (A) (A) (A) (A) (A) (A) (A) (A) (A) (A)
                 (A) (A) (A) (A) (A) (A) (A) (A) (A) (A) (A) (A)
                 (A) (A) (A) (A) (A) (A) (A) (A) (A) (A) (A) (A)
                 (A) (A) (A) (A) (A) (A) (A) (A) (A) (A) (A) (A)
                 (A) (A) (A) (A) (A) (A) (A) (A) (A) (A) (A) (A)
                 (A) (A) (A) (A) (A) (A) (A) (A) (A) (A) (A) (A)
                 (A) (A) (A) (A) (A) (A) (A) (A) (A) (A) (A) (A)
                 (A) (A) (A) (A) (A) (A) (A) (A) (A) (A) (A) (A)
                 (A) (A) (A) (A) (A) (A) (A) (A) (A) (A) (A) (A)
                 (A) (A) (A) (A) (A) (A) (A) (A) (A) (A) (A) (A)
                 (A) (A) (A) (A) (A) (A) (A) (A) (A) (A) (A) (A)
                 (A) (A) (A) (A) (A) (A) (A) (A) (A) (A) (A) (A)
                 (A) (A) (A) (A) (A) (A) (A) (A) (A) (A) (A) (A)
                 (A) (A) (A) (A) (A) (A) (A) (A) (A) (A) (A) (A)
                 (A) (A) (A) (A) (A) (A) (A) (A) (A) (A) (A) (A)
                 (A) (A) (A) (A) (A) (A) (A) (A) (A) (A) (A) (A)
                 (A) (A) (A) (A) (A) (A) (A) (A) (A) (A) (A) (A)
                 (A) (A) (A) (A) (A) (A) (A) (A) (A) (A) (A) (A)
                 (A) (A) (A) (A) (A) (A) (A) (A) (A) (A) (A) (A)
                 (A) (A) (A) (A) (A) (A) (A) (A) (A) (A) (A) (A)
                 (A) (A) (A) (A) (A) (A) (A) (A) (A) (A) (A) (A)
                 (A) (A) (A) (A) (A) (A) (A) (A) (A) (A) (A) (A)
                 (A) (A) (A) (A) (A) (A) (A) (A) (A) (A) (A) (A)
                 (A) (A) (A) (A) (A) (A) (A) (A) (A) (A) (A) (A)
                 (A) (A) (A) (A) (A) (A) (A) (A) (A) (A) (A) (A)
                 (A) (A) (A) (A) (A) (A) (A) (A) (A) (A) (A) (A)
                 (A) (A) (A) (A) (A) (A) (A) (A) (A) (A) (A) (A)
                 (A) (A) (A) (A) (A) (A) (A) (A) (A) (A) (A) (A)
                 (A) (A) (A) (A) (A) (A) (A) (A) (A) (A) (A) (A)
 The electronic state is 1-A.
 Alpha  occ. eigenvalues --  -89.99511 -19.57067 -10.57865 -10.57577 -10.54798
 Alpha  occ. eigenvalues --  -10.54359 -10.53638 -10.53357 -10.53140 -10.53004
 Alpha  occ. eigenvalues --  -10.52915 -10.52914 -10.52866 -10.52775 -10.52063
 Alpha  occ. eigenvalues --   -8.35135  -6.27175  -6.27144  -6.26763  -1.07709
 Alpha  occ. eigenvalues --   -0.92740  -0.91158  -0.89601  -0.87701  -0.85728
 Alpha  occ. eigenvalues --   -0.82913  -0.79305  -0.75350  -0.71611  -0.68348
 Alpha  occ. eigenvalues --   -0.66321  -0.65294  -0.64431  -0.64199  -0.59527
 Alpha  occ. eigenvalues --   -0.58122  -0.56504  -0.54305  -0.53305  -0.52165
 Alpha  occ. eigenvalues --   -0.51326  -0.50793  -0.49110  -0.48433  -0.47722
 Alpha  occ. eigenvalues --   -0.47051  -0.45984  -0.45626  -0.44188  -0.43360
 Alpha  occ. eigenvalues --   -0.43345  -0.41818  -0.41534  -0.40773  -0.40368
 Alpha  occ. eigenvalues --   -0.40140  -0.39768  -0.39134  -0.38788  -0.37310
 Alpha  occ. eigenvalues --   -0.36082  -0.35246  -0.34676  -0.32071  -0.28578
 Alpha virt. eigenvalues --   -0.00884  -0.00258   0.00226   0.00436   0.00900
 Alpha virt. eigenvalues --    0.01076   0.01368   0.01848   0.02334   0.02488
 Alpha virt. eigenvalues --    0.03057   0.03481   0.03738   0.03747   0.04046
 Alpha virt. eigenvalues --    0.04322   0.04610   0.05266   0.05365   0.05723
 Alpha virt. eigenvalues --    0.05806   0.06199   0.06550   0.07157   0.07300
 Alpha virt. eigenvalues --    0.07807   0.07957   0.08747   0.09066   0.09492
 Alpha virt. eigenvalues --    0.09628   0.09747   0.10268   0.10675   0.11075
 Alpha virt. eigenvalues --    0.11341   0.11738   0.11946   0.12353   0.12590
 Alpha virt. eigenvalues --    0.13036   0.13270   0.13405   0.13841   0.13901
 Alpha virt. eigenvalues --    0.13995   0.14170   0.14440   0.14623   0.14855
 Alpha virt. eigenvalues --    0.14966   0.15328   0.15437   0.15831   0.15863
 Alpha virt. eigenvalues --    0.16098   0.16514   0.16605   0.16854   0.16987
 Alpha virt. eigenvalues --    0.17200   0.17581   0.17896   0.18124   0.18421
 Alpha virt. eigenvalues --    0.18783   0.18886   0.19112   0.19525   0.20271
 Alpha virt. eigenvalues --    0.20596   0.20761   0.21021   0.21321   0.21776
 Alpha virt. eigenvalues --    0.21802   0.22000   0.22449   0.22625   0.23043
 Alpha virt. eigenvalues --    0.23572   0.24299   0.24478   0.24580   0.24648
 Alpha virt. eigenvalues --    0.24906   0.25459   0.25675   0.25980   0.26488
 Alpha virt. eigenvalues --    0.26678   0.26873   0.27078   0.27097   0.27297
 Alpha virt. eigenvalues --    0.27687   0.28112   0.28829   0.29051   0.29095
 Alpha virt. eigenvalues --    0.29561   0.30379   0.31011   0.31236   0.31483
 Alpha virt. eigenvalues --    0.31749   0.32098   0.32280   0.32506   0.33283
 Alpha virt. eigenvalues --    0.33566   0.33667   0.33955   0.34466   0.34507
 Alpha virt. eigenvalues --    0.35042   0.35352   0.35720   0.35986   0.37791
 Alpha virt. eigenvalues --    0.37991   0.38782   0.39620   0.40071   0.40550
 Alpha virt. eigenvalues --    0.40953   0.41330   0.41696   0.42456   0.44163
 Alpha virt. eigenvalues --    0.44543   0.46336   0.46688   0.48145   0.48578
 Alpha virt. eigenvalues --    0.49041   0.49293   0.49755   0.50318   0.51257
 Alpha virt. eigenvalues --    0.51900   0.52355   0.53241   0.53820   0.54267
 Alpha virt. eigenvalues --    0.56594   0.56865   0.57136   0.57529   0.59093
 Alpha virt. eigenvalues --    0.59971   0.61395   0.61787   0.62778   0.64727
 Alpha virt. eigenvalues --    0.65017   0.65420   0.67609   0.67904   0.68342
 Alpha virt. eigenvalues --    0.69474   0.69787   0.70454   0.70476   0.70928
 Alpha virt. eigenvalues --    0.71222   0.71664   0.72168   0.73141   0.73422
 Alpha virt. eigenvalues --    0.73996   0.74054   0.74276   0.74584   0.74961
 Alpha virt. eigenvalues --    0.75187   0.75953   0.76203   0.76358   0.76822
 Alpha virt. eigenvalues --    0.77069   0.77240   0.77670   0.78062   0.78765
 Alpha virt. eigenvalues --    0.79387   0.79514   0.79951   0.80577   0.80830
 Alpha virt. eigenvalues --    0.81076   0.81290   0.81523   0.82161   0.82186
 Alpha virt. eigenvalues --    0.83179   0.83450   0.84172   0.85659   0.87726
 Alpha virt. eigenvalues --    0.88477   0.90092   0.91038   0.94928   0.95789
 Alpha virt. eigenvalues --    0.96064   0.99648   1.00381   1.02175   1.02614
 Alpha virt. eigenvalues --    1.03891   1.04224   1.04757   1.05068   1.05779
 Alpha virt. eigenvalues --    1.06996   1.09135   1.10008   1.11894   1.16881
 Alpha virt. eigenvalues --    1.17709   1.19570   1.22962   1.24933   1.25162
 Alpha virt. eigenvalues --    1.25936   1.26939   1.28751   1.30093   1.30550
 Alpha virt. eigenvalues --    1.31538   1.32045   1.32075   1.32510   1.32967
 Alpha virt. eigenvalues --    1.33299   1.34247   1.34437   1.34831   1.36323
 Alpha virt. eigenvalues --    1.38095   1.38554   1.44784   1.45604   1.47553
 Alpha virt. eigenvalues --    1.50847   1.52161   1.53384   1.53763   1.53901
 Alpha virt. eigenvalues --    1.56069   1.57196   1.57643   1.58241   1.59561
 Alpha virt. eigenvalues --    1.59775   1.60135   1.60220   1.61311   1.61668
 Alpha virt. eigenvalues --    1.62204   1.62395   1.62973   1.64054   1.64127
 Alpha virt. eigenvalues --    1.64697   1.65847   1.66945   1.67270   1.68420
 Alpha virt. eigenvalues --    1.69313   1.69687   1.69893   1.70202   1.70706
 Alpha virt. eigenvalues --    1.70865   1.71262   1.71910   1.73119   1.73617
 Alpha virt. eigenvalues --    1.75160   1.76455   1.77056   1.79061   1.79639
 Alpha virt. eigenvalues --    1.80037   1.80983   1.81451   1.82065   1.82102
 Alpha virt. eigenvalues --    1.82886   1.83586   1.84221   1.84382   1.84532
 Alpha virt. eigenvalues --    1.86256   1.86608   1.87720   1.88471   1.89463
 Alpha virt. eigenvalues --    1.91612   1.91823   1.93014   1.93517   1.94660
 Alpha virt. eigenvalues --    1.98535   1.98940   1.99948   2.01773   2.03126
 Alpha virt. eigenvalues --    2.03796   2.04952   2.06150   2.06353   2.08602
 Alpha virt. eigenvalues --    2.10774   2.12913   2.13524   2.13760   2.14304
 Alpha virt. eigenvalues --    2.15042   2.18177   2.19873   2.20663   2.21651
 Alpha virt. eigenvalues --    2.21692   2.22694   2.23757   2.24828   2.26185
 Alpha virt. eigenvalues --    2.27113   2.27463   2.31136   2.33211   2.34191
 Alpha virt. eigenvalues --    2.36679   2.38126   2.38214   2.41924   2.42266
 Alpha virt. eigenvalues --    2.43728   2.45011   2.45997   2.47991   2.48421
 Alpha virt. eigenvalues --    2.49250   2.50009   2.52393   2.53260   2.53418
 Alpha virt. eigenvalues --    2.54380   2.55109   2.55655   2.56191   2.56998
 Alpha virt. eigenvalues --    2.57608   2.58115   2.58295   2.59174   2.59338
 Alpha virt. eigenvalues --    2.60130   2.61612   2.61936   2.62802   2.63115
 Alpha virt. eigenvalues --    2.63414   2.63560   2.65504   2.65864   2.66051
 Alpha virt. eigenvalues --    2.67450   2.68984   2.69819   2.70315   2.71672
 Alpha virt. eigenvalues --    2.71791   2.72586   2.72641   2.74898   2.75654
 Alpha virt. eigenvalues --    2.77207   2.80082   2.80801   2.82773   2.84238
 Alpha virt. eigenvalues --    2.85916   2.88051   2.88201   2.91088   2.92422
 Alpha virt. eigenvalues --    2.93327   2.94015   2.95879   2.96528   2.97396
 Alpha virt. eigenvalues --    2.97425   2.98288   2.99292   3.00209   3.01433
 Alpha virt. eigenvalues --    3.02708   3.03147   3.04086   3.05035   3.05314
 Alpha virt. eigenvalues --    3.05888   3.06893   3.07316   3.07408   3.10543
 Alpha virt. eigenvalues --    3.12183   3.17040   3.20605   3.28004   3.32141
 Alpha virt. eigenvalues --    3.36310   3.40677   3.43720   3.45654   3.48635
 Alpha virt. eigenvalues --    3.76492   3.78204   3.80335   3.83526   3.83922
 Alpha virt. eigenvalues --    3.84153   3.84893   3.86444   3.87012   3.91029
 Alpha virt. eigenvalues --    3.96451   3.96822   3.97042   3.99048   4.02053
 Alpha virt. eigenvalues --    4.02590   4.06545   4.07661   4.11063   4.12638
 Alpha virt. eigenvalues --    4.14100   4.19710   4.27379   4.35067   4.41205
 Alpha virt. eigenvalues --    4.45045   5.21012   5.23808   5.27309   8.15430
 Alpha virt. eigenvalues --   17.56489  17.59078  17.62424  23.90967  23.95431
 Alpha virt. eigenvalues --   23.95808  23.96044  23.96849  23.97568  23.98070
 Alpha virt. eigenvalues --   23.98375  23.98592  23.98765  23.99853  24.00066
[...]
 000361,0.00000043,0.00000022,-0.00000648,-0.00006172,0.00001503,0.0000
 1292,0.00000008,-0.00000201,0.00000160,0.00018147,0.00011662,0.0002441
 3,0.00002336,-0.00001374,-0.00005844,-0.00083959,0.00043644,0.00054586
 ,-0.00009564,0.00010144,0.00000427,-0.00343090,0.00082308,-0.00408022,
 0.00081732,0.00022918,0.00074073,-0.02512873,0.13198801,0.15032852,0.0
 0000086,0.00000106,0.00000016,-0.00000054,-0.00000160,-0.00000116,0.00
 000038,-0.00000015,0.00000057,-0.00000047,0.00000200,0.00000127,0.0000
 0047,0.00000074,-0.00000033,0.00000018,-0.00000375,0.00000209,0.000002
 28,-0.00000043,-0.00000329,0.00000104,0.00000088,0.00000909,0.00002013
 ,-0.00000406,-0.00000904,-0.00000656,-0.00005908,0.00007746,-0.0000470
 7,0.00004378,-0.00016563,0.00158380,0.00096618,-0.00041877,0.00361734,
 0.01672516,-0.01034158,-0.06397174,-0.05519566,0.03522477,-0.01070305,
 -0.02790481,0.01710985,-0.00000005,0.00000008,-0.00000009,0.00000022,0
 .00000030,-0.00000017,0.00000004,-0.00000003,0.00000003,0.,-0.00000015
 ,0.00000006,0.00000010,0.00000002,-0.00000006,0.00000006,-0.00000020,-
 0.00000005,0.,-0.00000016,0.,-0.00000020,0.00000003,-0.00000005,-0.000
 00026,-0.00000005,-0.00000025,0.00000013,0.00000041,0.00000027,0.00000
 064,-0.00000067,0.00000055,-0.00000042,0.00000006,-0.00000009,-0.00000
 169,-0.00000022,-0.00000089,0.00000033,0.00000236,0.00000015,0.0000048
 1,-0.00000352,0.00000498,-0.00000173,0.00000186,-0.00000328,-0.0000440
 9,-0.00000859,0.00000870,0.00002593,0.00001289,0.00002259,-0.00007062,
 -0.00015166,0.00014216,-0.00001978,0.00003897,0.00009269,-0.00033295,-
 0.00045169,0.00004594,0.00054621,-0.00044076,0.00081825,-0.00212190,0.
 00030326,-0.00337968,0.00083566,0.00419487,-0.00315284,0.07460791,0.00
 000217,0.00000096,-0.00000208,-0.00000232,-0.00000070,0.00000165,0.000
 00079,0.00000024,-0.00000025,-0.00000002,-0.00000034,0.00000098,0.0000
 0156,-0.00000020,-0.00000042,-0.00000087,-0.00000207,0.00000381,0.0000
 0608,-0.00000067,-0.00000337,-0.00000050,-0.00000747,0.00001469,0.0000
 2771,0.00000323,-0.00001735,0.00003397,-0.00003055,0.00007607,0.000324
 26,0.00033352,-0.00021074,-0.00036423,0.00001854,-0.00015655,-0.000360
 42,-0.00217480,0.00126171,-0.05569088,-0.22285009,0.10707831,0.0010281
 9,0.00275321,-0.00210022,0.00000006,-0.00000022,0.00000012,0.00000020,
 -0.00000005,-0.00000007,0.00000008,0.00000029,-0.00000009,-0.00000012,
 -0.00000058,0.00000037,0.00000069,0.00000077,0.,-0.00000050,-0.0000005
 6,0.00000006,-0.00000048,0.00000119,-0.00000098,0.00000002,-0.00000119
 ,0.00000018,0.00000160,0.00000238,-0.00000066,-0.00000070,-0.00000070,
 0.00000011,-0.00000109,0.00000254,-0.00000251,-0.00000007,-0.00000264,
 0.00000036,0.00000396,0.00000645,-0.00000128,-0.00000258,-0.00000181,0
 .00000028,-0.00000439,0.00000440,-0.00000713,0.00000172,-0.00000972,0.
 00000027,0.00002526,0.00002369,0.00000194,-0.00002296,-0.00002621,-0.0
 0001327,-0.00015814,0.00002105,-0.00016339,-0.00002698,-0.00007788,0.0
 0009730,0.00070555,0.00021374,0.00001502,0.00039302,0.00075209,0.00020
 008,0.00036589,0.00166030,0.00019951,-0.00669203,-0.02146968,0.0131884
 4,0.06070879,0.23860714,-0.00000138,-0.00000395,-0.00000043,0.00000178
 ,0.00000289,0.00000169,-0.00000065,-0.00000061,-0.00000050,0.00000008,
 0.00000120,-0.00000149,-0.00000115,0.00000101,0.00000045,0.00000063,-0
 .00000040,-0.00000282,-0.00000288,0.00000271,0.00000281,0.00000181,0.0
 0000484,-0.00000726,0.00000690,0.00000489,0.00001138,-0.00003023,-0.00
 008452,0.00003222,-0.00012862,-0.00027778,0.00001979,0.00154321,0.0001
 5143,0.00056967,0.00601717,0.02418012,-0.01615447,0.03527938,0.1061329
 5,-0.11483133,0.00220070,0.00560343,-0.00375908,0.00000017,0.00000004,
 -0.00000011,-0.00000032,0.00000016,0.00000008,-0.00000002,0.,0.0000003
 1,0.00000014,0.00000006,-0.00000017,-0.00000063,-0.00000029,0.00000015
 ,0.00000027,0.00000038,-0.00000027,0.00000035,-0.00000083,0.00000066,0
 .00000028,-0.00000008,-0.00000020,-0.00000144,-0.00000127,0.00000100,0
 .00000009,-0.00000008,-0.00000162,0.00000096,-0.00000239,0.00000156,0.
 00000066,-0.00000044,-0.00000010,-0.00000378,-0.00000262,0.00000259,0.
 00000011,0.00000024,-0.00000645,0.00000614,-0.00000652,0.00000241,0.00
 000068,0.00000074,0.00000190,-0.00006128,-0.00000549,0.00001213,0.0000
 2305,0.00001278,-0.00005903,0.00014790,-0.00016133,0.00021771,-0.00010
 855,-0.00009804,0.00000595,-0.00083057,-0.00035370,0.00051024,0.000825
 50,-0.00033249,0.00074155,-0.00348444,0.00019571,-0.00414883,-0.005558
 60,-0.01570287,0.01029895,-0.03693036,-0.11889394,0.12586280,-0.000009
 43,-0.00000693,-0.00000919,0.00001082,0.00000545,0.00001549,-0.0000056
 7,0.00000022,-0.00000425,0.00000011,-0.00000186,-0.00001300,-0.0000082
 8,-0.00000001,0.00000631,-0.00000017,0.00000371,-0.00002183,-0.0000273
 3,0.,0.00003022,-0.00000371,0.00000448,-0.00007495,-0.00011117,0.00000
 122,0.00010441,-0.00004789,0.00001921,-0.00034078,-0.00069643,0.000019
 87,0.00052213,-0.00037810,0.00017113,-0.00223456,-0.00601484,0.0002031
 2,0.00430495,-0.01630767,0.00236631,-0.02814007,-0.13016068,0.01166404
 ,-0.12392565,0.00000095,-0.00000008,0.00000068,-0.00000248,-0.00000096
 ,0.00000077,0.00000041,0.00000019,0.00000103,-0.00000039,0.00000096,0.
 00000022,-0.00000052,-0.00000064,-0.00000041,0.00000206,0.00000068,0.0
 0000181,0.00000077,0.00000049,0.00000002,-0.00000016,0.00000170,0.0000
 0152,-0.00000006,-0.00000180,0.00000122,0.00000133,-0.00000151,-0.0000
 0099,0.00000161,0.00000173,-0.00000103,0.00000002,0.00000421,0.0000035
 1,-0.00000038,-0.00000447,0.00000303,0.00000360,-0.00000611,-0.0000034
 6,0.00000440,0.00000630,-0.00000306,0.00000383,0.00001409,0.00000947,0
 .00000187,-0.00001567,0.00000798,0.00002068,-0.00003297,-0.00000201,0.
 00002475,0.00003110,0.00000111,0.00000616,0.00010318,0.00003837,0.0000
 0450,-0.00011075,0.00002568,0.00017502,-0.00019859,0.00017284,0.000179
 31,0.00019376,0.00013562,0.00114005,0.00053928,0.00010577,0.00106327,-
 0.00069381,-0.00001111,0.14295776,0.00000111,-0.00000085,0.00000040,-0
 .00000079,0.00000078,-0.00000051,0.00000037,0.00000027,0.00000021,-0.0
 0000048,-0.00000150,0.00000077,0.00000044,0.00000101,-0.00000044,0.000
 00024,0.00000439,0.00000190,0.00000188,-0.00000314,-0.00000249,0.,0.,0
 .00000543,0.00000659,-0.00000680,-0.00000756,0.00000227,0.00000541,0.0
 0002204,0.00003765,-0.00001005,-0.00003334,0.00004158,0.00059740,0.000
 15114,0.00033993,0.00023660,-0.00026875,0.00064220,-0.00167155,0.00132
 122,0.01173147,-0.04902763,0.01737881,0.00000002,0.00000006,-0.0000001
 7,0.00000020,0.00000009,0.,-0.00000003,0.00000003,-0.00000006,0.000000
 23,-0.00000015,-0.00000002,0.00000015,0.,0.00000010,-0.00000011,-0.000
 00004,-0.00000025,-0.00000004,-0.00000012,0.00000018,0.00000009,-0.000
 00039,-0.00000032,-0.00000007,-0.00000004,0.00000004,-0.00000022,0.000
 00003,-0.00000027,-0.00000013,-0.00000023,0.00000044,0.,-0.00000084,-0
 .00000044,-0.00000002,-0.00000013,-0.00000019,-0.00000060,0.00000067,-
 0.00000074,0.,-0.00000016,0.00000126,0.00000149,-0.00000360,-0.0000021
 3,-0.00000201,-0.00000141,0.00000052,0.00000171,0.00000518,-0.00000364
 ,-0.00000410,0.00000164,0.00000468,-0.00008599,-0.00002234,0.00001125,
 0.00009036,-0.00001840,-0.00001888,0.00016637,0.00020873,0.00041184,-0
 .00017522,0.00026500,-0.00042332,0.00008801,-0.00009151,0.00032346,-0.
 00016252,0.00005143,-0.00037743,-0.01314326,0.04812443,-0.00000675,-0.
 00000244,-0.00000365,0.00000735,0.00000156,0.00000609,-0.00000288,-0.0
 0000185,-0.00000157,0.00000044,0.00000301,-0.00000388,-0.00000218,-0.0
 0000032,0.00000077,0.00000058,-0.00000110,-0.00000537,-0.00000406,-0.0
 0000038,0.00000603,0.00000411,-0.00000048,-0.00000887,0.00000339,-0.00
 000049,0.00000881,0.00002406,-0.00000124,0.00000857,0.00013893,-0.0000
 0804,-0.00001982,0.00044809,-0.00002187,0.00045660,0.00125868,-0.00007
 084,0.00002660,0.00647415,-0.00095054,0.00899510,-0.12509904,0.0174438
 4,-0.23244260,0.00000037,-0.00000032,0.00000065,-0.00000115,-0.0000000
 9,0.00000018,0.00000039,0.00000013,0.00000064,-0.00000026,0.00000093,-
 0.00000035,-0.00000043,-0.00000034,-0.00000043,0.00000089,0.00000079,0
 .00000068,0.00000049,-0.00000005,0.00000012,-0.00000021,0.00000079,0.0
 0000070,-0.00000019,-0.00000081,0.00000064,0.00000077,0.00000023,-0.00
 000009,0.00000061,-0.00000023,-0.00000013,-0.00000075,0.00000138,0.000
 00135,-0.00000094,-0.00000139,0.00000120,0.00000110,0.00000125,-0.0000
 0080,0.00000093,-0.00000123,-0.00000087,-0.00000133,0.00000074,0.00000
 269,-0.00000150,-0.00000098,0.00000274,0.00000182,0.00000781,-0.000007
 89,0.00000047,-0.00000682,-0.00000830,-0.00008697,0.00000536,0.0000207
 4,-0.00007867,0.00000197,0.00001891,0.00021817,0.00020311,0.00016750,0
 .00017342,-0.00022031,0.00010720,-0.00073433,0.00009393,0.00046238,-0.
 00075873,-0.00004335,0.00042821,0.13550266,-0.01905620,0.24951107,0.00
 000162,-0.00000130,-0.00000008,-0.00000154,0.00000093,-0.00000002,0.00
 000047,-0.00000012,0.00000005,-0.00000013,0.00000087,0.00000087,0.0000
 0042,0.00000052,-0.00000024,-0.00000023,-0.00000104,0.00000101,0.00000
 173,-0.00000073,-0.00000108,-0.00000079,0.00000235,0.00000408,0.000005
 62,0.00000304,-0.00000416,0.00001498,-0.00000226,0.00002198,0.00005017
 ,-0.00010322,-0.00008722,-0.00015178,-0.00017379,0.00000758,0.00189330
 ,0.00084928,0.00139961,-0.00673581,0.02776924,0.01928889,-0.05423317,0
 .03612185,0.02583087,0.,-0.00000004,-0.00000013,0.00000020,0.00000021,
 -0.00000008,0.00000006,0.00000008,-0.00000004,0.00000022,-0.00000027,-
 0.00000008,-0.00000011,0.00000028,0.00000013,-0.00000035,-0.00000019,-
 0.00000034,-0.00000004,0.00000002,0.00000013,0.00000043,-0.00000086,-0
 .00000041,-0.00000014,0.00000029,0.00000011,-0.00000072,-0.00000074,-0
 .00000114,-0.00000009,0.,0.00000024,0.00000148,-0.00000229,-0.00000072
 ,-0.00000025,0.00000058,0.00000044,-0.00000223,-0.00000162,-0.00000306
 ,-0.00000017,-0.00000015,0.00000017,0.00000945,-0.00000741,0.00000004,
 -0.00000159,0.00000282,0.00000284,-0.00004746,-0.00000893,-0.00006084,
 -0.00000221,0.00000251,0.00000079,0.00021463,-0.00020843,-0.00016039,0
 .00001174,0.00002226,0.00004131,-0.00030169,-0.00055669,-0.00082354,-0
 .00002315,-0.00003987,-0.00012666,-0.00658156,0.00007003,0.00127773,0.
 00147992,-0.00047168,-0.00019149,0.00297712,-0.01562779,-0.00945546,0.
 06082706,-0.00000039,0.00000486,0.00000375,0.00000010,-0.00000432,-0.0
 0000523,0.00000037,0.00000030,0.00000110,0.00000008,-0.00000038,0.0000
 0171,0.00000027,0.00000039,-0.00000060,0.00000095,-0.00000090,0.000001
 54,0.00000188,-0.00000176,-0.00000384,0.00000207,-0.00000050,0.0000064
 9,0.00000892,-0.00000630,-0.00001098,0.00000723,0.00000184,0.00002920,
 0.00006712,-0.00002598,-0.00003345,0.00007006,0.00028202,0.00033673,-0
 .00036394,0.00006978,0.00001755,0.00015680,-0.00056131,-0.00023387,0.0
 3683103,-0.21717996,-0.12231543,-0.00000028,0.00000026,-0.00000007,0.0
 0000032,-0.00000006,-0.00000009,-0.00000021,-0.00000026,-0.00000026,-0
 .00000027,0.00000026,0.00000026,0.00000010,-0.00000023,0.00000008,0.00
 000024,0.00000034,0.00000001,0.00000010,-0.00000057,-0.00000025,-0.000
 00092,0.00000114,0.00000051,-0.00000025,-0.00000035,-0.00000026,0.0000
 0058,0.00000205,0.00000127,0.00000020,-0.00000116,-0.00000005,-0.00000
 222,0.00000211,0.00000114,-0.00000046,-0.00000057,-0.00000045,0.000001
 54,0.00000569,0.00000300,0.00000022,-0.00000259,-0.00000039,-0.0000065
 6,0.00000327,0.00000250,-0.00000189,-0.00000149,-0.00000141,0.00001572
 ,0.00002089,0.00001098,0.00000249,-0.00001027,0.00000027,-0.00019599,0
 .00000670,0.00000961,-0.00002864,-0.00002410,-0.00000129,0.00055058,0.
 00010375,0.00038023,0.00004560,-0.00010060,-0.00009445,-0.00000238,0.0
 0157900,0.00010871,0.00048060,0.00066549,0.00018737,-0.00137678,0.0028
 2921,0.00257410,-0.04080456,0.23286734,0.00000314,0.00000517,0.0000037
 5,-0.00000369,-0.00000406,-0.00000628,0.00000177,0.00000040,0.00000154
 ,-0.00000045,-0.00000056,0.00000381,0.00000180,-0.00000036,-0.00000120
 ,-0.00000002,-0.00000112,0.00000480,0.00000534,-0.00000051,-0.00000685
 ,-0.00000092,-0.00000245,0.00001345,0.00001316,-0.00000185,-0.00001732
 ,-0.00000535,-0.00001160,0.00003066,0.00004118,0.00002156,-0.00002595,
 -0.00008457,0.00019398,0.00014175,-0.00058042,0.00075372,0.00060164,0.
 00163347,-0.00633646,-0.00552965,0.02625366,-0.12221032,-0.13636400,-0
 .00000041,0.00000017,-0.00000023,0.00000085,0.00000011,-0.00000023,-0.
 00000021,-0.00000016,-0.00000053,0.00000004,-0.00000015,0.00000014,0.0
 0000049,0.00000014,0.00000012,-0.00000053,-0.00000025,-0.00000025,-0.0
 0000023,0.00000002,-0.00000030,-0.00000045,0.00000024,-0.00000007,0.00
 000038,0.00000063,-0.00000076,-0.00000028,0.00000080,0.00000136,-0.000
 00044,0.00000010,-0.00000027,-0.00000065,0.00000063,-0.00000025,0.0000
 0113,0.00000128,-0.00000164,-0.00000101,0.00000163,0.00000327,-0.00000
 102,0.00000035,-0.00000026,0.00000130,0.00000132,-0.00000296,0.0000041
 6,0.00000343,-0.00000452,0.00000739,-0.00000511,0.00001144,-0.00000520
 ,0.00000131,0.00000095,-0.00014885,0.00001269,-0.00005977,0.00004327,0
 .00000870,-0.00004183,0.00016188,-0.00011216,0.00053215,0.00008008,0.0
 0008014,-0.00000220,0.00167078,0.00047728,0.00053993,-0.00004806,0.000
 06476,-0.00022826,0.00540102,-0.02170903,-0.01490885,-0.03083223,0.135
 12006,0.14489808,0.00000105,0.00000099,-0.00000008,-0.00000104,-0.0000
 0101,-0.00000032,0.00000052,-0.00000007,0.00000009,-0.00000003,0.00000
 040,0.00000104,0.00000037,-0.00000050,0.00000002,-0.00000040,-0.000000
 28,0.00000072,0.00000154,0.00000004,-0.00000050,-0.00000137,-0.0000026
 9,0.00000300,0.00000380,-0.00000400,-0.00000303,0.00001351,-0.00000096
 ,0.00001787,0.00005578,0.00010101,-0.00007180,-0.00012949,0.00023246,-
 0.00001224,0.00180166,-0.00120146,0.00128136,-0.01044150,-0.02830767,0
 .01645724,-0.06692418,-0.06060694,0.03615431,-0.00000015,-0.00000013,0
 .00000003,0.00000019,0.00000009,-0.00000011,0.00000013,0.00000011,-0.0
 0000009,-0.00000017,-0.00000014,0.,0.00000029,0.00000026,-0.00000011,-
 0.00000024,-0.00000013,-0.00000004,-0.00000033,0.00000046,-0.00000045,
 -0.00000015,-0.00000035,0.00000012,0.00000073,0.00000088,-0.00000034,-
 0.00000013,-0.00000016,0.00000023,-0.00000065,0.00000129,-0.00000122,-
 0.00000026,-0.00000066,0.00000045,0.00000204,0.00000230,-0.00000064,-0
 .00000018,-0.00000022,0.00000023,-0.00000199,0.00000302,-0.00000324,-0
 .00000176,-0.00000291,0.00000269,0.00001109,0.00000633,0.00000043,-0.0
 0000273,-0.00000343,0.00000066,-0.00004658,0.00002355,-0.00006020,0.00
 000999,-0.00002914,0.00003844,0.00026541,0.00018831,-0.00014143,-0.000
 02757,0.00004558,-0.00010826,-0.00028462,0.00068525,-0.00081229,0.0014
 7284,0.00038141,-0.00017155,-0.00646858,0.00086323,0.00128954,0.005194
 98,0.01604898,-0.00802603,0.00059457,0.00454057,-0.00361130,0.07490364
 ,-0.00000067,-0.00000049,-0.00000355,0.00000070,0.00000061,0.00000461,
 -0.00000072,-0.00000010,-0.00000109,-0.00000010,0.00000027,-0.00000201
 ,-0.00000085,-0.00000086,0.00000116,-0.00000083,-0.00000030,-0.0000024
 7,-0.00000294,-0.00000169,0.00000471,-0.00000182,0.00000059,-0.0000085
 2,-0.00001177,-0.00000613,0.00001291,-0.00000846,0.00000470,-0.0000352
 2,-0.00008108,-0.00003163,0.00004534,-0.00000158,0.00031021,-0.0003231
 1,0.00020010,0.00024645,-0.00022554,0.00087767,0.00250777,-0.00148589,
 -0.06135491,-0.22768970,0.10853397,0.00000024,-0.00000018,0.00000028,-
 0.00000040,-0.00000020,0.00000012,0.00000018,0.00000021,0.00000012,-0.
 00000012,-0.00000005,0.00000011,0.00000037,0.00000025,-0.00000027,0.00
 000005,-0.00000028,0.00000046,-0.00000008,0.00000100,-0.00000045,0.000
 00012,-0.00000030,0.00000031,0.00000102,0.00000087,-0.00000033,-0.0000
 0024,-0.00000106,0.00000001,-0.00000016,0.00000233,-0.00000121,0.00000
 031,-0.00000042,0.00000054,0.00000230,0.00000164,-0.00000084,-0.000000
 44,-0.00000246,0.00000020,-0.00000036,0.00000607,-0.00000247,0.0000014
 5,-0.00000110,0.00000143,0.00000548,0.00000186,-0.00000200,-0.00000283
 ,-0.00000911,-0.00000132,-0.00000739,0.00002079,-0.00000246,0.00001902
 ,-0.00002284,-0.00000153,0.00017633,-0.00004425,0.00001417,-0.00005998
 ,-0.00009450,0.00009971,-0.00051536,0.00011837,-0.00031567,-0.00058065
 ,0.00070044,-0.00007136,0.00090548,0.00153547,-0.00017588,0.00023980,-
 0.00147146,0.00005077,-0.00683316,-0.02052303,0.01364553,0.06703631,0.
 24444223,0.00000339,0.00000014,0.00000292,-0.00000367,-0.00000003,-0.0
 0000445,0.00000177,0.00000010,0.00000117,-0.00000022,0.00000063,0.0000
 0363,0.00000212,0.00000043,-0.00000161,-0.00000025,-0.00000020,0.00000
 490,0.00000521,0.00000066,-0.00000652,-0.00000087,0.00000137,0.0000130
 2,0.00001234,0.00000081,-0.00001624,-0.00000450,0.00000976,0.00002880,
 0.00002976,-0.00002635,-0.00002506,-0.00011309,-0.00015941,0.00009289,
 -0.00065166,-0.00071881,0.00051122,0.00254158,0.00669104,-0.00498018,0
 .03649305,0.10838933,-0.11317616,-0.00000030,0.00000007,-0.00000040,0.
 00000079,0.00000037,-0.00000020,-0.00000011,-0.00000009,-0.00000030,0.
 00000029,-0.00000037,-0.00000021,-0.00000004,0.00000004,0.00000014,-0.
 00000067,-0.00000030,-0.00000070,-0.00000025,-0.00000035,0.00000041,0.
 00000044,-0.00000071,-0.00000086,-0.00000041,-0.00000003,-0.00000013,-
 0.00000050,-0.00000018,-0.00000031,-0.00000043,-0.00000081,0.00000127,
 0.00000105,-0.00000140,-0.00000177,-0.00000053,-0.00000032,-0.00000037
 ,-0.00000113,-0.00000052,-0.00000033,-0.00000126,-0.00000131,0.0000030
 0,0.00000392,-0.00000376,-0.00000479,0.00000172,-0.00000095,-0.0000032
 4,-0.00000575,-0.00000168,0.00000053,0.00000692,0.00000504,0.00001149,
 0.00004406,-0.00001313,-0.00004311,-0.00013017,0.00000957,-0.00005953,
 0.00005962,-0.00009699,-0.00000118,0.00011765,0.00005075,0.00050293,-0
 .00009856,0.00003453,-0.00024111,0.00165279,-0.00058837,0.00047622,0.0
 0838855,0.02227051,-0.01282273,-0.00612947,-0.01609581,0.01041560,-0.0
 4222318,-0.11975327,0.11932135\\0.00000035,0.00000776,0.00000119,0.000
 00428,-0.00000154,0.00000057,-0.00001150,0.00000033,0.00000425,-0.0000
 0015,0.00000017,-0.00000857,-0.00000017,0.00000157,0.00001315,0.000005
 21,-0.00000172,-0.00000408,-0.00000069,0.00000111,0.00000177,-0.000001
 27,-0.00000025,0.00000017,-0.00000041,0.00000096,-0.00000022,-0.000000
 33,-0.00000112,-0.00000035,0.00000087,0.00000055,0.00000024,-0.0000001
 6,-0.00000142,-0.00000148,-0.00000039,0.00000011,-0.00000142,0.0000056
 3,-0.00000228,-0.00000089,-0.00000269,-0.00000029,-0.00000055,0.000000
 44,-0.00000327,0.00000655,0.00000374,0.00000103,-0.00000454,-0.0000022
 4,0.00000047,0.00000210,-0.00000156,-0.00000089,0.00000285,-0.00000028
 ,0.00000063,-0.00000178,0.00000135,0.00000117,-0.00000158,-0.00000057,
 0.00000500,0.00000117,-0.00000128,0.00000028,0.00000097,0.00000013,-0.
 00000297,-0.00000022,0.00000019,0.00000097,-0.00000080,-0.00000051,0.0
 0000374,0.00000152,-0.00000053,-0.00000082,0.00000181,0.,-0.00000300,-
 0.00000119,0.00000038,0.00000070,-0.00000174,-0.00000020,0.00000298,0.
 00000165,-0.00000029,-0.00000112,0.00000156,0.00000042,-0.00000317,-0.
 00000185,0.00000041,0.00000040,-0.00000212,-0.00000025,0.00000262,0.00
 000108,-0.00000003,-0.00000140,0.00000108,0.00000063,-0.00000365,-0.00
 000236,0.00000070,-0.00000017,-0.00000223,0.00000002,0.00000236,0.0000
 0096,-0.00000095,-0.00000212,0.00000063,-0.00000050,-0.00000378,-0.000
 00239,0.00000120,-0.00000165,-0.00000238,0.00000070,0.00000059,-0.0000
 0275,0.00000034,0.00000115,0.00000021\\\@


 Fatherhood is pretending the present you love most is soap-on-a-rope.
 -- Bill Cosby
 Job cpu time:       0 days  8 hours  7 minutes 46.6 seconds.
 Elapsed time:       0 days  0 hours 20 minutes 23.4 seconds.
 File lengths (MBytes):  RWF=   1046 Int=      0 D2E=      0 Chk=     25 Scr=      1
 Normal termination of Gaussian 16 at Sun Oct 13 23:57:23 2019.
real 2200.56
user 52304.01
sys 57.08
Machine:
brown-a291
brown-a291
brown-a291
brown-a291
brown-a291
brown-a291
brown-a291
brown-a291
brown-a291
brown-a291
brown-a291
brown-a291
brown-a291
brown-a291
brown-a291
brown-a291
brown-a291
brown-a291
brown-a291
brown-a291
brown-a291
brown-a291
brown-a291
brown-a291
