 Entering Gaussian System, Link 0=/apps/cent7/gaussian/g16-A.03/g16-haswell/g16/g16
 Initial command:
 /apps/cent7/gaussian/g16-A.03/g16-haswell/g16/l1.exe "/scratch/brown/finej/gaussian/Gau-414356.inp" -scrdir="/scratch/brown/finej/gaussian/"
 Entering Link 1 = /apps/cent7/gaussian/g16-A.03/g16-haswell/g16/l1.exe PID=    414357.
  
 Copyright (c) 1988,1990,1992,1993,1995,1998,2003,2009,2016,
            Gaussian, Inc.  All Rights Reserved.
  
 This is part of the Gaussian(R) 16 program.  It is based on
 the Gaussian(R) 09 system (copyright 2009, Gaussian, Inc.),
 the Gaussian(R) 03 system (copyright 2003, Gaussian, Inc.),
 the Gaussian(R) 98 system (copyright 1998, Gaussian, Inc.),
 the Gaussian(R) 94 system (copyright 1995, Gaussian, Inc.),
 the Gaussian 92(TM) system (copyright 1992, Gaussian, Inc.),
 the Gaussian 90(TM) system (copyright 1990, Gaussian, Inc.),
 the Gaussian 88(TM) system (copyright 1988, Gaussian, Inc.),
 the Gaussian 86(TM) system (copyright 1986, Carnegie Mellon
 University), and the Gaussian 82(TM) system (copyright 1983,
 Carnegie Mellon University). Gaussian is a federally registered
 trademark of Gaussian, Inc.
  
 This software contains proprietary and confidential information,
 including trade secrets, belonging to Gaussian, Inc.
  
 This software is provided under written license and may be
 used, copied, transmitted, or stored only in accord with that
 written license.
  
 The following legend is applicable only to US Government
 contracts under FAR:
  
                    RESTRICTED RIGHTS LEGEND
  
 Use, reproduction and disclosure by the US Government is
 subject to restrictions as set forth in subparagraphs (a)
 and (c) of the Commercial Computer Software - Restricted
 Rights clause in FAR 52.227-19.
  
 Gaussian, Inc.
 340 Quinnipiac St., Bldg. 40, Wallingford CT 06492
  
  
 ---------------------------------------------------------------
 Warning -- This program may not be used in any manner that
 competes with the business of Gaussian, Inc. or will provide
 assistance to any competitor of Gaussian, Inc.  The licensee
 of this program is prohibited from giving any competitor of
 Gaussian, Inc. access to this program.  By using this program,
 the user acknowledges that Gaussian, Inc. is engaged in the
 business of creating and licensing software in the field of
 computational chemistry and represents and warrants to the
 licensee that it is not a competitor of Gaussian, Inc. and that
 it will not use this program in any manner prohibited above.
 ---------------------------------------------------------------
  

 Cite this work as:
 Gaussian 16, Revision A.03,
 M. J. Frisch, G. W. Trucks, H. B. Schlegel, G. E. Scuseria, 
 M. A. Robb, J. R. Cheeseman, G. Scalmani, V. Barone, 
 G. A. Petersson, H. Nakatsuji, X. Li, M. Caricato, A. V. Marenich, 
 J. Bloino, B. G. Janesko, R. Gomperts, B. Mennucci, H. P. Hratchian, 
 J. V. Ortiz, A. F. Izmaylov, J. L. Sonnenberg, D. Williams-Young, 
 F. Ding, F. Lipparini, F. Egidi, J. Goings, B. Peng, A. Petrone, 
 T. Henderson, D. Ranasinghe, V. G. Zakrzewski, J. Gao, N. Rega, 
 G. Zheng, W. Liang, M. Hada, M. Ehara, K. Toyota, R. Fukuda, 
 J. Hasegawa, M. Ishida, T. Nakajima, Y. Honda, O. Kitao, H. Nakai, 
 T. Vreven, K. Throssell, J. A. Montgomery, Jr., J. E. Peralta, 
 F. Ogliaro, M. J. Bearpark, J. J. Heyd, E. N. Brothers, K. N. Kudin, 
 V. N. Staroverov, T. A. Keith, R. Kobayashi, J. Normand, 
 K. Raghavachari, A. P. Rendell, J. C. Burant, S. S. Iyengar, 
 J. Tomasi, M. Cossi, J. M. Millam, M. Klene, C. Adamo, R. Cammi, 
 J. W. Ochterski, R. L. Martin, K. Morokuma, O. Farkas, 
 J. B. Foresman, and D. J. Fox, Gaussian, Inc., Wallingford CT, 2016.
 
 ******************************************
 Gaussian 16:  ES64L-G16RevA.03 25-Dec-2016
                13-Oct-2019 
 ******************************************
 %chk=36_p.chk
 %nprocshared=24
 Will use up to   24 processors via shared memory.
 %mem=80GB
 -------------------------------------------------------------------
 #P opt freq m062x/6-311++g(d,p) geom=connectivity temperature=0.001
 -------------------------------------------------------------------
 1/18=20,19=15,26=3,38=1,57=2,112=-1000/1,3;
 2/9=110,12=2,17=6,18=5,40=1/2;
 3/5=4,6=6,7=1111,11=2,25=1,30=1,71=1,74=-55/1,2,3;
 4//1;
 5/5=2,38=5/2;
 6/7=2,8=2,9=2,10=2,28=1/1;
 7//1,2,3,16;
 1/18=20,19=15,26=3/3(2);
 2/9=110/2;
 99//99;
 2/9=110/2;
 3/5=4,6=6,7=1111,11=2,25=1,30=1,71=1,74=-55/1,2,3;
 4/5=5,16=3,69=1/1;
 5/5=2,38=5/2;
 7//1,2,3,16;
 1/18=20,19=15,26=3/3(-5);
 2/9=110/2;
 6/7=2,8=2,9=2,10=2,19=2,28=1/1;
 99/9=1/99;
 Leave Link    1 at Sun Oct 13 23:22:02 2019, MaxMem= 10737418240 cpu:               1.7 elap:               0.1
 (Enter /apps/cent7/gaussian/g16-A.03/g16-haswell/g16/l101.exe)
 -------------------
 Title Card Required
 -------------------
 Symbolic Z-matrix:
 Charge =  1 Multiplicity = 1
 O                    -3.4512    3.7224   -10.3097 
 S                    -3.6228    5.1285   -9.5563 
 C                    -5.3523    5.1564   -8.9642 
 C                    -2.6134    5.0071   -8.0324 
 C                    -1.1071    4.9157   -8.3583 
 C                    -0.2241    4.8424   -7.0857 
 C                     1.2828    4.7484   -7.4373 
 C                     2.1913    4.6813   -6.1828 
 C                     3.6989    4.5903   -6.5437 
 C                     4.6062    4.5253   -5.2855 
 C                     6.1166    4.4342   -5.6359 
 C                     7.0299    4.3683   -4.3794 
 C                     8.5389    4.2771   -4.7426 
 C                     9.4638    4.2106   -3.4964 
 C                     10.9635   4.12     -3.8615 
 H                    -5.3633    5.1566   -7.8743 
 H                    -5.848     6.0546   -9.3327 
 H                    -5.8768    4.2748   -9.3327 
 H                    -2.6907    5.9398   -7.4736 
 H                    -2.8189    4.0574   -7.5386 
 H                    -0.9689    3.968    -8.8787 
 H                    -0.8492    5.852    -8.8533 
 H                    -0.358     5.7908   -6.5654 
 H                    -0.481     3.9071   -6.5885 
 H                     1.4127    3.7978   -7.9546 
 H                     1.5334    5.6818   -7.9413 
 H                     2.0606    5.631    -5.6641 
 H                     1.9431    3.7468   -5.6796 
 H                     3.8298    3.6399   -7.0611 
 H                     3.9467    5.5241   -7.0482 
 H                     4.4733    5.4758   -4.7687 
 H                     4.3566    3.5915   -4.7817 
 H                     6.248     3.484    -6.1537 
 H                     6.3649    5.3683   -6.1398 
 H                     6.9003    5.3184   -3.8611 
 H                     6.7832    3.4341   -3.8748 
 H                     8.6663    3.3272   -5.2617 
 H                     8.7834    5.2114   -5.2481 
 H                     9.3393    5.1604   -2.9763 
 H                     9.2222    3.2761   -2.99 
 H                     11.5581   4.0841   -2.9487 
 H                     11.1411   3.2177   -4.4466 
 H                     11.2484   4.9944   -4.4466 
 H                    -2.57325   3.38011  -10.4931 
 
 ITRead=  0  0  0  0  0  0  0  0  0  0  0  0  0  0  0  0  0  0  0  0
 ITRead=  0  0  0  0  0  0  0  0  0  0  0  0  0  0  0  0  0  0  0  0
 ITRead=  0  0  0  0
 MicOpt= -1 -1 -1 -1 -1 -1 -1 -1 -1 -1 -1 -1 -1 -1 -1 -1 -1 -1 -1 -1
 MicOpt= -1 -1 -1 -1 -1 -1 -1 -1 -1 -1 -1 -1 -1 -1 -1 -1 -1 -1 -1 -1
 MicOpt= -1 -1 -1 -1
 NAtoms=     44 NQM=       44 NQMF=       0 NMMI=      0 NMMIF=      0
                NMic=       0 NMicF=      0.
                    Isotopes and Nuclear Properties:
 (Nuclear quadrupole moments (NQMom) in fm**2, nuclear magnetic moments (NMagM)
  in nuclear magnetons)

  Atom         1           2           3           4           5           6           7           8           9          10
 IAtWgt=          16          32          12          12          12          12          12          12          12          12
 AtmWgt=  15.9949146  31.9720718  12.0000000  12.0000000  12.0000000  12.0000000  12.0000000  12.0000000  12.0000000  12.0000000
 NucSpn=           0           0           0           0           0           0           0           0           0           0
 AtZEff=  -0.0000000  -0.0000000  -0.0000000  -0.0000000  -0.0000000  -0.0000000  -0.0000000  -0.0000000  -0.0000000  -0.0000000
 NQMom=    0.0000000   0.0000000   0.0000000   0.0000000   0.0000000   0.0000000   0.0000000   0.0000000   0.0000000   0.0000000
 NMagM=    0.0000000   0.0000000   0.0000000   0.0000000   0.0000000   0.0000000   0.0000000   0.0000000   0.0000000   0.0000000
 AtZNuc=   8.0000000  16.0000000   6.0000000   6.0000000   6.0000000   6.0000000   6.0000000   6.0000000   6.0000000   6.0000000

  Atom        11          12          13          14          15          16          17          18          19          20
 IAtWgt=          12          12          12          12          12           1           1           1           1           1
 AtmWgt=  12.0000000  12.0000000  12.0000000  12.0000000  12.0000000   1.0078250   1.0078250   1.0078250   1.0078250   1.0078250
 NucSpn=           0           0           0           0           0           1           1           1           1           1
 AtZEff=  -0.0000000  -0.0000000  -0.0000000  -0.0000000  -0.0000000  -0.0000000  -0.0000000  -0.0000000  -0.0000000  -0.0000000
 NQMom=    0.0000000   0.0000000   0.0000000   0.0000000   0.0000000   0.0000000   0.0000000   0.0000000   0.0000000   0.0000000
 NMagM=    0.0000000   0.0000000   0.0000000   0.0000000   0.0000000   2.7928460   2.7928460   2.7928460   2.7928460   2.7928460
 AtZNuc=   6.0000000   6.0000000   6.0000000   6.0000000   6.0000000   1.0000000   1.0000000   1.0000000   1.0000000   1.0000000

  Atom        21          22          23          24          25          26          27          28          29          30
 IAtWgt=           1           1           1           1           1           1           1           1           1           1
 AtmWgt=   1.0078250   1.0078250   1.0078250   1.0078250   1.0078250   1.0078250   1.0078250   1.0078250   1.0078250   1.0078250
 NucSpn=           1           1           1           1           1           1           1           1           1           1
 AtZEff=  -0.0000000  -0.0000000  -0.0000000  -0.0000000  -0.0000000  -0.0000000  -0.0000000  -0.0000000  -0.0000000  -0.0000000
 NQMom=    0.0000000   0.0000000   0.0000000   0.0000000   0.0000000   0.0000000   0.0000000   0.0000000   0.0000000   0.0000000
 NMagM=    2.7928460   2.7928460   2.7928460   2.7928460   2.7928460   2.7928460   2.7928460   2.7928460   2.7928460   2.7928460
 AtZNuc=   1.0000000   1.0000000   1.0000000   1.0000000   1.0000000   1.0000000   1.0000000   1.0000000   1.0000000   1.0000000

  Atom        31          32          33          34          35          36          37          38          39          40
 IAtWgt=           1           1           1           1           1           1           1           1           1           1
 AtmWgt=   1.0078250   1.0078250   1.0078250   1.0078250   1.0078250   1.0078250   1.0078250   1.0078250   1.0078250   1.0078250
 NucSpn=           1           1           1           1           1           1           1           1           1           1
 AtZEff=  -0.0000000  -0.0000000  -0.0000000  -0.0000000  -0.0000000  -0.0000000  -0.0000000  -0.0000000  -0.0000000  -0.0000000
 NQMom=    0.0000000   0.0000000   0.0000000   0.0000000   0.0000000   0.0000000   0.0000000   0.0000000   0.0000000   0.0000000
 NMagM=    2.7928460   2.7928460   2.7928460   2.7928460   2.7928460   2.7928460   2.7928460   2.7928460   2.7928460   2.7928460
 AtZNuc=   1.0000000   1.0000000   1.0000000   1.0000000   1.0000000   1.0000000   1.0000000   1.0000000   1.0000000   1.0000000

  Atom        41          42          43          44
 IAtWgt=           1           1           1           1
 AtmWgt=   1.0078250   1.0078250   1.0078250   1.0078250
 NucSpn=           1           1           1           1
 AtZEff=  -0.0000000  -0.0000000  -0.0000000  -0.0000000
 NQMom=    0.0000000   0.0000000   0.0000000   0.0000000
 NMagM=    2.7928460   2.7928460   2.7928460   2.7928460
 AtZNuc=   1.0000000   1.0000000   1.0000000   1.0000000
 Leave Link  101 at Sun Oct 13 23:22:03 2019, MaxMem= 10737418240 cpu:              14.3 elap:               0.6
 (Enter /apps/cent7/gaussian/g16-A.03/g16-haswell/g16/l103.exe)

 GradGradGradGradGradGradGradGradGradGradGradGradGradGradGradGradGradGrad
 Berny optimization.
 Initialization pass.
                           ----------------------------
                           !    Initial Parameters    !
                           ! (Angstroms and Degrees)  !
 --------------------------                            --------------------------
 ! Name  Definition              Value          Derivative Info.                !
 --------------------------------------------------------------------------------
 ! R1    R(1,2)                  1.6044         estimate D2E/DX2                !
 ! R2    R(1,44)                 0.96           estimate D2E/DX2                !
 ! R3    R(2,3)                  1.8283         estimate D2E/DX2                !
 ! R4    R(2,4)                  1.8319         estimate D2E/DX2                !
 ! R5    R(3,16)                 1.09           estimate D2E/DX2                !
 ! R6    R(3,17)                 1.0901         estimate D2E/DX2                !
 ! R7    R(3,18)                 1.09           estimate D2E/DX2                !
 ! R8    R(4,5)                  1.5439         estimate D2E/DX2                !
 ! R9    R(4,19)                 1.09           estimate D2E/DX2                !
 ! R10   R(4,20)                 1.09           estimate D2E/DX2                !
 ! R11   R(5,6)                  1.5507         estimate D2E/DX2                !
 ! R12   R(5,21)                 1.09           estimate D2E/DX2                !
 ! R13   R(5,22)                 1.09           estimate D2E/DX2                !
 ! R14   R(6,7)                  1.5502         estimate D2E/DX2                !
 ! R15   R(6,23)                 1.09           estimate D2E/DX2                !
 ! R16   R(6,24)                 1.09           estimate D2E/DX2                !
 ! R17   R(7,8)                  1.5504         estimate D2E/DX2                !
 ! R18   R(7,25)                 1.09           estimate D2E/DX2                !
 ! R19   R(7,26)                 1.09           estimate D2E/DX2                !
 ! R20   R(8,9)                  1.5529         estimate D2E/DX2                !
 ! R21   R(8,27)                 1.09           estimate D2E/DX2                !
 ! R22   R(8,28)                 1.09           estimate D2E/DX2                !
 ! R23   R(9,10)                 1.5526         estimate D2E/DX2                !
 ! R24   R(9,29)                 1.09           estimate D2E/DX2                !
 ! R25   R(9,30)                 1.0899         estimate D2E/DX2                !
 ! R26   R(10,11)                1.5532         estimate D2E/DX2                !
 ! R27   R(10,31)                1.09           estimate D2E/DX2                !
 ! R28   R(10,32)                1.09           estimate D2E/DX2                !
 ! R29   R(11,12)                1.5548         estimate D2E/DX2                !
 ! R30   R(11,33)                1.0901         estimate D2E/DX2                !
 ! R31   R(11,34)                1.09           estimate D2E/DX2                !
 ! R32   R(12,13)                1.5548         estimate D2E/DX2                !
 ! R33   R(12,35)                1.09           estimate D2E/DX2                !
 ! R34   R(12,36)                1.0901         estimate D2E/DX2                !
 ! R35   R(13,14)                1.5533         estimate D2E/DX2                !
 ! R36   R(13,37)                1.09           estimate D2E/DX2                !
 ! R37   R(13,38)                1.0901         estimate D2E/DX2                !
 ! R38   R(14,15)                1.5462         estimate D2E/DX2                !
 ! R39   R(14,39)                1.09           estimate D2E/DX2                !
 ! R40   R(14,40)                1.09           estimate D2E/DX2                !
 ! R41   R(15,41)                1.09           estimate D2E/DX2                !
 ! R42   R(15,42)                1.09           estimate D2E/DX2                !
 ! R43   R(15,43)                1.09           estimate D2E/DX2                !
 ! A1    A(2,1,44)             120.0            estimate D2E/DX2                !
 ! A2    A(1,2,3)              105.4637         estimate D2E/DX2                !
 ! A3    A(1,2,4)              105.8794         estimate D2E/DX2                !
 ! A4    A(3,2,4)              104.6462         estimate D2E/DX2                !
 ! A5    A(2,3,16)             109.4749         estimate D2E/DX2                !
 ! A6    A(2,3,17)             109.4672         estimate D2E/DX2                !
 ! A7    A(2,3,18)             109.4733         estimate D2E/DX2                !
 ! A8    A(16,3,17)            109.4686         estimate D2E/DX2                !
 ! A9    A(16,3,18)            109.472          estimate D2E/DX2                !
 ! A10   A(17,3,18)            109.4713         estimate D2E/DX2                !
 ! A11   A(2,4,5)              111.4646         estimate D2E/DX2                !
 ! A12   A(2,4,19)             109.3096         estimate D2E/DX2                !
 ! A13   A(2,4,20)             109.313          estimate D2E/DX2                !
 ! A14   A(5,4,19)             103.1831         estimate D2E/DX2                !
 ! A15   A(5,4,20)             103.1796         estimate D2E/DX2                !
 ! A16   A(19,4,20)            119.9958         estimate D2E/DX2                !
 ! A17   A(4,5,6)              112.6522         estimate D2E/DX2                !
 ! A18   A(4,5,21)             106.0196         estimate D2E/DX2                !
 ! A19   A(4,5,22)             106.0125         estimate D2E/DX2                !
 ! A20   A(6,5,21)             106.1723         estimate D2E/DX2                !
 ! A21   A(6,5,22)             106.174          estimate D2E/DX2                !
 ! A22   A(21,5,22)            120.0017         estimate D2E/DX2                !
 ! A23   A(5,6,7)              111.731          estimate D2E/DX2                !
 ! A24   A(5,6,23)             106.2997         estimate D2E/DX2                !
 ! A25   A(5,6,24)             106.3029         estimate D2E/DX2                !
 ! A26   A(7,6,23)             106.286          estimate D2E/DX2                !
 ! A27   A(7,6,24)             106.2924         estimate D2E/DX2                !
 ! A28   A(23,6,24)            119.9957         estimate D2E/DX2                !
 ! A29   A(6,7,8)              112.8745         estimate D2E/DX2                !
 ! A30   A(6,7,25)             106.0432         estimate D2E/DX2                !
 ! A31   A(6,7,26)             106.0475         estimate D2E/DX2                !
 ! A32   A(8,7,25)             106.0476         estimate D2E/DX2                !
 ! A33   A(8,7,26)             106.0507         estimate D2E/DX2                !
 ! A34   A(25,7,26)            119.9987         estimate D2E/DX2                !
 ! A35   A(7,8,9)              112.5437         estimate D2E/DX2                !
 ! A36   A(7,8,27)             106.0865         estimate D2E/DX2                !
 ! A37   A(7,8,28)             106.0945         estimate D2E/DX2                !
 ! A38   A(9,8,27)             106.1452         estimate D2E/DX2                !
 ! A39   A(9,8,28)             106.148          estimate D2E/DX2                !
 ! A40   A(27,8,28)            120.0002         estimate D2E/DX2                !
 ! A41   A(8,9,10)             112.4242         estimate D2E/DX2                !
 ! A42   A(8,9,29)             106.1413         estimate D2E/DX2                !
 ! A43   A(8,9,30)             106.1469         estimate D2E/DX2                !
 ! A44   A(10,9,29)            106.1405         estimate D2E/DX2                !
 ! A45   A(10,9,30)            106.1482         estimate D2E/DX2                !
 ! A46   A(29,9,30)            120.0009         estimate D2E/DX2                !
 ! A47   A(9,10,11)            112.8249         estimate D2E/DX2                !
 ! A48   A(9,10,31)            106.0491         estimate D2E/DX2                !
 ! A49   A(9,10,32)            106.0583         estimate D2E/DX2                !
 ! A50   A(11,10,31)           106.0614         estimate D2E/DX2                !
 ! A51   A(11,10,32)           106.0638         estimate D2E/DX2                !
 ! A52   A(31,10,32)           119.9982         estimate D2E/DX2                !
 ! A53   A(10,11,12)           113.042          estimate D2E/DX2                !
 ! A54   A(10,11,33)           105.9925         estimate D2E/DX2                !
 ! A55   A(10,11,34)           105.9948         estimate D2E/DX2                !
 ! A56   A(12,11,33)           106.0296         estimate D2E/DX2                !
 ! A57   A(12,11,34)           106.0287         estimate D2E/DX2                !
 ! A58   A(33,11,34)           119.9968         estimate D2E/DX2                !
 ! A59   A(11,12,13)           112.571          estimate D2E/DX2                !
 ! A60   A(11,12,35)           106.1107         estimate D2E/DX2                !
 ! A61   A(11,12,36)           106.1106         estimate D2E/DX2                !
 ! A62   A(13,12,35)           106.1173         estimate D2E/DX2                !
 ! A63   A(13,12,36)           106.1125         estimate D2E/DX2                !
 ! A64   A(35,12,36)           119.9997         estimate D2E/DX2                !
 ! A65   A(12,13,14)           113.141          estimate D2E/DX2                !
 ! A66   A(12,13,37)           106.0109         estimate D2E/DX2                !
 ! A67   A(12,13,38)           106.0068         estimate D2E/DX2                !
 ! A68   A(14,13,37)           105.9728         estimate D2E/DX2                !
 ! A69   A(14,13,38)           105.9728         estimate D2E/DX2                !
 ! A70   A(37,13,38)           119.9933         estimate D2E/DX2                !
 ! A71   A(13,14,15)           112.9918         estimate D2E/DX2                !
 ! A72   A(13,14,39)           106.1105         estimate D2E/DX2                !
 ! A73   A(13,14,40)           106.1081         estimate D2E/DX2                !
 ! A74   A(15,14,39)           105.9333         estimate D2E/DX2                !
 ! A75   A(15,14,40)           105.9297         estimate D2E/DX2                !
 ! A76   A(39,14,40)           120.0041         estimate D2E/DX2                !
 ! A77   A(14,15,41)           109.4696         estimate D2E/DX2                !
 ! A78   A(14,15,42)           109.4698         estimate D2E/DX2                !
 ! A79   A(14,15,43)           109.4675         estimate D2E/DX2                !
 ! A80   A(41,15,42)           109.475          estimate D2E/DX2                !
 ! A81   A(41,15,43)           109.4737         estimate D2E/DX2                !
 ! A82   A(42,15,43)           109.4718         estimate D2E/DX2                !
 ! D1    D(44,1,2,3)          -163.2193         estimate D2E/DX2                !
 ! D2    D(44,1,2,4)           -52.6433         estimate D2E/DX2                !
 ! D3    D(1,2,3,16)           114.853          estimate D2E/DX2                !
 ! D4    D(1,2,3,17)          -125.1504         estimate D2E/DX2                !
 ! D5    D(1,2,3,18)            -5.1515         estimate D2E/DX2                !
 ! D6    D(4,2,3,16)             3.4009         estimate D2E/DX2                !
 ! D7    D(4,2,3,17)           123.3975         estimate D2E/DX2                !
 ! D8    D(4,2,3,18)          -116.6036         estimate D2E/DX2                !
 ! D9    D(1,2,4,5)             66.6011         estimate D2E/DX2                !
 ! D10   D(1,2,4,19)          -179.9808         estimate D2E/DX2                !
 ! D11   D(1,2,4,20)           -46.8147         estimate D2E/DX2                !
 ! D12   D(3,2,4,5)            177.7541         estimate D2E/DX2                !
 ! D13   D(3,2,4,19)           -68.8278         estimate D2E/DX2                !
 ! D14   D(3,2,4,20)            64.3383         estimate D2E/DX2                !
 ! D15   D(2,4,5,6)            178.7699         estimate D2E/DX2                !
 ! D16   D(2,4,5,21)           -65.5196         estimate D2E/DX2                !
 ! D17   D(2,4,5,22)            63.0616         estimate D2E/DX2                !
 ! D18   D(19,4,5,6)            61.574          estimate D2E/DX2                !
 ! D19   D(19,4,5,21)          177.2845         estimate D2E/DX2                !
 ! D20   D(19,4,5,22)          -54.1343         estimate D2E/DX2                !
 ! D21   D(20,4,5,6)           -64.0322         estimate D2E/DX2                !
 ! D22   D(20,4,5,21)           51.6783         estimate D2E/DX2                !
 ! D23   D(20,4,5,22)         -179.7405         estimate D2E/DX2                !
 ! D24   D(4,5,6,7)            179.8845         estimate D2E/DX2                !
 ! D25   D(4,5,6,23)           -64.5795         estimate D2E/DX2                !
 ! D26   D(4,5,6,24)            64.3391         estimate D2E/DX2                !
 ! D27   D(21,5,6,7)            64.2658         estimate D2E/DX2                !
 ! D28   D(21,5,6,23)          179.8017         estimate D2E/DX2                !
 ! D29   D(21,5,6,24)          -51.2797         estimate D2E/DX2                !
 ! D30   D(22,5,6,7)           -64.5041         estimate D2E/DX2                !
 ! D31   D(22,5,6,23)           51.0318         estimate D2E/DX2                !
 ! D32   D(22,5,6,24)          179.9504         estimate D2E/DX2                !
 ! D33   D(5,6,7,8)            179.6942         estimate D2E/DX2                !
 ! D34   D(5,6,7,25)           -64.6153         estimate D2E/DX2                !
 ! D35   D(5,6,7,26)            63.9973         estimate D2E/DX2                !
 ! D36   D(23,6,7,8)            64.1499         estimate D2E/DX2                !
 ! D37   D(23,6,7,25)          179.8404         estimate D2E/DX2                !
 ! D38   D(23,6,7,26)          -51.547          estimate D2E/DX2                !
 ! D39   D(24,6,7,8)           -64.7539         estimate D2E/DX2                !
 ! D40   D(24,6,7,25)           50.9366         estimate D2E/DX2                !
 ! D41   D(24,6,7,26)          179.5492         estimate D2E/DX2                !
 ! D42   D(6,7,8,9)           -179.8812         estimate D2E/DX2                !
 ! D43   D(6,7,8,27)           -64.2195         estimate D2E/DX2                !
 ! D44   D(6,7,8,28)            64.4489         estimate D2E/DX2                !
 ! D45   D(25,7,8,9)            64.4309         estimate D2E/DX2                !
 ! D46   D(25,7,8,27)         -179.9074         estimate D2E/DX2                !
 ! D47   D(25,7,8,28)          -51.239          estimate D2E/DX2                !
 ! D48   D(26,7,8,9)           -64.1863         estimate D2E/DX2                !
 ! D49   D(26,7,8,27)           51.4754         estimate D2E/DX2                !
 ! D50   D(26,7,8,28)         -179.8561         estimate D2E/DX2                !
 ! D51   D(7,8,9,10)           179.9181         estimate D2E/DX2                !
 ! D52   D(7,8,9,29)           -64.4551         estimate D2E/DX2                !
 ! D53   D(7,8,9,30)            64.2788         estimate D2E/DX2                !
 ! D54   D(27,8,9,10)           64.2918         estimate D2E/DX2                !
 ! D55   D(27,8,9,29)          179.9186         estimate D2E/DX2                !
 ! D56   D(27,8,9,30)          -51.3475         estimate D2E/DX2                !
 ! D57   D(28,8,9,10)          -64.4443         estimate D2E/DX2                !
 ! D58   D(28,8,9,29)           51.1826         estimate D2E/DX2                !
 ! D59   D(28,8,9,30)          179.9164         estimate D2E/DX2                !
 ! D60   D(8,9,10,11)         -179.9941         estimate D2E/DX2                !
 ! D61   D(8,9,10,31)          -64.3094         estimate D2E/DX2                !
 ! D62   D(8,9,10,32)           64.3126         estimate D2E/DX2                !
 ! D63   D(29,9,10,11)          64.3786         estimate D2E/DX2                !
 ! D64   D(29,9,10,31)        -179.9366         estimate D2E/DX2                !
 ! D65   D(29,9,10,32)         -51.3147         estimate D2E/DX2                !
 ! D66   D(30,9,10,11)         -64.3556         estimate D2E/DX2                !
 ! D67   D(30,9,10,31)          51.3292         estimate D2E/DX2                !
 ! D68   D(30,9,10,32)         179.9512         estimate D2E/DX2                !
 ! D69   D(9,10,11,12)        -179.9784         estimate D2E/DX2                !
 ! D70   D(9,10,11,33)         -64.2529         estimate D2E/DX2                !
 ! D71   D(9,10,11,34)          64.2958         estimate D2E/DX2                !
 ! D72   D(31,10,11,12)         64.3442         estimate D2E/DX2                !
 ! D73   D(31,10,11,33)       -179.9303         estimate D2E/DX2                !
 ! D74   D(31,10,11,34)        -51.3817         estimate D2E/DX2                !
 ! D75   D(32,10,11,12)        -64.2885         estimate D2E/DX2                !
 ! D76   D(32,10,11,33)         51.437          estimate D2E/DX2                !
 ! D77   D(32,10,11,34)        179.9857         estimate D2E/DX2                !
 ! D78   D(10,11,12,13)        179.9888         estimate D2E/DX2                !
 ! D79   D(10,11,12,35)        -64.3543         estimate D2E/DX2                !
 ! D80   D(10,11,12,36)         64.3378         estimate D2E/DX2                !
 ! D81   D(33,11,12,13)         64.2854         estimate D2E/DX2                !
 ! D82   D(33,11,12,35)        179.9423         estimate D2E/DX2                !
 ! D83   D(33,11,12,36)        -51.3656         estimate D2E/DX2                !
 ! D84   D(34,11,12,13)        -64.3055         estimate D2E/DX2                !
 ! D85   D(34,11,12,35)         51.3514         estimate D2E/DX2                !
 ! D86   D(34,11,12,36)       -179.9566         estimate D2E/DX2                !
 ! D87   D(11,12,13,14)        179.9981         estimate D2E/DX2                !
 ! D88   D(11,12,13,37)        -64.2819         estimate D2E/DX2                !
 ! D89   D(11,12,13,38)         64.2806         estimate D2E/DX2                !
 ! D90   D(35,12,13,14)         64.3452         estimate D2E/DX2                !
 ! D91   D(35,12,13,37)       -179.9348         estimate D2E/DX2                !
 ! D92   D(35,12,13,38)        -51.3723         estimate D2E/DX2                !
 ! D93   D(36,12,13,14)        -64.352          estimate D2E/DX2                !
 ! D94   D(36,12,13,37)         51.368          estimate D2E/DX2                !
 ! D95   D(36,12,13,38)        179.9305         estimate D2E/DX2                !
 ! D96   D(12,13,14,15)       -179.9997         estimate D2E/DX2                !
 ! D97   D(12,13,14,39)        -64.3447         estimate D2E/DX2                !
 ! D98   D(12,13,14,40)         64.3511         estimate D2E/DX2                !
 ! D99   D(37,13,14,15)         64.2576         estimate D2E/DX2                !
 ! D100  D(37,13,14,39)        179.9126         estimate D2E/DX2                !
 ! D101  D(37,13,14,40)        -51.3916         estimate D2E/DX2                !
 ! D102  D(38,13,14,15)        -64.262          estimate D2E/DX2                !
 ! D103  D(38,13,14,39)         51.393          estimate D2E/DX2                !
 ! D104  D(38,13,14,40)       -179.9112         estimate D2E/DX2                !
 ! D105  D(13,14,15,41)        179.5739         estimate D2E/DX2                !
 ! D106  D(13,14,15,42)        -60.4234         estimate D2E/DX2                !
 ! D107  D(13,14,15,43)         59.5742         estimate D2E/DX2                !
 ! D108  D(39,14,15,41)         63.8132         estimate D2E/DX2                !
 ! D109  D(39,14,15,42)       -176.1841         estimate D2E/DX2                !
 ! D110  D(39,14,15,43)        -56.1865         estimate D2E/DX2                !
 ! D111  D(40,14,15,41)        -64.6705         estimate D2E/DX2                !
 ! D112  D(40,14,15,42)         55.3323         estimate D2E/DX2                !
 ! D113  D(40,14,15,43)        175.3299         estimate D2E/DX2                !
 --------------------------------------------------------------------------------
 Trust Radius=3.00D-01 FncErr=1.00D-07 GrdErr=1.00D-06 EigMax=2.50D+02 EigMin=1.00D-04
 Number of steps in this run=    248 maximum allowed number of steps=    264.
 GradGradGradGradGradGradGradGradGradGradGradGradGradGradGradGradGradGrad

 Leave Link  103 at Sun Oct 13 23:22:03 2019, MaxMem= 10737418240 cpu:               0.4 elap:               0.0
 (Enter /apps/cent7/gaussian/g16-A.03/g16-haswell/g16/l202.exe)
                          Input orientation:                          
 ---------------------------------------------------------------------
 Center     Atomic      Atomic             Coordinates (Angstroms)
 Number     Number       Type             X           Y           Z
 ---------------------------------------------------------------------
      1          8           0       -3.451200    3.722400  -10.309700
      2         16           0       -3.622800    5.128500   -9.556300
      3          6           0       -5.352300    5.156400   -8.964200
      4          6           0       -2.613400    5.007100   -8.032400
      5          6           0       -1.107100    4.915700   -8.358300
      6          6           0       -0.224100    4.842400   -7.085700
      7          6           0        1.282800    4.748400   -7.437300
      8          6           0        2.191300    4.681300   -6.182800
      9          6           0        3.698900    4.590300   -6.543700
     10          6           0        4.606200    4.525300   -5.285500
     11          6           0        6.116600    4.434200   -5.635900
     12          6           0        7.029900    4.368300   -4.379400
     13          6           0        8.538900    4.277100   -4.742600
     14          6           0        9.463800    4.210600   -3.496400
     15          6           0       10.963500    4.120000   -3.861500
     16          1           0       -5.363300    5.156600   -7.874300
     17          1           0       -5.848000    6.054600   -9.332700
     18          1           0       -5.876800    4.274800   -9.332700
     19          1           0       -2.690700    5.939800   -7.473600
     20          1           0       -2.818900    4.057400   -7.538600
     21          1           0       -0.968900    3.968000   -8.878700
     22          1           0       -0.849200    5.852000   -8.853300
     23          1           0       -0.358000    5.790800   -6.565400
     24          1           0       -0.481000    3.907100   -6.588500
     25          1           0        1.412700    3.797800   -7.954600
     26          1           0        1.533400    5.681800   -7.941300
     27          1           0        2.060600    5.631000   -5.664100
     28          1           0        1.943100    3.746800   -5.679600
     29          1           0        3.829800    3.639900   -7.061100
     30          1           0        3.946700    5.524100   -7.048200
     31          1           0        4.473300    5.475800   -4.768700
     32          1           0        4.356600    3.591500   -4.781700
     33          1           0        6.248000    3.484000   -6.153700
     34          1           0        6.364900    5.368300   -6.139800
     35          1           0        6.900300    5.318400   -3.861100
     36          1           0        6.783200    3.434100   -3.874800
     37          1           0        8.666300    3.327200   -5.261700
     38          1           0        8.783400    5.211400   -5.248100
     39          1           0        9.339300    5.160400   -2.976300
     40          1           0        9.222200    3.276100   -2.990000
     41          1           0       11.558100    4.084100   -2.948700
     42          1           0       11.141100    3.217700   -4.446600
     43          1           0       11.248400    4.994400   -4.446600
     44          1           0       -2.573246    3.380111  -10.493101
 ---------------------------------------------------------------------
                    Distance matrix (angstroms):
                    1          2          3          4          5
     1  O    0.000000
     2  S    1.604424   0.000000
     3  C    2.735125   1.828259   0.000000
     4  C    2.745625   1.831911   2.896915   0.000000
     5  C    3.275169   2.794501   4.294971   1.543860   0.000000
     6  C    4.697100   4.211517   5.470447   2.575291   1.550668
     7  C    5.631529   5.357196   6.820736   3.949866   2.566681
     8  C    7.056104   6.736783   8.054055   5.158712   3.958180
     9  C    8.127726   7.935535   9.386347   6.498852   5.147455
    10  C    9.529372   9.290857  10.634982   7.739523   6.498947
    11  C   10.672107  10.521763  11.963897   9.071071   7.734672
    12  C   12.059814  11.868370  13.227259  10.331782   9.074253
    13  C   13.231130  13.107385  14.545120  11.650300  10.321163
    14  C   14.610155  14.450745  15.821131  12.925497  11.656722
    15  C   15.796232  15.691015  17.126500  14.230796  12.905570
    16  H    3.412364   2.420590   1.089956   2.758495   4.290399
    17  H    3.484011   2.420573   1.090080   3.640147   4.972191
    18  H    2.672678   2.420603   1.090005   3.588429   4.910219
    19  H    3.679495   2.421705   3.149558   1.090028   2.083090
    20  H    2.861996   2.421699   3.107773   1.089954   2.082990
    21  H    2.875742   2.974742   4.542444   2.121399   1.089977
    22  H    3.664246   2.951359   4.557858   2.121352   1.090044
    23  H    5.278821   4.476946   5.576714   2.802339   2.131066
    24  H    4.764822   4.491165   5.561858   2.800353   2.131072
    25  H    5.404600   5.449079   6.973544   4.204514   2.786048
    26  H    5.856177   5.431461   6.981063   4.202317   2.780834
    27  H    7.456829   6.906719   8.128160   5.276777   4.219561
    28  H    7.108931   6.922221   8.123942   5.280693   4.224391
    29  H    7.973278   7.998950   9.499080   6.657889   5.261499
    30  H    8.283262   7.984009   9.501456   6.653634   5.256178
    31  H    9.827247   9.412150  10.688623   7.816184   6.658814
    32  H    9.567532   9.424967  10.686672   7.819966   6.663152
    33  H   10.554793  10.569520  12.052501   9.185519   7.810731
    34  H   10.791333  10.558604  12.054664   9.182716   7.807520
    35  H   12.299805  11.966913  13.273812  10.392648   9.192683
    36  H   12.092725  11.976446  13.271724  10.395002   9.195311
    37  H   13.132871  13.141927  14.614227  11.735863  10.374566
    38  H   13.323751  13.133212  14.616102  11.733760  10.372212
    39  H   14.813625  14.536625  15.864995  12.979009  11.753854
    40  H   14.642140  14.544473  15.863248  12.980893  11.755908
    41  H   16.721072  16.589481  17.980481  15.084010  13.797196
    42  H   15.734226  15.739534  17.210448  14.326416  12.969310
    43  H   15.876781  15.725127  17.205179  14.318087  12.960169
    44  H    0.960000   2.244108   3.635365   2.950213   3.010813
                    6          7          8          9         10
     6  C    0.000000
     7  C    1.550228   0.000000
     8  C    2.583668   1.550369   0.000000
     9  C    3.968280   2.580902   1.552864   0.000000
    10  C    5.164598   3.965477   2.580935   1.552574   0.000000
    11  C    6.517133   5.168112   3.970911   2.587227   1.553186
    12  C    7.756890   6.521073   5.173226   3.978573   2.592294
    13  C    9.088446   7.754645   6.521471   5.173747   3.977747
    14  C   10.350732   9.096630   7.767082   6.531790   5.186154
    15  C   11.665321  10.339109   9.091479   7.758208   6.527427
    16  H    5.208838   6.672948   7.756227   9.176855  10.319465
    17  H    6.176301   7.493131   8.742892  10.053158  11.314101
    18  H    6.109353   7.421368   8.670718   9.978582  11.239923
    19  H    2.727429   4.148428   5.204220   6.596427   7.748119
    20  H    2.748514   4.160731   5.227767   6.614796   7.773513
    21  H    2.129355   2.785105   4.214681   5.256219   6.656081
    22  H    2.129425   2.787187   4.212689   5.254651   6.652121
    23  H    1.090002   2.130500   2.806475   4.230852   5.280428
    24  H    1.089950   2.130549   2.811613   4.235603   5.287682
    25  H    2.127273   1.090006   2.127455   2.800965   4.225138
    26  H    2.127311   1.089978   2.127476   2.798937   4.222898
    27  H    2.804049   2.127955   1.089983   2.130910   2.801069
    28  H    2.806103   2.128076   1.090002   2.130961   2.802406
    29  H    4.228560   2.803125   2.130870   1.089999   2.130607
    30  H    4.226310   2.801691   2.130882   1.089912   2.130646
    31  H    5.275912   4.222538   2.799720   2.129420   1.090044
    32  H    5.277876   4.223609   2.799870   2.129510   1.089999
    33  H    6.678469   5.282002   4.229798   2.806049   2.129221
    34  H    6.677291   5.281621   4.229983   2.806417   2.129202
    35  H    7.834647   6.683593   5.288749   4.239745   2.814395
    36  H    7.835524   6.683801   5.288470   4.239426   2.814271
    37  H    9.201197   7.827459   6.678895   5.283371   4.233252
    38  H    9.200434   7.827258   6.679106   5.283605   4.233336
    39  H   10.413785   9.218322   7.848891   6.698169   5.304526
    40  H   10.414444   9.218472   7.848701   6.697966   5.304458
    41  H   12.510397  11.232569   9.927386   8.657210   7.347394
    42  H   11.780164  10.415057   9.233387   7.852910   6.717030
    43  H   11.773114  10.407593   9.227323   7.845768   6.711381
    44  H    4.389437   5.106783   6.555356   7.510136   8.942875
                   11         12         13         14         15
    11  C    0.000000
    12  C    1.554751   0.000000
    13  C    2.586543   1.554771   0.000000
    14  C    3.978845   2.593921   1.553344   0.000000
    15  C    5.171040   3.975309   2.584512   1.546159   0.000000
    16  H   11.718379  12.900665  14.277683  15.488829  16.844628
    17  H   12.627101  13.900327  15.205638  16.489814  17.784916
    18  H   12.551230  13.824863  15.128828  16.413425  17.707447
    19  H    9.122089  10.321519  11.675909  12.905043  14.240650
    20  H    9.143599  10.347757  11.698953  12.931650  14.264625
    21  H    7.806241   9.186117  10.373096  11.741773  12.945176
    22  H    7.802832   9.181360  10.368924  11.736632  12.940548
    23  H    6.680178   7.834741   9.206993  10.410742  11.759210
    24  H    6.686823   7.842605   9.214274  10.418841  11.766836
    25  H    5.282807   6.682848   7.831309   9.212283  10.395916
    26  H    5.279877   6.680114   7.828275   9.209387  10.392823
    27  H    4.228979   5.285717   6.682109   7.843713   9.208372
    28  H    4.229956   5.286995   6.683095   7.844897   9.209364
    29  H    2.809192   4.238245   5.287446   6.691393   7.833110
    30  H    2.809082   4.238454   5.287637   6.691708   7.833392
    31  H    2.130118   2.813239   4.238710   5.303260   6.692078
    32  H    2.130118   2.812792   4.238303   5.302714   6.691577
    33  H    1.090075   2.131078   2.805073   4.234449   5.281535
    34  H    1.090005   2.131017   2.805203   4.234503   5.281669
    35  H    2.132114   1.090010   2.132219   2.816338   4.236243
    36  H    2.132142   1.090051   2.132184   2.816337   4.236218
    37  H    2.804718   2.130762   1.089957   2.129011   2.804678
    38  H    2.804684   2.130779   1.090058   2.129084   2.804755
    39  H    4.241065   2.815926   2.130886   1.090011   2.122272
    40  H    4.241077   2.815939   2.130846   1.090001   2.122217
    41  H    6.078942   4.757338   3.517228   2.168426   1.089973
    42  H    5.304706   4.269703   2.825135   2.168425   1.089967
    43  H    5.297512   4.265238   2.818426   2.168414   1.089993
    44  H   10.010841  11.426910  12.544028  13.947545  15.092020
                   16         17         18         19         20
    16  H    0.000000
    17  H    1.779963   0.000000
    18  H    1.779939   1.780033   0.000000
    19  H    2.813673   3.665784   4.047186   0.000000
    20  H    2.791936   4.047598   3.552015   1.887880   0.000000
    21  H    4.661796   5.325940   4.938393   2.971009   2.286123
    22  H    4.671094   5.025821   5.290949   2.302695   2.971320
    23  H    5.212337   6.153669   6.357150   2.507692   3.163514
    24  H    5.201095   6.398990   6.064692   3.130183   2.528054
    25  H    6.911365   7.727229   7.433942   4.653753   4.259916
    26  H    6.916993   7.520641   7.669857   4.257737   4.662977
    27  H    7.760434   8.728346   8.848741   5.093574   5.458891
    28  H    7.758075   8.909114   8.647240   5.431371   5.121425
    29  H    9.352794  10.229895   9.989061   6.926515   6.678886
    30  H    9.353801  10.071570  10.162718   6.663997   6.940104
    31  H   10.320142  11.300192  11.375283   7.671680   7.928454
    32  H   10.319407  11.441692  11.220560   7.900967   7.700997
    33  H   11.856658  12.768212  12.559545   9.363410   9.189963
    34  H   11.857655  12.642015  12.698408   9.171125   9.381753
    35  H   12.904567  13.892428  13.938500  10.267598  10.467902
    36  H   12.903506  14.007245  13.811989  10.439573  10.296225
    37  H   14.387566  15.319160  15.131845  11.861687  11.731466
    38  H   14.388504  15.214230  15.247381  11.710610  11.882402
    39  H   15.496995  16.488102  16.514170  12.866782  13.032767
    40  H   15.496112  16.584958  16.407530  13.004428  12.895281
    41  H   17.656318  18.644319  18.567918  15.064748  15.091919
    42  H   16.967725  17.903952  17.736977  14.418434  14.322959
    43  H   16.962429  17.812493  17.823139  14.295280  14.433550
    44  H    4.218819   4.384453   3.613927   3.960201   3.041076
                   21         22         23         24         25
    21  H    0.000000
    22  H    1.887970   0.000000
    23  H    3.007849   2.340835   0.000000
    24  H    2.342386   3.007911   1.887853   0.000000
    25  H    2.560263   3.184900   3.006211   2.337579   0.000000
    26  H    3.174482   2.556853   2.341447   3.006233   1.887909
    27  H    4.719861   4.322820   2.586021   3.207191   3.004461
    28  H    4.331618   4.722412   3.202755   2.593850   2.336568
    29  H    5.141871   5.477080   4.733895   4.344852   2.581791
    30  H    5.471316   5.134838   4.339892   4.736089   3.197316
    31  H    6.984490   6.719709   5.164186   5.506140   4.725771
    32  H    6.729644   6.984851   5.499633   5.173635   4.333175
    33  H    7.729394   7.953962   7.009284   6.756294   5.169317
    34  H    7.952800   7.722712   6.749595   7.014470   5.503113
    35  H    9.429963   9.233718   7.760111   7.994627   7.013039
    36  H    9.242246   9.427897   7.986871   7.768944   6.754207
    37  H   10.311663  10.479454   9.444943   9.261198   7.751638
    38  H   10.480203  10.305087   9.253982   9.451295   7.978134
    39  H   11.938138  11.782316  10.359376  10.538360   9.458918
    40  H   11.790421  11.935101  10.530310  10.368194   9.268641
    41  H   13.860163  13.853912  12.569279  12.578529  11.316808
    42  H   12.917374  13.043229  11.972446  11.837914  10.357816
    43  H   13.036849  12.903736  11.825062  11.972835  10.510895
    44  H    2.350709   3.430965   5.113274   4.461067   4.744072
                   26         27         28         29         30
    26  H    0.000000
    27  H    2.337982   0.000000
    28  H    3.004558   1.887924   0.000000
    29  H    3.196492   3.007683   2.340856   0.000000
    30  H    2.578083   2.341908   3.007702   1.887867   0.000000
    31  H    4.330224   2.578168   3.197044   3.006613   2.340034
    32  H    4.724710   3.195279   2.579792   2.339984   3.006656
    33  H    5.500299   4.731135   4.338894   2.587541   3.202830
    34  H    5.165954   4.338468   4.732162   3.203575   2.587886
    35  H    6.751571   5.174092   5.509147   4.741870   4.350135
    36  H    7.010633   5.507351   5.175099   4.349418   4.741761
    37  H    7.975128   7.007474   6.749231   5.169850   5.503869
    38  H    7.748361   6.748715   7.008634   5.504065   5.170281
    39  H    9.265806   7.773365   8.000617   7.025105   6.767036
    40  H    9.456237   7.999055   7.774368   6.766401   7.025197
    41  H   11.312529   9.998440  10.000991   8.765601   8.764297
    42  H   10.516302   9.474271   9.295345   7.776180   7.990444
    43  H   10.347303   9.289953   9.469182   7.981598   7.769410
    44  H    5.354811   7.061040   6.610721   7.269465   7.679436
                   31         32         33         34         35
    31  H    0.000000
    32  H    1.887955   0.000000
    33  H    3.005836   2.339088   0.000000
    34  H    2.338722   3.005782   1.887974   0.000000
    35  H    2.595928   3.209377   3.007746   2.341285   0.000000
    36  H    3.209865   2.595309   2.341434   3.007712   1.887985
    37  H    4.737170   4.344395   2.582329   3.198998   3.007543
    38  H    4.344732   4.736894   3.198793   2.582419   2.341214
    39  H    5.195203   5.527044   4.739443   4.347184   2.599338
    40  H    5.527613   5.194587   4.347193   4.739484   3.212635
    41  H    7.446047   7.447425   6.231317   6.229094   4.904189
    42  H    7.047150   6.803048   5.189175   5.504915   4.768662
    43  H    6.799814   7.041117   5.495407   5.182210   4.399291
    44  H    9.317430   8.982625   9.831357  10.138767  11.725548
                   36         37         38         39         40
    36  H    0.000000
    37  H    2.341150   0.000000
    38  H    3.007582   1.887884   0.000000
    39  H    3.212641   3.006095   2.339380   0.000000
    40  H    2.599338   2.339286   3.006152   1.887985   0.000000
    41  H    4.907120   3.779600   3.775845   2.466223   2.472043
    42  H    4.400577   2.607875   3.189983   3.030239   2.409828
    43  H    4.764399   3.179809   2.601099   2.415368   3.029806
    44  H   11.460712  12.397490  12.642669  14.197904  13.979982
                   41         42         43         44
    41  H    0.000000
    42  H    1.779956   0.000000
    43  H    1.779962   1.779937   0.000000
    44  H   16.034604  14.988991  15.172476   0.000000
 Stoichiometry    C13H29OS(1+)
 Framework group  C1[X(C13H29OS)]
 Deg. of freedom   126
 Full point group                 C1      NOp   1
 Largest Abelian subgroup         C1      NOp   1
 Largest concise Abelian subgroup C1      NOp   1
                         Standard orientation:                         
 ---------------------------------------------------------------------
 Center     Atomic      Atomic             Coordinates (Angstroms)
 Number     Number       Type             X           Y           Z
 ---------------------------------------------------------------------
      1          8           0        6.383783    1.550983    0.548658
      2         16           0        6.325330    0.260055   -0.402270
      3          6           0        7.714498   -0.801915    0.131552
      4          6           0        4.821281   -0.660451    0.094120
      5          6           0        3.538612    0.132086   -0.237768
      6          6           0        2.246584   -0.635868    0.143657
      7          6           0        0.972717    0.179754   -0.195796
      8          6           0       -0.336059   -0.567408    0.168207
      9          6           0       -1.607023    0.255045   -0.177640
     10          6           0       -2.915959   -0.496527    0.186108
     11          6           0       -4.193396    0.317954   -0.156184
     12          6           0       -5.507315   -0.429893    0.206572
     13          6           0       -6.778740    0.395039   -0.140241
     14          6           0       -8.099663   -0.340143    0.216895
     15          6           0       -9.361726    0.483197   -0.129393
     16          1           0        7.323146   -1.729539    0.549115
     17          1           0        8.348802   -1.028443   -0.725546
     18          1           0        8.299882   -0.280908    0.889172
     19          1           0        4.726829   -1.555245   -0.521173
     20          1           0        4.789807   -0.740483    1.180675
     21          1           0        3.561721    1.020000    0.393995
     22          1           0        3.521297    0.235438   -1.322763
     23          1           0        2.219548   -1.522632   -0.489606
     24          1           0        2.262203   -0.741194    1.228394
     25          1           0        1.002269    1.063643    0.441371
     26          1           0        0.965373    0.289657   -1.280194
     27          1           0       -0.365422   -1.452354   -0.467458
     28          1           0       -0.330697   -0.675404    1.252833
     29          1           0       -1.578355    1.139250    0.459116
     30          1           0       -1.611565    0.364314   -1.262051
     31          1           0       -2.942545   -1.380900   -0.450581
     32          1           0       -2.909487   -0.605773    1.270598
     33          1           0       -4.165036    1.202572    0.480141
     34          1           0       -4.198610    0.426745   -1.240734
     35          1           0       -5.537535   -1.314321   -0.429819
     36          1           0       -5.503849   -0.538728    1.291171
     37          1           0       -6.746174    1.279364    0.496088
     38          1           0       -6.779828    0.503898   -1.224849
     39          1           0       -8.135295   -1.224354   -0.419521
     40          1           0       -8.101609   -0.448761    1.301469
     41          1           0      -10.251764   -0.087005    0.136582
     42          1           0       -9.349437    1.419151    0.429058
     43          1           0       -9.373549    0.697812   -1.197984
     44          1           0        5.621472    2.130234    0.619022
 ---------------------------------------------------------------------
 Rotational constants (GHZ):           3.4318100           0.0700482           0.0693674
 Leave Link  202 at Sun Oct 13 23:22:03 2019, MaxMem= 10737418240 cpu:               0.4 elap:               0.0
 (Enter /apps/cent7/gaussian/g16-A.03/g16-haswell/g16/l301.exe)
 Standard basis: 6-311++G(d,p) (5D, 7F)
 Ernie: Thresh=  0.10000D-02 Tol=  0.10000D-05 Strict=F.
 There are   556 symmetry adapted cartesian basis functions of A   symmetry.
 There are   541 symmetry adapted basis functions of A   symmetry.
   541 basis functions,   815 primitive gaussians,   556 cartesian basis functions
    65 alpha electrons       65 beta electrons
       nuclear repulsion energy      1037.1161878381 Hartrees.
 IExCor= 4336 DFT=T Ex+Corr=M062X ExCW=0 ScaHFX=  0.540000
 ScaDFX=  1.000000  1.000000  1.000000  1.000000 ScalE2=  1.000000  1.000000
 IRadAn=      5 IRanWt=     -1 IRanGd=            0 ICorTp=0 IEmpDi=  4
 NAtoms=   44 NActive=   44 NUniq=   44 SFac= 1.00D+00 NAtFMM=   60 NAOKFM=F Big=F
 Integral buffers will be    131072 words long.
 Raffenetti 2 integral format.
 Two-electron integral symmetry is turned on.
 Leave Link  301 at Sun Oct 13 23:22:03 2019, MaxMem= 10737418240 cpu:               1.3 elap:               0.1
 (Enter /apps/cent7/gaussian/g16-A.03/g16-haswell/g16/l302.exe)
 NPDir=0 NMtPBC=     1 NCelOv=     1 NCel=       1 NClECP=     1 NCelD=      1
         NCelK=      1 NCelE2=     1 NClLst=     1 CellRange=     0.0.
 One-electron integrals computed using PRISM.
 One-electron integral symmetry used in STVInt
 NBasis=   541 RedAO= T EigKep=  3.37D-06  NBF=   541
 NBsUse=   540 1.00D-06 EigRej=  8.62D-07 NBFU=   540
 Precomputing XC quadrature grid using
 IXCGrd= 4 IRadAn=           5 IRanWt=          -1 IRanGd=           0 AccXCQ= 0.00D+00.
 Generated NRdTot=       0 NPtTot=           0 NUsed=           0 NTot=          32
 NSgBfM=   513   513   513   513   513 MxSgAt=    44 MxSgA2=    44.
 Leave Link  302 at Sun Oct 13 23:22:04 2019, MaxMem= 10737418240 cpu:              11.7 elap:               0.5
 (Enter /apps/cent7/gaussian/g16-A.03/g16-haswell/g16/l303.exe)
 DipDrv:  MaxL=1.
 Leave Link  303 at Sun Oct 13 23:22:04 2019, MaxMem= 10737418240 cpu:               1.9 elap:               0.1
 (Enter /apps/cent7/gaussian/g16-A.03/g16-haswell/g16/l401.exe)
 ExpMin= 3.60D-02 ExpMax= 9.34D+04 ExpMxC= 3.17D+03 IAcc=3 IRadAn=         5 AccDes= 0.00D+00
 Harris functional with IExCor= 1009 and IRadAn=       5 diagonalized for initial guess.
 HarFok:  IExCor= 1009 AccDes= 0.00D+00 IRadAn=         5 IDoV= 1 UseB2=F ITyADJ=14
 ICtDFT=  3500011 ScaDFX=  1.000000  1.000000  1.000000  1.000000
 FoFCou: FMM=F IPFlag=           0 FMFlag=      100000 FMFlg1=           0
         NFxFlg=           0 DoJE=T BraDBF=F KetDBF=T FulRan=T
         wScrn=  0.000000 ICntrl=       500 IOpCl=  0 I1Cent=   200000004 NGrid=           0
         NMat0=    1 NMatS0=      1 NMatT0=    0 NMatD0=    1 NMtDS0=    0 NMtDT0=    0
 Petite list used in FoFCou.
 Harris En= -985.602155083845    
 JPrj=0 DoOrth=F DoCkMO=F.
 Leave Link  401 at Sun Oct 13 23:22:05 2019, MaxMem= 10737418240 cpu:              31.1 elap:               1.3
 (Enter /apps/cent7/gaussian/g16-A.03/g16-haswell/g16/l502.exe)
 Integral symmetry usage will be decided dynamically.
 Closed shell SCF:
 Using DIIS extrapolation, IDIIS=  1040.
 NGot= 10737418240 LenX= 10736780969 LenY= 10736471277
 Requested convergence on RMS density matrix=1.00D-08 within 128 cycles.
 Requested convergence on MAX density matrix=1.00D-06.
 Requested convergence on             energy=1.00D-06.
 No special actions if energy rises.
 Fock matrices will be formed incrementally for  20 cycles.

 Cycle   1  Pass 1  IDiag  1:
 FoFJK:  IHMeth= 1 ICntrl=       0 DoSepK=F KAlg= 0 I1Cent=           0 FoldK=F
 IRaf= 740000000 NMat=       1 IRICut=       1 DoRegI=T DoRafI=F ISym2E= 0 IDoP0=0 IntGTp=1.
 FoFCou: FMM=F IPFlag=           0 FMFlag=      100000 FMFlg1=           0
         NFxFlg=           0 DoJE=F BraDBF=F KetDBF=F FulRan=T
         wScrn=  0.000000 ICntrl=         0 IOpCl=  0 I1Cent=           0 NGrid=           0
         NMat0=    1 NMatS0=      1 NMatT0=    0 NMatD0=    1 NMtDS0=    0 NMtDT0=    0
 Symmetry not used in FoFCou.
 E= -985.104866642817    
 DIIS: error= 3.91D-02 at cycle   1 NSaved=   1.
 NSaved= 1 IEnMin= 1 EnMin= -985.104866642817     IErMin= 1 ErrMin= 3.91D-02
 ErrMax= 3.91D-02  0.00D+00 EMaxC= 1.00D-01 BMatC= 7.81D-01 BMatP= 7.81D-01
 IDIUse=3 WtCom= 6.09D-01 WtEn= 3.91D-01
 Coeff-Com:  0.100D+01
 Coeff-En:   0.100D+01
 Coeff:      0.100D+01
 Gap=     0.367 Goal=   None    Shift=    0.000
 GapD=    0.367 DampG=1.000 DampE=0.500 DampFc=0.5000 IDamp=-1.
 Damping current iteration by 5.00D-01
 RMSDP=3.69D-02 MaxDP=7.03D+00              OVMax= 9.73D-01

 Cycle   2  Pass 1  IDiag  1:
 RMSU=  1.84D-02    CP:  1.11D+00
 E= -985.057036095948     Delta-E=        0.047830546869 Rises=F Damp=T
 DIIS: error= 7.96D-03 at cycle   2 NSaved=   2.
 NSaved= 2 IEnMin= 1 EnMin= -985.104866642817     IErMin= 2 ErrMin= 7.96D-03
 ErrMax= 7.96D-03  0.00D+00 EMaxC= 1.00D-01 BMatC= 9.53D-02 BMatP= 7.81D-01
 IDIUse=3 WtCom= 9.20D-01 WtEn= 7.96D-02
 Coeff-Com:  0.112D+00 0.888D+00
 Coeff-En:   0.534D+00 0.466D+00
 Coeff:      0.145D+00 0.855D+00
 Gap=    -0.465 Goal=   None    Shift=    0.000
 RMSDP=1.76D-02 MaxDP=3.07D+00 DE= 4.78D-02 OVMax= 5.48D-01

 Cycle   3  Pass 1  IDiag  1:
 RMSU=  7.27D-03    CP:  8.37D-01  1.55D-01
 E= -985.627100976797     Delta-E=       -0.570064880849 Rises=F Damp=F
 DIIS: error= 1.41D-02 at cycle   3 NSaved=   3.
 NSaved= 3 IEnMin= 3 EnMin= -985.627100976797     IErMin= 2 ErrMin= 7.96D-03
 ErrMax= 1.41D-02  0.00D+00 EMaxC= 1.00D-01 BMatC= 1.37D-01 BMatP= 9.53D-02
 IDIUse=2 WtCom= 0.00D+00 WtEn= 1.00D+00
 Coeff-En:   0.000D+00 0.000D+00 0.100D+01
 Coeff:      0.000D+00 0.000D+00 0.100D+01
 Gap=     0.658 Goal=   None    Shift=    0.000
 RMSDP=1.84D-02 MaxDP=2.83D+00 DE=-5.70D-01 OVMax= 9.93D-01

 Cycle   4  Pass 1  IDiag  1:
 RMSU=  7.86D-03    CP:  9.30D-01  9.88D-01  1.38D-01
 E= -983.972345100713     Delta-E=        1.654755876084 Rises=F Damp=F
 DIIS: error= 3.41D-02 at cycle   4 NSaved=   4.
 NSaved= 4 IEnMin= 3 EnMin= -985.627100976797     IErMin= 2 ErrMin= 7.96D-03
 ErrMax= 3.41D-02  0.00D+00 EMaxC= 1.00D-01 BMatC= 8.82D-01 BMatP= 9.53D-02
 IDIUse=2 WtCom= 0.00D+00 WtEn= 1.00D+00
 Coeff-En:   0.000D+00 0.000D+00 0.924D+00 0.758D-01
 Coeff:      0.000D+00 0.000D+00 0.924D+00 0.758D-01
 Gap=     0.017 Goal=   None    Shift=    0.000
 RMSDP=1.73D-02 MaxDP=2.82D+00 DE= 1.65D+00 OVMax= 9.92D-01

 Cycle   5  Pass 1  IDiag  1:
 RMSU=  3.97D-03    CP:  7.71D-01  1.57D-01  5.83D-01  2.62D-01
 E= -985.742210345540     Delta-E=       -1.769865244827 Rises=F Damp=F
 DIIS: error= 1.11D-02 at cycle   5 NSaved=   5.
 NSaved= 5 IEnMin= 5 EnMin= -985.742210345540     IErMin= 2 ErrMin= 7.96D-03
 ErrMax= 1.11D-02  0.00D+00 EMaxC= 1.00D-01 BMatC= 5.10D-02 BMatP= 9.53D-02
 IDIUse=3 WtCom= 8.89D-01 WtEn= 1.11D-01
 Coeff-Com: -0.127D-01 0.136D+00 0.383D+00 0.358D-02 0.490D+00
 Coeff-En:   0.000D+00 0.000D+00 0.119D+00 0.000D+00 0.881D+00
 Coeff:     -0.113D-01 0.121D+00 0.354D+00 0.318D-02 0.533D+00
 Gap=     0.251 Goal=   None    Shift=    0.000
 RMSDP=2.01D-03 MaxDP=1.95D-01 DE=-1.77D+00 OVMax= 3.62D-02

 Cycle   6  Pass 1  IDiag  1:
 RMSU=  8.45D-04    CP:  7.88D-01  1.64D-01  7.33D-01  1.62D-01  7.00D-01
 E= -985.780369260757     Delta-E=       -0.038158915217 Rises=F Damp=F
 DIIS: error= 2.47D-03 at cycle   6 NSaved=   6.
 NSaved= 6 IEnMin= 6 EnMin= -985.780369260757     IErMin= 6 ErrMin= 2.47D-03
 ErrMax= 2.47D-03  0.00D+00 EMaxC= 1.00D-01 BMatC= 2.78D-03 BMatP= 5.10D-02
 IDIUse=3 WtCom= 9.75D-01 WtEn= 2.47D-02
 Coeff-Com: -0.111D-01 0.242D-01 0.285D-01 0.413D-02 0.168D+00 0.787D+00
 Coeff-En:   0.000D+00 0.000D+00 0.000D+00 0.000D+00 0.000D+00 0.100D+01
 Coeff:     -0.108D-01 0.236D-01 0.278D-01 0.403D-02 0.163D+00 0.792D+00
 Gap=     0.224 Goal=   None    Shift=    0.000
 RMSDP=5.53D-04 MaxDP=6.21D-02 DE=-3.82D-02 OVMax= 1.02D-02

 Cycle   7  Pass 1  IDiag  1:
 RMSU=  2.90D-04    CP:  7.80D-01  1.60D-01  6.92D-01  1.83D-01  7.70D-01
                    CP:  1.09D+00
 E= -985.783080705743     Delta-E=       -0.002711444986 Rises=F Damp=F
 DIIS: error= 7.50D-04 at cycle   7 NSaved=   7.
 NSaved= 7 IEnMin= 7 EnMin= -985.783080705743     IErMin= 7 ErrMin= 7.50D-04
 ErrMax= 7.50D-04  0.00D+00 EMaxC= 1.00D-01 BMatC= 2.95D-04 BMatP= 2.78D-03
 IDIUse=3 WtCom= 9.92D-01 WtEn= 7.50D-03
 Coeff-Com: -0.662D-02 0.788D-02-0.493D-01 0.150D-02-0.134D-01 0.373D+00
 Coeff-Com:  0.687D+00
 Coeff-En:   0.000D+00 0.000D+00 0.000D+00 0.000D+00 0.000D+00 0.000D+00
 Coeff-En:   0.100D+01
 Coeff:     -0.657D-02 0.782D-02-0.489D-01 0.149D-02-0.133D-01 0.370D+00
 Coeff:      0.690D+00
 Gap=     0.224 Goal=   None    Shift=    0.000
 RMSDP=1.30D-04 MaxDP=1.94D-02 DE=-2.71D-03 OVMax= 2.72D-03

 Cycle   8  Pass 1  IDiag  1:
 RMSU=  8.10D-05    CP:  7.84D-01  1.63D-01  6.96D-01  1.80D-01  7.74D-01
                    CP:  1.15D+00  9.05D-01
 E= -985.783370325086     Delta-E=       -0.000289619343 Rises=F Damp=F
 DIIS: error= 1.51D-04 at cycle   8 NSaved=   8.
 NSaved= 8 IEnMin= 8 EnMin= -985.783370325086     IErMin= 8 ErrMin= 1.51D-04
 ErrMax= 1.51D-04  0.00D+00 EMaxC= 1.00D-01 BMatC= 1.81D-05 BMatP= 2.95D-04
 IDIUse=3 WtCom= 9.98D-01 WtEn= 1.51D-03
 Coeff-Com: -0.115D-02 0.218D-02-0.141D-01 0.345D-03-0.111D-01 0.973D-02
 Coeff-Com:  0.117D+00 0.897D+00
 Coeff-En:   0.000D+00 0.000D+00 0.000D+00 0.000D+00 0.000D+00 0.000D+00
 Coeff-En:   0.000D+00 0.100D+01
 Coeff:     -0.115D-02 0.218D-02-0.141D-01 0.345D-03-0.111D-01 0.971D-02
 Coeff:      0.116D+00 0.898D+00
 Gap=     0.222 Goal=   None    Shift=    0.000
 RMSDP=3.92D-05 MaxDP=3.20D-03 DE=-2.90D-04 OVMax= 1.31D-03

 Cycle   9  Pass 1  IDiag  1:
 RMSU=  2.42D-05    CP:  7.84D-01  1.63D-01  6.94D-01  1.81D-01  7.79D-01
                    CP:  1.15D+00  9.44D-01  1.08D+00
 E= -985.783392832103     Delta-E=       -0.000022507017 Rises=F Damp=F
 DIIS: error= 6.23D-05 at cycle   9 NSaved=   9.
 NSaved= 9 IEnMin= 9 EnMin= -985.783392832103     IErMin= 9 ErrMin= 6.23D-05
 ErrMax= 6.23D-05  0.00D+00 EMaxC= 1.00D-01 BMatC= 2.90D-06 BMatP= 1.81D-05
 IDIUse=1 WtCom= 1.00D+00 WtEn= 0.00D+00
 Coeff-Com:  0.231D-03 0.110D-03-0.206D-02 0.135D-03-0.403D-02-0.400D-01
 Coeff-Com: -0.261D-01 0.383D+00 0.689D+00
 Coeff:      0.231D-03 0.110D-03-0.206D-02 0.135D-03-0.403D-02-0.400D-01
 Coeff:     -0.261D-01 0.383D+00 0.689D+00
 Gap=     0.222 Goal=   None    Shift=    0.000
 RMSDP=1.21D-05 MaxDP=1.20D-03 DE=-2.25D-05 OVMax= 4.18D-04

 Cycle  10  Pass 1  IDiag  1:
 RMSU=  7.14D-06    CP:  7.84D-01  1.63D-01  6.94D-01  1.81D-01  7.79D-01
                    CP:  1.16D+00  9.63D-01  1.15D+00  9.28D-01
 E= -985.783396311402     Delta-E=       -0.000003479299 Rises=F Damp=F
 DIIS: error= 9.52D-06 at cycle  10 NSaved=  10.
 NSaved=10 IEnMin=10 EnMin= -985.783396311402     IErMin=10 ErrMin= 9.52D-06
 ErrMax= 9.52D-06  0.00D+00 EMaxC= 1.00D-01 BMatC= 7.44D-08 BMatP= 2.90D-06
 IDIUse=1 WtCom= 1.00D+00 WtEn= 0.00D+00
 Coeff-Com:  0.167D-03-0.250D-03 0.545D-03 0.583D-04 0.223D-03-0.787D-02
 Coeff-Com: -0.107D-01-0.681D-02 0.114D+00 0.911D+00
 Coeff:      0.167D-03-0.250D-03 0.545D-03 0.583D-04 0.223D-03-0.787D-02
 Coeff:     -0.107D-01-0.681D-02 0.114D+00 0.911D+00
 Gap=     0.222 Goal=   None    Shift=    0.000
 RMSDP=4.09D-06 MaxDP=3.83D-04 DE=-3.48D-06 OVMax= 1.45D-04

 Cycle  11  Pass 1  IDiag  1:
 RMSU=  2.53D-06    CP:  7.84D-01  1.63D-01  6.94D-01  1.81D-01  7.80D-01
                    CP:  1.16D+00  9.70D-01  1.16D+00  9.47D-01  1.17D+00
 E= -985.783396409110     Delta-E=       -0.000000097708 Rises=F Damp=F
 DIIS: error= 3.13D-06 at cycle  11 NSaved=  11.
 NSaved=11 IEnMin=11 EnMin= -985.783396409110     IErMin=11 ErrMin= 3.13D-06
 ErrMax= 3.13D-06  0.00D+00 EMaxC= 1.00D-01 BMatC= 1.13D-08 BMatP= 7.44D-08
 IDIUse=1 WtCom= 1.00D+00 WtEn= 0.00D+00
 Coeff-Com:  0.609D-04-0.102D-03 0.396D-03 0.130D-04 0.299D-03-0.112D-02
 Coeff-Com: -0.282D-02-0.212D-01 0.758D-02 0.348D+00 0.669D+00
 Coeff:      0.609D-04-0.102D-03 0.396D-03 0.130D-04 0.299D-03-0.112D-02
 Coeff:     -0.282D-02-0.212D-01 0.758D-02 0.348D+00 0.669D+00
 Gap=     0.222 Goal=   None    Shift=    0.000
 RMSDP=1.18D-06 MaxDP=1.55D-04 DE=-9.77D-08 OVMax= 2.74D-05

 Cycle  12  Pass 1  IDiag  1:
 RMSU=  6.75D-07    CP:  7.84D-01  1.63D-01  6.94D-01  1.81D-01  7.80D-01
                    CP:  1.16D+00  9.70D-01  1.16D+00  9.59D-01  1.22D+00
                    CP:  9.20D-01
 E= -985.783396421421     Delta-E=       -0.000000012311 Rises=F Damp=F
 DIIS: error= 1.27D-06 at cycle  12 NSaved=  12.
 NSaved=12 IEnMin=12 EnMin= -985.783396421421     IErMin=12 ErrMin= 1.27D-06
 ErrMax= 1.27D-06  0.00D+00 EMaxC= 1.00D-01 BMatC= 1.31D-09 BMatP= 1.13D-08
 IDIUse=1 WtCom= 1.00D+00 WtEn= 0.00D+00
 Coeff-Com:  0.212D-05-0.129D-04 0.836D-04-0.162D-05 0.639D-04 0.773D-03
 Coeff-Com:  0.663D-03-0.618D-02-0.124D-01-0.666D-02 0.181D+00 0.843D+00
 Coeff:      0.212D-05-0.129D-04 0.836D-04-0.162D-05 0.639D-04 0.773D-03
 Coeff:      0.663D-03-0.618D-02-0.124D-01-0.666D-02 0.181D+00 0.843D+00
 Gap=     0.222 Goal=   None    Shift=    0.000
 RMSDP=5.80D-07 MaxDP=4.32D-05 DE=-1.23D-08 OVMax= 1.79D-05

 Cycle  13  Pass 1  IDiag  1:
 RMSU=  2.29D-07    CP:  7.84D-01  1.63D-01  6.94D-01  1.81D-01  7.79D-01
                    CP:  1.16D+00  9.70D-01  1.16D+00  9.62D-01  1.24D+00
                    CP:  9.88D-01  1.27D+00
 E= -985.783396423281     Delta-E=       -0.000000001860 Rises=F Damp=F
 DIIS: error= 3.00D-07 at cycle  13 NSaved=  13.
 NSaved=13 IEnMin=13 EnMin= -985.783396423281     IErMin=13 ErrMin= 3.00D-07
 ErrMax= 3.00D-07  0.00D+00 EMaxC= 1.00D-01 BMatC= 8.61D-11 BMatP= 1.31D-09
 IDIUse=1 WtCom= 1.00D+00 WtEn= 0.00D+00
 Coeff-Com: -0.344D-05 0.369D-05-0.996D-05-0.118D-05-0.117D-04 0.229D-03
 Coeff-Com:  0.396D-03 0.692D-03-0.281D-02-0.339D-01-0.414D-01 0.165D+00
 Coeff-Com:  0.912D+00
 Coeff:     -0.344D-05 0.369D-05-0.996D-05-0.118D-05-0.117D-04 0.229D-03
 Coeff:      0.396D-03 0.692D-03-0.281D-02-0.339D-01-0.414D-01 0.165D+00
 Coeff:      0.912D+00
 Gap=     0.222 Goal=   None    Shift=    0.000
 RMSDP=1.75D-07 MaxDP=1.29D-05 DE=-1.86D-09 OVMax= 7.95D-06

 Cycle  14  Pass 1  IDiag  1:
 RMSU=  6.75D-08    CP:  7.84D-01  1.63D-01  6.94D-01  1.81D-01  7.79D-01
                    CP:  1.16D+00  9.70D-01  1.16D+00  9.62D-01  1.25D+00
                    CP:  1.02D+00  1.38D+00  1.07D+00
 E= -985.783396423460     Delta-E=       -0.000000000179 Rises=F Damp=F
 DIIS: error= 8.48D-08 at cycle  14 NSaved=  14.
 NSaved=14 IEnMin=14 EnMin= -985.783396423460     IErMin=14 ErrMin= 8.48D-08
 ErrMax= 8.48D-08  0.00D+00 EMaxC= 1.00D-01 BMatC= 7.37D-12 BMatP= 8.61D-11
 IDIUse=1 WtCom= 1.00D+00 WtEn= 0.00D+00
 Coeff-Com: -0.441D-06 0.107D-05-0.999D-05-0.700D-07-0.722D-05-0.374D-04
 Coeff-Com:  0.234D-04 0.559D-03 0.592D-03-0.376D-02-0.227D-01-0.545D-01
 Coeff-Com:  0.158D+00 0.922D+00
 Coeff:     -0.441D-06 0.107D-05-0.999D-05-0.700D-07-0.722D-05-0.374D-04
 Coeff:      0.234D-04 0.559D-03 0.592D-03-0.376D-02-0.227D-01-0.545D-01
 Coeff:      0.158D+00 0.922D+00
 Gap=     0.222 Goal=   None    Shift=    0.000
 RMSDP=3.78D-08 MaxDP=2.42D-06 DE=-1.79D-10 OVMax= 2.59D-06

 Cycle  15  Pass 1  IDiag  1:
 RMSU=  2.23D-08    CP:  7.84D-01  1.63D-01  6.94D-01  1.81D-01  7.79D-01
                    CP:  1.16D+00  9.70D-01  1.16D+00  9.62D-01  1.25D+00
                    CP:  1.02D+00  1.39D+00  1.15D+00  1.20D+00
 E= -985.783396423492     Delta-E=       -0.000000000032 Rises=F Damp=F
 DIIS: error= 4.19D-08 at cycle  15 NSaved=  15.
 NSaved=15 IEnMin=15 EnMin= -985.783396423492     IErMin=15 ErrMin= 4.19D-08
 ErrMax= 4.19D-08  0.00D+00 EMaxC= 1.00D-01 BMatC= 1.51D-12 BMatP= 7.37D-12
 IDIUse=1 WtCom= 1.00D+00 WtEn= 0.00D+00
 Coeff-Com:  0.166D-06-0.117D-06-0.366D-05 0.120D-06-0.151D-05-0.360D-04
 Coeff-Com: -0.273D-04 0.854D-04 0.507D-03 0.254D-02-0.422D-02-0.420D-01
 Coeff-Com: -0.428D-01 0.352D+00 0.734D+00
 Coeff:      0.166D-06-0.117D-06-0.366D-05 0.120D-06-0.151D-05-0.360D-04
 Coeff:     -0.273D-04 0.854D-04 0.507D-03 0.254D-02-0.422D-02-0.420D-01
 Coeff:     -0.428D-01 0.352D+00 0.734D+00
 Gap=     0.222 Goal=   None    Shift=    0.000
 RMSDP=1.43D-08 MaxDP=1.12D-06 DE=-3.18D-11 OVMax= 7.22D-07

 Cycle  16  Pass 1  IDiag  1:
 RMSU=  8.30D-09    CP:  7.84D-01  1.63D-01  6.94D-01  1.81D-01  7.79D-01
                    CP:  1.16D+00  9.70D-01  1.16D+00  9.62D-01  1.25D+00
                    CP:  1.02D+00  1.39D+00  1.17D+00  1.28D+00  1.19D+00
 E= -985.783396423482     Delta-E=        0.000000000009 Rises=F Damp=F
 DIIS: error= 8.19D-09 at cycle  16 NSaved=  16.
 NSaved=16 IEnMin=15 EnMin= -985.783396423492     IErMin=16 ErrMin= 8.19D-09
 ErrMax= 8.19D-09  0.00D+00 EMaxC= 1.00D-01 BMatC= 8.93D-14 BMatP= 1.51D-12
 IDIUse=1 WtCom= 1.00D+00 WtEn= 0.00D+00
 Coeff-Com:  0.175D-07 0.193D-07 0.157D-06 0.325D-07 0.216D-06-0.414D-05
 Coeff-Com: -0.846D-05-0.281D-04 0.851D-04 0.773D-03 0.129D-02-0.178D-02
 Coeff-Com: -0.231D-01-0.392D-01 0.156D+00 0.906D+00
 Coeff:      0.175D-07 0.193D-07 0.157D-06 0.325D-07 0.216D-06-0.414D-05
 Coeff:     -0.846D-05-0.281D-04 0.851D-04 0.773D-03 0.129D-02-0.178D-02
 Coeff:     -0.231D-01-0.392D-01 0.156D+00 0.906D+00
 Gap=     0.222 Goal=   None    Shift=    0.000
 RMSDP=6.64D-09 MaxDP=6.15D-07 DE= 9.09D-12 OVMax= 2.13D-07

 SCF Done:  E(RM062X) =  -985.783396423     A.U. after   16 cycles
            NFock= 16  Conv=0.66D-08     -V/T= 2.0032
 KE= 9.826201122124D+02 PE=-4.367701965537D+03 EE= 1.362182269063D+03
 Leave Link  502 at Sun Oct 13 23:23:35 2019, MaxMem= 10737418240 cpu:            2148.3 elap:              89.8
 (Enter /apps/cent7/gaussian/g16-A.03/g16-haswell/g16/l601.exe)
 Copying SCF densities to generalized density rwf, IOpCl= 0 IROHF=0.

 **********************************************************************

            Population analysis using the SCF density.

 **********************************************************************

 Orbital symmetries:
       Occupied  (A) (A) (A) (A) (A) (A) (A) (A) (A) (A) (A) (A)
                 (A) (A) (A) (A) (A) (A) (A) (A) (A) (A) (A) (A)
                 (A) (A) (A) (A) (A) (A) (A) (A) (A) (A) (A) (A)
                 (A) (A) (A) (A) (A) (A) (A) (A) (A) (A) (A) (A)
                 (A) (A) (A) (A) (A) (A) (A) (A) (A) (A) (A) (A)
                 (A) (A) (A) (A) (A)
       Virtual   (A) (A) (A) (A) (A) (A) (A) (A) (A) (A) (A) (A)
                 (A) (A) (A) (A) (A) (A) (A) (A) (A) (A) (A) (A)
                 (A) (A) (A) (A) (A) (A) (A) (A) (A) (A) (A) (A)
                 (A) (A) (A) (A) (A) (A) (A) (A) (A) (A) (A) (A)
                 (A) (A) (A) (A) (A) (A) (A) (A) (A) (A) (A) (A)
                 (A) (A) (A) (A) (A) (A) (A) (A) (A) (A) (A) (A)
                 (A) (A) (A) (A) (A) (A) (A) (A) (A) (A) (A) (A)
                 (A) (A) (A) (A) (A) (A) (A) (A) (A) (A) (A) (A)
                 (A) (A) (A) (A) (A) (A) (A) (A) (A) (A) (A) (A)
                 (A) (A) (A) (A) (A) (A) (A) (A) (A) (A) (A) (A)
                 (A) (A) (A) (A) (A) (A) (A) (A) (A) (A) (A) (A)
                 (A) (A) (A) (A) (A) (A) (A) (A) (A) (A) (A) (A)
                 (A) (A) (A) (A) (A) (A) (A) (A) (A) (A) (A) (A)
                 (A) (A) (A) (A) (A) (A) (A) (A) (A) (A) (A) (A)
                 (A) (A) (A) (A) (A) (A) (A) (A) (A) (A) (A) (A)
                 (A) (A) (A) (A) (A) (A) (A) (A) (A) (A) (A) (A)
                 (A) (A) (A) (A) (A) (A) (A) (A) (A) (A) (A) (A)
                 (A) (A) (A) (A) (A) (A) (A) (A) (A) (A) (A) (A)
                 (A) (A) (A) (A) (A) (A) (A) (A) (A) (A) (A) (A)
                 (A) (A) (A) (A) (A) (A) (A) (A) (A) (A) (A) (A)
                 (A) (A) (A) (A) (A) (A) (A) (A) (A) (A) (A) (A)
                 (A) (A) (A) (A) (A) (A) (A) (A) (A) (A) (A) (A)
                 (A) (A) (A) (A) (A) (A) (A) (A) (A) (A) (A) (A)
                 (A) (A) (A) (A) (A) (A) (A) (A) (A) (A) (A) (A)
                 (A) (A) (A) (A) (A) (A) (A) (A) (A) (A) (A) (A)
                 (A) (A) (A) (A) (A) (A) (A) (A) (A) (A) (A) (A)
                 (A) (A) (A) (A) (A) (A) (A) (A) (A) (A) (A) (A)
                 (A) (A) (A) (A) (A) (A) (A) (A) (A) (A) (A) (A)
                 (A) (A) (A) (A) (A) (A) (A) (A) (A) (A) (A) (A)
                 (A) (A) (A) (A) (A) (A) (A) (A) (A) (A) (A) (A)
                 (A) (A) (A) (A) (A) (A) (A) (A) (A) (A) (A) (A)
                 (A) (A) (A) (A) (A) (A) (A) (A) (A) (A) (A) (A)
                 (A) (A) (A) (A) (A) (A) (A) (A) (A) (A) (A) (A)
                 (A) (A) (A) (A) (A) (A) (A) (A) (A) (A) (A) (A)
                 (A) (A) (A) (A) (A) (A) (A) (A) (A) (A) (A) (A)
                 (A) (A) (A) (A) (A) (A) (A) (A) (A) (A) (A) (A)
                 (A) (A) (A) (A) (A) (A) (A) (A) (A) (A) (A) (A)
                 (A) (A) (A) (A) (A) (A) (A) (A) (A) (A) (A) (A)
                 (A) (A) (A) (A) (A) (A) (A) (A) (A) (A) (A) (A)
                 (A) (A) (A) (A) (A) (A) (A)
 The electronic state is 1-A.
 Alpha  occ. eigenvalues --  -90.21830 -19.86960 -10.76536 -10.76111 -10.70372
 Alpha  occ. eigenvalues --  -10.66899 -10.64137 -10.62156 -10.60725 -10.59580
 Alpha  occ. eigenvalues --  -10.58726 -10.58048 -10.57470 -10.57191 -10.56026
 Alpha  occ. eigenvalues --   -8.57632  -6.49801  -6.49490  -6.49137  -1.40365
 Alpha  occ. eigenvalues --   -1.12711  -1.05846  -1.00262  -0.97154  -0.95356
 Alpha  occ. eigenvalues --   -0.93619  -0.90991  -0.87641  -0.83922  -0.81057
 Alpha  occ. eigenvalues --   -0.80067  -0.76480  -0.75457  -0.73288  -0.72529
 Alpha  occ. eigenvalues --   -0.71665  -0.70631  -0.69031  -0.68298  -0.67660
 Alpha  occ. eigenvalues --   -0.66734  -0.64615  -0.63740  -0.62114  -0.61055
 Alpha  occ. eigenvalues --   -0.59927  -0.57607  -0.57452  -0.54895  -0.54706
 Alpha  occ. eigenvalues --   -0.53743  -0.52957  -0.52278  -0.51740  -0.50556
 Alpha  occ. eigenvalues --   -0.49839  -0.47726  -0.47683  -0.46512  -0.45827
 Alpha  occ. eigenvalues --   -0.45006  -0.44242  -0.42473  -0.40667  -0.40320
 Alpha virt. eigenvalues --   -0.18127  -0.13716  -0.13107  -0.11406  -0.10865
 Alpha virt. eigenvalues --   -0.10281  -0.09764  -0.07985  -0.07576  -0.07189
 Alpha virt. eigenvalues --   -0.06891  -0.06424  -0.05488  -0.05093  -0.04709
 Alpha virt. eigenvalues --   -0.03998  -0.03737  -0.03296  -0.03215  -0.02887
 Alpha virt. eigenvalues --   -0.02756  -0.02124  -0.01757  -0.01471  -0.01266
 Alpha virt. eigenvalues --   -0.01040  -0.00868  -0.00383   0.00037   0.00393
 Alpha virt. eigenvalues --    0.00797   0.01014   0.01202   0.01373   0.01672
 Alpha virt. eigenvalues --    0.02280   0.02433   0.02559   0.03034   0.03119
 Alpha virt. eigenvalues --    0.03450   0.03805   0.04087   0.04257   0.04806
 Alpha virt. eigenvalues --    0.05126   0.05390   0.05451   0.05717   0.05985
 Alpha virt. eigenvalues --    0.06130   0.06693   0.06966   0.07162   0.07488
 Alpha virt. eigenvalues --    0.07899   0.08215   0.08461   0.08677   0.08696
 Alpha virt. eigenvalues --    0.09242   0.09446   0.09615   0.09821   0.10086
 Alpha virt. eigenvalues --    0.10302   0.10469   0.10729   0.10906   0.11145
 Alpha virt. eigenvalues --    0.11324   0.11569   0.11835   0.12240   0.12912
 Alpha virt. eigenvalues --    0.13128   0.13250   0.13525   0.13728   0.13760
 Alpha virt. eigenvalues --    0.14384   0.14800   0.15284   0.15406   0.15603
 Alpha virt. eigenvalues --    0.15839   0.15999   0.16448   0.16776   0.17443
 Alpha virt. eigenvalues --    0.17607   0.17993   0.18185   0.18289   0.18471
 Alpha virt. eigenvalues --    0.18961   0.19300   0.19664   0.19788   0.20067
 Alpha virt. eigenvalues --    0.20539   0.20922   0.21170   0.21364   0.21651
 Alpha virt. eigenvalues --    0.22054   0.22311   0.22634   0.22937   0.23396
 Alpha virt. eigenvalues --    0.23650   0.23768   0.23926   0.24720   0.25000
 Alpha virt. eigenvalues --    0.25767   0.26161   0.26524   0.26800   0.27265
 Alpha virt. eigenvalues --    0.27515   0.28112   0.28436   0.28868   0.29197
 Alpha virt. eigenvalues --    0.29863   0.31081   0.31228   0.32394   0.33057
 Alpha virt. eigenvalues --    0.33661   0.33976   0.34358   0.35223   0.35882
 Alpha virt. eigenvalues --    0.36044   0.37931   0.38168   0.38684   0.40320
 Alpha virt. eigenvalues --    0.41653   0.42301   0.43105   0.44192   0.44307
 Alpha virt. eigenvalues --    0.45516   0.45605   0.46194   0.46628   0.47618
 Alpha virt. eigenvalues --    0.48254   0.48659   0.49763   0.51348   0.51761
 Alpha virt. eigenvalues --    0.53069   0.53395   0.54016   0.54548   0.55354
 Alpha virt. eigenvalues --    0.55669   0.56737   0.57246   0.57858   0.58505
 Alpha virt. eigenvalues --    0.59716   0.60216   0.60651   0.61346   0.61800
 Alpha virt. eigenvalues --    0.62753   0.63634   0.63852   0.64434   0.64730
 Alpha virt. eigenvalues --    0.64904   0.66093   0.66347   0.66492   0.67274
 Alpha virt. eigenvalues --    0.67732   0.67880   0.68156   0.68745   0.69393
 Alpha virt. eigenvalues --    0.70055   0.70167   0.70315   0.70375   0.71210
 Alpha virt. eigenvalues --    0.71369   0.71753   0.72350   0.72690   0.73335
 Alpha virt. eigenvalues --    0.73609   0.74329   0.74629   0.74896   0.75537
 Alpha virt. eigenvalues --    0.76028   0.76344   0.77257   0.77862   0.78720
 Alpha virt. eigenvalues --    0.79998   0.81328   0.83186   0.85153   0.86061
 Alpha virt. eigenvalues --    0.88028   0.90290   0.91354   0.91994   0.94780
 Alpha virt. eigenvalues --    0.94899   0.95551   0.96531   0.96950   0.98564
 Alpha virt. eigenvalues --    0.99105   0.99878   1.00643   1.01659   1.02724
 Alpha virt. eigenvalues --    1.03345   1.06612   1.09058   1.14502   1.15090
 Alpha virt. eigenvalues --    1.16401   1.18317   1.19167   1.21089   1.22813
[...]
 ,-0.00217705,-0.00591033,0.00079544,0.00414187,-0.01645471,-0.00024014
 ,-0.02790613,-0.13152924,0.00056159,-0.12534933,0.00000039,0.00000124,
 0.00000030,0.00000163,-0.00000162,0.00000003,-0.00000163,-0.00000080,0
 .00000283,0.00000115,0.00000115,-0.00000066,-0.00000091,-0.00000083,-0
 .00000091,0.00000140,-0.00000090,0.00000127,0.00000134,0.00000128,0.00
 000074,0.00000040,0.00000226,0.00000047,0.00000029,-0.00000237,0.00000
 065,0.00000106,-0.00000285,-0.00000042,0.00000141,0.00000248,-0.000000
 69,0.00000079,0.00000501,0.00000206,-0.00000029,-0.00000498,0.00000251
 ,0.00000292,-0.00000756,-0.00000191,0.00000415,0.00000677,-0.00000267,
 0.00000484,0.00001495,0.00000579,0.00000148,-0.00001545,0.00000761,0.0
 0001806,-0.00003370,0.00000318,0.00002312,0.00003093,-0.00000005,0.000
 00917,0.00010220,0.00002077,0.00000533,-0.00010527,0.00002936,0.000163
 91,-0.00017073,0.00020678,0.00016657,0.00020246,0.00010794,0.00115569,
 0.00049603,0.00002578,0.00102903,-0.00069747,0.00002399,0.14436422,0.0
 0000068,-0.00000057,0.00000008,-0.00000012,0.00000092,-0.00000018,0.00
 000008,0.00000005,0.00000038,-0.00000063,-0.00000102,0.00000018,0.0000
 0095,0.00000071,-0.00000008,0.00000063,0.00000396,0.00000099,0.0000018
 6,-0.00000318,-0.00000167,0.00000097,0.00000075,0.00000571,0.00000947,
 -0.00000774,-0.00000762,0.00000726,0.00000783,0.00002963,0.00006935,-0
 .00001685,-0.00004456,0.00011660,0.00060155,0.00018884,0.00062967,0.00
 016168,-0.00038653,0.00171627,-0.00156195,0.00313430,0.00049536,-0.047
 33182,0.00076960,-0.00000003,0.00000006,-0.00000002,-0.00000007,0.0000
 0021,0.00000001,0.00000010,0.00000016,-0.00000013,0.00000006,0.0000000
 5,0.00000008,-0.00000006,0.00000011,-0.00000006,-0.00000014,0.00000011
 ,-0.00000026,-0.00000015,-0.00000007,0.00000011,0.00000005,-0.00000026
 ,-0.00000014,-0.00000018,0.00000007,0.00000009,-0.00000015,0.00000013,
 -0.00000036,-0.00000007,-0.00000030,0.00000042,-0.00000009,-0.00000079
 ,-0.00000020,-0.00000007,-0.00000005,-0.00000006,-0.00000050,0.0000009
 3,-0.00000095,0.00000007,-0.00000041,0.00000129,0.00000105,-0.00000394
 ,-0.00000158,-0.00000220,-0.00000083,0.00000087,0.00000202,0.00000595,
 -0.00000543,-0.00000489,0.00000041,0.00000390,-0.00009310,-0.00001978,
 0.00001682,0.00007904,-0.00001857,-0.00001675,0.00018735,0.00026547,0.
 00039025,-0.00015400,0.00018873,-0.00043039,-0.00001523,-0.00005046,0.
 00038114,-0.00027075,0.00003654,-0.00033387,-0.00114782,0.04642404,-0.
 00000476,-0.00000201,-0.00000265,0.00000481,0.00000115,0.00000379,-0.0
 0000099,-0.00000199,-0.00000371,0.00000373,0.00000237,0.00000175,-0.00
 000282,0.00000063,-0.00000265,-0.00000021,-0.00000156,-0.00000155,-0.0
 0000204,0.00000015,0.00000274,0.00000339,-0.00000085,-0.00000452,0.000
 00701,0.00000014,0.00000398,0.00002627,-0.00000169,0.00001857,0.000152
 18,-0.00001445,-0.00002669,0.00042547,-0.00004431,0.00048244,0.0013873
 6,-0.00013815,0.00003040,0.00650818,0.00001494,0.00901699,-0.12667779,
 0.00087792,-0.23417032,0.00000024,0.00000075,0.00000029,0.00000092,-0.
 00000086,0.00000012,-0.00000051,-0.00000022,0.00000136,0.00000039,0.00
 000091,-0.00000053,-0.00000034,-0.00000067,-0.00000066,0.00000096,-0.0
 0000024,0.00000054,0.00000079,0.00000033,0.00000033,-0.00000002,0.0000
 0107,0.00000028,-0.00000006,-0.00000100,0.00000042,0.00000070,-0.00000
 028,0.00000001,0.00000067,0.00000020,-0.00000008,-0.00000054,0.0000017
 0,0.00000088,-0.00000087,-0.00000142,0.00000100,0.00000110,0.00000071,
 -0.00000073,0.00000090,-0.00000098,-0.00000076,-0.00000149,0.00000126,
 0.00000236,-0.00000149,-0.00000048,0.00000230,0.00000178,0.00000609,-0
 .00000836,0.00000080,-0.00000759,-0.00000816,-0.00007448,0.00000895,0.
 00001775,-0.00008408,0.00000980,0.00001953,0.00019696,0.00018545,0.000
 09190,0.00017910,-0.00023124,0.00016398,-0.00072931,0.00015012,0.00041
 682,-0.00072347,0.00003334,0.00047083,0.13691334,-0.00081229,0.2510920
 0,0.00000130,-0.00000057,0.00000007,-0.00000097,0.00000050,-0.00000023
 ,0.00000016,0.00000014,0.00000061,-0.00000081,0.00000033,-0.00000001,0
 .00000065,0.00000058,0.00000026,0.00000017,-0.00000061,0.00000063,0.00
 000156,-0.00000066,-0.00000072,-0.00000036,0.00000222,0.00000379,0.000
 00623,0.00000214,-0.00000415,0.00001671,-0.00000045,0.00002206,0.00004
 340,-0.00011459,-0.00008107,-0.00012453,-0.00016485,0.00004053,0.00188
 980,0.00096046,0.00128892,-0.00598648,0.02973596,0.01620882,-0.0524763
 1,0.03358058,0.01895993,0.,-0.00000003,0.00000003,-0.00000018,0.000000
 23,0.00000006,0.00000012,0.00000018,-0.00000031,0.00000005,-0.00000010
 ,0.00000014,-0.00000014,0.00000037,0.00000020,-0.00000046,-0.00000004,
 -0.00000031,-0.00000009,-0.00000007,0.00000006,0.00000035,-0.00000075,
 -0.00000012,-0.00000024,0.00000040,0.00000008,-0.00000080,-0.00000052,
 -0.00000101,-0.00000005,-0.00000009,0.00000024,0.00000137,-0.00000215,
 -0.00000023,-0.00000036,0.00000075,0.00000041,-0.00000248,-0.00000136,
 -0.00000269,-0.00000015,-0.00000029,0.00000020,0.00000922,-0.00000700,
 0.00000157,-0.00000170,0.00000328,0.00000258,-0.00004845,-0.00001246,-
 0.00005833,-0.00000217,0.00000236,0.00000089,0.00020355,-0.00022344,-0
 .00013404,0.00001124,0.00002589,0.00004051,-0.00031177,-0.00061363,-0.
 00074461,-0.00002312,-0.00005391,-0.00012019,-0.00655716,0.00042656,0.
 00128843,0.00148109,-0.00049747,-0.00015541,0.00260342,-0.01668158,-0.
 00775378,0.05877469,-0.00000025,0.00000434,0.00000342,0.00000007,-0.00
 000405,-0.00000375,0.00000062,0.00000041,0.00000147,-0.00000145,-0.000
 00029,-0.00000004,0.00000115,-0.00000034,0.00000033,0.00000074,-0.0000
 0054,0.00000097,0.00000228,-0.00000201,-0.00000305,0.00000214,-0.00000
 016,0.00000631,0.00000954,-0.00000774,-0.00000995,0.00000680,0.0000040
 1,0.00002918,0.00007213,-0.00002574,-0.00002574,0.00006456,0.00033906,
 0.00030947,-0.00044660,0.00014148,0.00004383,0.00040711,-0.00195867,-0
 .00102348,0.03436016,-0.24449740,-0.11188269,-0.00000020,-0.00000040,-
 0.00000040,-0.00000026,0.00000004,-0.00000031,0.00000020,-0.00000014,-
 0.00000041,-0.00000038,-0.00000032,-0.00000015,0.00000029,-0.00000014,
 -0.00000009,0.00000033,0.00000059,0.00000010,-0.00000003,-0.00000065,-
 0.00000040,-0.00000098,0.00000080,0.00000021,-0.00000018,-0.00000020,-
 0.00000034,0.00000083,0.00000220,0.00000106,0.00000011,-0.00000124,-0.
 00000017,-0.00000233,0.00000195,0.00000075,-0.00000027,-0.00000036,-0.
 00000057,0.00000195,0.00000589,0.00000250,0.00000009,-0.00000267,-0.00
 000042,-0.00000667,0.00000340,0.00000162,-0.00000143,-0.00000114,-0.00
 000176,0.00001865,0.00002045,0.00001019,0.00000159,-0.00001021,0.00000
 082,-0.00021531,0.00001795,0.00000580,-0.00002491,-0.00002284,-0.00000
 417,0.00059134,0.00013204,0.00043549,0.00004870,-0.00010231,-0.0000845
 9,0.00033829,0.00160833,-0.00002428,0.00046127,0.00067679,0.00009395,-
 0.00081751,0.00100169,0.00110735,-0.03844923,0.26294269,0.00000249,0.0
 0000360,0.00000293,-0.00000241,-0.00000343,-0.00000361,0.00000073,0.00
 000094,0.00000276,-0.00000303,-0.00000070,-0.00000013,0.00000260,-0.00
 000059,0.00000096,0.00000048,-0.00000034,0.00000242,0.00000448,-0.0000
 0086,-0.00000440,-0.00000013,-0.00000132,0.00001118,0.00001165,-0.0000
 0278,-0.00001403,-0.00000453,-0.00000875,0.00002708,0.00003493,0.00002
 041,-0.00002183,-0.00008762,0.00017317,0.00008911,-0.00050404,0.000803
 25,0.00052115,0.00138744,-0.00685407,-0.00486717,0.01930978,-0.1117001
 5,-0.11163519,-0.00000018,-0.00000065,-0.00000021,-0.00000063,0.000000
 41,-0.00000009,0.00000049,0.00000004,-0.00000095,-0.00000047,-0.000000
 56,0.00000013,0.00000047,0.00000013,0.00000029,-0.00000046,0.00000028,
 -0.00000006,-0.00000058,-0.00000032,-0.00000046,-0.00000053,-0.0000002
 8,-0.00000005,0.00000039,0.00000074,-0.00000054,-0.00000022,0.00000101
 ,0.00000104,-0.00000051,-0.00000019,-0.00000037,-0.00000062,-0.0000000
 6,-0.00000033,0.00000117,0.00000139,-0.00000144,-0.00000099,0.00000163
 ,0.00000268,-0.00000114,0.00000018,-0.00000042,0.00000154,0.,-0.000003
 24,0.00000446,0.00000330,-0.00000433,0.00000599,-0.00000575,0.00001100
 ,-0.00000537,0.00000214,0.00000052,-0.00012858,0.00000817,-0.00006097,
 0.00004504,0.00000598,-0.00004203,0.00010378,-0.00006749,0.00049860,0.
 00007961,0.00008893,0.00000003,0.00168699,0.00030663,0.00048176,-0.000
 10381,-0.00003744,-0.00024247,0.00492512,-0.02347790,-0.01262396,-0.02
 310460,0.12369310,0.11751829,0.00000096,0.00000058,0.00000005,-0.00000
 098,-0.00000113,-0.00000019,-0.00000007,0.00000018,0.00000056,-0.00000
 055,0.00000018,0.00000036,0.00000030,-0.00000039,0.00000036,-0.0000000
 1,-0.00000023,0.00000029,0.00000119,0.00000009,-0.00000018,-0.00000109
 ,-0.00000167,0.00000288,0.00000378,-0.00000443,-0.00000191,0.00001478,
 0.00000057,0.00001626,0.00004994,0.00009208,-0.00008538,-0.00009437,0.
 00023862,-0.00004283,0.00174503,-0.00110547,0.00138353,-0.01102442,-0.
 02599095,0.01928352,-0.06970933,-0.05953412,0.04520422,0.00000010,-0.0
 0000014,0.00000011,-0.00000018,0.00000006,0.00000012,0.00000014,0.0000
 0005,-0.00000030,-0.00000036,-0.00000029,0.00000022,0.00000027,0.00000
 004,0.00000014,-0.00000011,-0.00000003,0.00000003,-0.00000046,0.000000
 15,-0.00000040,-0.00000022,-0.00000045,0.00000020,0.00000070,0.0000007
 6,-0.00000019,-0.00000011,-0.00000011,0.00000026,-0.00000077,0.0000009
 6,-0.00000124,-0.00000042,-0.00000073,0.00000056,0.00000215,0.00000206
 ,-0.00000058,-0.00000021,-0.00000018,0.00000023,-0.00000233,0.00000249
 ,-0.00000336,-0.00000191,-0.00000282,0.00000315,0.00001140,0.00000566,
 0.00000051,-0.00000313,-0.00000358,0.00000112,-0.00004766,0.00001796,-
 0.00006098,0.00001069,-0.00002678,0.00004331,0.00027201,0.00015991,-0.
 00015520,-0.00002692,0.00003000,-0.00010594,-0.00029720,0.00059059,-0.
 00087757,0.00146260,0.00032623,-0.00022999,-0.00639344,0.00116886,0.00
 120987,0.00565043,0.01505334,-0.00976066,0.00049457,0.00357620,-0.0036
 5797,0.07788597,-0.00000008,-0.00000112,-0.00000226,-0.00000014,0.0000
 0015,0.00000279,-0.00000065,0.,-0.00000121,0.00000110,0.00000033,0.000
 00003,-0.00000112,0.,-0.00000009,-0.00000069,-0.00000024,-0.00000086,-
 0.00000235,-0.00000152,0.00000286,-0.00000204,0.00000005,-0.00000574,-
 0.00001015,-0.00000413,0.00000967,-0.00000965,0.00000308,-0.00003022,-
 0.00008063,-0.00002975,0.00004281,-0.00000224,0.00025045,-0.00033178,0
 .00007528,0.00017953,-0.00023516,0.00153026,0.00367924,-0.00290374,-0.
 06026509,-0.20097589,0.11747162,0.00000015,0.00000003,0.00000031,0.000
 00021,-0.00000024,0.00000032,-0.00000017,-0.00000017,0.00000039,0.,-0.
 00000004,0.00000027,0.00000019,-0.00000017,0.00000010,-0.00000003,-0.0
 0000058,0.00000042,-0.00000021,0.00000069,-0.00000015,0.00000016,-0.00
 000027,0.00000026,0.00000095,0.00000047,-0.00000021,-0.00000037,-0.000
 00119,0.00000018,-0.00000037,0.00000198,-0.00000093,0.00000047,-0.0000
 0045,0.00000035,0.00000217,0.00000108,-0.00000085,-0.00000070,-0.00000
 259,0.00000058,-0.00000063,0.00000534,-0.00000222,0.00000204,-0.000001
 22,0.00000087,0.00000531,0.00000088,-0.00000243,-0.00000344,-0.0000093
 7,0.00000020,-0.00000540,0.00001989,-0.00000049,0.00002362,-0.00002375
 ,-0.00000535,0.00015261,-0.00004998,0.00001552,-0.00005281,-0.00009534
 ,0.00011580,-0.00050606,0.00008948,-0.00024328,-0.00061545,0.00068912,
 -0.00016235,0.00130993,0.00137636,-0.00032734,0.00096756,0.00031635,-0
 .00114388,-0.00791730,-0.02026322,0.01704956,0.06540623,0.21484679,0.0
 0000283,0.00000068,0.00000236,-0.00000227,0.00000020,-0.00000329,0.000
 00091,0.00000046,0.00000269,-0.00000301,0.00000010,-0.00000007,0.00000
 285,0.00000052,0.00000072,0.00000055,0.00000020,0.00000259,0.00000483,
 -0.00000002,-0.00000488,0.00000045,0.00000244,0.00001173,0.00001303,-0
 .00000049,-0.00001541,-0.00000148,0.00001177,0.00002957,0.00003836,-0.
 00002585,-0.00002394,-0.00011603,-0.00017327,0.00014635,-0.00066542,-0
 .00065287,0.00061515,0.00252249,0.00578553,-0.00552118,0.04560407,0.11
 723146,-0.13765773,-0.00000011,-0.00000028,-0.00000022,-0.00000062,0.0
 0000076,-0.00000020,0.00000050,0.00000045,-0.00000099,-0.00000020,-0.0
 0000026,0.00000011,0.00000009,0.00000042,0.00000016,-0.00000054,0.0000
 0026,-0.00000061,-0.00000033,-0.00000054,0.00000013,0.00000031,-0.0000
 0081,-0.00000050,-0.00000066,0.00000032,-0.00000005,-0.00000049,0.0000
 0040,-0.00000040,-0.00000030,-0.00000108,0.00000131,0.00000082,-0.0000
 0162,-0.00000138,-0.00000085,0.00000001,-0.00000023,-0.00000112,0.0000
 0027,-0.00000049,-0.00000111,-0.00000182,0.00000320,0.00000352,-0.0000
 0431,-0.00000409,0.00000081,-0.00000077,-0.00000292,-0.00000535,-0.000
 00003,0.00000061,0.00000820,0.00000334,0.00001126,0.00004004,-0.000015
 69,-0.00004068,-0.00014911,0.00001208,-0.00006153,0.00006784,-0.000088
 81,-0.00000083,0.00017907,0.00008558,0.00052721,-0.00003906,-0.0000532
 9,-0.00022582,0.00154081,-0.00071718,0.00056126,0.00882303,0.02059669,
 -0.01499055,-0.00569887,-0.01267867,0.01035859,-0.05216689,-0.12931629
 ,0.14628513,-0.04953080,0.00379575,0.15626981,-0.00550561,-0.00164577,
 -0.00077763,-0.00014075,0.00394680,0.00261784,0.00252578,-0.00387674,-
 0.00159050,0.00115577,-0.00059322,-0.00056487,-0.00063711,0.00038107,0
 .00039579,0.00003040,-0.00012682,-0.00016080,-0.00007397,0.00004963,0.
 00003550,0.00000217,-0.00000810,-0.00002183,-0.00000933,-0.00000801,-0
 .00000530,0.00000007,-0.00000999,0.00000469,0.00000213,0.00000628,-0.0
 0000898,0.00000007,-0.00000130,0.00000589,0.00000032,-0.00000180,-0.00
 000622,0.00000110,0.00000076,0.00000373,0.00025015,0.00009311,-0.00017
 033,-0.00140299,-0.00007559,0.00017550,-0.00020329,0.00023703,0.000102
 30,-0.00118563,0.00011898,-0.00108519,-0.00021947,-0.00001525,0.000074
 03,-0.00046672,0.00054492,-0.00030613,-0.00011700,-0.00019305,0.000056
 69,0.00015024,0.00005226,0.00021706,0.00008332,-0.00006157,0.00006396,
 -0.00005326,0.00007967,0.00000267,-0.00002699,-0.00002897,0.00000085,0
 .00001364,0.00001083,0.00002247,0.00000821,-0.00000914,0.00000675,-0.0
 0000762,0.00001804,0.00000129,-0.00000463,-0.00000885,-0.00000099,0.00
 000231,0.00000585,0.00000649,0.00000200,-0.00000424,0.00000304,-0.0000
 0281,0.00000635,0.00000017,-0.00000186,-0.00000326,-0.00000078,0.00000
 067,0.00000339,0.00000275,-0.00000004,-0.00000213,0.00000126,-0.000001
 15,0.00000265,-0.00000010,-0.00000096,-0.00000145,-0.00000052,0.000000
 06,0.00000182,0.00000141,-0.00000014,-0.00000133,0.00000072,0.00000369
 ,-0.00000042,0.00000265,-0.00000090,0.00000084,-0.00000119,-0.00000077
 ,-0.00000048,-0.00000158,0.05536174,-0.01113146,-0.03169568,0.03340491
 ,0.01229990,-0.00732085,-0.03682657,0.00044913,-0.00550114,-0.00152592
 ,0.00061974,-0.00561264,-0.00150586,0.00029987,0.00036722,0.00040481,-
 0.00008551,-0.00000633,-0.00007456,-0.00004599,0.00011279,0.00011379,0
 .00004382,-0.00000293,-0.00006058,-0.00000890,0.00002470,0.00004465,0.
 00001730,0.00000473,-0.00002495,-0.00000139,0.00000237,0.00001829,0.00
 000532,-0.00000555,-0.00000851,-0.00000081,0.00000505,0.00000765,0.000
 00192,0.00000073,-0.00000470,0.00000069,0.00000129,0.00000347,-0.00034
 016,-0.00007275,-0.00000639,0.00148993,0.00065870,-0.00028724,0.000104
 29,0.00017951,0.00000455,-0.00102906,0.00060292,-0.00112146,0.00034894
 ,0.00002333,0.00017981,-0.00032506,0.00020647,0.00000447,-0.00010489,-
 0.00017142,-0.00006999,0.00006491,0.00000560,0.00005911,0.00000859,0.0
 0001140,0.00004127,0.00000439,-0.00002061,-0.00002090,0.00000065,-0.00
 001941,-0.00000585,-0.00000472,-0.00000634,-0.00000790,-0.00000270,-0.
 00000100,0.00001167,0.00000536,-0.00000928,-0.00000567,-0.00000273,-0.
 00000316,0.00000024,-0.00000159,-0.00000316,-0.00000333,-0.00000148,-0
 .00000057,0.00000484,0.00000177,-0.00000409,-0.00000304,-0.00000152,-0
 .00000083,0.00000025,-0.00000091,-0.00000175,-0.00000186,-0.00000062,-
 0.00000055,0.00000228,0.00000105,-0.00000241,-0.00000164,-0.00000053,-
 0.00000023,0.00000055,-0.00000020,-0.00000118,-0.00000099,-0.00000044,
 -0.00000024,0.00000124,0.00000182,0.00000012,0.00000082,0.00000021,-0.
 00000135,-0.00000135,-0.00000039,-0.00000002,0.,-0.00267857,0.04825855
 ,0.15662870,-0.01005462,-0.46638751,-0.00055939,0.00281663,-0.00328713
 ,0.00049598,0.00135767,0.00134859,-0.00028730,-0.00113463,-0.00095980,
 0.00036099,-0.00049650,0.00044933,-0.00003004,0.00021365,-0.00042890,-
 0.00010872,0.00000536,0.00027421,0.00010284,-0.00000846,-0.00014361,-0
 .00002733,0.00001467,0.00011167,0.00004099,-0.00000328,-0.00005616,-0.
 00000971,0.00000425,0.00004646,0.00001739,-0.00000378,-0.00002298,-0.0
 0000487,0.00000225,0.00002201,0.00000563,-0.00000093,-0.00001147,0.000
 00064,0.00000086,0.00000872,-0.00032261,-0.00002551,0.00001721,-0.0007
 5284,-0.00009840,0.00030421,0.00004722,-0.00001867,0.00014940,-0.00019
 707,-0.00007519,0.00005202,0.00031534,-0.00008352,0.00028995,-0.000368
 06,0.00026617,0.00001822,-0.00003370,0.00006165,0.00002499,0.00006007,
 -0.00000141,0.00010121,-0.00000535,0.00000451,-0.00000208,-0.00000634,
 -0.00001550,-0.00000587,0.00001420,0.00002027,-0.00000850,-0.00000649,
 -0.00000777,-0.00000040,-0.00000667,0.00000672,-0.00000050,0.00000379,
 -0.00001196,-0.00000531,0.00000460,0.00000920,-0.00000594,-0.00000320,
 -0.00000322,-0.00000059,-0.00000302,0.00000291,0.00000042,0.00000143,-
 0.00000639,-0.00000301,0.00000209,0.00000481,-0.00000290,-0.00000175,-
 0.00000192,-0.00000059,-0.00000160,0.00000163,0.00000004,0.00000087,-0
 .00000378,-0.00000190,0.00000106,0.00000282,-0.00000168,-0.00000051,-0
 .00000144,-0.00000023,-0.00000053,0.00000119,0.00000014,0.00000603,-0.
 00000035,0.00000253,-0.00000034,-0.00000250,-0.00000225,-0.00000009,0.
 00000193,-0.00000214,-0.15537234,0.00726057,0.46812013\\-0.00000009,0.
 00000212,0.00000069,0.00000234,0.00000275,0.00000369,0.00000005,-0.000
 00326,-0.00000071,-0.00000522,-0.00000147,-0.00000142,0.00000298,0.000
 00062,0.00000165,-0.00000128,-0.00000017,-0.00000050,0.00000018,0.0000
 0099,0.00000034,-0.00000013,-0.00000062,0.00000031,0.00000022,0.000000
 51,-0.00000023,-0.00000038,-0.00000066,0.00000019,0.00000041,0.0000005
 5,-0.00000108,-0.00000025,-0.00000084,0.00000014,0.00000058,0.00000048
 ,-0.00000184,0.00000016,-0.00000088,-0.00000026,0.00000020,0.00000035,
 -0.00000175,0.00000046,-0.00000102,0.00000057,-0.00000097,-0.00000120,
 0.00000300,-0.00000051,0.00000098,0.00000132,-0.00000069,-0.00000121,0
 .00000217,0.00000074,-0.00000134,0.00000022,-0.00000037,0.00000160,-0.
 00000060,-0.00000118,0.00000216,0.00000192,-0.00000040,-0.00000171,0.0
 0000236,0.00000026,-0.00000155,-0.00000030,0.00000024,0.00000166,-0.00
 000093,-0.00000058,0.00000179,0.00000157,-0.00000058,-0.00000165,0.000
 00156,0.00000054,-0.00000168,-0.00000089,0.00000044,0.00000154,-0.0000
 0130,-0.00000059,0.00000169,0.00000121,-0.00000025,-0.00000184,0.00000
 115,0.00000051,-0.00000186,-0.00000135,0.00000057,0.00000146,-0.000001
 65,-0.00000039,0.00000153,0.00000092,-0.00000011,-0.00000192,0.0000007
 1,0.00000067,-0.00000194,-0.00000194,0.00000066,0.00000138,-0.00000203
 ,-0.00000020,0.00000141,0.00000065,-0.00000014,-0.00000197,0.00000030,
 0.00000088,-0.00000203,-0.00000237,0.00000058,-0.00000079,-0.00000126,
 0.00000081,0.00000108,-0.00000251,-0.00000009,0.00000139,0.00000010,-0
 .00000008,0.00000359,-0.00000183\\\@


 SCIENCE IS A VERY HUMAN FORM OF KNOWLEDGE.
 WE ARE ALWAYS AT THE BRINK OF THE KNOWN,
 WE ALWAYS FEEL FORWARD FOR WHAT IS HOPED.
 EVERY JUDGEMENT IN SCIENCE STANDS ON THE EDGE OF ERROR, AND IS PERSONAL.
 SCIENCE IS A TRIBUTE TO WHAT WE CAN KNOW ALTHOUGH WE ARE FALLIBLE.

                     -- J. BRONOWSKI
 Job cpu time:       0 days  6 hours 25 minutes 27.3 seconds.
 Elapsed time:       0 days  0 hours 16 minutes  6.9 seconds.
 File lengths (MBytes):  RWF=   1087 Int=      0 D2E=      0 Chk=     25 Scr=      1
 Normal termination of Gaussian 16 at Mon Oct 14 00:02:15 2019.
real 2412.30
user 57163.18
sys 72.06
Machine:
brown-a333
brown-a333
brown-a333
brown-a333
brown-a333
brown-a333
brown-a333
brown-a333
brown-a333
brown-a333
brown-a333
brown-a333
brown-a333
brown-a333
brown-a333
brown-a333
brown-a333
brown-a333
brown-a333
brown-a333
brown-a333
brown-a333
brown-a333
brown-a333
