 Entering Gaussian System, Link 0=/apps/cent7/gaussian/g16-A.03/g16-haswell/g16/g16
 Initial command:
 /apps/cent7/gaussian/g16-A.03/g16-haswell/g16/l1.exe "/scratch/brown/finej/gaussian/Gau-279594.inp" -scrdir="/scratch/brown/finej/gaussian/"
 Entering Link 1 = /apps/cent7/gaussian/g16-A.03/g16-haswell/g16/l1.exe PID=    279595.
  
 Copyright (c) 1988,1990,1992,1993,1995,1998,2003,2009,2016,
            Gaussian, Inc.  All Rights Reserved.
  
 This is part of the Gaussian(R) 16 program.  It is based on
 the Gaussian(R) 09 system (copyright 2009, Gaussian, Inc.),
 the Gaussian(R) 03 system (copyright 2003, Gaussian, Inc.),
 the Gaussian(R) 98 system (copyright 1998, Gaussian, Inc.),
 the Gaussian(R) 94 system (copyright 1995, Gaussian, Inc.),
 the Gaussian 92(TM) system (copyright 1992, Gaussian, Inc.),
 the Gaussian 90(TM) system (copyright 1990, Gaussian, Inc.),
 the Gaussian 88(TM) system (copyright 1988, Gaussian, Inc.),
 the Gaussian 86(TM) system (copyright 1986, Carnegie Mellon
 University), and the Gaussian 82(TM) system (copyright 1983,
 Carnegie Mellon University). Gaussian is a federally registered
 trademark of Gaussian, Inc.
  
 This software contains proprietary and confidential information,
 including trade secrets, belonging to Gaussian, Inc.
  
 This software is provided under written license and may be
 used, copied, transmitted, or stored only in accord with that
 written license.
  
 The following legend is applicable only to US Government
 contracts under FAR:
  
                    RESTRICTED RIGHTS LEGEND
  
 Use, reproduction and disclosure by the US Government is
 subject to restrictions as set forth in subparagraphs (a)
 and (c) of the Commercial Computer Software - Restricted
 Rights clause in FAR 52.227-19.
  
 Gaussian, Inc.
 340 Quinnipiac St., Bldg. 40, Wallingford CT 06492
  
  
 ---------------------------------------------------------------
 Warning -- This program may not be used in any manner that
 competes with the business of Gaussian, Inc. or will provide
 assistance to any competitor of Gaussian, Inc.  The licensee
 of this program is prohibited from giving any competitor of
 Gaussian, Inc. access to this program.  By using this program,
 the user acknowledges that Gaussian, Inc. is engaged in the
 business of creating and licensing software in the field of
 computational chemistry and represents and warrants to the
 licensee that it is not a competitor of Gaussian, Inc. and that
 it will not use this program in any manner prohibited above.
 ---------------------------------------------------------------
  

 Cite this work as:
 Gaussian 16, Revision A.03,
 M. J. Frisch, G. W. Trucks, H. B. Schlegel, G. E. Scuseria, 
 M. A. Robb, J. R. Cheeseman, G. Scalmani, V. Barone, 
 G. A. Petersson, H. Nakatsuji, X. Li, M. Caricato, A. V. Marenich, 
 J. Bloino, B. G. Janesko, R. Gomperts, B. Mennucci, H. P. Hratchian, 
 J. V. Ortiz, A. F. Izmaylov, J. L. Sonnenberg, D. Williams-Young, 
 F. Ding, F. Lipparini, F. Egidi, J. Goings, B. Peng, A. Petrone, 
 T. Henderson, D. Ranasinghe, V. G. Zakrzewski, J. Gao, N. Rega, 
 G. Zheng, W. Liang, M. Hada, M. Ehara, K. Toyota, R. Fukuda, 
 J. Hasegawa, M. Ishida, T. Nakajima, Y. Honda, O. Kitao, H. Nakai, 
 T. Vreven, K. Throssell, J. A. Montgomery, Jr., J. E. Peralta, 
 F. Ogliaro, M. J. Bearpark, J. J. Heyd, E. N. Brothers, K. N. Kudin, 
 V. N. Staroverov, T. A. Keith, R. Kobayashi, J. Normand, 
 K. Raghavachari, A. P. Rendell, J. C. Burant, S. S. Iyengar, 
 J. Tomasi, M. Cossi, J. M. Millam, M. Klene, C. Adamo, R. Cammi, 
 J. W. Ochterski, R. L. Martin, K. Morokuma, O. Farkas, 
 J. B. Foresman, and D. J. Fox, Gaussian, Inc., Wallingford CT, 2016.
 
 ******************************************
 Gaussian 16:  ES64L-G16RevA.03 25-Dec-2016
                13-Oct-2019 
 ******************************************
 %chk=4.chk
 %nprocshared=24
 Will use up to   24 processors via shared memory.
 %mem=80GB
 -------------------------------------------------------------------
 #P opt freq m062x/6-311++g(d,p) geom=connectivity temperature=0.001
 -------------------------------------------------------------------
 1/18=20,19=15,26=3,38=1,57=2,112=-1000/1,3;
 2/9=110,12=2,17=6,18=5,40=1/2;
 3/5=4,6=6,7=1111,11=2,25=1,30=1,71=1,74=-55/1,2,3;
 4//1;
 5/5=2,38=5/2;
 6/7=2,8=2,9=2,10=2,28=1/1;
 7//1,2,3,16;
 1/18=20,19=15,26=3/3(2);
 2/9=110/2;
 99//99;
 2/9=110/2;
 3/5=4,6=6,7=1111,11=2,25=1,30=1,71=1,74=-55/1,2,3;
 4/5=5,16=3,69=1/1;
 5/5=2,38=5/2;
 7//1,2,3,16;
 1/18=20,19=15,26=3/3(-5);
 2/9=110/2;
 6/7=2,8=2,9=2,10=2,19=2,28=1/1;
 99/9=1/99;
 Leave Link    1 at Sun Oct 13 23:38:55 2019, MaxMem= 10737418240 cpu:               0.9 elap:               0.0
 (Enter /apps/cent7/gaussian/g16-A.03/g16-haswell/g16/l101.exe)
 -------------------
 Title Card Required
 -------------------
 Symbolic Z-matrix:
 Charge =  0 Multiplicity = 1
 O                     1.3035   -0.0831    0. 
 N                    -0.0047   -0.0133    0. 
 C                    -0.68     -1.1951    0. 
 C                    -2.0841   -1.2155    0. 
 C                    -2.7857   -0.0001    0. 
 C                    -2.0825    1.2242    0. 
 C                    -0.6554    1.1936    0. 
 C                     0.0509    2.4202    0. 
 C                    -0.6339    3.6464    0. 
 C                    -2.0384    3.6678    0. 
 C                    -2.7638    2.4626    0. 
 H                    -0.1005   -2.1183    0. 
 H                    -2.6228   -2.1631    0. 
 H                    -3.8757   -0.0071    0. 
 H                     1.1409    2.4205    0. 
 H                    -0.0749    4.5822    0. 
 H                    -2.5664    4.6214    0. 
 H                    -3.8534    2.4883    0. 
 
 ITRead=  0  0  0  0  0  0  0  0  0  0  0  0  0  0  0  0  0  0
 MicOpt= -1 -1 -1 -1 -1 -1 -1 -1 -1 -1 -1 -1 -1 -1 -1 -1 -1 -1
 NAtoms=     18 NQM=       18 NQMF=       0 NMMI=      0 NMMIF=      0
                NMic=       0 NMicF=      0.
                    Isotopes and Nuclear Properties:
 (Nuclear quadrupole moments (NQMom) in fm**2, nuclear magnetic moments (NMagM)
  in nuclear magnetons)

  Atom         1           2           3           4           5           6           7           8           9          10
 IAtWgt=          16          14          12          12          12          12          12          12          12          12
 AtmWgt=  15.9949146  14.0030740  12.0000000  12.0000000  12.0000000  12.0000000  12.0000000  12.0000000  12.0000000  12.0000000
 NucSpn=           0           2           0           0           0           0           0           0           0           0
 AtZEff=  -0.0000000  -0.0000000  -0.0000000  -0.0000000  -0.0000000  -0.0000000  -0.0000000  -0.0000000  -0.0000000  -0.0000000
 NQMom=    0.0000000   2.0440000   0.0000000   0.0000000   0.0000000   0.0000000   0.0000000   0.0000000   0.0000000   0.0000000
 NMagM=    0.0000000   0.4037610   0.0000000   0.0000000   0.0000000   0.0000000   0.0000000   0.0000000   0.0000000   0.0000000
 AtZNuc=   8.0000000   7.0000000   6.0000000   6.0000000   6.0000000   6.0000000   6.0000000   6.0000000   6.0000000   6.0000000

  Atom        11          12          13          14          15          16          17          18
 IAtWgt=          12           1           1           1           1           1           1           1
 AtmWgt=  12.0000000   1.0078250   1.0078250   1.0078250   1.0078250   1.0078250   1.0078250   1.0078250
 NucSpn=           0           1           1           1           1           1           1           1
 AtZEff=  -0.0000000  -0.0000000  -0.0000000  -0.0000000  -0.0000000  -0.0000000  -0.0000000  -0.0000000
 NQMom=    0.0000000   0.0000000   0.0000000   0.0000000   0.0000000   0.0000000   0.0000000   0.0000000
 NMagM=    0.0000000   2.7928460   2.7928460   2.7928460   2.7928460   2.7928460   2.7928460   2.7928460
 AtZNuc=   6.0000000   1.0000000   1.0000000   1.0000000   1.0000000   1.0000000   1.0000000   1.0000000
 Leave Link  101 at Sun Oct 13 23:38:56 2019, MaxMem= 10737418240 cpu:               8.4 elap:               0.4
 (Enter /apps/cent7/gaussian/g16-A.03/g16-haswell/g16/l103.exe)

 GradGradGradGradGradGradGradGradGradGradGradGradGradGradGradGradGradGrad
 Berny optimization.
 Initialization pass.
                           ----------------------------
                           !    Initial Parameters    !
                           ! (Angstroms and Degrees)  !
 --------------------------                            --------------------------
 ! Name  Definition              Value          Derivative Info.                !
 --------------------------------------------------------------------------------
 ! R1    R(1,2)                  1.3101         estimate D2E/DX2                !
 ! R2    R(2,3)                  1.3611         estimate D2E/DX2                !
 ! R3    R(2,7)                  1.3711         estimate D2E/DX2                !
 ! R4    R(3,4)                  1.4042         estimate D2E/DX2                !
 ! R5    R(3,12)                 1.09           estimate D2E/DX2                !
 ! R6    R(4,5)                  1.4034         estimate D2E/DX2                !
 ! R7    R(4,13)                 1.09           estimate D2E/DX2                !
 ! R8    R(5,6)                  1.4119         estimate D2E/DX2                !
 ! R9    R(5,14)                 1.09           estimate D2E/DX2                !
 ! R10   R(6,7)                  1.4274         estimate D2E/DX2                !
 ! R11   R(6,11)                 1.4134         estimate D2E/DX2                !
 ! R12   R(7,8)                  1.4154         estimate D2E/DX2                !
 ! R13   R(8,9)                  1.4045         estimate D2E/DX2                !
 ! R14   R(8,15)                 1.09           estimate D2E/DX2                !
 ! R15   R(9,10)                 1.4047         estimate D2E/DX2                !
 ! R16   R(9,16)                 1.09           estimate D2E/DX2                !
 ! R17   R(10,11)                1.4067         estimate D2E/DX2                !
 ! R18   R(10,17)                1.09           estimate D2E/DX2                !
 ! R19   R(11,18)                1.0899         estimate D2E/DX2                !
 ! A1    A(1,2,3)              116.6902         estimate D2E/DX2                !
 ! A2    A(1,2,7)              121.3855         estimate D2E/DX2                !
 ! A3    A(3,2,7)              121.9243         estimate D2E/DX2                !
 ! A4    A(2,3,4)              120.5767         estimate D2E/DX2                !
 ! A5    A(2,3,12)             118.1388         estimate D2E/DX2                !
 ! A6    A(4,3,12)             121.2844         estimate D2E/DX2                !
 ! A7    A(3,4,5)              119.1637         estimate D2E/DX2                !
 ! A8    A(3,4,13)             120.4501         estimate D2E/DX2                !
 ! A9    A(5,4,13)             120.3862         estimate D2E/DX2                !
 ! A10   A(4,5,6)              120.1322         estimate D2E/DX2                !
 ! A11   A(4,5,14)             119.6281         estimate D2E/DX2                !
 ! A12   A(6,5,14)             120.2397         estimate D2E/DX2                !
 ! A13   A(5,6,7)              118.6434         estimate D2E/DX2                !
 ! A14   A(5,6,11)             121.3111         estimate D2E/DX2                !
 ! A15   A(7,6,11)             120.0455         estimate D2E/DX2                !
 ! A16   A(2,7,6)              119.5597         estimate D2E/DX2                !
 ! A17   A(2,7,8)              121.7345         estimate D2E/DX2                !
 ! A18   A(6,7,8)              118.7058         estimate D2E/DX2                !
 ! A19   A(7,8,9)              120.8836         estimate D2E/DX2                !
 ! A20   A(7,8,15)             119.9499         estimate D2E/DX2                !
 ! A21   A(9,8,15)             119.1664         estimate D2E/DX2                !
 ! A22   A(8,9,10)             120.0551         estimate D2E/DX2                !
 ! A23   A(8,9,16)             119.9658         estimate D2E/DX2                !
 ! A24   A(10,9,16)            119.979          estimate D2E/DX2                !
 ! A25   A(9,10,11)            120.1705         estimate D2E/DX2                !
 ! A26   A(9,10,17)            119.8458         estimate D2E/DX2                !
 ! A27   A(11,10,17)           119.9837         estimate D2E/DX2                !
 ! A28   A(6,11,10)            120.1394         estimate D2E/DX2                !
 ! A29   A(6,11,18)            120.1684         estimate D2E/DX2                !
 ! A30   A(10,11,18)           119.6922         estimate D2E/DX2                !
 ! D1    D(1,2,3,4)            180.0            estimate D2E/DX2                !
 ! D2    D(1,2,3,12)             0.0            estimate D2E/DX2                !
 ! D3    D(7,2,3,4)              0.0            estimate D2E/DX2                !
 ! D4    D(7,2,3,12)           180.0            estimate D2E/DX2                !
 ! D5    D(1,2,7,6)            180.0            estimate D2E/DX2                !
 ! D6    D(1,2,7,8)              0.0            estimate D2E/DX2                !
 ! D7    D(3,2,7,6)              0.0            estimate D2E/DX2                !
 ! D8    D(3,2,7,8)            180.0            estimate D2E/DX2                !
 ! D9    D(2,3,4,5)              0.0            estimate D2E/DX2                !
 ! D10   D(2,3,4,13)           180.0            estimate D2E/DX2                !
 ! D11   D(12,3,4,5)           180.0            estimate D2E/DX2                !
 ! D12   D(12,3,4,13)            0.0            estimate D2E/DX2                !
 ! D13   D(3,4,5,6)              0.0            estimate D2E/DX2                !
 ! D14   D(3,4,5,14)           180.0            estimate D2E/DX2                !
 ! D15   D(13,4,5,6)           180.0            estimate D2E/DX2                !
 ! D16   D(13,4,5,14)            0.0            estimate D2E/DX2                !
 ! D17   D(4,5,6,7)              0.0            estimate D2E/DX2                !
 ! D18   D(4,5,6,11)           180.0            estimate D2E/DX2                !
 ! D19   D(14,5,6,7)           180.0            estimate D2E/DX2                !
 ! D20   D(14,5,6,11)            0.0            estimate D2E/DX2                !
 ! D21   D(5,6,7,2)              0.0            estimate D2E/DX2                !
 ! D22   D(5,6,7,8)            180.0            estimate D2E/DX2                !
 ! D23   D(11,6,7,2)           180.0            estimate D2E/DX2                !
 ! D24   D(11,6,7,8)             0.0            estimate D2E/DX2                !
 ! D25   D(5,6,11,10)          180.0            estimate D2E/DX2                !
 ! D26   D(5,6,11,18)            0.0            estimate D2E/DX2                !
 ! D27   D(7,6,11,10)            0.0            estimate D2E/DX2                !
 ! D28   D(7,6,11,18)          180.0            estimate D2E/DX2                !
 ! D29   D(2,7,8,9)            180.0            estimate D2E/DX2                !
 ! D30   D(2,7,8,15)             0.0            estimate D2E/DX2                !
 ! D31   D(6,7,8,9)              0.0            estimate D2E/DX2                !
 ! D32   D(6,7,8,15)           180.0            estimate D2E/DX2                !
 ! D33   D(7,8,9,10)             0.0            estimate D2E/DX2                !
 ! D34   D(7,8,9,16)           180.0            estimate D2E/DX2                !
 ! D35   D(15,8,9,10)          180.0            estimate D2E/DX2                !
 ! D36   D(15,8,9,16)            0.0            estimate D2E/DX2                !
 ! D37   D(8,9,10,11)            0.0            estimate D2E/DX2                !
 ! D38   D(8,9,10,17)          180.0            estimate D2E/DX2                !
 ! D39   D(16,9,10,11)         180.0            estimate D2E/DX2                !
 ! D40   D(16,9,10,17)           0.0            estimate D2E/DX2                !
 ! D41   D(9,10,11,6)            0.0            estimate D2E/DX2                !
 ! D42   D(9,10,11,18)         180.0            estimate D2E/DX2                !
 ! D43   D(17,10,11,6)         180.0            estimate D2E/DX2                !
 ! D44   D(17,10,11,18)          0.0            estimate D2E/DX2                !
 --------------------------------------------------------------------------------
 Trust Radius=3.00D-01 FncErr=1.00D-07 GrdErr=1.00D-06 EigMax=2.50D+02 EigMin=1.00D-04
 Number of steps in this run=    103 maximum allowed number of steps=    108.
 GradGradGradGradGradGradGradGradGradGradGradGradGradGradGradGradGradGrad

 Leave Link  103 at Sun Oct 13 23:38:56 2019, MaxMem= 10737418240 cpu:               0.2 elap:               0.0
 (Enter /apps/cent7/gaussian/g16-A.03/g16-haswell/g16/l202.exe)
                          Input orientation:                          
 ---------------------------------------------------------------------
 Center     Atomic      Atomic             Coordinates (Angstroms)
 Number     Number       Type             X           Y           Z
 ---------------------------------------------------------------------
      1          8           0        1.303500   -0.083100    0.000000
      2          7           0       -0.004700   -0.013300    0.000000
      3          6           0       -0.680000   -1.195100    0.000000
      4          6           0       -2.084100   -1.215500    0.000000
      5          6           0       -2.785700   -0.000100    0.000000
      6          6           0       -2.082500    1.224200    0.000000
      7          6           0       -0.655400    1.193600    0.000000
      8          6           0        0.050900    2.420200    0.000000
      9          6           0       -0.633900    3.646400    0.000000
     10          6           0       -2.038400    3.667800    0.000000
     11          6           0       -2.763800    2.462600    0.000000
     12          1           0       -0.100500   -2.118300    0.000000
     13          1           0       -2.622800   -2.163100    0.000000
     14          1           0       -3.875700   -0.007100    0.000000
     15          1           0        1.140900    2.420500    0.000000
     16          1           0       -0.074900    4.582200    0.000000
     17          1           0       -2.566400    4.621400    0.000000
     18          1           0       -3.853400    2.488300    0.000000
 ---------------------------------------------------------------------
                    Distance matrix (angstroms):
                    1          2          3          4          5
     1  O    0.000000
     2  N    1.310061   0.000000
     3  C    2.273943   1.361132   0.000000
     4  C    3.571857   2.401914   1.404248   0.000000
     5  C    4.090042   2.781031   2.421156   1.403367   0.000000
     6  C    3.629605   2.418400   2.796430   2.439701   1.411878
     7  C    2.338216   1.371138   2.388827   2.800883   2.441945
     8  C    2.799199   2.434135   3.688443   4.216223   3.728827
     9  C    4.202700   3.713394   4.841719   5.073574   4.234053
    10  C    5.023698   4.205524   5.049064   4.883514   3.743254
    11  C    4.798283   3.707117   4.209631   3.740376   2.462797
    12  H    2.472500   2.107179   1.090008   2.179385   3.420098
    13  H    4.443223   3.387637   2.170598   1.090020   2.169125
    14  H    5.179758   3.871005   3.409376   2.161032   1.090022
    15  H    2.508875   2.689941   4.048239   4.860156   4.612753
    16  H    4.864670   4.596036   5.808902   6.135977   5.324088
    17  H    6.091670   5.295541   6.114751   5.856792   4.626700
    18  H    5.762440   4.590261   4.861883   4.104699   2.707788
                    6          7          8          9         10
     6  C    0.000000
     7  C    1.427428   0.000000
     8  C    2.445774   1.415418   0.000000
     9  C    2.822321   2.452894   1.404463   0.000000
    10  C    2.443998   2.834494   2.433450   1.404663   0.000000
    11  C    1.413437   2.460836   2.815019   2.436772   1.406667
    12  H    3.885953   3.358064   4.541025   5.789325   6.102000
    13  H    3.430120   3.890771   5.306158   6.140522   5.860112
    14  H    2.175239   3.436861   4.616273   4.884397   4.108596
    15  H    3.438232   2.175311   1.090000   2.157022   3.415217
    16  H    3.912368   3.437963   2.165657   1.090047   2.165978
    17  H    3.431490   3.924504   3.419874   2.164528   1.090017
    18  H    2.175784   3.450138   3.904894   3.421458   2.164589
                   11         12         13         14         15
    11  C    0.000000
    12  H    5.298850   0.000000
    13  H    4.627848   2.522698   0.000000
    14  H    2.708457   4.325425   2.493611   0.000000
    15  H    3.904927   4.705505   5.930837   5.573107   0.000000
    16  H    3.423870   6.700549   7.210469   5.958838   2.480144
    17  H    2.167806   7.176644   6.784734   4.810123   4.311384
    18  H    1.089903   5.941803   4.811434   2.495500   4.994760
                   16         17         18
    16  H    0.000000
    17  H    2.491808   0.000000
    18  H    4.319893   2.491282   0.000000
 Stoichiometry    C9H7NO
 Framework group  CS[SG(C9H7NO)]
 Deg. of freedom    33
 Full point group                 CS      NOp   2
 Largest Abelian subgroup         CS      NOp   2
 Largest concise Abelian subgroup C1      NOp   1
                         Standard orientation:                         
 ---------------------------------------------------------------------
 Center     Atomic      Atomic             Coordinates (Angstroms)
 Number     Number       Type             X           Y           Z
 ---------------------------------------------------------------------
      1          8           0       -1.712656    2.050016   -0.000000
      2          7           0       -1.328464    0.797556   -0.000000
      3          6           0       -2.311802   -0.143575   -0.000000
      4          6           0       -1.991932   -1.510906   -0.000000
      5          6           0       -0.642907   -1.897652   -0.000000
      6          6           0        0.374920   -0.919168    0.000000
      7          6           0        0.000000    0.458143   -0.000000
      8          6           0        1.019308    1.440191    0.000000
      9          6           0        2.374748    1.072359    0.000000
     10          6           0        2.735274   -0.285249    0.000000
     11          6           0        1.741351   -1.280653    0.000000
     12          1           0       -3.347768    0.195383   -0.000000
     13          1           0       -2.781070   -2.262840   -0.000000
     14          1           0       -0.386018   -2.956971    0.000000
     15          1           0        0.755918    2.497889    0.000000
     16          1           0        3.147527    1.841135    0.000000
     17          1           0        3.788279   -0.566882    0.000000
     18          1           0        2.029871   -2.331673    0.000000
 ---------------------------------------------------------------------
 Rotational constants (GHZ):           2.0344134           1.1364987           0.7291619
 Leave Link  202 at Sun Oct 13 23:38:56 2019, MaxMem= 10737418240 cpu:               0.4 elap:               0.0
 (Enter /apps/cent7/gaussian/g16-A.03/g16-haswell/g16/l301.exe)
 Standard basis: 6-311++G(d,p) (5D, 7F)
 Ernie: Thresh=  0.10000D-02 Tol=  0.10000D-05 Strict=F.
 There are   229 symmetry adapted cartesian basis functions of A'  symmetry.
 There are    73 symmetry adapted cartesian basis functions of A"  symmetry.
 There are   218 symmetry adapted basis functions of A'  symmetry.
 There are    73 symmetry adapted basis functions of A"  symmetry.
   291 basis functions,   459 primitive gaussians,   302 cartesian basis functions
    38 alpha electrons       38 beta electrons
       nuclear repulsion energy       556.7407012078 Hartrees.
 IExCor= 4336 DFT=T Ex+Corr=M062X ExCW=0 ScaHFX=  0.540000
 ScaDFX=  1.000000  1.000000  1.000000  1.000000 ScalE2=  1.000000  1.000000
 IRadAn=      5 IRanWt=     -1 IRanGd=            0 ICorTp=0 IEmpDi=  4
 NAtoms=   18 NActive=   18 NUniq=   18 SFac= 1.00D+00 NAtFMM=   60 NAOKFM=F Big=F
 Integral buffers will be    131072 words long.
 Raffenetti 2 integral format.
 Two-electron integral symmetry is turned on.
 Leave Link  301 at Sun Oct 13 23:38:56 2019, MaxMem= 10737418240 cpu:               1.3 elap:               0.1
 (Enter /apps/cent7/gaussian/g16-A.03/g16-haswell/g16/l302.exe)
 NPDir=0 NMtPBC=     1 NCelOv=     1 NCel=       1 NClECP=     1 NCelD=      1
         NCelK=      1 NCelE2=     1 NClLst=     1 CellRange=     0.0.
 One-electron integrals computed using PRISM.
 One-electron integral symmetry used in STVInt
 NBasis=   291 RedAO= T EigKep=  1.67D-06  NBF=   218    73
 NBsUse=   290 1.00D-06 EigRej=  4.31D-07 NBFU=   217    73
 Precomputing XC quadrature grid using
 IXCGrd= 4 IRadAn=           5 IRanWt=          -1 IRanGd=           0 AccXCQ= 0.00D+00.
 Generated NRdTot=       0 NPtTot=           0 NUsed=           0 NTot=          32
 NSgBfM=   302   302   302   302   302 MxSgAt=    18 MxSgA2=    18.
 Leave Link  302 at Sun Oct 13 23:38:56 2019, MaxMem= 10737418240 cpu:               4.4 elap:               0.2
 (Enter /apps/cent7/gaussian/g16-A.03/g16-haswell/g16/l303.exe)
 DipDrv:  MaxL=1.
 Leave Link  303 at Sun Oct 13 23:38:56 2019, MaxMem= 10737418240 cpu:               0.9 elap:               0.1
 (Enter /apps/cent7/gaussian/g16-A.03/g16-haswell/g16/l401.exe)
 ExpMin= 3.60D-02 ExpMax= 8.59D+03 ExpMxC= 1.30D+03 IAcc=3 IRadAn=         5 AccDes= 0.00D+00
 Harris functional with IExCor= 1009 and IRadAn=       5 diagonalized for initial guess.
 HarFok:  IExCor= 1009 AccDes= 0.00D+00 IRadAn=         5 IDoV= 1 UseB2=F ITyADJ=14
 ICtDFT=  3500011 ScaDFX=  1.000000  1.000000  1.000000  1.000000
 FoFCou: FMM=F IPFlag=           0 FMFlag=      100000 FMFlg1=           0
         NFxFlg=           0 DoJE=T BraDBF=F KetDBF=T FulRan=T
         wScrn=  0.000000 ICntrl=       500 IOpCl=  0 I1Cent=   200000004 NGrid=           0
         NMat0=    1 NMatS0=      1 NMatT0=    0 NMatD0=    1 NMtDS0=    0 NMtDT0=    0
 Petite list used in FoFCou.
 Harris En= -476.784839069038    
 JPrj=0 DoOrth=F DoCkMO=F.
 Initial guess orbital symmetries:
       Occupied  (A') (A') (A') (A') (A') (A') (A') (A') (A') (A')
                 (A') (A') (A') (A') (A') (A') (A') (A') (A') (A')
                 (A') (A') (A') (A') (A') (A') (A') (A') (A") (A')
                 (A') (A') (A") (A") (A") (A") (A') (A")
       Virtual   (A") (A") (A") (A") (A') (A') (A') (A') (A') (A')
                 (A") (A') (A') (A") (A') (A") (A') (A') (A') (A")
                 (A') (A') (A') (A') (A") (A") (A') (A') (A') (A')
                 (A') (A") (A') (A') (A') (A") (A') (A') (A") (A')
                 (A') (A') (A') (A') (A") (A') (A') (A') (A') (A')
                 (A') (A') (A") (A') (A') (A") (A') (A') (A') (A')
                 (A') (A') (A') (A') (A') (A') (A') (A') (A') (A')
                 (A') (A') (A') (A') (A") (A') (A') (A') (A") (A')
                 (A") (A') (A") (A') (A") (A') (A") (A") (A') (A")
                 (A') (A') (A') (A") (A') (A') (A') (A') (A') (A')
                 (A') (A') (A') (A') (A') (A') (A') (A") (A') (A")
                 (A") (A') (A') (A') (A") (A') (A") (A") (A') (A")
                 (A') (A") (A') (A") (A") (A') (A') (A') (A') (A')
                 (A") (A') (A') (A') (A') (A') (A") (A') (A') (A")
                 (A") (A') (A") (A') (A') (A') (A') (A') (A") (A")
                 (A') (A") (A') (A") (A') (A') (A") (A') (A") (A')
                 (A') (A') (A') (A") (A') (A') (A") (A') (A') (A")
                 (A') (A") (A') (A") (A') (A") (A') (A') (A") (A')
                 (A') (A') (A') (A') (A") (A') (A") (A') (A') (A")
                 (A') (A') (A') (A") (A') (A") (A') (A') (A') (A')
                 (A") (A') (A") (A') (A') (A") (A') (A') (A") (A')
                 (A") (A") (A') (A') (A") (A') (A') (A') (A') (A')
                 (A') (A') (A') (A') (A') (A') (A') (A") (A') (A')
                 (A') (A') (A') (A') (A') (A') (A') (A") (A') (A')
                 (A') (A') (A') (A') (A') (A') (A') (A') (A') (A')
                 (A') (A')
 The electronic state of the initial guess is 1-A'.
 Leave Link  401 at Sun Oct 13 23:38:57 2019, MaxMem= 10737418240 cpu:               8.1 elap:               0.4
 (Enter /apps/cent7/gaussian/g16-A.03/g16-haswell/g16/l502.exe)
 Integral symmetry usage will be decided dynamically.
 Closed shell SCF:
 Using DIIS extrapolation, IDIIS=  1040.
 NGot= 10737418240 LenX= 10737224988 LenY= 10737133343
 Requested convergence on RMS density matrix=1.00D-08 within 128 cycles.
 Requested convergence on MAX density matrix=1.00D-06.
 Requested convergence on             energy=1.00D-06.
 No special actions if energy rises.
 Fock matrices will be formed incrementally for  20 cycles.

 Cycle   1  Pass 1  IDiag  1:
 FoFJK:  IHMeth= 1 ICntrl=       0 DoSepK=F KAlg= 0 I1Cent=           0 FoldK=F
 IRaf= 940000000 NMat=       1 IRICut=       1 DoRegI=T DoRafI=F ISym2E= 1 IDoP0=0 IntGTp=1.
 FoFCou: FMM=F IPFlag=           0 FMFlag=      100000 FMFlg1=           0
         NFxFlg=           0 DoJE=F BraDBF=F KetDBF=F FulRan=T
         wScrn=  0.000000 ICntrl=         0 IOpCl=  0 I1Cent=           0 NGrid=           0
         NMat0=    1 NMatS0=      1 NMatT0=    0 NMatD0=    1 NMtDS0=    0 NMtDT0=    0
 Petite list used in FoFCou.
 E= -476.743328983838    
 DIIS: error= 4.92D-02 at cycle   1 NSaved=   1.
 NSaved= 1 IEnMin= 1 EnMin= -476.743328983838     IErMin= 1 ErrMin= 4.92D-02
 ErrMax= 4.92D-02  0.00D+00 EMaxC= 1.00D-01 BMatC= 3.51D-01 BMatP= 3.51D-01
 IDIUse=3 WtCom= 5.08D-01 WtEn= 4.92D-01
 Coeff-Com:  0.100D+01
 Coeff-En:   0.100D+01
 Coeff:      0.100D+01
 Gap=     0.211 Goal=   None    Shift=    0.000
 GapD=    0.211 DampG=1.000 DampE=0.500 DampFc=0.5000 IDamp=-1.
 Damping current iteration by 5.00D-01
 RMSDP=4.19D-02 MaxDP=2.59D+00              OVMax= 1.73D-01

 Cycle   2  Pass 1  IDiag  1:
 RMSU=  1.89D-02    CP:  1.09D+00
 E= -476.860444418355     Delta-E=       -0.117115434517 Rises=F Damp=T
 DIIS: error= 9.99D-03 at cycle   2 NSaved=   2.
 NSaved= 2 IEnMin= 2 EnMin= -476.860444418355     IErMin= 2 ErrMin= 9.99D-03
 ErrMax= 9.99D-03  0.00D+00 EMaxC= 1.00D-01 BMatC= 3.87D-02 BMatP= 3.51D-01
 IDIUse=3 WtCom= 9.00D-01 WtEn= 9.99D-02
 Coeff-Com:  0.120D-01 0.988D+00
 Coeff-En:   0.586D-01 0.941D+00
 Coeff:      0.167D-01 0.983D+00
 Gap=     0.229 Goal=   None    Shift=    0.000
 RMSDP=1.64D-02 MaxDP=1.82D+00 DE=-1.17D-01 OVMax= 1.24D-01

 Cycle   3  Pass 1  IDiag  1:
 RMSU=  6.71D-03    CP:  9.41D-01  9.03D-01
 E= -476.986816101393     Delta-E=       -0.126371683038 Rises=F Damp=F
 DIIS: error= 1.69D-02 at cycle   3 NSaved=   3.
 NSaved= 3 IEnMin= 3 EnMin= -476.986816101393     IErMin= 2 ErrMin= 9.99D-03
 ErrMax= 1.69D-02  0.00D+00 EMaxC= 1.00D-01 BMatC= 2.40D-02 BMatP= 3.87D-02
 IDIUse=3 WtCom= 8.31D-01 WtEn= 1.69D-01
 Coeff-Com: -0.983D-01 0.469D+00 0.629D+00
 Coeff-En:   0.000D+00 0.000D+00 0.100D+01
 Coeff:     -0.817D-01 0.390D+00 0.692D+00
 Gap=     0.204 Goal=   None    Shift=    0.000
 RMSDP=5.26D-03 MaxDP=3.53D-01 DE=-1.26D-01 OVMax= 4.45D-02

 Cycle   4  Pass 1  IDiag  1:
 RMSU=  3.28D-03    CP:  9.41D-01  1.03D+00  5.10D-01
 E= -477.002245317322     Delta-E=       -0.015429215929 Rises=F Damp=F
 DIIS: error= 6.64D-03 at cycle   4 NSaved=   4.
 NSaved= 4 IEnMin= 4 EnMin= -477.002245317322     IErMin= 4 ErrMin= 6.64D-03
 ErrMax= 6.64D-03  0.00D+00 EMaxC= 1.00D-01 BMatC= 5.10D-03 BMatP= 2.40D-02
 IDIUse=3 WtCom= 9.34D-01 WtEn= 6.64D-02
 Coeff-Com: -0.226D-01 0.783D-01 0.355D+00 0.590D+00
 Coeff-En:   0.000D+00 0.000D+00 0.194D+00 0.806D+00
 Coeff:     -0.211D-01 0.731D-01 0.344D+00 0.604D+00
 Gap=     0.206 Goal=   None    Shift=    0.000
 RMSDP=3.69D-03 MaxDP=2.67D-01 DE=-1.54D-02 OVMax= 2.08D-02

 Cycle   5  Pass 1  IDiag  1:
 RMSU=  1.02D-03    CP:  9.15D-01  9.62D-01  7.15D-01  5.11D-01
 E= -477.006590944321     Delta-E=       -0.004345627000 Rises=F Damp=F
 DIIS: error= 1.15D-03 at cycle   5 NSaved=   5.
 NSaved= 5 IEnMin= 5 EnMin= -477.006590944321     IErMin= 5 ErrMin= 1.15D-03
 ErrMax= 1.15D-03  0.00D+00 EMaxC= 1.00D-01 BMatC= 1.90D-04 BMatP= 5.10D-03
 IDIUse=3 WtCom= 9.88D-01 WtEn= 1.15D-02
 Coeff-Com: -0.754D-02 0.194D-01 0.152D+00 0.317D+00 0.519D+00
 Coeff-En:   0.000D+00 0.000D+00 0.000D+00 0.000D+00 0.100D+01
 Coeff:     -0.745D-02 0.192D-01 0.150D+00 0.313D+00 0.525D+00
 Gap=     0.204 Goal=   None    Shift=    0.000
 RMSDP=4.32D-04 MaxDP=5.01D-02 DE=-4.35D-03 OVMax= 6.18D-03

 Cycle   6  Pass 1  IDiag  1:
 RMSU=  2.01D-04    CP:  9.18D-01  9.65D-01  6.95D-01  5.46D-01  8.72D-01
 E= -477.006739653068     Delta-E=       -0.000148708746 Rises=F Damp=F
 DIIS: error= 5.00D-04 at cycle   6 NSaved=   6.
 NSaved= 6 IEnMin= 6 EnMin= -477.006739653068     IErMin= 6 ErrMin= 5.00D-04
 ErrMax= 5.00D-04  0.00D+00 EMaxC= 1.00D-01 BMatC= 1.73D-05 BMatP= 1.90D-04
 IDIUse=3 WtCom= 9.95D-01 WtEn= 5.00D-03
 Coeff-Com: -0.349D-03-0.150D-02 0.268D-01 0.790D-01 0.261D+00 0.635D+00
 Coeff-En:   0.000D+00 0.000D+00 0.000D+00 0.000D+00 0.450D-02 0.996D+00
 Coeff:     -0.348D-03-0.149D-02 0.267D-01 0.786D-01 0.260D+00 0.637D+00
 Gap=     0.205 Goal=   None    Shift=    0.000
 RMSDP=1.45D-04 MaxDP=1.45D-02 DE=-1.49D-04 OVMax= 3.15D-03

 Cycle   7  Pass 1  IDiag  1:
 RMSU=  8.37D-05    CP:  9.19D-01  9.61D-01  6.94D-01  5.63D-01  8.38D-01
                    CP:  1.01D+00
 E= -477.006755045497     Delta-E=       -0.000015392430 Rises=F Damp=F
 DIIS: error= 1.29D-04 at cycle   7 NSaved=   7.
 NSaved= 7 IEnMin= 7 EnMin= -477.006755045497     IErMin= 7 ErrMin= 1.29D-04
 ErrMax= 1.29D-04  0.00D+00 EMaxC= 1.00D-01 BMatC= 2.83D-06 BMatP= 1.73D-05
 IDIUse=3 WtCom= 9.99D-01 WtEn= 1.29D-03
 Coeff-Com:  0.560D-03-0.258D-02-0.756D-03 0.105D-01 0.721D-01 0.345D+00
 Coeff-Com:  0.575D+00
 Coeff-En:   0.000D+00 0.000D+00 0.000D+00 0.000D+00 0.000D+00 0.249D-01
 Coeff-En:   0.975D+00
 Coeff:      0.559D-03-0.258D-02-0.755D-03 0.105D-01 0.720D-01 0.345D+00
 Coeff:      0.575D+00
 Gap=     0.205 Goal=   None    Shift=    0.000
 RMSDP=3.19D-05 MaxDP=2.46D-03 DE=-1.54D-05 OVMax= 6.88D-04

 Cycle   8  Pass 1  IDiag  1:
 RMSU=  2.71D-05    CP:  9.19D-01  9.61D-01  6.94D-01  5.63D-01  8.40D-01
                    CP:  1.06D+00  9.67D-01
 E= -477.006757892540     Delta-E=       -0.000002847043 Rises=F Damp=F
 DIIS: error= 4.59D-05 at cycle   8 NSaved=   8.
 NSaved= 8 IEnMin= 8 EnMin= -477.006757892540     IErMin= 8 ErrMin= 4.59D-05
 ErrMax= 4.59D-05  0.00D+00 EMaxC= 1.00D-01 BMatC= 2.74D-07 BMatP= 2.83D-06
 IDIUse=1 WtCom= 1.00D+00 WtEn= 0.00D+00
 Coeff-Com:  0.368D-03-0.863D-03-0.751D-02-0.156D-01-0.429D-01 0.504D-02
 Coeff-Com:  0.234D+00 0.828D+00
 Coeff:      0.368D-03-0.863D-03-0.751D-02-0.156D-01-0.429D-01 0.504D-02
 Coeff:      0.234D+00 0.828D+00
 Gap=     0.205 Goal=   None    Shift=    0.000
 RMSDP=2.65D-05 MaxDP=3.30D-03 DE=-2.85D-06 OVMax= 4.57D-04

 Cycle   9  Pass 1  IDiag  1:
 RMSU=  1.05D-05    CP:  9.19D-01  9.61D-01  6.94D-01  5.62D-01  8.54D-01
                    CP:  1.09D+00  1.08D+00  8.70D-01
 E= -477.006758377913     Delta-E=       -0.000000485373 Rises=F Damp=F
 DIIS: error= 1.34D-05 at cycle   9 NSaved=   9.
 NSaved= 9 IEnMin= 9 EnMin= -477.006758377913     IErMin= 9 ErrMin= 1.34D-05
 ErrMax= 1.34D-05  0.00D+00 EMaxC= 1.00D-01 BMatC= 2.46D-08 BMatP= 2.74D-07
 IDIUse=1 WtCom= 1.00D+00 WtEn= 0.00D+00
 Coeff-Com:  0.327D-04-0.533D-06-0.161D-02-0.393D-02-0.154D-01-0.111D-01
 Coeff-Com: -0.410D-02 0.193D+00 0.843D+00
 Coeff:      0.327D-04-0.533D-06-0.161D-02-0.393D-02-0.154D-01-0.111D-01
 Coeff:     -0.410D-02 0.193D+00 0.843D+00
 Gap=     0.205 Goal=   None    Shift=    0.000
 RMSDP=6.47D-06 MaxDP=4.69D-04 DE=-4.85D-07 OVMax= 1.00D-04

 Cycle  10  Pass 1  IDiag  1:
 RMSU=  2.51D-06    CP:  9.19D-01  9.61D-01  6.94D-01  5.62D-01  8.52D-01
                    CP:  1.10D+00  1.07D+00  9.56D-01  9.41D-01
 E= -477.006758416319     Delta-E=       -0.000000038406 Rises=F Damp=F
 DIIS: error= 4.91D-06 at cycle  10 NSaved=  10.
 NSaved=10 IEnMin=10 EnMin= -477.006758416319     IErMin=10 ErrMin= 4.91D-06
 ErrMax= 4.91D-06  0.00D+00 EMaxC= 1.00D-01 BMatC= 7.24D-09 BMatP= 2.46D-08
 IDIUse=1 WtCom= 1.00D+00 WtEn= 0.00D+00
 Coeff-Com: -0.600D-04 0.168D-03 0.726D-03 0.133D-02 0.790D-03-0.364D-02
 Coeff-Com: -0.600D-01-0.798D-01 0.396D+00 0.745D+00
 Coeff:     -0.600D-04 0.168D-03 0.726D-03 0.133D-02 0.790D-03-0.364D-02
 Coeff:     -0.600D-01-0.798D-01 0.396D+00 0.745D+00
 Gap=     0.205 Goal=   None    Shift=    0.000
 RMSDP=3.51D-06 MaxDP=2.46D-04 DE=-3.84D-08 OVMax= 4.71D-05

 Cycle  11  Pass 1  IDiag  1:
 RMSU=  1.11D-06    CP:  9.19D-01  9.61D-01  6.94D-01  5.62D-01  8.52D-01
                    CP:  1.11D+00  1.07D+00  9.87D-01  1.04D+00  1.03D+00
 E= -477.006758426230     Delta-E=       -0.000000009910 Rises=F Damp=F
 DIIS: error= 1.37D-06 at cycle  11 NSaved=  11.
 NSaved=11 IEnMin=11 EnMin= -477.006758426230     IErMin=11 ErrMin= 1.37D-06
 ErrMax= 1.37D-06  0.00D+00 EMaxC= 1.00D-01 BMatC= 3.88D-10 BMatP= 7.24D-09
 IDIUse=1 WtCom= 1.00D+00 WtEn= 0.00D+00
 Coeff-Com: -0.155D-04 0.372D-04 0.304D-03 0.674D-03 0.125D-02 0.848D-03
 Coeff-Com: -0.176D-01-0.345D-01 0.223D-01 0.174D+00 0.853D+00
 Coeff:     -0.155D-04 0.372D-04 0.304D-03 0.674D-03 0.125D-02 0.848D-03
 Coeff:     -0.176D-01-0.345D-01 0.223D-01 0.174D+00 0.853D+00
 Gap=     0.205 Goal=   None    Shift=    0.000
 RMSDP=1.44D-06 MaxDP=7.87D-05 DE=-9.91D-09 OVMax= 1.25D-05

 Cycle  12  Pass 1  IDiag  1:
 RMSU=  3.43D-07    CP:  9.19D-01  9.61D-01  6.94D-01  5.62D-01  8.52D-01
                    CP:  1.11D+00  1.07D+00  9.99D-01  1.06D+00  1.10D+00
                    CP:  1.14D+00
 E= -477.006758426780     Delta-E=       -0.000000000550 Rises=F Damp=F
 DIIS: error= 5.62D-07 at cycle  12 NSaved=  12.
 NSaved=12 IEnMin=12 EnMin= -477.006758426780     IErMin=12 ErrMin= 5.62D-07
 ErrMax= 5.62D-07  0.00D+00 EMaxC= 1.00D-01 BMatC= 4.44D-11 BMatP= 3.88D-10
 IDIUse=1 WtCom= 1.00D+00 WtEn= 0.00D+00
 Coeff-Com:  0.100D-05-0.365D-05 0.377D-04 0.112D-03 0.290D-03 0.809D-03
 Coeff-Com: -0.107D-02-0.309D-02-0.265D-01-0.152D-01 0.290D+00 0.755D+00
 Coeff:      0.100D-05-0.365D-05 0.377D-04 0.112D-03 0.290D-03 0.809D-03
 Coeff:     -0.107D-02-0.309D-02-0.265D-01-0.152D-01 0.290D+00 0.755D+00
 Gap=     0.205 Goal=   None    Shift=    0.000
 RMSDP=5.01D-07 MaxDP=3.08D-05 DE=-5.50D-10 OVMax= 3.64D-06

 Cycle  13  Pass 1  IDiag  1:
 RMSU=  1.05D-07    CP:  9.19D-01  9.61D-01  6.94D-01  5.62D-01  8.52D-01
                    CP:  1.11D+00  1.06D+00  1.00D+00  1.06D+00  1.12D+00
                    CP:  1.24D+00  1.12D+00
 E= -477.006758426835     Delta-E=       -0.000000000055 Rises=F Damp=F
 DIIS: error= 1.85D-07 at cycle  13 NSaved=  13.
 NSaved=13 IEnMin=13 EnMin= -477.006758426835     IErMin=13 ErrMin= 1.85D-07
 ErrMax= 1.85D-07  0.00D+00 EMaxC= 1.00D-01 BMatC= 8.96D-12 BMatP= 4.44D-11
 IDIUse=1 WtCom= 1.00D+00 WtEn= 0.00D+00
 Coeff-Com:  0.300D-05-0.766D-05-0.323D-04-0.590D-04-0.934D-04 0.260D-03
 Coeff-Com:  0.220D-02 0.493D-02-0.123D-01-0.375D-01-0.330D-01 0.329D+00
 Coeff-Com:  0.747D+00
 Coeff:      0.300D-05-0.766D-05-0.323D-04-0.590D-04-0.934D-04 0.260D-03
 Coeff:      0.220D-02 0.493D-02-0.123D-01-0.375D-01-0.330D-01 0.329D+00
 Coeff:      0.747D+00
 Gap=     0.205 Goal=   None    Shift=    0.000
 RMSDP=1.60D-07 MaxDP=1.02D-05 DE=-5.55D-11 OVMax= 1.81D-06

 Cycle  14  Pass 1  IDiag  1:
 RMSU=  3.92D-08    CP:  9.19D-01  9.61D-01  6.94D-01  5.62D-01  8.52D-01
                    CP:  1.11D+00  1.06D+00  1.00D+00  1.05D+00  1.13D+00
                    CP:  1.26D+00  1.17D+00  9.73D-01
 E= -477.006758426836     Delta-E=       -0.000000000000 Rises=F Damp=F
 DIIS: error= 8.08D-08 at cycle  14 NSaved=  14.
 NSaved=14 IEnMin=14 EnMin= -477.006758426836     IErMin=14 ErrMin= 8.08D-08
 ErrMax= 8.08D-08  0.00D+00 EMaxC= 1.00D-01 BMatC= 9.22D-13 BMatP= 8.96D-12
 IDIUse=1 WtCom= 1.00D+00 WtEn= 0.00D+00
 Coeff-Com:  0.117D-05-0.295D-05-0.166D-04-0.348D-04-0.700D-04 0.552D-04
 Coeff-Com:  0.907D-03 0.248D-02-0.271D-02-0.158D-01-0.398D-01 0.842D-01
 Coeff-Com:  0.275D+00 0.696D+00
 Coeff:      0.117D-05-0.295D-05-0.166D-04-0.348D-04-0.700D-04 0.552D-04
 Coeff:      0.907D-03 0.248D-02-0.271D-02-0.158D-01-0.398D-01 0.842D-01
 Coeff:      0.275D+00 0.696D+00
 Gap=     0.205 Goal=   None    Shift=    0.000
 RMSDP=3.93D-08 MaxDP=2.88D-06 DE=-4.55D-13 OVMax= 5.29D-07

 Cycle  15  Pass 1  IDiag  1:
 RMSU=  1.33D-08    CP:  9.19D-01  9.61D-01  6.94D-01  5.62D-01  8.52D-01
                    CP:  1.11D+00  1.06D+00  1.00D+00  1.05D+00  1.13D+00
                    CP:  1.26D+00  1.18D+00  9.92D-01  1.10D+00
 E= -477.006758426848     Delta-E=       -0.000000000013 Rises=F Damp=F
 DIIS: error= 6.73D-08 at cycle  15 NSaved=  15.
 NSaved=15 IEnMin=15 EnMin= -477.006758426848     IErMin=15 ErrMin= 6.73D-08
 ErrMax= 6.73D-08  0.00D+00 EMaxC= 1.00D-01 BMatC= 2.53D-13 BMatP= 9.22D-13
 IDIUse=1 WtCom= 1.00D+00 WtEn= 0.00D+00
 Coeff-Com: -0.266D-06 0.712D-06 0.895D-06-0.993D-06-0.148D-04-0.328D-04
 Coeff-Com: -0.269D-03-0.694D-04 0.243D-02 0.241D-02-0.959D-02-0.429D-01
 Coeff-Com: -0.916D-01 0.333D+00 0.807D+00
 Coeff:     -0.266D-06 0.712D-06 0.895D-06-0.993D-06-0.148D-04-0.328D-04
 Coeff:     -0.269D-03-0.694D-04 0.243D-02 0.241D-02-0.959D-02-0.429D-01
 Coeff:     -0.916D-01 0.333D+00 0.807D+00
 Gap=     0.205 Goal=   None    Shift=    0.000
 RMSDP=1.95D-08 MaxDP=1.18D-06 DE=-1.27D-11 OVMax= 3.20D-07

 Cycle  16  Pass 1  IDiag  1:
 RMSU=  6.78D-09    CP:  9.19D-01  9.61D-01  6.94D-01  5.62D-01  8.52D-01
                    CP:  1.11D+00  1.06D+00  1.00D+00  1.05D+00  1.13D+00
                    CP:  1.26D+00  1.18D+00  1.01D+00  1.16D+00  8.50D-01
 E= -477.006758426848     Delta-E=        0.000000000000 Rises=F Damp=F
 DIIS: error= 7.94D-09 at cycle  16 NSaved=  16.
 NSaved=16 IEnMin=15 EnMin= -477.006758426848     IErMin=16 ErrMin= 7.94D-09
 ErrMax= 7.94D-09  0.00D+00 EMaxC= 1.00D-01 BMatC= 1.41D-14 BMatP= 2.53D-13
 IDIUse=1 WtCom= 1.00D+00 WtEn= 0.00D+00
 Coeff-Com: -0.109D-06 0.289D-06 0.120D-05 0.196D-05-0.585D-07-0.645D-05
 Coeff-Com: -0.133D-03-0.158D-03 0.678D-03 0.142D-02 0.117D-02-0.133D-01
 Coeff-Com: -0.436D-01 0.386D-04 0.154D+00 0.900D+00
 Coeff:     -0.109D-06 0.289D-06 0.120D-05 0.196D-05-0.585D-07-0.645D-05
 Coeff:     -0.133D-03-0.158D-03 0.678D-03 0.142D-02 0.117D-02-0.133D-01
 Coeff:     -0.436D-01 0.386D-04 0.154D+00 0.900D+00
 Gap=     0.205 Goal=   None    Shift=    0.000
 RMSDP=6.16D-09 MaxDP=4.70D-07 DE= 0.00D+00 OVMax= 8.11D-08

 SCF Done:  E(RM062X) =  -477.006758427     A.U. after   16 cycles
            NFock= 16  Conv=0.62D-08     -V/T= 2.0048
 KE= 4.747431486126D+02 PE=-2.223158284671D+03 EE= 7.146676764234D+02
 Leave Link  502 at Sun Oct 13 23:39:11 2019, MaxMem= 10737418240 cpu:             331.5 elap:              13.9
 (Enter /apps/cent7/gaussian/g16-A.03/g16-haswell/g16/l601.exe)
 Copying SCF densities to generalized density rwf, IOpCl= 0 IROHF=0.

 **********************************************************************

            Population analysis using the SCF density.

 **********************************************************************

 Orbital symmetries:
       Occupied  (A') (A') (A') (A') (A') (A') (A') (A') (A') (A')
                 (A') (A') (A') (A') (A') (A') (A') (A') (A') (A')
                 (A') (A') (A') (A") (A') (A') (A') (A') (A') (A')
                 (A") (A') (A') (A") (A") (A") (A') (A")
       Virtual   (A") (A") (A') (A') (A') (A") (A') (A') (A') (A")
                 (A') (A') (A") (A") (A") (A') (A') (A') (A') (A")
                 (A') (A') (A') (A") (A') (A") (A') (A") (A') (A')
                 (A') (A') (A") (A') (A') (A') (A") (A') (A') (A')
                 (A") (A') (A') (A') (A') (A') (A') (A') (A') (A')
                 (A") (A') (A') (A') (A") (A') (A') (A') (A') (A')
                 (A') (A') (A') (A') (A') (A') (A') (A') (A') (A')
                 (A') (A') (A') (A") (A') (A") (A') (A') (A') (A")
                 (A') (A") (A') (A') (A") (A") (A") (A') (A") (A')
                 (A") (A') (A') (A') (A') (A') (A') (A') (A') (A')
                 (A') (A') (A') (A') (A') (A') (A") (A') (A') (A')
                 (A') (A') (A") (A") (A') (A') (A") (A') (A") (A")
                 (A') (A') (A") (A") (A') (A") (A") (A') (A') (A')
                 (A") (A') (A') (A') (A') (A") (A') (A') (A') (A")
                 (A") (A') (A") (A') (A') (A') (A') (A') (A") (A")
                 (A") (A') (A') (A") (A') (A') (A") (A') (A') (A")
                 (A') (A') (A') (A") (A') (A') (A") (A') (A') (A")
                 (A') (A") (A") (A') (A') (A") (A') (A') (A") (A')
                 (A') (A') (A') (A") (A') (A') (A') (A') (A') (A")
                 (A') (A') (A') (A') (A') (A") (A') (A') (A') (A")
                 (A') (A") (A') (A") (A") (A') (A") (A') (A") (A")
                 (A') (A") (A') (A') (A") (A') (A') (A') (A') (A')
                 (A') (A') (A') (A') (A') (A') (A') (A") (A') (A')
                 (A') (A') (A') (A') (A') (A') (A') (A") (A') (A')
                 (A') (A') (A') (A') (A') (A') (A') (A') (A') (A')
                 (A') (A')
 The electronic state is 1-A'.
 Alpha  occ. eigenvalues --  -19.58909 -14.90372 -10.61195 -10.60536 -10.58625
 Alpha  occ. eigenvalues --  -10.57991 -10.57633 -10.57410 -10.57151 -10.57044
 Alpha  occ. eigenvalues --  -10.56967  -1.21785  -1.01899  -0.96297  -0.91277
 Alpha  occ. eigenvalues --   -0.88108  -0.84943  -0.76260  -0.74628  -0.70000
 Alpha  occ. eigenvalues --   -0.63823  -0.61432  -0.60477  -0.55586  -0.55291
 Alpha  occ. eigenvalues --   -0.53747  -0.52393  -0.51893  -0.49413  -0.46853
 Alpha  occ. eigenvalues --   -0.45429  -0.43563  -0.42226  -0.40430  -0.32989
 Alpha  occ. eigenvalues --   -0.32818  -0.32811  -0.26212
 Alpha virt. eigenvalues --   -0.05708  -0.01479  -0.00889   0.00059   0.01029
 Alpha virt. eigenvalues --    0.01991   0.02241   0.02739   0.04556   0.04753
 Alpha virt. eigenvalues --    0.04913   0.05844   0.07588   0.08148   0.08921
 Alpha virt. eigenvalues --    0.08982   0.09597   0.09804   0.10971   0.11661
 Alpha virt. eigenvalues --    0.11680   0.12145   0.12527   0.12577   0.13037
 Alpha virt. eigenvalues --    0.13786   0.14018   0.14994   0.15090   0.15504
 Alpha virt. eigenvalues --    0.16021   0.16292   0.16754   0.17069   0.17861
 Alpha virt. eigenvalues --    0.19565   0.20002   0.20125   0.20762   0.21818
 Alpha virt. eigenvalues --    0.22806   0.22887   0.22912   0.23766   0.24226
 Alpha virt. eigenvalues --    0.25390   0.25908   0.26143   0.27474   0.27613
 Alpha virt. eigenvalues --    0.27704   0.28315   0.28743   0.29858   0.30519
 Alpha virt. eigenvalues --    0.30954   0.31252   0.32290   0.32371   0.33016
 Alpha virt. eigenvalues --    0.33714   0.34833   0.35706   0.37981   0.38152
 Alpha virt. eigenvalues --    0.39571   0.41276   0.42904   0.45057   0.50340
 Alpha virt. eigenvalues --    0.50705   0.51508   0.52772   0.55311   0.55692
 Alpha virt. eigenvalues --    0.57815   0.57938   0.58113   0.59327   0.59354
 Alpha virt. eigenvalues --    0.60601   0.60734   0.61230   0.63047   0.63648
 Alpha virt. eigenvalues --    0.64711   0.65127   0.66172   0.69009   0.70694
 Alpha virt. eigenvalues --    0.73669   0.74095   0.75456   0.76171   0.77895
 Alpha virt. eigenvalues --    0.79339   0.80249   0.80670   0.84091   0.84262
 Alpha virt. eigenvalues --    0.85088   0.86764   0.87750   0.89198   0.90399
 Alpha virt. eigenvalues --    0.91962   0.92535   0.92916   0.93369   0.93824
 Alpha virt. eigenvalues --    0.95968   0.98145   0.99599   1.00759   1.01338
 Alpha virt. eigenvalues --    1.06604   1.06636   1.08727   1.08798   1.11431
 Alpha virt. eigenvalues --    1.12103   1.13444   1.13690   1.15765   1.19111
 Alpha virt. eigenvalues --    1.19703   1.20085   1.26743   1.30742   1.36637
 Alpha virt. eigenvalues --    1.37917   1.37930   1.44212   1.48152   1.52253
 Alpha virt. eigenvalues --    1.52952   1.53879   1.54051   1.55710   1.58770
 Alpha virt. eigenvalues --    1.59236   1.59444   1.60559   1.62741   1.64855
 Alpha virt. eigenvalues --    1.66208   1.68325   1.71042   1.74000   1.75365
 Alpha virt. eigenvalues --    1.76188   1.76511   1.79532   1.80425   1.81831
 Alpha virt. eigenvalues --    1.86239   1.90048   1.90586   1.91250   1.92296
 Alpha virt. eigenvalues --    1.93248   1.94434   1.95834   1.96891   1.99827
 Alpha virt. eigenvalues --    2.00290   2.00490   2.05933   2.07209   2.07663
 Alpha virt. eigenvalues --    2.11476   2.16287   2.19174   2.20428   2.21581
 Alpha virt. eigenvalues --    2.25063   2.29404   2.34111   2.37921   2.45731
 Alpha virt. eigenvalues --    2.46857   2.49076   2.50065   2.52973   2.53748
 Alpha virt. eigenvalues --    2.59440   2.64183   2.66162   2.69779   2.70415
 Alpha virt. eigenvalues --    2.71940   2.72715   2.73947   2.74683   2.75856
 Alpha virt. eigenvalues --    2.75946   2.76339   2.78073   2.81147   2.83203
 Alpha virt. eigenvalues --    2.83808   2.84066   2.87977   2.89469   2.91402
 Alpha virt. eigenvalues --    2.92588   2.94701   2.97619   3.02209   3.04444
 Alpha virt. eigenvalues --    3.04926   3.11296   3.22129   3.28094   3.28908
 Alpha virt. eigenvalues --    3.36415   3.37810   3.40390   3.43045   3.45959
 Alpha virt. eigenvalues --    3.50135   3.53238   3.56784   3.60706   3.68784
 Alpha virt. eigenvalues --    3.76667   3.81483   3.94159   3.99570   4.05487
 Alpha virt. eigenvalues --    4.05810   4.11753   4.19121   4.20241   4.50142
 Alpha virt. eigenvalues --    4.68559   4.81960   5.17636   5.21813   5.35034
 Alpha virt. eigenvalues --    6.03359  23.67709  23.89482  23.98374  24.00556
 Alpha virt. eigenvalues --   24.04850  24.07694  24.10192  24.14577  24.19281
 Alpha virt. eigenvalues --   35.62172  50.10774
          Condensed to atoms (all electrons):
               1          2          3          4          5          6
     1  O    8.104721   0.236762  -0.095668   0.017079   0.115597   0.350649
     2  N    0.236762   7.364673  -0.064510   0.158964   0.022230   0.287692
     3  C   -0.095668  -0.064510  12.673211  -5.292826   6.139014  -4.140171
     4  C    0.017079   0.158964  -5.292826  11.086039  -7.047412   4.271103
     5  C    0.115597   0.022230   6.139014  -7.047412  26.193690 -12.427585
     6  C    0.350649   0.287692  -4.140171   4.271103 -12.427585  23.692639
     7  C   -0.702463  -0.823967  -3.302860   2.911867  -7.047140  -2.478218
     8  C   -0.025512  -0.261901   0.003925   0.316435  -1.290958  -3.393286
     9  C    0.148837   0.207323   0.796919  -0.603935   2.040380  -0.193931
    10  C   -0.016962  -0.010861  -0.470673   0.118131  -1.962539   0.531550
    11  C   -0.009993  -0.034959  -0.761345   0.369088   0.271745  -2.403507
    12  H   -0.002933  -0.100496   0.657811  -0.207482   0.089619  -0.107414
    13  H    0.001079   0.031649  -0.302913   0.492665  -0.123504   0.179155
    14  H    0.001098   0.003938   0.148111  -0.140635   0.605177  -0.181495
    15  H    0.018774  -0.040107  -0.018497   0.020269  -0.058904  -0.020201
    16  H    0.001580  -0.001534   0.007115  -0.005395   0.021002   0.077824
    17  H   -0.000072   0.001206  -0.003604   0.001027  -0.019194   0.033581
    18  H   -0.000981  -0.008401  -0.033603   0.078141  -0.150062  -0.065527
               7          8          9         10         11         12
     1  O   -0.702463  -0.025512   0.148837  -0.016962  -0.009993  -0.002933
     2  N   -0.823967  -0.261901   0.207323  -0.010861  -0.034959  -0.100496
     3  C   -3.302860   0.003925   0.796919  -0.470673  -0.761345   0.657811
     4  C    2.911867   0.316435  -0.603935   0.118131   0.369088  -0.207482
     5  C   -7.047140  -1.290958   2.040380  -1.962539   0.271745   0.089619
     6  C   -2.478218  -3.393286  -0.193931   0.531550  -2.403507  -0.107414
     7  C   24.152629  -0.451811  -2.328655   1.572135  -3.294544  -0.005650
     8  C   -0.451811  10.361531  -0.934801  -0.410065   2.446721   0.012302
     9  C   -2.328655  -0.934801   8.100686  -0.497386  -0.897902   0.020808
    10  C    1.572135  -0.410065  -0.497386   7.343678  -0.105273  -0.007847
    11  C   -3.294544   2.446721  -0.897902  -0.105273  10.129187  -0.034917
    12  H   -0.005650   0.012302   0.020808  -0.007847  -0.034917   0.438216
    13  H    0.014174  -0.018146  -0.016656   0.019540   0.041077  -0.014208
    14  H   -0.094576  -0.033119   0.026148  -0.005961  -0.001591   0.003272
    15  H   -0.046196   0.467934  -0.078866   0.005152   0.068605   0.000269
    16  H    0.033441  -0.146514   0.441730  -0.031598  -0.069175   0.000163
    17  H    0.018339  -0.004604  -0.024372   0.396177  -0.061449  -0.000087
    18  H    0.027810   0.077403  -0.032183  -0.040745   0.486914  -0.000376
              13         14         15         16         17         18
     1  O    0.001079   0.001098   0.018774   0.001580  -0.000072  -0.000981
     2  N    0.031649   0.003938  -0.040107  -0.001534   0.001206  -0.008401
     3  C   -0.302913   0.148111  -0.018497   0.007115  -0.003604  -0.033603
     4  C    0.492665  -0.140635   0.020269  -0.005395   0.001027   0.078141
     5  C   -0.123504   0.605177  -0.058904   0.021002  -0.019194  -0.150062
     6  C    0.179155  -0.181495  -0.020201   0.077824   0.033581  -0.065527
     7  C    0.014174  -0.094576  -0.046196   0.033441   0.018339   0.027810
     8  C   -0.018146  -0.033119   0.467934  -0.146514  -0.004604   0.077403
     9  C   -0.016656   0.026148  -0.078866   0.441730  -0.024372  -0.032183
    10  C    0.019540  -0.005961   0.005152  -0.031598   0.396177  -0.040745
    11  C    0.041077  -0.001591   0.068605  -0.069175  -0.061449   0.486914
    12  H   -0.014208   0.003272   0.000269   0.000163  -0.000087  -0.000376
    13  H    0.466610  -0.011649   0.000115  -0.000143   0.000054   0.001573
    14  H   -0.011649   0.472849  -0.000707   0.000397   0.000792  -0.002965
    15  H    0.000115  -0.000707   0.427887  -0.010730   0.000240   0.001429
    16  H   -0.000143   0.000397  -0.010730   0.469212  -0.005466  -0.001707
    17  H    0.000054   0.000792   0.000240  -0.005466   0.468226  -0.007919
    18  H    0.001573  -0.002965   0.001429  -0.001707  -0.007919   0.486062
 Mulliken charges:
               1
     1  O   -0.141592
     2  N    0.032300
     3  C    0.060565
     4  C   -0.543122
     5  C    0.628842
     6  C    1.987143
     7  C   -2.154315
     8  C   -0.715532
     9  C   -0.174144
    10  C   -0.426453
    11  C   -0.138681
    12  H    0.258948
    13  H    0.239527
    14  H    0.210915
    15  H    0.263535
    16  H    0.219799
    17  H    0.207127
    18  H    0.185137
 Sum of Mulliken charges =  -0.00000
 Mulliken charges with hydrogens summed into heavy atoms:
               1
     1  O   -0.141592
     2  N    0.032300
     3  C    0.319513
     4  C   -0.303595
     5  C    0.839758
     6  C    1.987143
     7  C   -2.154315
     8  C   -0.451997
     9  C    0.045655
    10  C   -0.219327
    11  C    0.046456
 Electronic spatial extent (au):  <R**2>=           1513.8880
 Charge=             -0.0000 electrons
 Dipole moment (field-independent basis, Debye):
    X=              1.9955    Y=             -4.2259    Z=              0.0000  Tot=              4.6733
 Quadrupole moment (field-independent basis, Debye-Ang):
   XX=            -54.0333   YY=            -64.2811   ZZ=            -68.6682
   XY=              9.4984   XZ=              0.0000   YZ=              0.0000
 Traceless Quadrupole moment (field-independent basis, Debye-Ang):
   XX=              8.2943   YY=             -1.9536   ZZ=             -6.3407
   XY=              9.4984   XZ=              0.0000   YZ=              0.0000
 Octapole moment (field-independent basis, Debye-Ang**2):
  XXX=             -1.7553  YYY=            -22.3376  ZZZ=              0.0000  XYY=             19.0711
  XXY=            -14.7287  XXZ=              0.0000  XZZ=             -5.5144  YZZ=              4.5890
  YYZ=              0.0000  XYZ=             -0.0000
 Hexadecapole moment (field-independent basis, Debye-Ang**3):
 XXXX=          -1084.6542 YYYY=           -699.2613 ZZZZ=            -77.3838 XXXY=             27.9680
 XXXZ=             -0.0000 YYYX=             36.9334 YYYZ=              0.0000 ZZZX=             -0.0000
 ZZZY=              0.0000 XXYY=           -327.7041 XXZZ=           -248.2503 YYZZ=           -148.5472
 XXYZ=              0.0000 YYXZ=             -0.0000 ZZXY=             -9.7900
 N-N= 5.567407012078D+02 E-N=-2.223158284053D+03  KE= 4.747431486126D+02
 Symmetry A'   KE= 4.591319659514D+02
 Symmetry A"   KE= 1.561118266136D+01
 No NMR shielding tensors so no spin-rotation constants.
 Leave Link  601 at Sun Oct 13 23:39:11 2019, MaxMem= 10737418240 cpu:               3.0 elap:               0.2
 (Enter /apps/cent7/gaussian/g16-A.03/g16-haswell/g16/l701.exe)
 ... and contract with generalized density number  0.
 Compute integral first derivatives.
 Leave Link  701 at Sun Oct 13 23:39:11 2019, MaxMem= 10737418240 cpu:               3.0 elap:               0.2
 (Enter /apps/cent7/gaussian/g16-A.03/g16-haswell/g16/l702.exe)
 L702 exits ... SP integral derivatives will be done elsewhere.
 Leave Link  702 at Sun Oct 13 23:39:11 2019, MaxMem= 10737418240 cpu:               1.1 elap:               0.1
 (Enter /apps/cent7/gaussian/g16-A.03/g16-haswell/g16/l703.exe)
 Integral derivatives from FoFJK, PRISM(SPDF).
 Compute integral first derivatives, UseDBF=F ICtDFT=           0.
 Calling FoFJK, ICntrl=      2127 FMM=F ISym2X=1 I1Cent= 0 IOpClX= 0 NMat=1 NMatS=1 NMatT=0.
 FoFJK:  IHMeth= 1 ICntrl=    2127 DoSepK=F KAlg= 0 I1Cent=           0 FoldK=F
 IRaf=         0 NMat=       1 IRICut=       1 DoRegI=T DoRafI=F ISym2E= 1 IDoP0=0 IntGTp=1.
 FoFCou: FMM=F IPFlag=           0 FMFlag=      100000 FMFlg1=         800
         NFxFlg=           0 DoJE=F BraDBF=F KetDBF=F FulRan=T
         wScrn=  0.000000 ICntrl=      2127 IOpCl=  0 I1Cent=           0 NGrid=           0
         NMat0=    1 NMatS0=      1 NMatT0=    0 NMatD0=    1 NMtDS0=    0 NMtDT0=    0
 Petite list used in FoFCou.
 Leave Link  703 at Sun Oct 13 23:39:14 2019, MaxMem= 10737418240 cpu:              59.0 elap:               2.5
 (Enter /apps/cent7/gaussian/g16-A.03/g16-haswell/g16/l716.exe)
 Dipole        = 7.85091544D-01-1.66258013D+00 6.65210827D-32
 ***** Axes restored to original set *****
 -------------------------------------------------------------------
 Center     Atomic                   Forces (Hartrees/Bohr)
 Number     Number              X              Y              Z
 -------------------------------------------------------------------
      1        8          -0.026888606    0.013208046   -0.000000000
      2        7           0.039260692   -0.042154436    0.000000000
      3        6          -0.014093683    0.010838831   -0.000000000
      4        6          -0.008623401    0.026038784   -0.000000000
      5        6           0.004162969   -0.026168484    0.000000000
      6        6          -0.001364329   -0.009767794    0.000000000
      7        6          -0.014883060    0.024149040   -0.000000000
      8        6           0.002258986    0.017883751   -0.000000000
      9        6           0.011544640   -0.024286986    0.000000000
     10        6          -0.019260237   -0.020556713    0.000000000
     11        6           0.015704702    0.030316796   -0.000000000
     12        1           0.003513480    0.011881134   -0.000000000
     13        1           0.004954455    0.004175754   -0.000000000
     14        1           0.004589093    0.001618869   -0.000000000
     15        1          -0.005627571   -0.004752969    0.000000000
     16        1          -0.001377818   -0.005425671    0.000000000
     17        1           0.001438574   -0.004536723    0.000000000
     18        1           0.004691114   -0.002461229    0.000000000
 -------------------------------------------------------------------
 Cartesian Forces:  Max     0.042154436 RMS     0.013778167
 Leave Link  716 at Sun Oct 13 23:39:14 2019, MaxMem= 10737418240 cpu:               0.7 elap:               0.1
 (Enter /apps/cent7/gaussian/g16-A.03/g16-haswell/g16/l103.exe)

 GradGradGradGradGradGradGradGradGradGradGradGradGradGradGradGradGradGrad
 Berny optimization.
 FormGI is forming the generalized inverse of G from B-inverse, IUseBI=4.
 Internal  Forces:  Max     0.029434773 RMS     0.007630992
 Search for a local minimum.
 Step number   1 out of a maximum of  103
 All quantities printed in internal units (Hartrees-Bohrs-Radians)
 RMS Force = .76310D-02 SwitMx=.10000D-02 MixMth= 1
 Mixed Optimization -- RFO/linear search
 Second derivative matrix not updated -- first step.
 ITU=  0
     Eigenvalues ---    0.01852   0.01885   0.01909   0.01952   0.01955
     Eigenvalues ---    0.01956   0.01985   0.02012   0.02014   0.02020
     Eigenvalues ---    0.02028   0.02038   0.02106   0.02116   0.02148
     Eigenvalues ---    0.16000   0.16000   0.16000   0.16000   0.16000
     Eigenvalues ---    0.16000   0.16000   0.22000   0.22085   0.22574
     Eigenvalues ---    0.23536   0.24500   0.24931   0.25000   0.34807
     Eigenvalues ---    0.34810   0.34810   0.34811   0.34812   0.34813
     Eigenvalues ---    0.34824   0.37157   0.40077   0.41744   0.42349
     Eigenvalues ---    0.43424   0.43902   0.44179   0.44667   0.44783
     Eigenvalues ---    0.49420   0.51600   0.64475
 RFO step:  Lambda=-1.41263473D-02 EMin= 1.85192319D-02
 Linear search not attempted -- first point.
 Iteration  1 RMS(Cart)=  0.03915552 RMS(Int)=  0.00060086
 Iteration  2 RMS(Cart)=  0.00067420 RMS(Int)=  0.00005867
 Iteration  3 RMS(Cart)=  0.00000046 RMS(Int)=  0.00005867
 ITry= 1 IFail=0 DXMaxC= 1.68D-01 DCOld= 1.00D+10 DXMaxT= 3.00D-01 DXLimC= 3.00D+00 Rises=F
 ClnCor:  largest displacement from symmetrization is 2.80D-11 for atom    17.
 Variable       Old X    -DE/DX   Delta X   Delta X   Delta X     New X
                                 (Linear)    (Quad)   (Total)
    R1        2.47566  -0.02755   0.00000  -0.04182  -0.04182   2.43384
    R2        2.57217  -0.02032   0.00000  -0.03835  -0.03825   2.53391
    R3        2.59107   0.00467   0.00000   0.01006   0.01002   2.60109
    R4        2.65364  -0.00442   0.00000  -0.01180  -0.01166   2.64199
    R5        2.05982  -0.00819   0.00000  -0.02262  -0.02262   2.03720
    R6        2.65198  -0.02651   0.00000  -0.05834  -0.05829   2.59369
    R7        2.05984  -0.00608   0.00000  -0.01678  -0.01678   2.04306
    R8        2.66806  -0.00160   0.00000  -0.00257  -0.00266   2.66540
    R9        2.05984  -0.00460   0.00000  -0.01270  -0.01270   2.04714
   R10        2.69745  -0.00651   0.00000  -0.01134  -0.01150   2.68595
   R11        2.67101  -0.00201   0.00000  -0.00370  -0.00373   2.66728
   R12        2.67475  -0.01215   0.00000  -0.02669  -0.02670   2.64806
   R13        2.65405  -0.02769   0.00000  -0.06055  -0.06053   2.59352
   R14        2.05980  -0.00563   0.00000  -0.01554  -0.01554   2.04426
   R15        2.65443   0.00445   0.00000   0.00830   0.00832   2.66275
   R16        2.05989  -0.00536   0.00000  -0.01481  -0.01481   2.04508
   R17        2.65822  -0.02943   0.00000  -0.06464  -0.06463   2.59358
   R18        2.05983  -0.00467   0.00000  -0.01288  -0.01288   2.04695
   R19        2.05962  -0.00475   0.00000  -0.01310  -0.01310   2.04652
    A1        2.03663   0.01936   0.00000   0.07281   0.07279   2.10941
    A2        2.11858  -0.00975   0.00000  -0.03741  -0.03743   2.08115
    A3        2.12798  -0.00961   0.00000  -0.03540  -0.03536   2.09262
    A4        2.10446   0.00649   0.00000   0.02184   0.02206   2.12652
    A5        2.06191  -0.01282   0.00000  -0.06590  -0.06601   1.99590
    A6        2.11681   0.00633   0.00000   0.04406   0.04395   2.16076
    A7        2.07980   0.00594   0.00000   0.01870   0.01887   2.09867
    A8        2.10225  -0.00529   0.00000  -0.02263  -0.02272   2.07953
    A9        2.10114  -0.00066   0.00000   0.00394   0.00385   2.10498
   A10        2.09670  -0.00518   0.00000  -0.02233  -0.02239   2.07432
   A11        2.08790   0.00423   0.00000   0.02055   0.02058   2.10849
   A12        2.09858   0.00096   0.00000   0.00177   0.00180   2.10038
   A13        2.07072   0.00122   0.00000   0.00843   0.00822   2.07894
   A14        2.11728   0.00716   0.00000   0.02150   0.02167   2.13895
   A15        2.09519  -0.00838   0.00000  -0.02993  -0.02989   2.06530
   A16        2.08671   0.00114   0.00000   0.00875   0.00858   2.09529
   A17        2.12467  -0.01060   0.00000  -0.04580  -0.04567   2.07900
   A18        2.07181   0.00946   0.00000   0.03706   0.03709   2.10890
   A19        2.10982  -0.00723   0.00000  -0.02989  -0.02990   2.07992
   A20        2.09352  -0.00128   0.00000  -0.01315  -0.01314   2.08038
   A21        2.07985   0.00851   0.00000   0.04304   0.04304   2.12289
   A22        2.09536   0.00416   0.00000   0.01496   0.01497   2.11032
   A23        2.09380  -0.00372   0.00000  -0.01692  -0.01693   2.07687
   A24        2.09403  -0.00043   0.00000   0.00197   0.00196   2.09599
   A25        2.09737   0.00171   0.00000   0.00487   0.00486   2.10223
   A26        2.09170   0.00012   0.00000   0.00314   0.00314   2.09485
   A27        2.09411  -0.00182   0.00000  -0.00800  -0.00800   2.08611
   A28        2.09683   0.00028   0.00000   0.00294   0.00288   2.09971
   A29        2.09733  -0.00256   0.00000  -0.01538  -0.01535   2.08198
   A30        2.08902   0.00228   0.00000   0.01244   0.01247   2.10149
    D1        3.14159  -0.00000   0.00000  -0.00000   0.00000   3.14159
    D2       -0.00000   0.00000   0.00000  -0.00000   0.00000   0.00000
    D3        0.00000  -0.00000   0.00000  -0.00000  -0.00000   0.00000
    D4        3.14159  -0.00000   0.00000   0.00000   0.00000   3.14159
    D5        3.14159  -0.00000   0.00000  -0.00000   0.00000   3.14159
    D6        0.00000  -0.00000   0.00000  -0.00000   0.00000   0.00000
    D7       -0.00000   0.00000   0.00000  -0.00000   0.00000   0.00000
    D8        3.14159   0.00000   0.00000  -0.00000   0.00000   3.14159
    D9       -0.00000  -0.00000   0.00000   0.00000   0.00000   0.00000
   D10        3.14159   0.00000   0.00000  -0.00000   0.00000   3.14159
   D11        3.14159  -0.00000   0.00000  -0.00000   0.00000   3.14159
   D12       -0.00000   0.00000   0.00000  -0.00000   0.00000   0.00000
   D13       -0.00000  -0.00000   0.00000   0.00000   0.00000   0.00000
   D14        3.14159  -0.00000   0.00000  -0.00000   0.00000   3.14159
   D15        3.14159   0.00000   0.00000   0.00000   0.00000   3.14159
   D16       -0.00000   0.00000   0.00000   0.00000   0.00000   0.00000
   D17        0.00000  -0.00000   0.00000  -0.00000   0.00000   0.00000
   D18        3.14159  -0.00000   0.00000  -0.00000   0.00000   3.14159
   D19        3.14159  -0.00000   0.00000  -0.00000   0.00000   3.14159
   D20       -0.00000  -0.00000   0.00000  -0.00000   0.00000   0.00000
   D21        0.00000   0.00000   0.00000   0.00000  -0.00000   0.00000
   D22        3.14159   0.00000   0.00000   0.00000   0.00000   3.14159
   D23        3.14159   0.00000   0.00000   0.00000   0.00000   3.14159
   D24        0.00000   0.00000   0.00000   0.00000  -0.00000   0.00000
   D25        3.14159   0.00000   0.00000  -0.00000   0.00000   3.14159
   D26        0.00000   0.00000   0.00000   0.00000   0.00000   0.00000
   D27       -0.00000  -0.00000   0.00000  -0.00000   0.00000   0.00000
   D28        3.14159   0.00000   0.00000   0.00000   0.00000   3.14159
   D29        3.14159  -0.00000   0.00000  -0.00000   0.00000   3.14159
   D30        0.00000  -0.00000   0.00000   0.00000  -0.00000   0.00000
   D31       -0.00000  -0.00000   0.00000  -0.00000   0.00000   0.00000
   D32        3.14159  -0.00000   0.00000  -0.00000   0.00000   3.14159
   D33        0.00000  -0.00000   0.00000  -0.00000   0.00000   0.00000
   D34        3.14159   0.00000   0.00000  -0.00000   0.00000   3.14159
   D35        3.14159  -0.00000   0.00000  -0.00000   0.00000   3.14159
   D36       -0.00000  -0.00000   0.00000  -0.00000   0.00000   0.00000
   D37       -0.00000   0.00000   0.00000   0.00000   0.00000   0.00000
   D38        3.14159   0.00000   0.00000   0.00000   0.00000   3.14159
   D39        3.14159   0.00000   0.00000   0.00000   0.00000   3.14159
   D40        0.00000   0.00000   0.00000   0.00000   0.00000   0.00000
   D41        0.00000  -0.00000   0.00000  -0.00000   0.00000   0.00000
   D42        3.14159  -0.00000   0.00000  -0.00000   0.00000   3.14159
   D43        3.14159  -0.00000   0.00000   0.00000   0.00000   3.14159
   D44       -0.00000  -0.00000   0.00000  -0.00000   0.00000   0.00000
         Item               Value     Threshold  Converged?
 Maximum Force            0.029435     0.000450     NO 
 RMS     Force            0.007631     0.000300     NO 
 Maximum Displacement     0.167723     0.001800     NO 
 RMS     Displacement     0.039197     0.001200     NO 
 Predicted change in Energy=-7.367800D-03
 Lowest energy point so far.  Saving SCF results.
 GradGradGradGradGradGradGradGradGradGradGradGradGradGradGradGradGradGrad

 Leave Link  103 at Sun Oct 13 23:39:14 2019, MaxMem= 10737418240 cpu:               2.1 elap:               0.1
 (Enter /apps/cent7/gaussian/g16-A.03/g16-haswell/g16/l202.exe)
                          Input orientation:                          
 ---------------------------------------------------------------------
 Center     Atomic      Atomic             Coordinates (Angstroms)
 Number     Number       Type             X           Y           Z
 ---------------------------------------------------------------------
      1          8           0        1.281791    0.005655    0.000000
      2          7           0       -0.006135    0.001865    0.000000
      3          6           0       -0.690553   -1.151198    0.000000
      4          6           0       -2.088351   -1.179233    0.000000
      5          6           0       -2.803324   -0.007640    0.000000
      6          6           0       -2.103287    1.216849   -0.000000
      7          6           0       -0.682034    1.200926   -0.000000
      8          6           0        0.049570    2.396071   -0.000000
      9          6           0       -0.623262    3.592260   -0.000000
     10          6           0       -2.031811    3.630515   -0.000000
     11          6           0       -2.759197    2.466656   -0.000000
     12          1           0       -0.072966   -2.034800    0.000000
     13          1           0       -2.595904   -2.133828    0.000000
     14          1           0       -3.886569   -0.018729    0.000000
     15          1           0        1.130493    2.353116   -0.000000
     16          1           0       -0.055441    4.513538   -0.000000
     17          1           0       -2.548173    4.582720   -0.000000
     18          1           0       -3.841747    2.496855   -0.000000
 ---------------------------------------------------------------------
                    Distance matrix (angstroms):
                    1          2          3          4          5
     1  O    0.000000
     2  N    1.287931   0.000000
     3  C    2.286581   1.340889   0.000000
     4  C    3.572368   2.393871   1.398079   0.000000
     5  C    4.085137   2.797206   2.402401   1.372522   0.000000
     6  C    3.595239   2.423682   2.757439   2.396129   1.410470
     7  C    2.298974   1.376440   2.352140   2.764577   2.441414
     8  C    2.689323   2.394854   3.623659   4.165754   3.730527
     9  C    4.061153   3.643045   4.743935   4.991355   4.208556
    10  C    4.911167   4.155774   4.966261   4.810080   3.719059
    11  C    4.731396   3.695206   4.167512   3.707093   2.474689
    12  H    2.449250   2.037762   1.078038   2.189468   3.400622
    13  H    4.428759   3.356797   2.143810   1.081139   2.136282
    14  H    5.168418   3.880489   3.390724   2.140177   1.083302
    15  H    2.352331   2.611570   3.949231   4.778958   4.587819
    16  H    4.702042   4.511943   5.700229   6.044863   5.290738
    17  H    5.968094   5.238911   6.027319   5.780272   4.597446
    18  H    5.697080   4.575685   4.820614   4.072840   2.711239
                    6          7          8          9         10
     6  C    0.000000
     7  C    1.421342   0.000000
     8  C    2.454660   1.401291   0.000000
     9  C    2.798758   2.392055   1.372432   0.000000
    10  C    2.414724   2.779352   2.419916   1.409067   0.000000
    11  C    1.411466   2.432422   2.809654   2.414374   1.372464
    12  H    3.833461   3.292551   4.432566   5.653904   5.994403
    13  H    3.386696   3.844929   5.245810   6.056352   5.791878
    14  H    2.169504   3.428790   4.617841   4.867074   4.093545
    15  H    3.427599   2.147742   1.081776   2.147355   3.410559
    16  H    3.880958   3.371353   2.120069   1.082209   2.164663
    17  H    3.395145   3.862513   3.395541   2.164785   1.083201
    18  H    2.158856   3.415145   3.892622   3.399787   2.135662
                   11         12         13         14         15
    11  C    0.000000
    12  H    5.242036   0.000000
    13  H    4.603381   2.524880   0.000000
    14  H    2.729122   4.313712   2.477794   0.000000
    15  H    3.891347   4.549958   5.832555   5.549465   0.000000
    16  H    3.391169   6.548362   7.116279   5.934559   2.464521
    17  H    2.126560   7.065283   6.716718   4.792144   4.301595
    18  H    1.082971   5.894031   4.795347   2.515984   4.974317
                   16         17         18
    16  H    0.000000
    17  H    2.493692   0.000000
    18  H    4.289886   2.454418   0.000000
 Stoichiometry    C9H7NO
 Framework group  CS[SG(C9H7NO)]
 Deg. of freedom    33
 Full point group                 CS      NOp   2
 RotChk:  IX=0 Diff= 1.77D-02
 Largest Abelian subgroup         CS      NOp   2
 Largest concise Abelian subgroup C1      NOp   1
                         Standard orientation:                         
 ---------------------------------------------------------------------
 Center     Atomic      Atomic             Coordinates (Angstroms)
 Number     Number       Type             X           Y           Z
 ---------------------------------------------------------------------
      1          8           0       -1.654938    2.034061   -0.000000
      2          7           0       -1.331427    0.787422   -0.000000
      3          6           0       -2.272800   -0.167460   -0.000000
      4          6           0       -1.944828   -1.526526   -0.000000
      5          6           0       -0.630041   -1.920421   -0.000000
      6          6           0        0.376446   -0.932288    0.000000
      7          6           0       -0.000000    0.438297    0.000000
      8          6           0        0.970087    1.449508    0.000000
      9          6           0        2.297957    1.102619    0.000000
     10          6           0        2.692775   -0.250005    0.000000
     11          6           0        1.751877   -1.249188    0.000000
     12          1           0       -3.284303    0.205402   -0.000000
     13          1           0       -2.739173   -2.259928   -0.000000
     14          1           0       -0.365587   -2.970948   -0.000000
     15          1           0        0.653950    2.484059    0.000000
     16          1           0        3.044768    1.885849    0.000000
     17          1           0        3.744917   -0.507536    0.000000
     18          1           0        2.056089   -2.288554    0.000000
 ---------------------------------------------------------------------
 Rotational constants (GHZ):           2.0317362           1.1816897           0.7471408
 Leave Link  202 at Sun Oct 13 23:39:14 2019, MaxMem= 10737418240 cpu:               0.3 elap:               0.0
 (Enter /apps/cent7/gaussian/g16-A.03/g16-haswell/g16/l301.exe)
 Standard basis: 6-311++G(d,p) (5D, 7F)
 Ernie: Thresh=  0.10000D-02 Tol=  0.10000D-05 Strict=F.
 There are   229 symmetry adapted cartesian basis functions of A'  symmetry.
 There are    73 symmetry adapted cartesian basis functions of A"  symmetry.
 There are   218 symmetry adapted basis functions of A'  symmetry.
 There are    73 symmetry adapted basis functions of A"  symmetry.
   291 basis functions,   459 primitive gaussians,   302 cartesian basis functions
    38 alpha electrons       38 beta electrons
       nuclear repulsion energy       562.4777009435 Hartrees.
 IExCor= 4336 DFT=T Ex+Corr=M062X ExCW=0 ScaHFX=  0.540000
 ScaDFX=  1.000000  1.000000  1.000000  1.000000 ScalE2=  1.000000  1.000000
 IRadAn=      5 IRanWt=     -1 IRanGd=            0 ICorTp=0 IEmpDi=  4
 NAtoms=   18 NActive=   18 NUniq=   18 SFac= 1.00D+00 NAtFMM=   60 NAOKFM=F Big=F
 Integral buffers will be    131072 words long.
 Raffenetti 2 integral format.
 Two-electron integral symmetry is turned on.
 Leave Link  301 at Sun Oct 13 23:39:14 2019, MaxMem= 10737418240 cpu:               1.2 elap:               0.1
 (Enter /apps/cent7/gaussian/g16-A.03/g16-haswell/g16/l302.exe)
 NPDir=0 NMtPBC=     1 NCelOv=     1 NCel=       1 NClECP=     1 NCelD=      1
         NCelK=      1 NCelE2=     1 NClLst=     1 CellRange=     0.0.
 One-electron integrals computed using PRISM.
 One-electron integral symmetry used in STVInt
 NBasis=   291 RedAO= T EigKep=  1.56D-06  NBF=   218    73
 NBsUse=   290 1.00D-06 EigRej=  3.88D-07 NBFU=   217    73
 Precomputing XC quadrature grid using
 IXCGrd= 4 IRadAn=           5 IRanWt=          -1 IRanGd=           0 AccXCQ= 0.00D+00.
 Generated NRdTot=       0 NPtTot=           0 NUsed=           0 NTot=          32
 NSgBfM=   302   302   302   302   302 MxSgAt=    18 MxSgA2=    18.
 Leave Link  302 at Sun Oct 13 23:39:14 2019, MaxMem= 10737418240 cpu:               4.1 elap:               0.2
 (Enter /apps/cent7/gaussian/g16-A.03/g16-haswell/g16/l303.exe)
 DipDrv:  MaxL=1.
 Leave Link  303 at Sun Oct 13 23:39:14 2019, MaxMem= 10737418240 cpu:               0.8 elap:               0.1
 (Enter /apps/cent7/gaussian/g16-A.03/g16-haswell/g16/l401.exe)
 Initial guess from the checkpoint file:  "4.chk"
 B after Tr=    -0.000000   -0.000000   -0.000000
         Rot=    0.999987   -0.000000   -0.000000   -0.005163 Ang=  -0.59 deg.
 Guess basis will be translated and rotated to current coordinates.
 JPrj=2 DoOrth=T DoCkMO=T.
 Initial guess orbital symmetries:
       Occupied  (A') (A') (A') (A') (A') (A') (A') (A') (A') (A')
                 (A') (A') (A') (A') (A') (A') (A') (A') (A') (A')
                 (A') (A') (A') (A") (A') (A') (A') (A') (A') (A')
                 (A") (A') (A') (A") (A") (A") (A') (A")
       Virtual   (A") (A") (A') (A') (A') (A") (A') (A') (A') (A")
                 (A') (A') (A") (A") (A") (A') (A') (A') (A') (A")
                 (A') (A') (A') (A") (A') (A") (A') (A") (A') (A')
                 (A') (A') (A") (A') (A') (A') (A") (A') (A') (A')
                 (A") (A') (A') (A') (A') (A') (A') (A') (A') (A')
                 (A") (A') (A') (A') (A") (A') (A') (A') (A') (A')
                 (A') (A') (A') (A') (A') (A') (A') (A') (A') (A')
                 (A') (A') (A') (A") (A') (A") (A') (A') (A') (A")
                 (A') (A") (A') (A') (A") (A") (A") (A') (A") (A')
                 (A") (A') (A') (A') (A') (A') (A') (A') (A') (A')
                 (A') (A') (A') (A') (A') (A') (A") (A') (A') (A')
                 (A') (A') (A") (A") (A') (A') (A") (A') (A") (A")
                 (A') (A') (A") (A") (A') (A") (A") (A') (A') (A')
                 (A") (A') (A') (A') (A') (A") (A') (A') (A') (A")
                 (A") (A') (A") (A') (A') (A') (A') (A') (A") (A")
                 (A") (A') (A') (A") (A') (A') (A") (A') (A') (A")
                 (A') (A') (A') (A") (A') (A') (A") (A') (A') (A")
                 (A') (A") (A") (A') (A') (A") (A') (A') (A") (A')
                 (A') (A') (A') (A") (A') (A') (A') (A') (A') (A")
[...]
 ! D37   D(8,9,10,11)            0.0            -DE/DX =    0.0                 !
 ! D38   D(8,9,10,17)          180.0            -DE/DX =    0.0                 !
 ! D39   D(16,9,10,11)         180.0            -DE/DX =    0.0                 !
 ! D40   D(16,9,10,17)           0.0            -DE/DX =    0.0                 !
 ! D41   D(9,10,11,6)            0.0            -DE/DX =    0.0                 !
 ! D42   D(9,10,11,18)         180.0            -DE/DX =    0.0                 !
 ! D43   D(17,10,11,6)         180.0            -DE/DX =    0.0                 !
 ! D44   D(17,10,11,18)          0.0            -DE/DX =    0.0                 !
 --------------------------------------------------------------------------------
 GradGradGradGradGradGradGradGradGradGradGradGradGradGradGradGradGradGrad

 Leave Link  103 at Sun Oct 13 23:41:52 2019, MaxMem= 10737418240 cpu:               0.7 elap:               0.1
 (Enter /apps/cent7/gaussian/g16-A.03/g16-haswell/g16/l9999.exe)

 ----------------------------------------------------------------------

 Electric dipole moment (input orientation):
 (Debye = 10**-18 statcoulomb cm , SI units = C m)
                  (au)            (Debye)         (10**-30 SI)
   Tot        0.167569D+01      0.425918D+01      0.142071D+02
   x         -0.165091D+01     -0.419620D+01     -0.139970D+02
   y          0.287109D+00      0.729759D+00      0.243421D+01
   z          0.000000D+00      0.000000D+00      0.000000D+00

 Dipole polarizability, Alpha (input orientation).
 (esu units = cm**3 , SI units = C**2 m**2 J**-1)
 Alpha(0;0):
               (au)            (10**-24 esu)      (10**-40 SI)
   iso        0.116074D+03      0.172004D+02      0.191381D+02
   aniso      0.885278D+02      0.131185D+02      0.145963D+02
   xx         0.135165D+03      0.200293D+02      0.222856D+02
   yx        -0.142468D+01     -0.211116D+00     -0.234899D+00
   yy         0.154872D+03      0.229496D+02      0.255349D+02
   zx         0.000000D+00      0.000000D+00      0.000000D+00
   zy         0.000000D+00      0.000000D+00      0.000000D+00
   zz         0.581862D+02      0.862231D+01      0.959362D+01

 ----------------------------------------------------------------------

 Dipole orientation:
     8          0.06937068          0.39888955         -2.37090174
     7         -0.00257986         -0.01483449         -0.00871844
     6         -0.40671484         -2.33865819          0.90827639
     6         -0.49197243         -2.82889933          3.51056985
     6         -0.16046393         -0.92268648          5.22349718
     6          0.27073467          1.55675618          4.31204029
     6          0.34697158          1.99512738          1.68176912
     6          0.76966843          4.42568404          0.68834577
     6          1.11453246          6.40869279          2.32022064
     6          1.04756486          6.02362119          4.96320401
     6          0.63648629          3.65987105          5.93307848
     1         -0.65403994         -3.76080662         -0.53483462
     1         -0.82700728         -4.75538916          4.10903897
     1         -0.22077496         -1.26948198          7.23928690
     1          0.80676104          4.63897093         -1.34311468
     1          1.44143634          8.28842857          1.57952527
     1          1.32393529          7.61278370          6.22361368
     1          0.58257037          3.34984818          7.95752109

 Electric dipole moment (dipole orientation):
 (Debye = 10**-18 statcoulomb cm , SI units = C m)
                  (au)            (Debye)         (10**-30 SI)
   Tot        0.167569D+01      0.425918D+01      0.142071D+02
   x          0.000000D+00      0.000000D+00      0.000000D+00
   y          0.000000D+00      0.000000D+00      0.000000D+00
   z          0.167569D+01      0.425918D+01      0.142071D+02

 Dipole polarizability, Alpha (dipole orientation).
 (esu units = cm**3 , SI units = C**2 m**2 J**-1)
 Alpha(0;0):
               (au)            (10**-24 esu)      (10**-40 SI)
   iso        0.116074D+03      0.172004D+02      0.191381D+02
   aniso      0.885278D+02      0.131185D+02      0.145963D+02
   xx         0.609935D+02      0.903831D+01      0.100565D+02
   yx         0.161421D+02      0.239201D+01      0.266147D+01
   yy         0.151005D+03      0.223766D+02      0.248974D+02
   zx         0.799751D+00      0.118511D+00      0.131861D+00
   zy         0.459866D+01      0.681452D+00      0.758217D+00
   zz         0.136224D+03      0.201863D+02      0.224603D+02

 ----------------------------------------------------------------------
 1\1\GINC-BROWN-A076\Freq\RM062X\6-311++G(d,p)\C9H7N1O1\FINEJ\13-Oct-20
 19\0\\#P Geom=AllCheck Guess=TCheck SCRF=Check GenChk RM062X/6-311++G(
 d,p) Freq\\Title Card Required\\0,1\O,1.2727835571,-0.0038817648,0.\N,
 0.0031801754,-0.0086405566,0.\C,-0.6887558687,-1.1552129754,0.\C,-2.09
 05829318,-1.1786925579,0.\C,-2.8081941464,-0.0146603834,0.\C,-2.104823
 875,1.2147641544,0.\C,-0.6931841116,1.2082586595,0.\C,0.0484206014,2.4
 043820998,0.\C,-0.6198663083,3.6017040442,0.\C,-2.0332284994,3.6375670
 622,0.\C,-2.7564078302,2.4746609754,0.\H,-0.0672659769,-2.0386255675,0
 .\H,-2.5798887671,-2.1438850478,0.\H,-3.8910452134,-0.015408951,0.\H,1
 .1271549809,2.3330601147,0.\H,-0.0607132704,4.5292599804,0.\H,-2.54409
 65672,4.5927945239,0.\H,-3.8403859486,2.4941561901,0.\\Version=ES64L-G
 16RevA.03\State=1-A'\HF=-477.0154667\RMSD=6.111e-09\RMSF=1.349e-04\Zer
 oPoint=0.1405786\Thermal=0.1405786\Dipole=-1.6509115,0.2871092,0.\Dipo
 leDeriv=-1.8623918,0.1594,0.,0.0592944,-0.3781766,0.,0.,0.,-0.3565767,
 1.8869717,-0.193824,0.,0.0818754,0.0108317,0.,0.,0.,0.0593375,-0.17491
 06,0.0170729,0.,-0.5593926,0.0464863,0.,0.,0.,-0.0716531,0.1830897,-0.
 0396138,0.,0.134692,-0.020097,0.,0.,0.,-0.1121947,-0.0696584,0.0528481
 ,0.,-0.0142437,-0.091458,0.,0.,0.,-0.1509932,-0.0850487,-0.0383417,0.,
 0.0025736,0.1753788,0.,0.,0.,0.060841,-0.2428007,0.0961662,0.,0.365536
 7,0.181887,0.,0.,0.,0.0750845,-0.0648509,0.0620455,0.,-0.0974892,-0.09
 39204,0.,0.,0.,-0.1146898,0.0239333,0.0343839,0.,0.1920525,-0.0050593,
 0.,0.,0.,-0.1376815,0.0879639,-0.0649756,0.,-0.1010233,0.0337439,0.,0.
 ,0.,-0.1248071,0.1181742,-0.0338342,0.,-0.0466276,-0.1003329,0.,0.,0.,
 -0.1510775,0.0410532,0.0162193,0.,0.0009697,0.0759721,0.,0.,0.,0.15636
 13,0.0690066,-0.0430631,0.,-0.0506144,-0.006054,0.,0.,0.,0.1458791,-0.
 025448,-0.0162514,0.,0.0302145,0.0628738,0.,0.,0.,0.1466014,0.0830903,
 -0.0275124,0.,0.0287826,0.1035033,0.,0.,0.,0.1499549,0.0364845,-0.0565
 543,0.,-0.0569311,-0.0211836,0.,0.,0.,0.1424889,0.0453042,0.0615007,0.
 ,0.063115,-0.0335319,0.,0.,0.,0.1434039,-0.0499625,0.0143338,0.,-0.032
 7844,0.0591366,0.,0.,0.,0.1397208\Polar=135.1646629,-1.4246842,154.871
 8355,0.,0.,58.1862469\Quadrupole=-3.7528488,8.2574196,-4.5045708,3.852
 4104,0.,0.\PG=CS [SG(C9H7N1O1)]\NImag=0\\0.51557439,0.00808748,0.11000
 419,0.,0.,0.03006554,-0.38923045,-0.00630935,0.,0.74700635,-0.00293195
 ,-0.10263908,0.,0.06357474,0.69802250,0.,0.,-0.05863832,0.,0.,0.172778
 16,-0.06982260,-0.06217857,0.,-0.18110901,-0.02700266,0.,0.75417519,-0
 .04594965,0.00362535,0.,-0.08543412,-0.31141893,0.,-0.05421573,0.73197
 968,0.,0.,0.01342914,0.,0.,-0.05962045,0.,0.,0.10954699,0.00731049,0.0
 0979288,0.,-0.03371344,-0.09756937,0.,-0.31646752,0.04073389,0.,0.6704
 3077,0.00606948,-0.00842163,0.,-0.04454406,0.04022478,0.,-0.02904732,-
 0.13116214,0.,0.00312288,0.78732465,0.,0.,0.00947310,0.,0.,-0.00732335
 ,0.,0.,-0.04640127,0.,0.,0.12230715,-0.01189444,-0.00148770,0.,0.01419
 455,0.00599607,0.,-0.03491976,0.02659623,0.,-0.20596698,0.15669404,0.,
 0.76527973,-0.00285169,0.00913944,0.,-0.00028780,-0.08108336,0.,0.0800
 1741,0.03808609,0.,0.08778506,-0.33133274,0.,-0.05433108,0.68248564,0.
 ,0.,-0.00174929,0.,0.,0.00087034,0.,0.,0.00315083,0.,0.,-0.05415319,0.
 ,0.,0.12161234,0.00284313,-0.00655702,0.,-0.01689310,0.05547148,0.,-0.
 02982868,-0.01714634,0.,0.04597132,-0.00502116,0.,-0.17586111,-0.07297
 103,0.,0.66601007,-0.00215508,-0.01244239,0.,0.04034895,0.05565869,0.,
 -0.04356553,-0.02546728,0.,0.03958911,-0.06726518,0.,-0.10669554,-0.22
 638432,0.,0.00640352,0.70401742,0.,0.,0.00568931,0.,0.,-0.00641901,0.,
 0.,-0.00279015,0.,0.,0.00542779,0.,0.,-0.05811559,0.,0.,0.14272579,-0.
 05881630,0.04883988,0.,-0.14925306,0.01796415,0.,0.04521824,0.00623937
 ,0.,-0.02818662,0.01645770,0.,-0.02158097,-0.04538536,0.,-0.29192204,-
 0.01205572,0.,0.71379690,0.03903867,-0.00041778,0.,0.02963320,-0.18800
 794,0.,-0.03422210,-0.06365064,0.,0.03999332,-0.02186428,0.,-0.0286921
 0,0.04367474,0.,-0.00035514,-0.15091639,0.,0.04672884,0.65235879,0.,0.
 ,0.01040021,0.,0.,-0.06176056,0.,0.,0.00124842,0.,0.,0.00008140,0.,0.,
 0.00110183,0.,0.,-0.05235724,0.,0.,0.12953817,-0.00209236,0.00037306,0
 .,0.02439236,0.01303180,0.,-0.00095718,0.00495372,0.,-0.00217207,0.001
 81485,0.,-0.00581168,0.00069985,0.,-0.02132408,-0.02498015,0.,-0.18945
 422,-0.11534258,0.,0.76497294,-0.00963419,-0.00154815,0.,0.00088337,-0
 .08478238,0.,0.02600170,0.01421278,0.,-0.01977893,0.00803758,0.,0.0016
 9087,-0.01652600,0.,-0.05200832,0.04533417,0.,-0.07234922,-0.21682097,
 0.,-0.05817704,0.69825677,0.,0.,-0.00099052,0.,0.,0.00035618,0.,0.,0.0
 0504421,0.,0.,-0.00155749,0.,0.,0.00666888,0.,0.,0.00030564,0.,0.,-0.0
 5605105,0.,0.,0.13221468,0.00057258,0.00600884,0.,-0.00328298,-0.03584
 887,0.,0.01961724,0.01242440,0.,-0.01956982,0.00909503,0.,-0.00187508,
 -0.02136524,0.,-0.03254364,0.04329380,0.,0.05084245,0.03755092,0.,-0.1
 9662232,0.07876805,0.,0.66127902,0.00421717,0.00018867,0.,-0.01126999,
 0.01648727,0.,-0.01038989,-0.00664599,0.,0.00977542,-0.00547754,0.,0.0
 0134517,0.00961958,0.,0.02079117,-0.02305972,0.,-0.01343125,-0.0691741
 0,0.,0.14850999,-0.33671546,0.,0.01432255,0.77093267,0.,0.,0.00037940,
 0.,0.,0.00638140,0.,0.,-0.00016270,0.,0.,0.00076183,0.,0.,-0.00158146,
 0.,0.,-0.00297952,0.,0.,0.00199450,0.,0.,-0.06036497,0.,0.,0.13551459,
 0.00273698,-0.00200543,0.,-0.00481887,0.02661784,0.,-0.01954743,-0.010
 74526,0.,0.02105778,-0.01123171,0.,0.00025533,0.02935838,0.,0.04659577
 ,-0.04099966,0.,-0.03700221,-0.04445299,0.,-0.02313415,0.08129174,0.,-
 0.29727761,-0.03216541,0.,0.66164575,-0.00004087,-0.00206457,0.,-0.000
 80727,0.01283507,0.,-0.00965791,-0.00625917,0.,0.01104928,-0.00667136,
 0.,0.00592192,0.01316772,0.,0.00514236,-0.06289965,0.,-0.01967197,-0.0
 2333636,0.,0.03193549,0.03461425,0.,0.04015023,-0.12937311,0.,-0.00655
 393,0.77502784,0.,0.,-0.00076086,0.,0.,-0.00107880,0.,0.,0.00089841,0.
 ,0.,-0.00020331,0.,0.,0.00660307,0.,0.,0.00359456,0.,0.,-0.00495770,0.
 ,0.,0.00586819,0.,0.,-0.06258523,0.,0.,0.13623315,0.00144662,0.0023006
 8,0.,-0.00932547,-0.00184685,0.,-0.00141333,-0.00050776,0.,-0.00088698
 ,-0.00585256,0.,0.01639749,-0.01185639,0.,-0.16784523,0.10223702,0.,-0
 .01818946,0.02912364,0.,-0.00112951,-0.00346609,0.,-0.03127872,-0.0274
 6876,0.,-0.20668473,-0.15451702,0.,0.75368310,-0.00142058,0.00323077,0
 .,-0.00117463,-0.02527390,0.,0.02287826,0.01171751,0.,-0.03002080,0.01
 371585,0.,0.00958957,-0.06855487,0.,0.06656440,-0.23255522,0.,0.054755
 57,0.04435016,0.,-0.00165813,-0.06930910,0.,-0.07885620,0.03979384,0.,
 -0.08588951,-0.32914203,0.,0.05225030,0.68655508,0.,0.,-0.00030801,0.,
 0.,0.00743975,0.,0.,-0.00082659,0.,0.,0.00488710,0.,0.,0.00341179,0.,0
 .,-0.06109934,0.,0.,0.00078157,0.,0.,-0.00102267,0.,0.,0.00560555,0.,0
 .,-0.06012824,0.,0.,0.13239196,0.00039726,-0.00048653,0.,0.01157191,-0
 .01984538,0.,-0.15758657,0.14887911,0.,-0.00769521,0.02295502,0.,-0.00
 486680,-0.00192561,0.,-0.00007920,-0.00082093,0.,-0.00246150,-0.001902
 41,0.,0.00068360,-0.00064559,0.,0.00004509,-0.00018692,0.,-0.00012141,
 -0.00011463,0.,0.00007627,0.00028185,0.,0.15978998,0.00295927,0.003299
 31,0.,0.01724387,-0.03043799,0.,0.13593668,-0.25447972,0.,-0.00295110,
 0.00768672,0.,-0.00181148,0.00131284,0.,-0.00065920,-0.00029296,0.,-0.
 00468624,-0.00161492,0.,0.00115847,-0.00064821,0.,-0.00031097,-0.00036
 785,0.,-0.00020961,0.00001954,0.,0.00014589,0.00026499,0.,-0.14706908,
 0.27479231,0.,0.,-0.00524299,0.,0.,0.00426554,0.,0.,-0.03210752,0.,0.,
 0.00123224,0.,0.,0.00596742,0.,0.,-0.00084926,0.,0.,0.00683849,0.,0.,0
 .00031721,0.,0.,-0.00067659,0.,0.,0.00010716,0.,0.,-0.00061820,0.,0.,0
 .02297097,-0.00069716,-0.00136867,0.,-0.00618261,0.00142263,0.,-0.0079
 2821,-0.02916228,0.,-0.11954079,-0.11758962,0.,0.01309425,0.01563649,0
 .,-0.00149771,0.00369186,0.,-0.00052201,0.00116614,0.,0.00010973,-0.00
 034113,0.,-0.00030632,0.00010580,0.,0.00013397,0.00037478,0.,0.0007824
 8,0.00013798,0.,0.00055951,0.00045299,0.,0.12140590,-0.00031404,-0.000
 03484,0.,0.00200504,0.00229606,0.,0.00168236,0.00289603,0.,-0.11840194
 ,-0.28962522,0.,-0.01456211,-0.01705919,0.,0.00397176,-0.00290855,0.,0
 .00066251,0.00001945,0.,-0.00016379,0.00026290,0.,0.00027925,-0.000005
 40,0.,0.00016824,-0.00048869,0.,-0.00109499,-0.00031655,0.,-0.00023517
 ,0.00028654,0.,0.12593134,0.30392148,0.,0.,-0.00032028,0.,0.,0.0069987
 1,0.,0.,0.00043221,0.,0.,-0.03656767,0.,0.,0.00386915,0.,0.,0.00884346
 ,0.,0.,-0.00070515,0.,0.,-0.00058637,0.,0.,0.00007713,0.,0.,-0.0006947
 4,0.,0.,0.00020774,0.,0.,-0.00268826,0.,0.,0.02588970,0.00076671,0.000
 05703,0.,-0.00038453,-0.00034758,0.,0.00098119,0.00310321,0.,-0.010479
 92,-0.00279210,0.,-0.34761839,-0.00096724,0.,-0.01111651,0.00238309,0.
 ,0.00078501,-0.00254686,0.,-0.00068282,0.00060903,0.,0.00025050,-0.000
 09377,0.,-0.00007756,-0.00029963,0.,0.00086452,0.00151941,0.,-0.000459
 59,-0.00029177,0.,0.00056053,0.00012163,0.,0.36635193,0.00021011,0.000
 59308,0.,-0.00011861,-0.00146417,0.,0.00222180,-0.00454220,0.,0.027841
 63,0.00511179,0.,-0.00147791,-0.05817476,0.,-0.02709674,0.00401172,0.,
 -0.00118857,-0.00474616,0.,-0.00143322,0.00046850,0.,-0.00021421,0.000
 18980,0.,0.00052584,0.00013858,0.,-0.00124225,0.00153002,0.,0.00118278
 ,0.00032328,0.,-0.00057168,0.00088880,0.,0.00064589,0.05658559,0.,0.,-
 0.00100394,0.,0.,-0.00108112,0.,0.,0.00898792,0.,0.,0.00302222,0.,0.,-
 0.03375876,0.,0.,0.00189972,0.,0.,0.00510310,0.,0.,0.00005587,0.,0.,-0
 .00009476,0.,0.,-0.00016939,0.,0.,-0.00273479,0.,0.,0.00008812,0.,0.,-
 0.00503295,0.,0.,0.02394909,0.00055901,0.00440180,0.,-0.00277304,0.001
 35023,0.,-0.00041720,-0.00013637,0.,0.00009467,-0.00013530,0.,-0.00062
 849,0.00044769,0.,0.00057310,-0.00248911,0.,-0.01239670,-0.00022025,0.
 ,-0.35325888,0.01306565,0.,-0.00560471,-0.00150993,0.,0.00085247,0.001
 77296,0.,0.00074756,0.00001791,0.,0.00005278,-0.00002775,0.,-0.0000048
 9,-0.00000633,0.,-0.00004074,-0.00016355,0.,0.37195798,0.00448736,-0.0
 0191965,0.,-0.00432328,-0.00050430,0.,0.00132992,0.00144112,0.,-0.0006
 8177,0.00008456,0.,-0.00099116,0.00032693,0.,-0.00140211,-0.00460264,0
 .,-0.02668964,0.00730952,0.,0.01560396,-0.05677985,0.,0.02654071,0.003
 88592,0.,0.00200180,-0.00430543,0.,-0.00015480,-0.00117997,0.,0.000057
 31,-0.00001224,0.,0.00006712,-0.00001003,0.,-0.00025440,-0.00041946,0.
 ,-0.01630499,0.05550690,0.,0.,-0.00098349,0.,0.,-0.00257207,0.,0.,-0.0
 0021010,0.,0.,-0.00028361,0.,0.,0.00003560,0.,0.,0.00467250,0.,0.,0.00
 462189,0.,0.,-0.03912578,0.,0.,0.00466538,0.,0.,0.00906073,0.,0.,-0.00
 136791,0.,0.,0.00028505,0.,0.,0.00004531,0.,0.,0.00026559,0.,0.,0.0272
 5985,-0.00000065,-0.00007529,0.,0.00084759,0.00041430,0.,0.00008810,0.
 00030127,0.,-0.00030697,0.00014139,0.,0.00010528,-0.00043332,0.,-0.000
 48639,0.00120587,0.,-0.00108730,0.00343195,0.,0.01189672,0.01492564,0.
 ,-0.13617376,-0.12790612,0.,-0.01020717,-0.02773145,0.,-0.00573697,0.0
 0130406,0.,0.00004431,0.00008213,0.,0.00000746,-0.00001366,0.,0.000035
 07,0.00006568,0.,0.00060633,-0.00051721,0.,0.14010976,-0.00002501,-0.0
 0004519,0.,-0.00125530,-0.00070475,0.,0.00031342,-0.00040806,0.,0.0002
 4595,0.00000059,0.,-0.00013093,0.00023152,0.,0.00067833,-0.00017063,0.
 ,0.00364833,-0.00268055,0.,-0.01578330,-0.01854891,0.,-0.12723342,-0.2
 6957702,0.,0.00312888,0.00508339,0.,0.00088639,0.00156382,0.,-0.000073
 69,-0.00010571,0.,-0.00001088,-0.00001220,0.,-0.00002271,-0.00002179,0
 .,0.00008612,0.00098792,0.,0.13576198,0.28382578,0.,0.,0.00039834,0.,0
 .,0.00052550,0.,0.,-0.00096499,0.,0.,0.00017623,0.,0.,-0.00091299,0.,0
 .,-0.00085611,0.,0.,0.00907789,0.,0.,0.00448979,0.,0.,-0.03871720,0.,0
 .,0.00320983,0.,0.,0.00566158,0.,0.,-0.00001950,0.,0.,0.00012561,0.,0.
 ,0.00005689,0.,0.,-0.00549091,0.,0.,0.02611101,0.00031882,0.00024136,0
 .,-0.00034023,0.00052119,0.,-0.00028698,-0.00009260,0.,0.00013857,-0.0
 0036909,0.,0.00073356,-0.00014218,0.,-0.00153642,-0.00360743,0.,-0.000
 69857,-0.00146311,0.,-0.00599602,-0.00082952,0.,-0.00861205,0.02854983
 ,0.,-0.12313555,0.11978106,0.,0.01191278,-0.01637300,0.,0.00001227,0.0
 0001037,0.,0.00005042,-0.00007826,0.,-0.00001681,0.00000725,0.,-0.0002
 4757,0.00123691,0.,0.00090154,-0.00043863,0.,0.12613393,0.00031353,-0.
 00004933,0.,-0.00017937,0.00025775,0.,-0.00021719,0.00004246,0.,-0.000
 18897,-0.00050577,0.,0.00107924,-0.00039225,0.,-0.00378912,-0.00256259
 ,0.,-0.00076650,-0.00001536,0.,-0.00051012,0.00162097,0.,-0.00233748,0
 .00373161,0.,0.11900707,-0.28185474,0.,0.01492218,-0.01820659,0.,0.000
 01239,-0.00000390,0.,0.00007624,-0.00009717,0.,-0.00004029,-0.00001175
 ,0.,-0.00018623,0.00006378,0.,0.00039823,0.00045754,0.,-0.12739425,0.2
 9671435,0.,0.,-0.00004303,0.,0.,-0.00098916,0.,0.,0.00004824,0.,0.,-0.
 00059682,0.,0.,-0.00000725,0.,0.,0.00927553,0.,0.,-0.00017434,0.,0.,0.
 00557377,0.,0.,0.00327441,0.,0.,-0.03933697,0.,0.,0.00427536,0.,0.,0.0
 0011105,0.,0.,-0.00001496,0.,0.,0.00017161,0.,0.,-0.00003816,0.,0.,-0.
 00289919,0.,0.,0.02652071,0.00002798,0.00036555,0.,-0.00070596,-0.0009
 7175,0.,0.00020450,0.00015891,0.,-0.00001728,0.00023254,0.,0.00096351,
 -0.00142795,0.,-0.01105929,-0.00178407,0.,0.00092836,0.00253084,0.,0.0
 0057994,-0.00000601,0.,0.00054013,-0.00319506,0.,-0.01127138,0.0032665
 8,0.,-0.34342043,0.00609352,0.,0.00003731,0.00002751,0.,-0.00002456,0.
 00004816,0.,0.00028141,0.00080577,0.,-0.00007168,-0.00000571,0.,-0.000
 64295,0.00022446,0.,0.00066831,-0.00019935,0.,0.36298205,-0.00006002,-
 0.00049819,0.,0.00201461,0.00053468,0.,0.00011536,0.00003309,0.,-0.000
 33655,0.00013934,0.,0.00126689,0.00146299,0.,0.02798315,0.00250551,0.,
 0.00092812,-0.00446721,0.,-0.00003285,-0.00112889,0.,-0.00226739,-0.00
 443315,0.,-0.02784628,0.00550870,0.,0.00614138,-0.05818381,0.,-0.00006
 253,-0.00002203,0.,-0.00001910,-0.00001340,0.,-0.00078293,-0.00046086,
 0.,0.00003745,0.00012693,0.,-0.00135545,0.00012423,0.,0.00044010,0.000
 81101,0.,-0.00616394,0.05796105,0.,0.,0.00020571,0.,0.,-0.00013274,0.,
 0.,0.00029740,0.,0.,-0.00028235,0.,0.,-0.00301273,0.,0.,0.00303194,0.,
 0.,0.00521858,0.,0.,-0.00119556,0.,0.,0.00850823,0.,0.,0.00434012,0.,0
 .,-0.03655664,0.,0.,0.00001907,0.,0.,0.00012135,0.,0.,0.00027557,0.,0.
 ,-0.00083989,0.,0.,0.00002822,0.,0.,-0.00515078,0.,0.,0.02512451\\-0.0
 0002531,-0.00015701,0.,0.00014876,0.00036474,0.,-0.00029840,-0.0003024
 1,0.,0.00007527,0.00009018,0.,0.00007705,0.00008573,0.,-0.00009214,-0.
 00021908,0.,-0.00007199,-0.00023044,0.,0.00003900,0.00037223,0.,0.0002
 1047,-0.00014507,0.,-0.00030501,-0.00010638,0.,0.00016299,0.00033965,0
 .,0.00011093,0.00004141,0.,0.00000354,-0.00000694,0.,-0.00001597,0.000
 02210,0.,-0.00001113,-0.00008933,0.,0.00000635,0.00000463,0.,0.0000252
 9,-0.00000712,0.,-0.00003969,-0.00005687,0.\\\@


 SCIENCE IS LONG AND LIFE IS SHORT.

                     DON MOSER IN THE FEBRUARY 1979 SMITHSONIAN
 Job cpu time:       0 days  0 hours 38 minutes 50.9 seconds.
 Elapsed time:       0 days  0 hours  1 minutes 38.6 seconds.
 File lengths (MBytes):  RWF=    148 Int=      0 D2E=      0 Chk=      8 Scr=      1
 Normal termination of Gaussian 16 at Sun Oct 13 23:41:52 2019.
real 177.00
user 4126.27
sys 16.61
Machine:
brown-a076
brown-a076
brown-a076
brown-a076
brown-a076
brown-a076
brown-a076
brown-a076
brown-a076
brown-a076
brown-a076
brown-a076
brown-a076
brown-a076
brown-a076
brown-a076
brown-a076
brown-a076
brown-a076
brown-a076
brown-a076
brown-a076
brown-a076
brown-a076
