 Entering Gaussian System, Link 0=/apps/cent7/gaussian/g16-A.03/g16-haswell/g16/g16
 Initial command:
 /apps/cent7/gaussian/g16-A.03/g16-haswell/g16/l1.exe "/scratch/brown/finej/gaussian/Gau-283145.inp" -scrdir="/scratch/brown/finej/gaussian/"
 Entering Link 1 = /apps/cent7/gaussian/g16-A.03/g16-haswell/g16/l1.exe PID=    283147.
  
 Copyright (c) 1988,1990,1992,1993,1995,1998,2003,2009,2016,
            Gaussian, Inc.  All Rights Reserved.
  
 This is part of the Gaussian(R) 16 program.  It is based on
 the Gaussian(R) 09 system (copyright 2009, Gaussian, Inc.),
 the Gaussian(R) 03 system (copyright 2003, Gaussian, Inc.),
 the Gaussian(R) 98 system (copyright 1998, Gaussian, Inc.),
 the Gaussian(R) 94 system (copyright 1995, Gaussian, Inc.),
 the Gaussian 92(TM) system (copyright 1992, Gaussian, Inc.),
 the Gaussian 90(TM) system (copyright 1990, Gaussian, Inc.),
 the Gaussian 88(TM) system (copyright 1988, Gaussian, Inc.),
 the Gaussian 86(TM) system (copyright 1986, Carnegie Mellon
 University), and the Gaussian 82(TM) system (copyright 1983,
 Carnegie Mellon University). Gaussian is a federally registered
 trademark of Gaussian, Inc.
  
 This software contains proprietary and confidential information,
 including trade secrets, belonging to Gaussian, Inc.
  
 This software is provided under written license and may be
 used, copied, transmitted, or stored only in accord with that
 written license.
  
 The following legend is applicable only to US Government
 contracts under FAR:
  
                    RESTRICTED RIGHTS LEGEND
  
 Use, reproduction and disclosure by the US Government is
 subject to restrictions as set forth in subparagraphs (a)
 and (c) of the Commercial Computer Software - Restricted
 Rights clause in FAR 52.227-19.
  
 Gaussian, Inc.
 340 Quinnipiac St., Bldg. 40, Wallingford CT 06492
  
  
 ---------------------------------------------------------------
 Warning -- This program may not be used in any manner that
 competes with the business of Gaussian, Inc. or will provide
 assistance to any competitor of Gaussian, Inc.  The licensee
 of this program is prohibited from giving any competitor of
 Gaussian, Inc. access to this program.  By using this program,
 the user acknowledges that Gaussian, Inc. is engaged in the
 business of creating and licensing software in the field of
 computational chemistry and represents and warrants to the
 licensee that it is not a competitor of Gaussian, Inc. and that
 it will not use this program in any manner prohibited above.
 ---------------------------------------------------------------
  

 Cite this work as:
 Gaussian 16, Revision A.03,
 M. J. Frisch, G. W. Trucks, H. B. Schlegel, G. E. Scuseria, 
 M. A. Robb, J. R. Cheeseman, G. Scalmani, V. Barone, 
 G. A. Petersson, H. Nakatsuji, X. Li, M. Caricato, A. V. Marenich, 
 J. Bloino, B. G. Janesko, R. Gomperts, B. Mennucci, H. P. Hratchian, 
 J. V. Ortiz, A. F. Izmaylov, J. L. Sonnenberg, D. Williams-Young, 
 F. Ding, F. Lipparini, F. Egidi, J. Goings, B. Peng, A. Petrone, 
 T. Henderson, D. Ranasinghe, V. G. Zakrzewski, J. Gao, N. Rega, 
 G. Zheng, W. Liang, M. Hada, M. Ehara, K. Toyota, R. Fukuda, 
 J. Hasegawa, M. Ishida, T. Nakajima, Y. Honda, O. Kitao, H. Nakai, 
 T. Vreven, K. Throssell, J. A. Montgomery, Jr., J. E. Peralta, 
 F. Ogliaro, M. J. Bearpark, J. J. Heyd, E. N. Brothers, K. N. Kudin, 
 V. N. Staroverov, T. A. Keith, R. Kobayashi, J. Normand, 
 K. Raghavachari, A. P. Rendell, J. C. Burant, S. S. Iyengar, 
 J. Tomasi, M. Cossi, J. M. Millam, M. Klene, C. Adamo, R. Cammi, 
 J. W. Ochterski, R. L. Martin, K. Morokuma, O. Farkas, 
 J. B. Foresman, and D. J. Fox, Gaussian, Inc., Wallingford CT, 2016.
 
 ******************************************
 Gaussian 16:  ES64L-G16RevA.03 25-Dec-2016
                13-Oct-2019 
 ******************************************
 %chk=5.chk
 %nprocshared=24
 Will use up to   24 processors via shared memory.
 %mem=80GB
 -------------------------------------------------------------------
 #P opt freq m062x/6-311++g(d,p) geom=connectivity temperature=0.001
 -------------------------------------------------------------------
 1/18=20,19=15,26=3,38=1,57=2,112=-1000/1,3;
 2/9=110,12=2,17=6,18=5,40=1/2;
 3/5=4,6=6,7=1111,11=2,25=1,30=1,71=1,74=-55/1,2,3;
 4//1;
 5/5=2,38=5/2;
 6/7=2,8=2,9=2,10=2,28=1/1;
 7//1,2,3,16;
 1/18=20,19=15,26=3/3(2);
 2/9=110/2;
 99//99;
 2/9=110/2;
 3/5=4,6=6,7=1111,11=2,25=1,30=1,71=1,74=-55/1,2,3;
 4/5=5,16=3,69=1/1;
 5/5=2,38=5/2;
 7//1,2,3,16;
 1/18=20,19=15,26=3/3(-5);
 2/9=110/2;
 6/7=2,8=2,9=2,10=2,19=2,28=1/1;
 99/9=1/99;
 Leave Link    1 at Sun Oct 13 23:47:01 2019, MaxMem= 10737418240 cpu:               0.9 elap:               0.0
 (Enter /apps/cent7/gaussian/g16-A.03/g16-haswell/g16/l101.exe)
 -------------------
 Title Card Required
 -------------------
 Symbolic Z-matrix:
 Charge =  0 Multiplicity = 1
 C                    -0.4364   -1.9519   -1.3354 
 C                    -0.7338   -1.1583   -0.0233 
 C                    -0.4103   -2.0416    1.2235 
 C                    -2.2086   -0.6337    0.0029 
 C                    -2.0832    0.9013   -0.03 
 C                    -0.6712    1.1065   -0.0054 
 N                     0.0134    0.0262    0.0003 
 O                     1.2891    0.056     0.0187 
 H                    -0.4826   -3.0217   -1.1314 
 H                    -1.1774   -1.694    -2.092 
 H                     0.5585   -1.694    -1.6985 
 H                    -0.481    -3.0946    0.951 
 H                     0.5994   -1.8234    1.5713 
 H                    -1.1235   -1.8234    2.0184 
 H                    -2.6924   -0.9428   -0.9237 
 H                    -2.6459   -0.9062    0.9634 
 H                    -2.4424    1.2711   -0.9904 
 H                    -2.4815    1.3146    0.8967 
 H                    -0.1345    2.0551    0.0085 
 
 ITRead=  0  0  0  0  0  0  0  0  0  0  0  0  0  0  0  0  0  0  0
 MicOpt= -1 -1 -1 -1 -1 -1 -1 -1 -1 -1 -1 -1 -1 -1 -1 -1 -1 -1 -1
 NAtoms=     19 NQM=       19 NQMF=       0 NMMI=      0 NMMIF=      0
                NMic=       0 NMicF=      0.
                    Isotopes and Nuclear Properties:
 (Nuclear quadrupole moments (NQMom) in fm**2, nuclear magnetic moments (NMagM)
  in nuclear magnetons)

  Atom         1           2           3           4           5           6           7           8           9          10
 IAtWgt=          12          12          12          12          12          12          14          16           1           1
 AtmWgt=  12.0000000  12.0000000  12.0000000  12.0000000  12.0000000  12.0000000  14.0030740  15.9949146   1.0078250   1.0078250
 NucSpn=           0           0           0           0           0           0           2           0           1           1
 AtZEff=  -0.0000000  -0.0000000  -0.0000000  -0.0000000  -0.0000000  -0.0000000  -0.0000000  -0.0000000  -0.0000000  -0.0000000
 NQMom=    0.0000000   0.0000000   0.0000000   0.0000000   0.0000000   0.0000000   2.0440000   0.0000000   0.0000000   0.0000000
 NMagM=    0.0000000   0.0000000   0.0000000   0.0000000   0.0000000   0.0000000   0.4037610   0.0000000   2.7928460   2.7928460
 AtZNuc=   6.0000000   6.0000000   6.0000000   6.0000000   6.0000000   6.0000000   7.0000000   8.0000000   1.0000000   1.0000000

  Atom        11          12          13          14          15          16          17          18          19
 IAtWgt=           1           1           1           1           1           1           1           1           1
 AtmWgt=   1.0078250   1.0078250   1.0078250   1.0078250   1.0078250   1.0078250   1.0078250   1.0078250   1.0078250
 NucSpn=           1           1           1           1           1           1           1           1           1
 AtZEff=  -0.0000000  -0.0000000  -0.0000000  -0.0000000  -0.0000000  -0.0000000  -0.0000000  -0.0000000  -0.0000000
 NQMom=    0.0000000   0.0000000   0.0000000   0.0000000   0.0000000   0.0000000   0.0000000   0.0000000   0.0000000
 NMagM=    2.7928460   2.7928460   2.7928460   2.7928460   2.7928460   2.7928460   2.7928460   2.7928460   2.7928460
 AtZNuc=   1.0000000   1.0000000   1.0000000   1.0000000   1.0000000   1.0000000   1.0000000   1.0000000   1.0000000
 Leave Link  101 at Sun Oct 13 23:47:02 2019, MaxMem= 10737418240 cpu:               8.2 elap:               0.4
 (Enter /apps/cent7/gaussian/g16-A.03/g16-haswell/g16/l103.exe)

 GradGradGradGradGradGradGradGradGradGradGradGradGradGradGradGradGradGrad
 Berny optimization.
 Initialization pass.
                           ----------------------------
                           !    Initial Parameters    !
                           ! (Angstroms and Degrees)  !
 --------------------------                            --------------------------
 ! Name  Definition              Value          Derivative Info.                !
 --------------------------------------------------------------------------------
 ! R1    R(1,2)                  1.562          estimate D2E/DX2                !
 ! R2    R(1,9)                  1.0901         estimate D2E/DX2                !
 ! R3    R(1,10)                 1.09           estimate D2E/DX2                !
 ! R4    R(1,11)                 1.09           estimate D2E/DX2                !
 ! R5    R(2,3)                  1.5619         estimate D2E/DX2                !
 ! R6    R(2,4)                  1.5655         estimate D2E/DX2                !
 ! R7    R(2,7)                  1.4007         estimate D2E/DX2                !
 ! R8    R(3,12)                 1.09           estimate D2E/DX2                !
 ! R9    R(3,13)                 1.09           estimate D2E/DX2                !
 ! R10   R(3,14)                 1.09           estimate D2E/DX2                !
 ! R11   R(4,5)                  1.5405         estimate D2E/DX2                !
 ! R12   R(4,15)                 1.09           estimate D2E/DX2                !
 ! R13   R(4,16)                 1.09           estimate D2E/DX2                !
 ! R14   R(5,6)                  1.427          estimate D2E/DX2                !
 ! R15   R(5,17)                 1.09           estimate D2E/DX2                !
 ! R16   R(5,18)                 1.0901         estimate D2E/DX2                !
 ! R17   R(6,7)                  1.279          estimate D2E/DX2                !
 ! R18   R(6,19)                 1.09           estimate D2E/DX2                !
 ! R19   R(7,8)                  1.2762         estimate D2E/DX2                !
 ! A1    A(2,1,9)              109.4722         estimate D2E/DX2                !
 ! A2    A(2,1,10)             109.4776         estimate D2E/DX2                !
 ! A3    A(2,1,11)             109.4744         estimate D2E/DX2                !
 ! A4    A(9,1,10)             109.4697         estimate D2E/DX2                !
 ! A5    A(9,1,11)             109.4646         estimate D2E/DX2                !
 ! A6    A(10,1,11)            109.4687         estimate D2E/DX2                !
 ! A7    A(1,2,3)              110.1083         estimate D2E/DX2                !
 ! A8    A(1,2,4)              111.3256         estimate D2E/DX2                !
 ! A9    A(1,2,7)              110.0132         estimate D2E/DX2                !
 ! A10   A(3,2,4)              111.794          estimate D2E/DX2                !
 ! A11   A(3,2,7)              110.7516         estimate D2E/DX2                !
 ! A12   A(4,2,7)              102.6432         estimate D2E/DX2                !
 ! A13   A(2,3,12)             109.4722         estimate D2E/DX2                !
 ! A14   A(2,3,13)             109.4738         estimate D2E/DX2                !
 ! A15   A(2,3,14)             109.4764         estimate D2E/DX2                !
 ! A16   A(12,3,13)            109.4663         estimate D2E/DX2                !
 ! A17   A(12,3,14)            109.4671         estimate D2E/DX2                !
 ! A18   A(13,3,14)            109.4716         estimate D2E/DX2                !
 ! A19   A(2,4,5)              104.8838         estimate D2E/DX2                !
 ! A20   A(2,4,15)             107.9907         estimate D2E/DX2                !
 ! A21   A(2,4,16)             107.9941         estimate D2E/DX2                !
 ! A22   A(5,4,15)             107.4898         estimate D2E/DX2                !
 ! A23   A(5,4,16)             107.4935         estimate D2E/DX2                !
 ! A24   A(15,4,16)            120.008          estimate D2E/DX2                !
 ! A25   A(4,5,6)              102.9124         estimate D2E/DX2                !
 ! A26   A(4,5,17)             109.2717         estimate D2E/DX2                !
 ! A27   A(4,5,18)             109.2631         estimate D2E/DX2                !
 ! A28   A(6,5,17)             107.0057         estimate D2E/DX2                !
 ! A29   A(6,5,18)             106.9996         estimate D2E/DX2                !
 ! A30   A(17,5,18)            120.0            estimate D2E/DX2                !
 ! A31   A(5,6,7)              114.0951         estimate D2E/DX2                !
 ! A32   A(5,6,19)             127.7748         estimate D2E/DX2                !
 ! A33   A(7,6,19)             118.1302         estimate D2E/DX2                !
 ! A34   A(2,7,6)              115.3838         estimate D2E/DX2                !
 ! A35   A(2,7,8)              123.5899         estimate D2E/DX2                !
 ! A36   A(6,7,8)              121.0252         estimate D2E/DX2                !
 ! D1    D(9,1,2,3)             23.7657         estimate D2E/DX2                !
 ! D2    D(9,1,2,4)           -100.8007         estimate D2E/DX2                !
 ! D3    D(9,1,2,7)            146.1039         estimate D2E/DX2                !
 ! D4    D(10,1,2,3)           143.7684         estimate D2E/DX2                !
 ! D5    D(10,1,2,4)            19.202          estimate D2E/DX2                !
 ! D6    D(10,1,2,7)           -93.8934         estimate D2E/DX2                !
 ! D7    D(11,1,2,3)           -96.2288         estimate D2E/DX2                !
 ! D8    D(11,1,2,4)           139.2048         estimate D2E/DX2                !
 ! D9    D(11,1,2,7)            26.1094         estimate D2E/DX2                !
 ! D10   D(1,2,3,12)           -24.8924         estimate D2E/DX2                !
 ! D11   D(1,2,3,13)            95.1038         estimate D2E/DX2                !
 ! D12   D(1,2,3,14)          -144.891          estimate D2E/DX2                !
 ! D13   D(4,2,3,12)            99.404          estimate D2E/DX2                !
 ! D14   D(4,2,3,13)          -140.5998         estimate D2E/DX2                !
 ! D15   D(4,2,3,14)           -20.5946         estimate D2E/DX2                !
 ! D16   D(7,2,3,12)          -146.7935         estimate D2E/DX2                !
 ! D17   D(7,2,3,13)           -26.7974         estimate D2E/DX2                !
 ! D18   D(7,2,3,14)            93.2078         estimate D2E/DX2                !
 ! D19   D(1,2,4,5)           -114.9256         estimate D2E/DX2                !
 ! D20   D(1,2,4,15)            -0.5155         estimate D2E/DX2                !
 ! D21   D(1,2,4,16)           130.6586         estimate D2E/DX2                !
 ! D22   D(3,2,4,5)            121.4617         estimate D2E/DX2                !
 ! D23   D(3,2,4,15)          -124.1282         estimate D2E/DX2                !
 ! D24   D(3,2,4,16)             7.0459         estimate D2E/DX2                !
 ! D25   D(7,2,4,5)              2.7261         estimate D2E/DX2                !
 ! D26   D(7,2,4,15)           117.1361         estimate D2E/DX2                !
 ! D27   D(7,2,4,16)          -111.6897         estimate D2E/DX2                !
 ! D28   D(1,2,7,6)            116.638          estimate D2E/DX2                !
 ! D29   D(1,2,7,8)            -62.9717         estimate D2E/DX2                !
 ! D30   D(3,2,7,6)           -121.4051         estimate D2E/DX2                !
 ! D31   D(3,2,7,8)             58.9852         estimate D2E/DX2                !
 ! D32   D(4,2,7,6)             -1.9403         estimate D2E/DX2                !
 ! D33   D(4,2,7,8)            178.4499         estimate D2E/DX2                !
 ! D34   D(2,4,5,6)             -2.6121         estimate D2E/DX2                !
 ! D35   D(2,4,5,17)           110.8426         estimate D2E/DX2                !
 ! D36   D(2,4,5,18)          -116.0565         estimate D2E/DX2                !
 ! D37   D(15,4,5,6)          -117.3723         estimate D2E/DX2                !
 ! D38   D(15,4,5,17)           -3.9177         estimate D2E/DX2                !
 ! D39   D(15,4,5,18)          129.1832         estimate D2E/DX2                !
 ! D40   D(16,4,5,6)           112.1537         estimate D2E/DX2                !
 ! D41   D(16,4,5,17)         -134.3916         estimate D2E/DX2                !
 ! D42   D(16,4,5,18)           -1.2907         estimate D2E/DX2                !
 ! D43   D(4,5,6,7)              1.6443         estimate D2E/DX2                !
 ! D44   D(4,5,6,19)          -178.3588         estimate D2E/DX2                !
 ! D45   D(17,5,6,7)          -113.4564         estimate D2E/DX2                !
 ! D46   D(17,5,6,19)           66.5406         estimate D2E/DX2                !
 ! D47   D(18,5,6,7)           116.7329         estimate D2E/DX2                !
 ! D48   D(18,5,6,19)          -63.2701         estimate D2E/DX2                !
 ! D49   D(5,6,7,2)              0.222          estimate D2E/DX2                !
 ! D50   D(5,6,7,8)            179.8426         estimate D2E/DX2                !
 ! D51   D(19,6,7,2)          -179.7753         estimate D2E/DX2                !
 ! D52   D(19,6,7,8)            -0.1546         estimate D2E/DX2                !
 --------------------------------------------------------------------------------
 Trust Radius=3.00D-01 FncErr=1.00D-07 GrdErr=1.00D-06 EigMax=2.50D+02 EigMin=1.00D-04
 Number of steps in this run=    114 maximum allowed number of steps=    114.
 GradGradGradGradGradGradGradGradGradGradGradGradGradGradGradGradGradGrad

 Leave Link  103 at Sun Oct 13 23:47:02 2019, MaxMem= 10737418240 cpu:               1.1 elap:               0.1
 (Enter /apps/cent7/gaussian/g16-A.03/g16-haswell/g16/l202.exe)
                          Input orientation:                          
 ---------------------------------------------------------------------
 Center     Atomic      Atomic             Coordinates (Angstroms)
 Number     Number       Type             X           Y           Z
 ---------------------------------------------------------------------
      1          6           0       -0.436400   -1.951900   -1.335400
      2          6           0       -0.733800   -1.158300   -0.023300
      3          6           0       -0.410300   -2.041600    1.223500
      4          6           0       -2.208600   -0.633700    0.002900
      5          6           0       -2.083200    0.901300   -0.030000
      6          6           0       -0.671200    1.106500   -0.005400
      7          7           0        0.013400    0.026200    0.000300
      8          8           0        1.289100    0.056000    0.018700
      9          1           0       -0.482600   -3.021700   -1.131400
     10          1           0       -1.177400   -1.694000   -2.092000
     11          1           0        0.558500   -1.694000   -1.698500
     12          1           0       -0.481000   -3.094600    0.951000
     13          1           0        0.599400   -1.823400    1.571300
     14          1           0       -1.123500   -1.823400    2.018400
     15          1           0       -2.692400   -0.942800   -0.923700
     16          1           0       -2.645900   -0.906200    0.963400
     17          1           0       -2.442400    1.271100   -0.990400
     18          1           0       -2.481500    1.314600    0.896700
     19          1           0       -0.134500    2.055100    0.008500
 ---------------------------------------------------------------------
                    Distance matrix (angstroms):
                    1          2          3          4          5
     1  C    0.000000
     2  C    1.562003   0.000000
     3  C    2.560605   1.561852   0.000000
     4  C    2.582516   1.565544   2.589581   0.000000
     5  C    3.543553   2.462291   3.609781   1.540465   0.000000
     6  C    3.343328   2.265736   3.389513   2.322060   1.427045
     7  N    2.428846   1.400680   2.439577   2.317921   2.272102
     8  O    2.973651   2.359748   2.956253   3.565086   3.476969
     9  H    1.090056   2.182486   2.551740   3.157255   4.377777
    10  H    1.089971   2.182493   3.420791   2.564413   3.436262
    11  H    1.090037   2.182501   3.097981   3.416993   4.061780
    12  H    2.556438   2.182298   1.089983   3.152701   4.415498
    13  H    3.088414   2.182322   1.089986   3.429304   4.145418
    14  H    3.425871   2.182376   1.090014   2.579742   3.541321
    15  H    2.505457   2.166397   3.320513   1.090043   2.137880
    16  H    3.355572   2.166393   2.520852   1.089976   2.137880
    17  H    3.811927   3.123553   4.472669   2.160919   1.090021
    18  H    4.453620   3.164821   3.957366   2.160839   1.090061
    19  H    4.237129   3.268962   4.281967   3.395816   2.264988
                    6          7          8          9         10
     6  C    0.000000
     7  N    1.278967   0.000000
     8  O    2.224164   1.276181   0.000000
     9  H    4.283163   3.288838   3.732812   0.000000
    10  H    3.528872   2.958853   3.687977   1.779968   0.000000
    11  H    3.495933   2.478335   2.558330   1.779966   1.779941
    12  H    4.312785   3.299645   3.732120   2.083676   3.421477
    13  H    3.561562   2.496489   2.533456   3.148211   4.073516
    14  H    3.589520   2.964168   3.653982   3.430440   4.112790
    15  H    3.021284   3.018955   4.211658   3.041082   2.055347
    16  H    2.981438   2.978054   4.159629   3.680135   3.480315
    17  H    2.033339   2.926126   4.052017   4.721105   3.406694
    18  H    2.033292   2.947547   4.070919   5.187706   4.436742
    19  H    1.089992   2.034300   2.454209   5.214829   4.422159
                   11         12         13         14         15
    11  H    0.000000
    12  H    3.172080   0.000000
    13  H    3.272615   1.779884   0.000000
    14  H    4.081815   1.779915   1.779967   0.000000
    15  H    3.425342   3.610406   4.223320   3.448602   0.000000
    16  H    4.239637   3.078318   3.426773   2.066877   1.888028
    17  H    4.277689   5.164829   5.038927   4.513126   2.228969
    18  H    5.002833   4.842106   4.449053   3.598530   2.907609
    19  H    4.177302   5.246692   4.245435   4.478904   4.049599
                   16         17         18         19
    16  H    0.000000
    17  H    2.932470   0.000000
    18  H    2.227875   1.888006   0.000000
    19  H    3.998532   2.634172   2.616419   0.000000
 Stoichiometry    C6H11NO
 Framework group  C1[X(C6H11NO)]
 Deg. of freedom    51
 Full point group                 C1      NOp   1
 Largest Abelian subgroup         C1      NOp   1
 Largest concise Abelian subgroup C1      NOp   1
                         Standard orientation:                         
 ---------------------------------------------------------------------
 Center     Atomic      Atomic             Coordinates (Angstroms)
 Number     Number       Type             X           Y           Z
 ---------------------------------------------------------------------
      1          6           0       -1.378946   -0.461275    1.307935
      2          6           0       -0.538496   -0.344574   -0.003507
      3          6           0       -1.475277   -0.425578   -1.250608
      4          6           0        0.591297   -1.427141   -0.053916
      5          6           0        1.907426   -0.628000   -0.006879
      6          6           0        1.458113    0.726458   -0.002877
      7          7           0        0.185566    0.854443   -0.003738
      8          8           0       -0.359465    2.008366    0.002512
      9          1           0       -2.314980   -0.977688    1.094909
     10          1           0       -0.815032   -1.023557    2.052164
     11          1           0       -1.593570    0.536036    1.691974
     12          1           0       -2.384486   -0.966148   -0.987576
     13          1           0       -1.733259    0.581776   -1.577339
     14          1           0       -0.962007   -0.948933   -2.057321
     15          1           0        0.533367   -2.017071    0.860862
     16          1           0        0.541972   -1.920352   -1.024667
     17          1           0        2.400646   -0.803088    0.949271
     18          1           0        2.453777   -0.779785   -0.937843
     19          1           0        2.065626    1.631443    0.000756
 ---------------------------------------------------------------------
 Rotational constants (GHZ):           2.6435649           2.2710514           1.7093689
 Leave Link  202 at Sun Oct 13 23:47:02 2019, MaxMem= 10737418240 cpu:               0.3 elap:               0.0
 (Enter /apps/cent7/gaussian/g16-A.03/g16-haswell/g16/l301.exe)
 Standard basis: 6-311++G(d,p) (5D, 7F)
 Ernie: Thresh=  0.10000D-02 Tol=  0.10000D-05 Strict=F.
 There are   261 symmetry adapted cartesian basis functions of A   symmetry.
 There are   253 symmetry adapted basis functions of A   symmetry.
   253 basis functions,   387 primitive gaussians,   261 cartesian basis functions
    31 alpha electrons       31 beta electrons
       nuclear repulsion energy       408.0743848005 Hartrees.
 IExCor= 4336 DFT=T Ex+Corr=M062X ExCW=0 ScaHFX=  0.540000
 ScaDFX=  1.000000  1.000000  1.000000  1.000000 ScalE2=  1.000000  1.000000
 IRadAn=      5 IRanWt=     -1 IRanGd=            0 ICorTp=0 IEmpDi=  4
 NAtoms=   19 NActive=   19 NUniq=   19 SFac= 1.00D+00 NAtFMM=   60 NAOKFM=F Big=F
 Integral buffers will be    131072 words long.
 Raffenetti 2 integral format.
 Two-electron integral symmetry is turned on.
 Leave Link  301 at Sun Oct 13 23:47:02 2019, MaxMem= 10737418240 cpu:               1.3 elap:               0.1
 (Enter /apps/cent7/gaussian/g16-A.03/g16-haswell/g16/l302.exe)
 NPDir=0 NMtPBC=     1 NCelOv=     1 NCel=       1 NClECP=     1 NCelD=      1
         NCelK=      1 NCelE2=     1 NClLst=     1 CellRange=     0.0.
 One-electron integrals computed using PRISM.
 One-electron integral symmetry used in STVInt
 NBasis=   253 RedAO= T EigKep=  3.70D-06  NBF=   253
 NBsUse=   253 1.00D-06 EigRej= -1.00D+00 NBFU=   253
 Precomputing XC quadrature grid using
 IXCGrd= 4 IRadAn=           5 IRanWt=          -1 IRanGd=           0 AccXCQ= 0.00D+00.
 Generated NRdTot=       0 NPtTot=           0 NUsed=           0 NTot=          32
 NSgBfM=   261   261   261   261   261 MxSgAt=    19 MxSgA2=    19.
 Leave Link  302 at Sun Oct 13 23:47:02 2019, MaxMem= 10737418240 cpu:               4.3 elap:               0.2
 (Enter /apps/cent7/gaussian/g16-A.03/g16-haswell/g16/l303.exe)
 DipDrv:  MaxL=1.
 Leave Link  303 at Sun Oct 13 23:47:02 2019, MaxMem= 10737418240 cpu:               0.8 elap:               0.1
 (Enter /apps/cent7/gaussian/g16-A.03/g16-haswell/g16/l401.exe)
 ExpMin= 3.60D-02 ExpMax= 8.59D+03 ExpMxC= 1.30D+03 IAcc=3 IRadAn=         5 AccDes= 0.00D+00
 Harris functional with IExCor= 1009 and IRadAn=       5 diagonalized for initial guess.
 HarFok:  IExCor= 1009 AccDes= 0.00D+00 IRadAn=         5 IDoV= 1 UseB2=F ITyADJ=14
 ICtDFT=  3500011 ScaDFX=  1.000000  1.000000  1.000000  1.000000
 FoFCou: FMM=F IPFlag=           0 FMFlag=      100000 FMFlg1=           0
         NFxFlg=           0 DoJE=T BraDBF=F KetDBF=T FulRan=T
         wScrn=  0.000000 ICntrl=       500 IOpCl=  0 I1Cent=   200000004 NGrid=           0
         NMat0=    1 NMatS0=      1 NMatT0=    0 NMatD0=    1 NMtDS0=    0 NMtDT0=    0
 Petite list used in FoFCou.
 Harris En= -364.976432610293    
 JPrj=0 DoOrth=F DoCkMO=F.
 Leave Link  401 at Sun Oct 13 23:47:03 2019, MaxMem= 10737418240 cpu:              11.1 elap:               0.5
 (Enter /apps/cent7/gaussian/g16-A.03/g16-haswell/g16/l502.exe)
 Integral symmetry usage will be decided dynamically.
 Closed shell SCF:
 Using DIIS extrapolation, IDIIS=  1040.
 NGot= 10737418240 LenX= 10737273051 LenY= 10737204489
 Requested convergence on RMS density matrix=1.00D-08 within 128 cycles.
 Requested convergence on MAX density matrix=1.00D-06.
 Requested convergence on             energy=1.00D-06.
 No special actions if energy rises.
 Fock matrices will be formed incrementally for  20 cycles.

 Cycle   1  Pass 1  IDiag  1:
 FoFJK:  IHMeth= 1 ICntrl=       0 DoSepK=F KAlg= 0 I1Cent=           0 FoldK=F
 IRaf= 990000000 NMat=       1 IRICut=       1 DoRegI=T DoRafI=F ISym2E= 0 IDoP0=0 IntGTp=1.
 FoFCou: FMM=F IPFlag=           0 FMFlag=      100000 FMFlg1=           0
         NFxFlg=           0 DoJE=F BraDBF=F KetDBF=F FulRan=T
         wScrn=  0.000000 ICntrl=         0 IOpCl=  0 I1Cent=           0 NGrid=           0
         NMat0=    1 NMatS0=      1 NMatT0=    0 NMatD0=    1 NMtDS0=    0 NMtDT0=    0
 Symmetry not used in FoFCou.
 E= -364.801169905055    
 DIIS: error= 3.53D-02 at cycle   1 NSaved=   1.
 NSaved= 1 IEnMin= 1 EnMin= -364.801169905055     IErMin= 1 ErrMin= 3.53D-02
 ErrMax= 3.53D-02  0.00D+00 EMaxC= 1.00D-01 BMatC= 3.57D-01 BMatP= 3.57D-01
 IDIUse=3 WtCom= 6.47D-01 WtEn= 3.53D-01
 Coeff-Com:  0.100D+01
 Coeff-En:   0.100D+01
 Coeff:      0.100D+01
 Gap=     0.242 Goal=   None    Shift=    0.000
 GapD=    0.242 DampG=1.000 DampE=0.500 DampFc=0.5000 IDamp=-1.
 Damping current iteration by 5.00D-01
 RMSDP=2.88D-02 MaxDP=1.84D+00              OVMax= 1.49D-01

 Cycle   2  Pass 1  IDiag  1:
 RMSU=  1.08D-02    CP:  1.38D+00
 E= -364.939535366685     Delta-E=       -0.138365461630 Rises=F Damp=T
 DIIS: error= 6.97D-03 at cycle   2 NSaved=   2.
 NSaved= 2 IEnMin= 2 EnMin= -364.939535366685     IErMin= 2 ErrMin= 6.97D-03
 ErrMax= 6.97D-03  0.00D+00 EMaxC= 1.00D-01 BMatC= 2.57D-02 BMatP= 3.57D-01
 IDIUse=3 WtCom= 9.30D-01 WtEn= 6.97D-02
 Coeff-Com: -0.565D-01 0.106D+01
 Coeff-En:   0.000D+00 0.100D+01
 Coeff:     -0.526D-01 0.105D+01
 Gap=     0.267 Goal=   None    Shift=    0.000
 RMSDP=7.32D-03 MaxDP=6.28D-01 DE=-1.38D-01 OVMax= 8.98D-02

 Cycle   3  Pass 1  IDiag  1:
 RMSU=  4.18D-03    CP:  1.17D+00  7.48D-01
 E= -365.068077002437     Delta-E=       -0.128541635751 Rises=F Damp=F
 DIIS: error= 1.12D-02 at cycle   3 NSaved=   3.
 NSaved= 3 IEnMin= 3 EnMin= -365.068077002437     IErMin= 2 ErrMin= 6.97D-03
 ErrMax= 1.12D-02  0.00D+00 EMaxC= 1.00D-01 BMatC= 1.45D-02 BMatP= 2.57D-02
 IDIUse=3 WtCom= 8.88D-01 WtEn= 1.12D-01
 Coeff-Com: -0.825D-01 0.467D+00 0.616D+00
 Coeff-En:   0.000D+00 0.000D+00 0.100D+01
 Coeff:     -0.733D-01 0.414D+00 0.659D+00
 Gap=     0.258 Goal=   None    Shift=    0.000
 RMSDP=5.51D-03 MaxDP=3.37D-01 DE=-1.29D-01 OVMax= 5.17D-02

 Cycle   4  Pass 1  IDiag  1:
 RMSU=  1.14D-03    CP:  1.33D+00  1.07D+00  8.81D-01
 E= -365.074700224393     Delta-E=       -0.006623221957 Rises=F Damp=F
 DIIS: error= 5.89D-03 at cycle   4 NSaved=   4.
 NSaved= 4 IEnMin= 4 EnMin= -365.074700224393     IErMin= 4 ErrMin= 5.89D-03
 ErrMax= 5.89D-03  0.00D+00 EMaxC= 1.00D-01 BMatC= 4.50D-03 BMatP= 1.45D-02
 IDIUse=3 WtCom= 9.41D-01 WtEn= 5.89D-02
 Coeff-Com: -0.280D-01 0.902D-01 0.384D+00 0.554D+00
 Coeff-En:   0.000D+00 0.000D+00 0.280D+00 0.720D+00
 Coeff:     -0.264D-01 0.849D-01 0.378D+00 0.564D+00
 Gap=     0.260 Goal=   None    Shift=    0.000
 RMSDP=3.03D-03 MaxDP=1.87D-01 DE=-6.62D-03 OVMax= 2.68D-02

 Cycle   5  Pass 1  IDiag  1:
 RMSU=  2.93D-04    CP:  1.24D+00  8.98D-01  9.56D-01  5.21D-01
 E= -365.078149979376     Delta-E=       -0.003449754983 Rises=F Damp=F
 DIIS: error= 1.10D-03 at cycle   5 NSaved=   5.
 NSaved= 5 IEnMin= 5 EnMin= -365.078149979376     IErMin= 5 ErrMin= 1.10D-03
 ErrMax= 1.10D-03  0.00D+00 EMaxC= 1.00D-01 BMatC= 1.70D-04 BMatP= 4.50D-03
 IDIUse=3 WtCom= 9.89D-01 WtEn= 1.10D-02
 Coeff-Com: -0.102D-01 0.252D-01 0.166D+00 0.298D+00 0.522D+00
 Coeff-En:   0.000D+00 0.000D+00 0.000D+00 0.000D+00 0.100D+01
 Coeff:     -0.101D-01 0.249D-01 0.164D+00 0.294D+00 0.527D+00
 Gap=     0.257 Goal=   None    Shift=    0.000
 RMSDP=2.97D-04 MaxDP=1.49D-02 DE=-3.45D-03 OVMax= 6.13D-03

 Cycle   6  Pass 1  IDiag  1:
 RMSU=  1.16D-04    CP:  1.25D+00  9.13D-01  9.53D-01  5.64D-01  7.56D-01
 E= -365.078281940151     Delta-E=       -0.000131960774 Rises=F Damp=F
 DIIS: error= 2.66D-04 at cycle   6 NSaved=   6.
 NSaved= 6 IEnMin= 6 EnMin= -365.078281940151     IErMin= 6 ErrMin= 2.66D-04
 ErrMax= 2.66D-04  0.00D+00 EMaxC= 1.00D-01 BMatC= 1.21D-05 BMatP= 1.70D-04
 IDIUse=3 WtCom= 9.97D-01 WtEn= 2.66D-03
 Coeff-Com: -0.868D-03-0.224D-03 0.210D-01 0.618D-01 0.246D+00 0.672D+00
 Coeff-En:   0.000D+00 0.000D+00 0.000D+00 0.000D+00 0.000D+00 0.100D+01
 Coeff:     -0.865D-03-0.223D-03 0.210D-01 0.616D-01 0.245D+00 0.673D+00
 Gap=     0.258 Goal=   None    Shift=    0.000
 RMSDP=5.59D-05 MaxDP=3.22D-03 DE=-1.32D-04 OVMax= 1.43D-03

 Cycle   7  Pass 1  IDiag  1:
 RMSU=  3.94D-05    CP:  1.25D+00  9.13D-01  9.58D-01  5.80D-01  7.86D-01
                    CP:  8.20D-01
 E= -365.078292303955     Delta-E=       -0.000010363805 Rises=F Damp=F
 DIIS: error= 3.83D-05 at cycle   7 NSaved=   7.
 NSaved= 7 IEnMin= 7 EnMin= -365.078292303955     IErMin= 7 ErrMin= 3.83D-05
 ErrMax= 3.83D-05  0.00D+00 EMaxC= 1.00D-01 BMatC= 5.69D-07 BMatP= 1.21D-05
 IDIUse=1 WtCom= 1.00D+00 WtEn= 0.00D+00
 Coeff-Com:  0.458D-03-0.186D-02-0.537D-02 0.150D-03 0.371D-01 0.211D+00
 Coeff-Com:  0.758D+00
 Coeff:      0.458D-03-0.186D-02-0.537D-02 0.150D-03 0.371D-01 0.211D+00
 Coeff:      0.758D+00
 Gap=     0.258 Goal=   None    Shift=    0.000
 RMSDP=2.31D-05 MaxDP=1.35D-03 DE=-1.04D-05 OVMax= 1.70D-04

 Cycle   8  Pass 1  IDiag  1:
 RMSU=  8.64D-06    CP:  1.25D+00  9.12D-01  9.59D-01  5.79D-01  8.02D-01
                    CP:  8.69D-01  9.33D-01
 E= -365.078292835620     Delta-E=       -0.000000531664 Rises=F Damp=F
 DIIS: error= 1.55D-05 at cycle   8 NSaved=   8.
 NSaved= 8 IEnMin= 8 EnMin= -365.078292835620     IErMin= 8 ErrMin= 1.55D-05
 ErrMax= 1.55D-05  0.00D+00 EMaxC= 1.00D-01 BMatC= 9.31D-08 BMatP= 5.69D-07
 IDIUse=1 WtCom= 1.00D+00 WtEn= 0.00D+00
 Coeff-Com:  0.297D-03-0.639D-03-0.575D-02-0.962D-02-0.259D-01-0.212D-01
 Coeff-Com:  0.308D+00 0.755D+00
 Coeff:      0.297D-03-0.639D-03-0.575D-02-0.962D-02-0.259D-01-0.212D-01
 Coeff:      0.308D+00 0.755D+00
 Gap=     0.258 Goal=   None    Shift=    0.000
 RMSDP=8.00D-06 MaxDP=4.90D-04 DE=-5.32D-07 OVMax= 9.84D-05

 Cycle   9  Pass 1  IDiag  1:
 RMSU=  2.17D-06    CP:  1.25D+00  9.12D-01  9.59D-01  5.80D-01  8.04D-01
                    CP:  8.90D-01  1.04D+00  9.05D-01
 E= -365.078292934979     Delta-E=       -0.000000099359 Rises=F Damp=F
 DIIS: error= 3.59D-06 at cycle   9 NSaved=   9.
 NSaved= 9 IEnMin= 9 EnMin= -365.078292934979     IErMin= 9 ErrMin= 3.59D-06
 ErrMax= 3.59D-06  0.00D+00 EMaxC= 1.00D-01 BMatC= 2.20D-09 BMatP= 9.31D-08
 IDIUse=1 WtCom= 1.00D+00 WtEn= 0.00D+00
 Coeff-Com: -0.114D-04 0.446D-04-0.274D-03-0.576D-03-0.392D-02-0.566D-02
 Coeff-Com: -0.149D-01 0.391D-01 0.986D+00
 Coeff:     -0.114D-04 0.446D-04-0.274D-03-0.576D-03-0.392D-02-0.566D-02
 Coeff:     -0.149D-01 0.391D-01 0.986D+00
 Gap=     0.258 Goal=   None    Shift=    0.000
 RMSDP=1.10D-06 MaxDP=7.18D-05 DE=-9.94D-08 OVMax= 2.25D-05

 Cycle  10  Pass 1  IDiag  1:
 RMSU=  5.35D-07    CP:  1.25D+00  9.12D-01  9.59D-01  5.79D-01  8.03D-01
                    CP:  8.95D-01  1.04D+00  9.33D-01  1.19D+00
 E= -365.078292937895     Delta-E=       -0.000000002916 Rises=F Damp=F
 DIIS: error= 1.07D-06 at cycle  10 NSaved=  10.
 NSaved=10 IEnMin=10 EnMin= -365.078292937895     IErMin=10 ErrMin= 1.07D-06
 ErrMax= 1.07D-06  0.00D+00 EMaxC= 1.00D-01 BMatC= 4.50D-10 BMatP= 2.20D-09
 IDIUse=1 WtCom= 1.00D+00 WtEn= 0.00D+00
 Coeff-Com: -0.288D-04 0.701D-04 0.319D-03 0.562D-03 0.304D-03 0.159D-03
 Coeff-Com: -0.311D-01-0.480D-01 0.341D+00 0.737D+00
 Coeff:     -0.288D-04 0.701D-04 0.319D-03 0.562D-03 0.304D-03 0.159D-03
 Coeff:     -0.311D-01-0.480D-01 0.341D+00 0.737D+00
 Gap=     0.258 Goal=   None    Shift=    0.000
 RMSDP=6.96D-07 MaxDP=4.23D-05 DE=-2.92D-09 OVMax= 5.90D-06

 Cycle  11  Pass 1  IDiag  1:
 RMSU=  2.30D-07    CP:  1.25D+00  9.12D-01  9.59D-01  5.79D-01  8.03D-01
                    CP:  8.94D-01  1.04D+00  9.35D-01  1.18D+00  9.76D-01
 E= -365.078292938365     Delta-E=       -0.000000000470 Rises=F Damp=F
 DIIS: error= 3.81D-07 at cycle  11 NSaved=  11.
 NSaved=11 IEnMin=11 EnMin= -365.078292938365     IErMin=11 ErrMin= 3.81D-07
 ErrMax= 3.81D-07  0.00D+00 EMaxC= 1.00D-01 BMatC= 4.03D-11 BMatP= 4.50D-10
 IDIUse=1 WtCom= 1.00D+00 WtEn= 0.00D+00
 Coeff-Com: -0.286D-05 0.643D-05 0.617D-04 0.158D-03 0.281D-03 0.883D-03
 Coeff-Com: -0.393D-02-0.109D-01-0.460D-01 0.132D+00 0.928D+00
 Coeff:     -0.286D-05 0.643D-05 0.617D-04 0.158D-03 0.281D-03 0.883D-03
 Coeff:     -0.393D-02-0.109D-01-0.460D-01 0.132D+00 0.928D+00
 Gap=     0.258 Goal=   None    Shift=    0.000
 RMSDP=4.62D-07 MaxDP=3.00D-05 DE=-4.70D-10 OVMax= 3.21D-06

 Cycle  12  Pass 1  IDiag  1:
 RMSU=  7.64D-08    CP:  1.25D+00  9.12D-01  9.59D-01  5.80D-01  8.03D-01
                    CP:  8.94D-01  1.04D+00  9.34D-01  1.18D+00  1.06D+00
                    CP:  1.20D+00
 E= -365.078292938424     Delta-E=       -0.000000000060 Rises=F Damp=F
 DIIS: error= 9.78D-08 at cycle  12 NSaved=  12.
 NSaved=12 IEnMin=12 EnMin= -365.078292938424     IErMin=12 ErrMin= 9.78D-08
 ErrMax= 9.78D-08  0.00D+00 EMaxC= 1.00D-01 BMatC= 2.90D-12 BMatP= 4.03D-11
 IDIUse=1 WtCom= 1.00D+00 WtEn= 0.00D+00
 Coeff-Com:  0.280D-05-0.673D-05-0.260D-04-0.309D-04-0.167D-04 0.186D-03
 Coeff-Com:  0.249D-02 0.398D-02-0.432D-01-0.670D-01 0.174D+00 0.930D+00
 Coeff:      0.280D-05-0.673D-05-0.260D-04-0.309D-04-0.167D-04 0.186D-03
 Coeff:      0.249D-02 0.398D-02-0.432D-01-0.670D-01 0.174D+00 0.930D+00
 Gap=     0.258 Goal=   None    Shift=    0.000
 RMSDP=1.53D-07 MaxDP=1.02D-05 DE=-5.96D-11 OVMax= 1.54D-06

 Cycle  13  Pass 1  IDiag  1:
 RMSU=  1.89D-08    CP:  1.25D+00  9.12D-01  9.59D-01  5.80D-01  8.03D-01
                    CP:  8.94D-01  1.04D+00  9.34D-01  1.17D+00  1.09D+00
                    CP:  1.34D+00  1.19D+00
 E= -365.078292938428     Delta-E=       -0.000000000004 Rises=F Damp=F
 DIIS: error= 2.61D-08 at cycle  13 NSaved=  13.
 NSaved=13 IEnMin=13 EnMin= -365.078292938428     IErMin=13 ErrMin= 2.61D-08
 ErrMax= 2.61D-08  0.00D+00 EMaxC= 1.00D-01 BMatC= 2.25D-13 BMatP= 2.90D-12
 IDIUse=1 WtCom= 1.00D+00 WtEn= 0.00D+00
 Coeff-Com:  0.685D-06-0.165D-05-0.858D-05-0.146D-04-0.321D-04-0.853D-06
 Coeff-Com:  0.666D-03 0.167D-02-0.523D-02-0.239D-01-0.194D-01 0.194D+00
 Coeff-Com:  0.852D+00
 Coeff:      0.685D-06-0.165D-05-0.858D-05-0.146D-04-0.321D-04-0.853D-06
 Coeff:      0.666D-03 0.167D-02-0.523D-02-0.239D-01-0.194D-01 0.194D+00
 Coeff:      0.852D+00
 Gap=     0.258 Goal=   None    Shift=    0.000
 RMSDP=3.94D-08 MaxDP=2.30D-06 DE=-3.87D-12 OVMax= 2.92D-07

 Cycle  14  Pass 1  IDiag  1:
 RMSU=  6.12D-09    CP:  1.25D+00  9.12D-01  9.59D-01  5.80D-01  8.03D-01
                    CP:  8.94D-01  1.04D+00  9.34D-01  1.17D+00  1.08D+00
                    CP:  1.36D+00  1.23D+00  1.16D+00
 E= -365.078292938429     Delta-E=       -0.000000000000 Rises=F Damp=F
 DIIS: error= 1.12D-08 at cycle  14 NSaved=  14.
 NSaved=14 IEnMin=14 EnMin= -365.078292938429     IErMin=14 ErrMin= 1.12D-08
 ErrMax= 1.12D-08  0.00D+00 EMaxC= 1.00D-01 BMatC= 4.54D-14 BMatP= 2.25D-13
 IDIUse=1 WtCom= 1.00D+00 WtEn= 0.00D+00
 Coeff-Com: -0.803D-07 0.155D-06-0.448D-06-0.222D-05-0.153D-04-0.205D-04
 Coeff-Com: -0.559D-04 0.244D-03 0.350D-02-0.213D-02-0.317D-01-0.387D-01
 Coeff-Com:  0.343D+00 0.726D+00
 Coeff:     -0.803D-07 0.155D-06-0.448D-06-0.222D-05-0.153D-04-0.205D-04
 Coeff:     -0.559D-04 0.244D-03 0.350D-02-0.213D-02-0.317D-01-0.387D-01
 Coeff:      0.343D+00 0.726D+00
 Gap=     0.258 Goal=   None    Shift=    0.000
 RMSDP=1.91D-08 MaxDP=1.21D-06 DE=-3.41D-13 OVMax= 8.42D-08

 Cycle  15  Pass 1  IDiag  1:
 RMSU=  1.87D-09    CP:  1.25D+00  9.12D-01  9.59D-01  5.80D-01  8.03D-01
                    CP:  8.94D-01  1.04D+00  9.34D-01  1.17D+00  1.08D+00
                    CP:  1.38D+00  1.25D+00  1.22D+00  1.01D+00
 E= -365.078292938431     Delta-E=       -0.000000000002 Rises=F Damp=F
 DIIS: error= 2.89D-09 at cycle  15 NSaved=  15.
 NSaved=15 IEnMin=15 EnMin= -365.078292938431     IErMin=15 ErrMin= 2.89D-09
 ErrMax= 2.89D-09  0.00D+00 EMaxC= 1.00D-01 BMatC= 2.20D-15 BMatP= 4.54D-14
 IDIUse=1 WtCom= 1.00D+00 WtEn= 0.00D+00
 Coeff-Com: -0.634D-07 0.144D-06 0.380D-06 0.536D-06-0.203D-05-0.277D-05
 Coeff-Com: -0.587D-04-0.570D-04 0.952D-03 0.104D-02-0.427D-02-0.200D-01
 Coeff-Com: -0.804D-02 0.105D+00 0.925D+00
 Coeff:     -0.634D-07 0.144D-06 0.380D-06 0.536D-06-0.203D-05-0.277D-05
 Coeff:     -0.587D-04-0.570D-04 0.952D-03 0.104D-02-0.427D-02-0.200D-01
 Coeff:     -0.804D-02 0.105D+00 0.925D+00
 Gap=     0.258 Goal=   None    Shift=    0.000
 RMSDP=4.39D-09 MaxDP=2.74D-07 DE=-2.39D-12 OVMax= 1.95D-08

 SCF Done:  E(RM062X) =  -365.078292938     A.U. after   15 cycles
            NFock= 15  Conv=0.44D-08     -V/T= 2.0030
 KE= 3.639813354804D+02 PE=-1.666392047065D+03 EE= 5.292580338453D+02
 Leave Link  502 at Sun Oct 13 23:47:18 2019, MaxMem= 10737418240 cpu:             357.8 elap:              15.0
 (Enter /apps/cent7/gaussian/g16-A.03/g16-haswell/g16/l601.exe)
 Copying SCF densities to generalized density rwf, IOpCl= 0 IROHF=0.

 **********************************************************************

            Population analysis using the SCF density.

 **********************************************************************

 Orbital symmetries:
       Occupied  (A) (A) (A) (A) (A) (A) (A) (A) (A) (A) (A) (A)
                 (A) (A) (A) (A) (A) (A) (A) (A) (A) (A) (A) (A)
                 (A) (A) (A) (A) (A) (A) (A)
       Virtual   (A) (A) (A) (A) (A) (A) (A) (A) (A) (A) (A) (A)
                 (A) (A) (A) (A) (A) (A) (A) (A) (A) (A) (A) (A)
                 (A) (A) (A) (A) (A) (A) (A) (A) (A) (A) (A) (A)
                 (A) (A) (A) (A) (A) (A) (A) (A) (A) (A) (A) (A)
                 (A) (A) (A) (A) (A) (A) (A) (A) (A) (A) (A) (A)
                 (A) (A) (A) (A) (A) (A) (A) (A) (A) (A) (A) (A)
                 (A) (A) (A) (A) (A) (A) (A) (A) (A) (A) (A) (A)
                 (A) (A) (A) (A) (A) (A) (A) (A) (A) (A) (A) (A)
                 (A) (A) (A) (A) (A) (A) (A) (A) (A) (A) (A) (A)
                 (A) (A) (A) (A) (A) (A) (A) (A) (A) (A) (A) (A)
                 (A) (A) (A) (A) (A) (A) (A) (A) (A) (A) (A) (A)
                 (A) (A) (A) (A) (A) (A) (A) (A) (A) (A) (A) (A)
                 (A) (A) (A) (A) (A) (A) (A) (A) (A) (A) (A) (A)
                 (A) (A) (A) (A) (A) (A) (A) (A) (A) (A) (A) (A)
                 (A) (A) (A) (A) (A) (A) (A) (A) (A) (A) (A) (A)
                 (A) (A) (A) (A) (A) (A) (A) (A) (A) (A) (A) (A)
                 (A) (A) (A) (A) (A) (A) (A) (A) (A) (A) (A) (A)
                 (A) (A) (A) (A) (A) (A) (A) (A) (A) (A) (A) (A)
                 (A) (A) (A) (A) (A) (A)
 The electronic state is 1-A.
 Alpha  occ. eigenvalues --  -19.57296 -14.87449 -10.59730 -10.57448 -10.55648
 Alpha  occ. eigenvalues --  -10.55557 -10.53643 -10.53577  -1.22770  -1.02137
 Alpha  occ. eigenvalues --   -0.90796  -0.86155  -0.79280  -0.77244  -0.71942
 Alpha  occ. eigenvalues --   -0.61250  -0.59494  -0.57825  -0.53591  -0.53191
 Alpha  occ. eigenvalues --   -0.50532  -0.49720  -0.48186  -0.45376  -0.44677
 Alpha  occ. eigenvalues --   -0.43400  -0.43080  -0.39427  -0.39288  -0.31274
 Alpha  occ. eigenvalues --   -0.26730
 Alpha virt. eigenvalues --   -0.00936   0.00656   0.00731   0.01304   0.01872
 Alpha virt. eigenvalues --    0.03172   0.03273   0.03827   0.04709   0.04816
 Alpha virt. eigenvalues --    0.05760   0.07086   0.07773   0.08081   0.08556
 Alpha virt. eigenvalues --    0.10655   0.10735   0.11654   0.12520   0.12677
 Alpha virt. eigenvalues --    0.12809   0.13488   0.13794   0.14075   0.14800
 Alpha virt. eigenvalues --    0.15404   0.15683   0.16429   0.16497   0.16821
 Alpha virt. eigenvalues --    0.16928   0.17395   0.17615   0.18446   0.19156
 Alpha virt. eigenvalues --    0.20116   0.21111   0.23089   0.24082   0.24715
 Alpha virt. eigenvalues --    0.25553   0.26298   0.26543   0.27360   0.28554
 Alpha virt. eigenvalues --    0.28958   0.29277   0.31151   0.32703   0.32957
 Alpha virt. eigenvalues --    0.33412   0.33683   0.34701   0.35114   0.35601
 Alpha virt. eigenvalues --    0.36478   0.37325   0.38724   0.40749   0.42824
 Alpha virt. eigenvalues --    0.45962   0.46652   0.47668   0.48920   0.50320
 Alpha virt. eigenvalues --    0.50409   0.52718   0.54611   0.56648   0.56697
 Alpha virt. eigenvalues --    0.58207   0.62161   0.64101   0.64318   0.65724
 Alpha virt. eigenvalues --    0.66762   0.69768   0.70610   0.70813   0.71446
 Alpha virt. eigenvalues --    0.72556   0.73818   0.73994   0.74465   0.74644
 Alpha virt. eigenvalues --    0.76428   0.76840   0.77696   0.78864   0.79570
 Alpha virt. eigenvalues --    0.81362   0.83286   0.89905   0.91542   0.97013
 Alpha virt. eigenvalues --    0.99734   1.01165   1.02451   1.11027   1.12692
 Alpha virt. eigenvalues --    1.14974   1.19144   1.21989   1.26935   1.27190
 Alpha virt. eigenvalues --    1.30690   1.31827   1.34488   1.35090   1.38421
 Alpha virt. eigenvalues --    1.43511   1.45570   1.46809   1.48503   1.50464
 Alpha virt. eigenvalues --    1.51200   1.51444   1.55953   1.56406   1.60586
 Alpha virt. eigenvalues --    1.61139   1.61504   1.62902   1.63397   1.65382
 Alpha virt. eigenvalues --    1.65619   1.66412   1.68971   1.70988   1.73334
 Alpha virt. eigenvalues --    1.76535   1.78602   1.80293   1.82413   1.84146
 Alpha virt. eigenvalues --    1.84346   1.85127   1.87366   1.89589   1.90410
 Alpha virt. eigenvalues --    1.93201   1.96544   1.99121   2.01999   2.07122
 Alpha virt. eigenvalues --    2.10588   2.11528   2.15008   2.15936   2.17495
 Alpha virt. eigenvalues --    2.22294   2.24307   2.30592   2.31128   2.33380
 Alpha virt. eigenvalues --    2.34161   2.35538   2.37078   2.41357   2.53522
 Alpha virt. eigenvalues --    2.53790   2.54200   2.54601   2.55243   2.55758
 Alpha virt. eigenvalues --    2.58913   2.59917   2.64311   2.65257   2.66090
 Alpha virt. eigenvalues --    2.68254   2.69588   2.71116   2.72399   2.72726
 Alpha virt. eigenvalues --    2.76233   2.76673   2.78037   2.83086   2.87367
 Alpha virt. eigenvalues --    2.90903   2.96356   2.97415   3.01215   3.01589
 Alpha virt. eigenvalues --    3.03357   3.09372   3.10201   3.20133   3.20715
 Alpha virt. eigenvalues --    3.23152   3.36851   3.37802   3.43931   3.57596
 Alpha virt. eigenvalues --    3.68919   3.71296   3.76341   3.82172   3.84859
 Alpha virt. eigenvalues --    3.86126   3.90399   3.96590   3.99771   4.11315
 Alpha virt. eigenvalues --    4.11914   4.29239   4.36872   4.42656   4.77633
 Alpha virt. eigenvalues --    5.10400   5.22331   5.35264   6.09941  23.86599
 Alpha virt. eigenvalues --   23.95645  24.02828  24.05578  24.06513  24.14808
 Alpha virt. eigenvalues --   35.63851  50.13690
          Condensed to atoms (all electrons):
               1          2          3          4          5          6
     1  C    7.039542   0.147177  -0.862879  -0.726176   0.625975  -0.734394
     2  C    0.147177  12.421731  -0.216061  -4.204198   2.960813  -3.752372
     3  C   -0.862879  -0.216061   6.946711  -0.222890   0.104580  -0.262260
     4  C   -0.726176  -4.204198  -0.222890   9.720849  -3.040467   3.640248
     5  C    0.625975   2.960813   0.104580  -3.040467   8.961177  -3.827988
     6  C   -0.734394  -3.752372  -0.262260   3.640248  -3.827988  10.799040
     7  N   -0.106916  -0.248454  -0.127895   0.071385   0.217810  -0.346816
     8  O   -0.037857  -0.317427  -0.026090   0.123690   0.007763  -0.082704
     9  H    0.494713  -0.149949  -0.037470   0.009261   0.004981  -0.005599
    10  H    0.343706   0.076875   0.011287  -0.068185   0.040130  -0.046618
    11  H    0.502608  -0.124588  -0.062414   0.032147  -0.023368   0.018189
    12  H   -0.038146  -0.168118   0.489790   0.027944  -0.007883   0.006794
    13  H   -0.061446  -0.132227   0.502990   0.045724  -0.040899   0.036554
    14  H    0.027711   0.094967   0.331447  -0.092483   0.051895  -0.053646
    15  H   -0.070194  -0.014565   0.046069   0.409244  -0.022760  -0.029337
    16  H    0.021406  -0.034173  -0.048453   0.417905  -0.012616  -0.034767
    17  H    0.050840  -0.082570  -0.034595   0.009552   0.440054  -0.117779
    18  H   -0.026617  -0.077858   0.041829   0.036338   0.372727  -0.060267
    19  H   -0.022975  -0.114037  -0.003812   0.134388  -0.264007   0.730775
               7          8          9         10         11         12
     1  C   -0.106916  -0.037857   0.494713   0.343706   0.502608  -0.038146
     2  C   -0.248454  -0.317427  -0.149949   0.076875  -0.124588  -0.168118
     3  C   -0.127895  -0.026090  -0.037470   0.011287  -0.062414   0.489790
     4  C    0.071385   0.123690   0.009261  -0.068185   0.032147   0.027944
     5  C    0.217810   0.007763   0.004981   0.040130  -0.023368  -0.007883
     6  C   -0.346816  -0.082704  -0.005599  -0.046618   0.018189   0.006794
     7  N    6.893012   0.455322   0.037158  -0.016567   0.002368   0.040385
     8  O    0.455322   8.059479  -0.000945  -0.001551   0.023075   0.000563
     9  H    0.037158  -0.000945   0.566348  -0.040269  -0.027605  -0.004298
    10  H   -0.016567  -0.001551  -0.040269   0.589955  -0.024792   0.007303
    11  H    0.002368   0.023075  -0.027605  -0.024792   0.483800   0.001267
    12  H    0.040385   0.000563  -0.004298   0.007303   0.001267   0.567085
    13  H   -0.003520   0.022851   0.001274  -0.003596  -0.006359  -0.026381
    14  H   -0.014087  -0.003182   0.007768  -0.007686  -0.002677  -0.041871
    15  H    0.008756   0.001462  -0.003067  -0.010563  -0.001625  -0.003429
    16  H    0.010998   0.002590  -0.004444   0.006577   0.003292  -0.002426
    17  H    0.034953   0.003078   0.001139   0.001268   0.003828  -0.000144
    18  H    0.025156   0.001648  -0.000165  -0.003704  -0.000606   0.001263
    19  H   -0.122752  -0.019806  -0.000108  -0.001051   0.000226   0.000117
              13         14         15         16         17         18
     1  C   -0.061446   0.027711  -0.070194   0.021406   0.050840  -0.026617
     2  C   -0.132227   0.094967  -0.014565  -0.034173  -0.082570  -0.077858
     3  C    0.502990   0.331447   0.046069  -0.048453  -0.034595   0.041829
     4  C    0.045724  -0.092483   0.409244   0.417905   0.009552   0.036338
     5  C   -0.040899   0.051895  -0.022760  -0.012616   0.440054   0.372727
     6  C    0.036554  -0.053646  -0.029337  -0.034767  -0.117779  -0.060267
     7  N   -0.003520  -0.014087   0.008756   0.010998   0.034953   0.025156
     8  O    0.022851  -0.003182   0.001462   0.002590   0.003078   0.001648
     9  H    0.001274   0.007768  -0.003067  -0.004444   0.001139  -0.000165
    10  H   -0.003596  -0.007686  -0.010563   0.006577   0.001268  -0.003704
    11  H   -0.006359  -0.002677  -0.001625   0.003292   0.003828  -0.000606
    12  H   -0.026381  -0.041871  -0.003429  -0.002426  -0.000144   0.001263
    13  H    0.480231  -0.026810   0.004033  -0.000305  -0.000889   0.002305
    14  H   -0.026810   0.589899   0.006032  -0.007431  -0.002990   0.001029
    15  H    0.004033   0.006032   0.497459   0.015053  -0.014709   0.008069
    16  H   -0.000305  -0.007431   0.015053   0.496298   0.008619  -0.013144
    17  H   -0.000889  -0.002990  -0.014709   0.008619   0.534660  -0.008405
    18  H    0.002305   0.001029   0.008069  -0.013144  -0.008405   0.519596
    19  H    0.001301  -0.001450  -0.001846  -0.002764  -0.005719  -0.003231
              19
     1  C   -0.022975
     2  C   -0.114037
     3  C   -0.003812
     4  C    0.134388
     5  C   -0.264007
     6  C    0.730775
     7  N   -0.122752
     8  O   -0.019806
     9  H   -0.000108
    10  H   -0.001051
    11  H    0.000226
    12  H    0.000117
    13  H    0.001301
    14  H   -0.001450
    15  H   -0.001846
    16  H   -0.002764
    17  H   -0.005719
    18  H   -0.003231
    19  H    0.442774
 Mulliken charges:
               1
     1  C   -0.566078
     2  C   -0.064963
     3  C   -0.569884
     4  C   -0.324276
     5  C   -0.547918
     6  C    0.122947
     7  N    0.189704
     8  O   -0.211961
     9  H    0.151277
    10  H    0.147479
    11  H    0.203232
    12  H    0.150184
    13  H    0.205170
    14  H    0.143566
    15  H    0.175916
    16  H    0.177784
    17  H    0.179810
    18  H    0.184036
    19  H    0.253977
 Sum of Mulliken charges =  -0.00000
 Mulliken charges with hydrogens summed into heavy atoms:
               1
     1  C   -0.064090
     2  C   -0.064963
     3  C   -0.070965
     4  C    0.029424
     5  C   -0.184072
     6  C    0.376924
     7  N    0.189704
     8  O   -0.211961
 Electronic spatial extent (au):  <R**2>=            872.7872
 Charge=             -0.0000 electrons
 Dipole moment (field-independent basis, Debye):
    X=              1.7021    Y=             -4.0956    Z=             -0.0076  Tot=              4.4353
 Quadrupole moment (field-independent basis, Debye-Ang):
   XX=            -46.0325   YY=            -58.7549   ZZ=            -48.3529
   XY=              3.4127   XZ=             -0.0444   YZ=             -0.0624
 Traceless Quadrupole moment (field-independent basis, Debye-Ang):
   XX=              5.0143   YY=             -7.7081   ZZ=              2.6939
   XY=              3.4127   XZ=             -0.0444   YZ=             -0.0624
 Octapole moment (field-independent basis, Debye-Ang**2):
  XXX=              1.9446  YYY=            -11.6303  ZZZ=             -0.2443  XYY=              6.4803
  XXY=              4.1495  XXZ=             -0.1430  XZZ=              1.7539  YZZ=             -0.5389
  YYZ=              0.2215  XYZ=              0.0661
 Hexadecapole moment (field-independent basis, Debye-Ang**3):
 XXXX=           -526.0748 YYYY=           -450.2625 ZZZZ=           -243.7400 XXXY=             15.4538
 XXXZ=             -0.8993 YYYX=             12.4442 YYYZ=             -0.9226 ZZZX=             -0.1394
 ZZZY=              0.7689 XXYY=           -150.6678 XXZZ=           -128.0989 YYZZ=           -103.6801
 XXYZ=             -0.3088 YYXZ=              0.1911 ZZXY=             -6.4300
 N-N= 4.080743848005D+02 E-N=-1.666392046960D+03  KE= 3.639813354804D+02
 No NMR shielding tensors so no spin-rotation constants.
 Leave Link  601 at Sun Oct 13 23:47:18 2019, MaxMem= 10737418240 cpu:               2.7 elap:               0.1
 (Enter /apps/cent7/gaussian/g16-A.03/g16-haswell/g16/l701.exe)
 ... and contract with generalized density number  0.
 Compute integral first derivatives.
 Leave Link  701 at Sun Oct 13 23:47:18 2019, MaxMem= 10737418240 cpu:               3.3 elap:               0.2
 (Enter /apps/cent7/gaussian/g16-A.03/g16-haswell/g16/l702.exe)
 L702 exits ... SP integral derivatives will be done elsewhere.
 Leave Link  702 at Sun Oct 13 23:47:18 2019, MaxMem= 10737418240 cpu:               0.5 elap:               0.0
 (Enter /apps/cent7/gaussian/g16-A.03/g16-haswell/g16/l703.exe)
 Integral derivatives from FoFJK, PRISM(SPDF).
 Compute integral first derivatives, UseDBF=F ICtDFT=           0.
 Calling FoFJK, ICntrl=      2127 FMM=F ISym2X=0 I1Cent= 0 IOpClX= 0 NMat=1 NMatS=1 NMatT=0.
 FoFJK:  IHMeth= 1 ICntrl=    2127 DoSepK=F KAlg= 0 I1Cent=           0 FoldK=F
 IRaf=         0 NMat=       1 IRICut=       1 DoRegI=T DoRafI=F ISym2E= 0 IDoP0=0 IntGTp=1.
 FoFCou: FMM=F IPFlag=           0 FMFlag=      100000 FMFlg1=         800
         NFxFlg=           0 DoJE=F BraDBF=F KetDBF=F FulRan=T
         wScrn=  0.000000 ICntrl=      2127 IOpCl=  0 I1Cent=           0 NGrid=           0
         NMat0=    1 NMatS0=      1 NMatT0=    0 NMatD0=    1 NMtDS0=    0 NMtDT0=    0
 Symmetry not used in FoFCou.
 Leave Link  703 at Sun Oct 13 23:47:20 2019, MaxMem= 10737418240 cpu:              52.7 elap:               2.2
 (Enter /apps/cent7/gaussian/g16-A.03/g16-haswell/g16/l716.exe)
 Dipole        = 6.69665715D-01-1.61134977D+00-2.97811177D-03
 ***** Axes restored to original set *****
 -------------------------------------------------------------------
 Center     Atomic                   Forces (Hartrees/Bohr)
 Number     Number              X              Y              Z
 -------------------------------------------------------------------
      1        6           0.001710968    0.008783591    0.008987243
      2        6          -0.035195103   -0.064140485   -0.001896251
      3        6           0.000893193    0.010415699   -0.008798412
      4        6           0.018015811    0.001886724   -0.000797590
      5        6          -0.020336176   -0.009556142    0.000172070
      6        6           0.026006201    0.023267427    0.001056421
      7        7           0.053500779    0.055640936    0.002499681
      8        8           0.005373954   -0.021130810   -0.000238357
      9        1          -0.000732222    0.000998049   -0.003697256
     10        1           0.002355878   -0.000739050   -0.002825086
     11        1           0.001365634   -0.002003081    0.000529542
     12        1          -0.000727910    0.000822022    0.003546854
     13        1           0.001325165   -0.001712600   -0.000852062
     14        1           0.002385952   -0.000966998    0.002551859
     15        1          -0.011367168   -0.008497751    0.012919100
     16        1          -0.011448785   -0.008296463   -0.011264075
     17        1          -0.015502383    0.011073606    0.008406477
     18        1          -0.015328113    0.010472413   -0.009985316
     19        1          -0.002295675   -0.006317084   -0.000314844
 -------------------------------------------------------------------
 Cartesian Forces:  Max     0.064140485 RMS     0.016692461
 Leave Link  716 at Sun Oct 13 23:47:20 2019, MaxMem= 10737418240 cpu:               0.8 elap:               0.1
 (Enter /apps/cent7/gaussian/g16-A.03/g16-haswell/g16/l103.exe)

 GradGradGradGradGradGradGradGradGradGradGradGradGradGradGradGradGradGrad
 Berny optimization.
 FormGI is forming the generalized inverse of G from B-inverse, IUseBI=4.
 Internal  Forces:  Max     0.054216696 RMS     0.009417791
 Search for a local minimum.
 Step number   1 out of a maximum of  114
 All quantities printed in internal units (Hartrees-Bohrs-Radians)
 RMS Force = .94178D-02 SwitMx=.10000D-02 MixMth= 1
 Mixed Optimization -- RFO/linear search
 Second derivative matrix not updated -- first step.
 ITU=  0
     Eigenvalues ---    0.00230   0.00230   0.00461   0.01649   0.02062
     Eigenvalues ---    0.02430   0.04046   0.04171   0.04290   0.05525
     Eigenvalues ---    0.05714   0.05714   0.05715   0.05715   0.05905
     Eigenvalues ---    0.06094   0.06626   0.07613   0.07852   0.08707
     Eigenvalues ---    0.10098   0.12655   0.16000   0.16000   0.16000
     Eigenvalues ---    0.16000   0.16000   0.16000   0.16000   0.17884
     Eigenvalues ---    0.22665   0.24999   0.25759   0.26655   0.26668
     Eigenvalues ---    0.27964   0.34806   0.34806   0.34808   0.34808
     Eigenvalues ---    0.34810   0.34811   0.34814   0.34814   0.34815
     Eigenvalues ---    0.34815   0.34816   0.38654   0.43765   0.69154
     Eigenvalues ---    0.74267
 RFO step:  Lambda=-3.29776948D-02 EMin= 2.30000000D-03
 Linear search not attempted -- first point.
 Maximum step size (   0.300) exceeded in Quadratic search.
    -- Step size scaled by   0.961
 Iteration  1 RMS(Cart)=  0.04932701 RMS(Int)=  0.00158923
 Iteration  2 RMS(Cart)=  0.00152348 RMS(Int)=  0.00028951
 Iteration  3 RMS(Cart)=  0.00000111 RMS(Int)=  0.00028950
 Iteration  4 RMS(Cart)=  0.00000000 RMS(Int)=  0.00028950
 ITry= 1 IFail=0 DXMaxC= 2.23D-01 DCOld= 1.00D+10 DXMaxT= 3.00D-01 DXLimC= 3.00D+00 Rises=F
 Variable       Old X    -DE/DX   Delta X   Delta X   Delta X     New X
                                 (Linear)    (Quad)   (Total)
    R1        2.95176  -0.00520   0.00000  -0.01666  -0.01666   2.93510
    R2        2.05991  -0.00164   0.00000  -0.00414  -0.00414   2.05577
    R3        2.05975   0.00019   0.00000   0.00047   0.00047   2.06021
    R4        2.05987   0.00060   0.00000   0.00151   0.00151   2.06138
    R5        2.95147  -0.00687   0.00000  -0.02203  -0.02203   2.92944
    R6        2.95845   0.00756   0.00000   0.01382   0.01360   2.97205
    R7        2.64690   0.05422   0.00000   0.11107   0.11086   2.75776
    R8        2.05977  -0.00163   0.00000  -0.00412  -0.00412   2.05565
    R9        2.05978   0.00061   0.00000   0.00155   0.00155   2.06132
   R10        2.05983   0.00010   0.00000   0.00026   0.00026   2.06009
   R11        2.91106   0.01988   0.00000   0.04872   0.04882   2.95988
   R12        2.05988  -0.00353   0.00000  -0.00889  -0.00889   2.05099
   R13        2.05976  -0.00326   0.00000  -0.00821  -0.00821   2.05155
   R14        2.69672   0.05045   0.00000   0.11160   0.11187   2.80859
   R15        2.05984   0.00146   0.00000   0.00367   0.00367   2.06351
   R16        2.05992   0.00108   0.00000   0.00273   0.00273   2.06265
   R17        2.41690   0.02146   0.00000   0.03246   0.03253   2.44943
   R18        2.05979  -0.00663   0.00000  -0.01672  -0.01672   2.04307
   R19        2.41163   0.00487   0.00000   0.00604   0.00604   2.41767
    A1        1.91065   0.00381   0.00000   0.01916   0.01901   1.92966
    A2        1.91074   0.00424   0.00000   0.02247   0.02232   1.93306
    A3        1.91069  -0.00065   0.00000  -0.00479  -0.00476   1.90593
    A4        1.91061  -0.00334   0.00000  -0.01350  -0.01382   1.89679
    A5        1.91052  -0.00218   0.00000  -0.01360  -0.01356   1.89695
    A6        1.91059  -0.00188   0.00000  -0.00974  -0.00972   1.90087
    A7        1.92175   0.00387   0.00000   0.01647   0.01520   1.93695
    A8        1.94300   0.00001   0.00000   0.01973   0.01962   1.96261
    A9        1.92009  -0.00415   0.00000  -0.03396  -0.03411   1.88599
   A10        1.95117  -0.00050   0.00000   0.01457   0.01430   1.96548
   A11        1.93298  -0.00471   0.00000  -0.03821  -0.03826   1.89472
   A12        1.79146   0.00522   0.00000   0.01924   0.01958   1.81104
   A13        1.91065   0.00351   0.00000   0.01761   0.01748   1.92813
   A14        1.91068  -0.00099   0.00000  -0.00642  -0.00638   1.90430
   A15        1.91072   0.00421   0.00000   0.02230   0.02217   1.93289
   A16        1.91055  -0.00185   0.00000  -0.01189  -0.01185   1.89870
   A17        1.91056  -0.00320   0.00000  -0.01289  -0.01318   1.89738
   A18        1.91064  -0.00168   0.00000  -0.00872  -0.00868   1.90195
   A19        1.83057   0.00839   0.00000   0.01110   0.01024   1.84081
   A20        1.88479   0.00033   0.00000   0.02393   0.02324   1.90803
   A21        1.88485   0.00049   0.00000   0.02308   0.02250   1.90736
   A22        1.87605   0.00132   0.00000   0.03448   0.03400   1.91005
   A23        1.87612   0.00112   0.00000   0.03052   0.03009   1.90621
   A24        2.09453  -0.00923   0.00000  -0.10926  -0.10875   1.98578
   A25        1.79616  -0.00178   0.00000  -0.00709  -0.00702   1.78914
   A26        1.90715   0.00341   0.00000   0.02191   0.02122   1.92837
   A27        1.90700   0.00362   0.00000   0.02157   0.02099   1.92799
   A28        1.86760   0.00496   0.00000   0.05174   0.05132   1.91893
   A29        1.86750   0.00478   0.00000   0.05136   0.05095   1.91844
   A30        2.09440  -0.01338   0.00000  -0.12207  -0.12201   1.97239
   A31        1.99133  -0.00091   0.00000   0.00456   0.00499   1.99633
   A32        2.23009   0.00160   0.00000   0.00340   0.00317   2.23326
   A33        2.06176  -0.00068   0.00000  -0.00795  -0.00817   2.05359
   A34        2.01383  -0.01092   0.00000  -0.02802  -0.02802   1.98581
   A35        2.15705  -0.02016   0.00000  -0.07298  -0.07298   2.08407
   A36        2.11229   0.03108   0.00000   0.10098   0.10097   2.21326
    D1        0.41479   0.00343   0.00000   0.06190   0.06198   0.47677
    D2       -1.75930   0.00126   0.00000   0.01708   0.01675  -1.74255
    D3        2.54999  -0.00267   0.00000   0.00235   0.00230   2.55230
    D4        2.50923   0.00427   0.00000   0.07086   0.07112   2.58036
    D5        0.33514   0.00210   0.00000   0.02604   0.02590   0.36103
    D6       -1.63875  -0.00182   0.00000   0.01130   0.01145  -1.62730
    D7       -1.67951   0.00417   0.00000   0.06976   0.06994  -1.60957
    D8        2.42958   0.00200   0.00000   0.02494   0.02471   2.45430
    D9        0.45570  -0.00193   0.00000   0.01021   0.01027   0.46596
   D10       -0.43445  -0.00342   0.00000  -0.06165  -0.06171  -0.49616
   D11        1.65987  -0.00414   0.00000  -0.06936  -0.06951   1.59036
   D12       -2.52883  -0.00423   0.00000  -0.07030  -0.07054  -2.59937
   D13        1.73493  -0.00092   0.00000  -0.01361  -0.01334   1.72159
   D14       -2.45393  -0.00165   0.00000  -0.02132  -0.02114  -2.47507
   D15       -0.35944  -0.00174   0.00000  -0.02227  -0.02217  -0.38162
   D16       -2.56203   0.00235   0.00000  -0.00446  -0.00440  -2.56643
   D17       -0.46770   0.00162   0.00000  -0.01217  -0.01220  -0.47991
   D18        1.62678   0.00153   0.00000  -0.01312  -0.01323   1.61355
   D19       -2.00583   0.00237   0.00000   0.02433   0.02419  -1.98164
   D20       -0.00900   0.00803   0.00000   0.07943   0.07948   0.07048
   D21        2.28042  -0.00312   0.00000  -0.02589  -0.02616   2.25426
   D22        2.11991  -0.00231   0.00000  -0.02244  -0.02239   2.09752
   D23       -2.16645   0.00334   0.00000   0.03266   0.03290  -2.13355
   D24        0.12297  -0.00781   0.00000  -0.07266  -0.07274   0.05023
   D25        0.04758   0.00045   0.00000   0.00447   0.00449   0.05207
   D26        2.04441   0.00610   0.00000   0.05957   0.05977   2.10418
   D27       -1.94935  -0.00505   0.00000  -0.04575  -0.04587  -1.99522
   D28        2.03572   0.00078   0.00000   0.01406   0.01352   2.04924
   D29       -1.09906   0.00073   0.00000   0.01664   0.01593  -1.08313
   D30       -2.11892  -0.00028   0.00000  -0.01351  -0.01286  -2.13178
   D31        1.02949  -0.00033   0.00000  -0.01093  -0.01045   1.01903
   D32       -0.03387  -0.00015   0.00000  -0.00369  -0.00370  -0.03756
   D33        3.11454  -0.00020   0.00000  -0.00111  -0.00129   3.11325
   D34       -0.04559  -0.00026   0.00000  -0.00298  -0.00294  -0.04853
   D35        1.93457   0.00587   0.00000   0.06103   0.06112   1.99569
   D36       -2.02557  -0.00627   0.00000  -0.06641  -0.06646  -2.09203
   D37       -2.04853  -0.00515   0.00000  -0.05049  -0.05075  -2.09928
   D38       -0.06838   0.00098   0.00000   0.01351   0.01331  -0.05506
   D39        2.25467  -0.01116   0.00000  -0.11392  -0.11426   2.14041
   D40        1.95745   0.00473   0.00000   0.04184   0.04208   1.99954
   D41       -2.34558   0.01086   0.00000   0.10584   0.10614  -2.23943
   D42       -0.02253  -0.00128   0.00000  -0.02159  -0.02143  -0.04396
   D43        0.02870  -0.00020   0.00000   0.00050   0.00044   0.02914
   D44       -3.11295  -0.00019   0.00000  -0.00111  -0.00119  -3.11414
   D45       -1.98019  -0.00518   0.00000  -0.04136  -0.04163  -2.02181
   D46        1.16135  -0.00518   0.00000  -0.04296  -0.04326   1.11809
   D47        2.03737   0.00495   0.00000   0.04182   0.04207   2.07944
   D48       -1.10427   0.00496   0.00000   0.04022   0.04044  -1.06384
   D49        0.00387   0.00008   0.00000   0.00173   0.00171   0.00559
   D50        3.13885  -0.00008   0.00000  -0.00150  -0.00170   3.13715
   D51       -3.13767   0.00007   0.00000   0.00317   0.00317  -3.13450
   D52       -0.00270  -0.00009   0.00000  -0.00006  -0.00025  -0.00294
         Item               Value     Threshold  Converged?
 Maximum Force            0.054217     0.000450     NO 
 RMS     Force            0.009418     0.000300     NO 
 Maximum Displacement     0.222960     0.001800     NO 
 RMS     Displacement     0.049249     0.001200     NO 
 Predicted change in Energy=-1.953818D-02
 Lowest energy point so far.  Saving SCF results.
 GradGradGradGradGradGradGradGradGradGradGradGradGradGradGradGradGradGrad

 Leave Link  103 at Sun Oct 13 23:47:21 2019, MaxMem= 10737418240 cpu:               1.1 elap:               0.1
 (Enter /apps/cent7/gaussian/g16-A.03/g16-haswell/g16/l202.exe)
                          Input orientation:                          
 ---------------------------------------------------------------------
 Center     Atomic      Atomic             Coordinates (Angstroms)
 Number     Number       Type             X           Y           Z
 ---------------------------------------------------------------------
      1          6           0       -0.424998   -1.945428   -1.335023
      2          6           0       -0.751006   -1.177728   -0.024778
      3          6           0       -0.402393   -2.032398    1.220655
      4          6           0       -2.228907   -0.640655    0.004751
      5          6           0       -2.106890    0.920499   -0.029967
      6          6           0       -0.635587    1.129085   -0.003879
      7          7           0        0.059873    0.035290    0.002521
      8          8           0        1.335435   -0.061986    0.019199
      9          1           0       -0.485633   -3.019552   -1.173674
     10          1           0       -1.122269   -1.671437   -2.127056
     11          1           0        0.588010   -1.696560   -1.654083
     12          1           0       -0.486068   -3.092248    0.990359
     13          1           0        0.623218   -1.818840    1.524581
     14          1           0       -1.072948   -1.800336    2.048265
     15          1           0       -2.752770   -0.981812   -0.882456
     16          1           0       -2.701207   -0.941577    0.934791
     17          1           0       -2.522752    1.315795   -0.959044
     18          1           0       -2.560442    1.358661    0.860927
     19          1           0       -0.096965    2.066426    0.008514
 ---------------------------------------------------------------------
                    Distance matrix (angstroms):
                    1          2          3          4          5
     1  C    0.000000
     2  C    1.553186   0.000000
     3  C    2.557258   1.550192   0.000000
     4  C    2.598369   1.572740   2.598369   0.000000
     5  C    3.570080   2.498200   3.631661   1.566300   0.000000
     6  C    3.356922   2.309793   3.398358   2.381328   1.486244
     7  N    2.438723   1.459344   2.443946   2.386508   2.340835
     8  O    2.912113   2.366443   2.888956   3.611039   3.580125
     9  H    1.087865   2.186938   2.591180   3.175979   4.411410
    10  H    1.090218   2.191154   3.443208   2.613764   3.476405
    11  H    1.090834   2.171816   3.059053   3.435359   4.092583
    12  H    2.593516   2.183136   1.087805   3.165315   4.446377
    13  H    3.048297   2.167955   1.090805   3.439858   4.168223
    14  H    3.447830   2.188331   1.090153   2.618597   3.576454
    15  H    2.559668   2.186562   3.324316   1.085338   2.182358
    16  H    3.367626   2.186281   2.560499   1.085631   2.179747
    17  H    3.895832   3.198374   4.522986   2.200669   1.091964
    18  H    4.505478   3.239106   4.035574   2.200049   1.091507
    19  H    4.243545   3.309594   4.285199   3.445791   2.313963
                    6          7          8          9         10
     6  C    0.000000
     7  N    1.296184   0.000000
     8  O    2.303065   1.279375   0.000000
     9  H    4.313014   3.318594   3.672388   0.000000
    10  H    3.547910   2.974135   3.638277   1.769648   0.000000
    11  H    3.493513   2.454093   2.455677   1.770257   1.774652
    12  H    4.339414   3.324962   3.666540   2.165254   3.484499
    13  H    3.551203   2.464107   2.420737   3.154653   4.050050
    14  H    3.603344   2.972856   3.597121   3.494612   4.177602
    15  H    3.116128   3.119077   4.286314   3.062205   2.164058
    16  H    3.071731   3.073591   4.231604   3.697617   3.521456
    17  H    2.123345   3.038791   4.211989   4.794908   3.499880
    18  H    2.122655   3.058468   4.231384   5.254825   4.491980
    19  H    1.081145   2.037191   2.565545   5.236010   4.425329
                   11         12         13         14         15
    11  H    0.000000
    12  H    3.177210   0.000000
    13  H    3.181210   1.771292   0.000000
    14  H    4.059179   1.769924   1.775265   0.000000
    15  H    3.502440   3.619297   4.229863   3.475760   0.000000
    16  H    4.253377   3.087931   3.488444   2.151400   1.818424
    17  H    4.385681   5.232504   5.088365   4.566849   2.310362
    18  H    5.056917   4.912268   4.546718   3.688045   2.924755
    19  H    4.170550   5.265676   4.232306   4.479394   4.139914
                   16         17         18         19
    16  H    0.000000
    17  H    2.951980   0.000000
    18  H    2.305725   1.820866   0.000000
    19  H    4.085113   2.717363   2.701159   0.000000
 Stoichiometry    C6H11NO
 Framework group  C1[X(C6H11NO)]
 Deg. of freedom    51
 Full point group                 C1      NOp   1
 RotChk:  IX=0 Diff= 1.45D-01
 Largest Abelian subgroup         C1      NOp   1
 Largest concise Abelian subgroup C1      NOp   1
                         Standard orientation:                         
 ---------------------------------------------------------------------
 Center     Atomic      Atomic             Coordinates (Angstroms)
 Number     Number       Type             X           Y           Z
 ---------------------------------------------------------------------
      1          6           0       -1.314375   -0.587553    1.306194
      2          6           0       -0.494176   -0.425327   -0.002754
      3          6           0       -1.404619   -0.567068   -1.249389
      4          6           0        0.752811   -1.382431   -0.052641
      5          6           0        2.003972   -0.441485   -0.002512
      6          6           0        1.389306    0.911699   -0.001964
      7          7           0        0.093129    0.910616   -0.005977
      8          8           0       -0.674306    1.934250   -0.001943
      9          1           0       -2.187997   -1.212702    1.134660
     10          1           0       -0.707176   -1.043229    2.088654
     11          1           0       -1.648182    0.394326    1.644433
     12          1           0       -2.253096   -1.211355   -1.029614
     13          1           0       -1.776136    0.418205   -1.534113
     14          1           0       -0.850148   -0.992229   -2.086189
     15          1           0        0.748205   -2.024160    0.822642
     16          1           0        0.751057   -1.924829   -0.993064
     17          1           0        2.562530   -0.597284    0.922758
     18          1           0        2.615552   -0.571749   -0.897157
     19          1           0        1.890422    1.869684    0.002760
 ---------------------------------------------------------------------
 Rotational constants (GHZ):           2.6258425           2.2230939           1.6726999
 Leave Link  202 at Sun Oct 13 23:47:21 2019, MaxMem= 10737418240 cpu:               0.4 elap:               0.0
 (Enter /apps/cent7/gaussian/g16-A.03/g16-haswell/g16/l301.exe)
 Standard basis: 6-311++G(d,p) (5D, 7F)
 Ernie: Thresh=  0.10000D-02 Tol=  0.10000D-05 Strict=F.
 There are   261 symmetry adapted cartesian basis functions of A   symmetry.
 There are   253 symmetry adapted basis functions of A   symmetry.
   253 basis functions,   387 primitive gaussians,   261 cartesian basis functions
    31 alpha electrons       31 beta electrons
       nuclear repulsion energy       404.0731056790 Hartrees.
 IExCor= 4336 DFT=T Ex+Corr=M062X ExCW=0 ScaHFX=  0.540000
 ScaDFX=  1.000000  1.000000  1.000000  1.000000 ScalE2=  1.000000  1.000000
 IRadAn=      5 IRanWt=     -1 IRanGd=            0 ICorTp=0 IEmpDi=  4
 NAtoms=   19 NActive=   19 NUniq=   19 SFac= 1.00D+00 NAtFMM=   60 NAOKFM=F Big=F
 Integral buffers will be    131072 words long.
 Raffenetti 2 integral format.
 Two-electron integral symmetry is turned on.
 Leave Link  301 at Sun Oct 13 23:47:21 2019, MaxMem= 10737418240 cpu:               1.7 elap:               0.1
 (Enter /apps/cent7/gaussian/g16-A.03/g16-haswell/g16/l302.exe)
 NPDir=0 NMtPBC=     1 NCelOv=     1 NCel=       1 NClECP=     1 NCelD=      1
         NCelK=      1 NCelE2=     1 NClLst=     1 CellRange=     0.0.
 One-electron integrals computed using PRISM.
 One-electron integral symmetry used in STVInt
 NBasis=   253 RedAO= T EigKep=  4.31D-06  NBF=   253
 NBsUse=   253 1.00D-06 EigRej= -1.00D+00 NBFU=   253
 Precomputing XC quadrature grid using
 IXCGrd= 4 IRadAn=           5 IRanWt=          -1 IRanGd=           0 AccXCQ= 0.00D+00.
 Generated NRdTot=       0 NPtTot=           0 NUsed=           0 NTot=          32
 NSgBfM=   261   261   261   261   261 MxSgAt=    19 MxSgA2=    19.
 Leave Link  302 at Sun Oct 13 23:47:21 2019, MaxMem= 10737418240 cpu:               3.9 elap:               0.2
 (Enter /apps/cent7/gaussian/g16-A.03/g16-haswell/g16/l303.exe)
 DipDrv:  MaxL=1.
 Leave Link  303 at Sun Oct 13 23:47:21 2019, MaxMem= 10737418240 cpu:               0.9 elap:               0.1
 (Enter /apps/cent7/gaussian/g16-A.03/g16-haswell/g16/l401.exe)
 Initial guess from the checkpoint file:  "5.chk"
 B after Tr=     0.000000   -0.000000   -0.000000
         Rot=    0.998372    0.000888    0.000909   -0.057030 Ang=   6.54 deg.
 Guess basis will be translated and rotated to current coordinates.
 JPrj=2 DoOrth=T DoCkMO=T.
 Generating alternative initial guess.
 ExpMin= 3.60D-02 ExpMax= 8.59D+03 ExpMxC= 1.30D+03 IAcc=3 IRadAn=         5 AccDes= 0.00D+00
 Harris functional with IExCor= 1009 and IRadAn=       5 diagonalized for initial guess.
 HarFok:  IExCor= 1009 AccDes= 0.00D+00 IRadAn=         5 IDoV= 1 UseB2=F ITyADJ=14
 ICtDFT=  3500011 ScaDFX=  1.000000  1.000000  1.000000  1.000000
 FoFCou: FMM=F IPFlag=           0 FMFlag=      100000 FMFlg1=           0
         NFxFlg=           0 DoJE=T BraDBF=F KetDBF=T FulRan=T
         wScrn=  0.000000 ICntrl=       500 IOpCl=  0 I1Cent=   200000004 NGrid=           0
         NMat0=    1 NMatS0=      1 NMatT0=    0 NMatD0=    1 NMtDS0=    0 NMtDT0=    0
 Petite list used in FoFCou.
 Harris En= -364.990732584697    
 Leave Link  401 at Sun Oct 13 23:47:21 2019, MaxMem= 10737418240 cpu:              12.2 elap:               0.5
 (Enter /apps/cent7/gaussian/g16-A.03/g16-haswell/g16/l502.exe)
 Integral symmetry usage will be decided dynamically.
 Closed shell SCF:
 Using DIIS extrapolation, IDIIS=  1040.
 NGot= 10737418240 LenX= 10737273051 LenY= 10737204489
 Requested convergence on RMS density matrix=1.00D-08 within 128 cycles.
 Requested convergence on MAX density matrix=1.00D-06.
 Requested convergence on             energy=1.00D-06.
 No special actions if energy rises.
 Fock matrices will be formed incrementally for  20 cycles.

 Cycle   1  Pass 1  IDiag  1:
 FoFJK:  IHMeth= 1 ICntrl=       0 DoSepK=F KAlg= 0 I1Cent=           0 FoldK=F
 IRaf= 990000000 NMat=       1 IRICut=       1 DoRegI=T DoRafI=F ISym2E= 0 IDoP0=0 IntGTp=1.
 FoFCou: FMM=F IPFlag=           0 FMFlag=      100000 FMFlg1=           0
         NFxFlg=           0 DoJE=F BraDBF=F KetDBF=F FulRan=T
         wScrn=  0.000000 ICntrl=         0 IOpCl=  0 I1Cent=           0 NGrid=           0
         NMat0=    1 NMatS0=      1 NMatT0=    0 NMatD0=    1 NMtDS0=    0 NMtDT0=    0
 Symmetry not used in FoFCou.
 E= -365.088031574855    
 DIIS: error= 3.49D-03 at cycle   1 NSaved=   1.
 NSaved= 1 IEnMin= 1 EnMin= -365.088031574855     IErMin= 1 ErrMin= 3.49D-03
 ErrMax= 3.49D-03  0.00D+00 EMaxC= 1.00D-01 BMatC= 7.11D-03 BMatP= 7.11D-03
 IDIUse=3 WtCom= 9.65D-01 WtEn= 3.49D-02
 Coeff-Com:  0.100D+01
 Coeff-En:   0.100D+01
 Coeff:      0.100D+01
 Gap=     0.442 Goal=   None    Shift=    0.000
[...]
 02280361,0.00504846,0.00068327,-0.00054595,-0.00145849,-0.00197597,-0.
 16817134,0.03092966,-0.08254694,0.48059743,0.00047237,-0.00128882,0.00
 075346,-0.00411241,-0.00403448,-0.00286181,-0.00017307,0.00121370,0.00
 012196,0.00501670,0.02692181,-0.08657963,-0.00676984,0.01918751,0.5629
 3212,-0.00247442,-0.00319136,0.00005347,0.01503532,-0.00301495,0.00149
 567,-0.00377878,-0.00311605,-0.00047513,-0.00710966,-0.01991734,-0.000
 43017,-0.21149213,-0.04371295,-0.02688495,0.65450032,-0.00070496,-0.00
 175265,0.00259009,0.00505494,-0.04148249,0.00138934,-0.00263692,-0.001
 85752,-0.00179549,-0.03166287,-0.02640298,-0.00575501,-0.02652802,-0.0
 9546189,-0.00174361,-0.02636807,0.85537832,-0.00065811,-0.00180504,-0.
 00006317,0.00114743,-0.00092637,0.00739925,-0.00109735,-0.00019705,-0.
 00015085,0.00791448,0.00026118,0.00188987,-0.02723744,-0.00636315,-0.0
 6721395,0.08978715,-0.04612139,0.14120262,0.00691574,0.00042716,-0.005
 65238,-0.07965181,0.00753915,-0.00184348,0.00706779,0.00084539,0.00534
 281,-0.04140658,-0.01954669,-0.00881249,-0.04850157,0.01926044,-0.0015
 8820,-0.23384851,0.13832775,-0.03948725,0.82212031,-0.01041890,-0.0286
 4596,-0.01386346,-0.00677188,-0.12560999,-0.00128759,-0.01520324,-0.03
 582264,0.00394863,-0.00472685,0.00684386,-0.00076782,0.01311579,0.0085
 3826,0.00055491,0.16746899,-0.41078411,0.04832717,-0.17227978,0.727784
 60,-0.01919466,-0.03506286,-0.00630472,0.00137756,0.00125135,-0.084154
 29,0.01684902,0.02653364,0.00312126,-0.00126569,0.00422867,-0.00089979
 ,-0.01135348,0.00239778,-0.00400223,-0.03016293,0.03790336,-0.06920049
 ,0.10075583,-0.04269910,0.23300245,-0.00087307,0.00211641,0.00177594,-
 0.04395985,-0.01384448,-0.00514951,0.00088097,0.00341060,-0.00188438,0
 .00065086,-0.00327448,-0.00135777,0.00695688,0.00637685,-0.00551889,-0
 .06533134,0.04445196,-0.00784451,-0.43155764,0.00565743,-0.05432030,0.
 53838638,-0.00025693,0.00004940,-0.00007100,-0.02837059,0.01102126,-0.
 00267947,-0.00037620,-0.00201225,-0.00027580,-0.00364224,-0.00572210,-
 0.00110510,0.00024203,-0.00485903,0.00075805,0.05002040,0.01287599,0.0
 0655326,0.02099772,-0.11173052,0.00375084,-0.03196015,0.09316306,0.001
 21946,0.00026972,0.00035721,-0.00767209,-0.00053395,0.00551390,0.00044
 162,0.00064703,-0.00007793,0.00018266,-0.00098115,0.00164593,-0.000634
 15,0.00286093,0.01163114,-0.01526190,0.00605758,0.01363395,-0.05292609
 ,0.00130556,-0.07107927,0.07403410,-0.00749664,0.04384218,-0.10179120,
 -0.10958331,-0.01319073,0.00160298,0.00734089,0.00168391,0.00013135,0.
 00003322,-0.00027994,0.00081699,0.00042659,-0.00040539,0.00009645,-0.0
 0001912,0.00023990,0.00030646,0.00026622,0.00021735,-0.00209557,0.0009
 2627,0.00136328,0.00146232,-0.00050036,-0.00051623,0.10627980,-0.10910
 803,-0.26027293,-0.02420528,-0.00584192,-0.01167920,-0.00021064,-0.000
 15970,0.00033587,0.00116634,-0.00070858,0.00012708,0.00002710,-0.00019
 631,-0.00000057,0.00012862,-0.00070847,0.00015821,-0.00061086,0.002066
 91,-0.00037804,-0.00242298,-0.00008131,0.00024924,0.00027636,0.1194630
 7,0.28105169,-0.01173815,-0.02225233,-0.04898222,-0.01461655,-0.026166
 07,-0.00307211,-0.00036137,-0.00040620,0.00152359,-0.00092010,0.000491
 95,0.00041474,-0.00015885,0.00021640,-0.00010450,-0.00141440,-0.000880
 06,-0.00021226,0.00285542,-0.00297027,-0.00614686,-0.00040313,-0.00002
 087,0.00053464,0.01283779,0.02761538,0.05332688,-0.07684663,0.05525224
 ,-0.06316654,0.00071629,-0.00573783,0.00555364,0.00009838,0.00081660,0
 .00143634,0.00057996,-0.00041258,0.00044663,0.00019353,0.00009558,0.00
 017353,0.00023655,-0.00030976,-0.00018357,-0.00001498,0.00012314,-0.00
 079247,-0.00036455,-0.00050431,0.00009651,0.00452784,-0.00853049,0.011
 84431,0.07778454,0.05472677,-0.15038800,0.11931319,-0.00519901,0.00707
 093,-0.01055357,0.00041191,-0.00057693,-0.00208355,-0.00016854,0.00059
 100,0.00028773,0.00006882,0.00006339,-0.00022981,0.00013284,-0.0000179
 3,0.00015441,-0.00018853,0.00170983,-0.00001073,-0.00006420,-0.0000530
 0,0.00025422,0.01064285,-0.01585847,0.02001989,-0.06066376,0.15955010,
 -0.06227352,0.11696797,-0.18290003,-0.01006137,0.01929552,-0.02187612,
 0.00162081,-0.00411249,-0.00479137,-0.00105415,0.00047248,0.00088061,0
 .00047782,-0.00026793,-0.00017210,-0.00037324,-0.00086275,0.00049708,-
 0.00041627,0.00232964,0.00078571,0.00040918,-0.00055649,0.00010832,0.0
 0226131,-0.00293194,0.00317809,0.06765374,-0.12800517,0.20201967,-0.31
 602738,0.03304867,0.02552169,-0.00680821,0.00200273,0.00109525,0.00025
 813,-0.00004127,-0.00049737,0.00081202,-0.00033910,0.00116292,-0.00004
 371,-0.00010585,0.00003918,-0.00004685,-0.00001350,0.00002907,-0.00166
 290,-0.00047644,-0.00018512,0.00111601,-0.00082470,-0.00063978,-0.0113
 7032,0.00231334,0.00094365,-0.00753286,0.00031132,0.00097909,0.3403534
 1,0.03081876,-0.05082160,-0.00126569,0.01326950,-0.00384074,-0.0020513
 4,-0.00046984,-0.00016787,0.00073778,-0.00008084,0.00009553,-0.0030532
 7,-0.00004480,0.00034952,0.00011234,-0.00003456,0.00018987,-0.00003030
 ,0.00337841,-0.00015283,0.00067863,-0.00204169,0.00012479,0.00037450,-
 0.02882318,0.00517669,0.00341717,0.02006233,-0.00264800,-0.00310467,-0
 .03620794,0.05173565,0.02243510,-0.00163303,-0.04949604,0.03112312,-0.
 00361064,-0.00318561,0.00089407,-0.00027344,0.00151890,0.00003638,-0.0
 0154248,-0.00512867,0.00022074,0.00008270,-0.00043903,-0.00021339,0.00
 004881,0.00002306,0.00226668,0.00035153,0.00151996,-0.00152902,0.00090
 911,0.00006365,-0.00355707,0.00095822,-0.00103633,-0.02320447,0.001467
 99,0.00272755,-0.02872587,0.00410820,0.05406460,-0.00005600,-0.0001136
 9,0.00036065,0.00439153,0.00999696,-0.00007070,-0.12850458,-0.12511105
 ,-0.00675936,0.00063418,-0.00022385,0.00019967,0.00023359,-0.00013059,
 0.00001232,0.00083886,0.00023559,0.00018258,-0.00324036,0.00217650,-0.
 00299262,0.00138797,-0.00155168,0.00105664,0.00022797,0.00000167,0.000
 24920,0.00001858,0.00017090,0.00013580,0.00000204,-0.00013342,-0.00005
 500,0.13581243,-0.00007049,0.00029385,-0.00114755,-0.01232383,-0.01806
 221,-0.00276234,-0.12424295,-0.23363427,-0.01087017,-0.00025794,0.0010
 1827,-0.00009720,-0.00018664,-0.00011692,0.00005160,-0.00126695,-0.000
 54837,-0.00015633,0.00221454,-0.00160165,0.00394175,0.00057229,0.00044
 031,-0.00022033,0.00001143,0.00067066,0.00039663,0.00033183,0.00023820
 ,-0.00002878,0.00011225,0.00006334,-0.00003409,0.13615017,0.25400564,0
 .00060374,0.00013729,0.00112271,0.01499390,0.01905390,0.00108222,-0.00
 825095,-0.01237239,-0.04778677,0.00034871,-0.00058772,0.00062496,0.000
 29644,-0.00005333,-0.00024681,0.00113608,0.00089386,0.00026260,-0.0024
 9160,0.00375618,-0.00418137,0.00006823,-0.00020935,0.00065903,-0.00020
 593,-0.00012285,-0.00076849,-0.00019379,-0.00025661,0.00023848,0.00001
 127,0.00005040,-0.00007682,0.00955110,0.01014485,0.04976611,0.00048483
 ,-0.00033812,0.00073018,-0.00906525,0.00336743,0.00062656,-0.30617441,
 0.06397536,0.02849402,0.00101320,0.00078671,-0.00109397,-0.00044981,-0
 .00004457,-0.00007168,-0.00003617,-0.00018316,0.00000699,-0.00214050,-
 0.00023702,-0.00058397,0.00065953,-0.00251406,0.00095068,-0.00012775,0
 .00011740,-0.00015444,0.00032183,-0.00003620,0.00009617,0.00043695,-0.
 00008265,-0.00037793,-0.01377295,0.00431879,0.00168695,0.33059072,-0.0
 0009827,0.00044884,-0.00110050,0.02117963,-0.00579085,-0.00295872,0.06
 037886,-0.05997834,-0.00692836,0.00039171,-0.00215105,0.00278918,0.001
 01586,0.00009892,0.00010895,-0.00051979,0.00062440,0.00010836,0.003805
 19,-0.00009792,-0.00020206,-0.00264656,0.00022623,-0.00065544,-0.00022
 612,-0.00001515,0.00007939,-0.00018326,-0.00013229,-0.00011886,-0.0002
 1139,0.00042772,0.00036687,-0.02675290,0.00812225,0.00310045,-0.069268
 59,0.06311238,-0.00087549,-0.00007194,0.00133944,-0.02558509,0.0043642
 4,0.00198365,0.03056545,-0.00801299,-0.05221783,0.00049584,0.00350932,
 -0.00306272,-0.00129186,0.00022474,0.00045950,-0.00017372,-0.00011478,
 0.00004228,-0.00021948,-0.00039545,0.00063663,0.00077039,-0.00016837,-
 0.00071122,0.00000737,-0.00015948,-0.00002280,0.00029250,-0.00010317,0
 .00023015,0.00023954,0.00025685,-0.00074567,-0.00206970,0.00054654,-0.
 00141123,-0.03006257,0.00540930,0.05520611,-0.00008299,0.00107205,-0.0
 0114114,-0.00112798,-0.00507816,-0.00783439,-0.05249044,0.01722575,0.0
 3363944,0.00061055,-0.00084695,-0.00132589,0.00008645,0.00000872,0.000
 16865,-0.00008499,0.00013499,0.00011809,0.00122162,-0.00027172,0.00114
 108,-0.00064445,-0.00010037,-0.00088599,-0.00005167,0.00029595,0.00017
 444,0.00066574,-0.00001704,-0.00041129,0.00024431,0.00001304,-0.000388
 18,0.00200599,-0.00658513,-0.01676489,-0.00185293,0.01339696,0.0280020
 0,0.05209506,0.00122100,-0.00269294,0.00285170,-0.00287458,0.00786658,
 0.02041491,0.01658602,-0.09889584,-0.10705028,-0.00093275,0.00071929,0
 .00034845,-0.00002557,0.00016964,0.00003146,0.00045930,-0.00010346,-0.
 00036956,-0.00013753,0.00205383,0.00020898,-0.00015120,0.00009011,-0.0
 0017297,0.00021893,0.00017062,0.00016209,-0.00016509,0.00069296,0.0012
 3068,0.00000806,-0.00013638,-0.00002815,0.00542306,-0.01045094,-0.0234
 9563,-0.00004261,-0.00396777,-0.00578808,-0.01941072,0.10429494,-0.002
 00356,0.00439919,-0.00246966,0.00386319,-0.01115176,-0.02271985,0.0323
 3077,-0.10370133,-0.26153256,0.00159535,-0.00039940,0.00026328,-0.0000
 7649,-0.00000525,0.00035981,0.00001004,0.00057517,0.00008922,-0.001113
 97,-0.00128467,0.00067019,0.00080417,0.00029598,0.00049356,-0.00005678
 ,0.00004479,0.00038965,0.00037735,-0.00051886,-0.00139583,-0.00003220,
 0.00001071,0.00022191,-0.00035390,0.00051372,0.00048935,-0.00000023,-0
 .00067778,-0.00190805,-0.03459476,0.11186915,0.28606399,0.00175299,-0.
 00102728,-0.00123912,-0.01569386,-0.01697338,-0.01580319,-0.00099002,-
 0.00019040,0.00075702,-0.15476906,-0.09087123,-0.09590655,0.00113141,0
 .00136555,0.00169480,-0.00026666,-0.00001448,-0.00021928,-0.00471708,0
 .00276911,-0.00029689,-0.00146398,-0.00156851,0.00009758,-0.00019467,0
 .00076047,0.00041563,-0.00013547,-0.00017579,0.00048163,0.00039274,-0.
 00000063,-0.00017029,0.00006267,0.00039981,-0.00025981,-0.00017026,0.0
 0046138,-0.00014623,0.00005493,-0.00002612,0.00011491,0.16735644,0.000
 39871,0.00089478,0.00013072,0.00764000,0.00642511,0.00748512,0.0000872
 5,0.00017198,-0.00014350,-0.09183154,-0.12315487,-0.08315235,-0.019059
 35,-0.01382202,-0.01630887,0.00084283,-0.00521747,0.00132926,0.0027047
 7,-0.00225300,-0.00039812,-0.00031298,0.00130535,0.00001220,-0.0000295
 6,-0.00008425,0.00015316,-0.00030640,-0.00006862,0.00008956,-0.0000136
 9,-0.00000477,0.00008442,-0.00010659,-0.00019910,0.00001162,0.00000453
 ,-0.00034740,-0.00005730,0.00006705,-0.00002236,-0.00012700,0.09921475
 ,0.13394824,0.00131629,-0.00012911,0.00060235,0.00262989,0.00198622,0.
 00062038,-0.00039025,-0.00014338,-0.00028737,-0.09947813,-0.08554640,-
 0.13706216,0.00818125,0.00663577,0.00516099,0.00021243,0.00277598,0.00
 030617,0.00241088,0.00030425,-0.00001523,0.00004471,0.00030756,0.00021
 494,-0.00003267,0.00007806,0.00026799,-0.00013864,0.00036274,0.0000630
 7,-0.00001166,0.00009456,-0.00010833,-0.00010852,0.00024618,-0.0000330
 4,-0.00006041,0.00026568,0.00013175,0.00004732,-0.00000461,0.00035242,
 0.10475323,0.08945187,0.14476639,-0.00487765,0.00055617,-0.00077492,-0
 .00966386,-0.00012573,0.02955294,0.00133338,-0.00039115,0.00188816,-0.
 07061604,-0.00781104,0.07100496,-0.00021065,0.00158038,-0.00137078,0.0
 0010377,-0.00039248,-0.00011952,-0.00072979,0.00152893,0.00040131,-0.0
 0009317,-0.00042707,-0.00055560,0.00002736,0.00020389,0.00003619,-0.00
 000100,-0.00020043,-0.00011224,-0.00020520,0.00073844,0.00140470,0.000
 03874,0.00026429,-0.00015597,0.00026848,-0.00031890,-0.00012393,-0.000
 52296,0.00002208,-0.00091146,0.00701726,0.00213576,-0.01991095,0.07682
 909,0.00358391,-0.00008963,-0.00014416,0.00386474,-0.00078646,-0.01150
 532,0.00046300,0.00048492,-0.00077757,-0.00784546,-0.04663742,0.013173
 12,-0.00800048,-0.00495052,0.03145664,0.00160940,-0.00069207,0.0005420
 7,0.00009490,-0.00026243,-0.00033183,-0.00015047,0.00022018,0.00015596
 ,-0.00017178,0.00019084,0.00019613,-0.00012026,-0.00003925,0.00020320,
 0.00034547,-0.00036106,-0.00080175,-0.00012608,-0.00025176,-0.00022691
 ,-0.00017330,-0.00004223,0.00011441,0.00024609,0.00015841,0.00020276,0
 .00604107,0.00139204,-0.01641790,0.00172676,0.05514266,0.00124317,0.00
 023700,0.00097598,0.00024588,-0.00116851,-0.00336909,-0.00206240,0.001
 09981,0.00091553,0.07356766,0.01323221,-0.29432650,0.00082169,0.001241
 32,-0.00707470,-0.00024107,-0.00000888,0.00015596,0.00021211,0.0000950
 5,0.00017190,0.00010917,0.00001213,-0.00006859,-0.00010964,0.00005550,
 0.00004040,-0.00021796,-0.00000905,0.00030650,0.00010486,-0.00024730,-
 0.00017658,0.00036468,-0.00026789,0.00000064,-0.00015014,0.00028873,0.
 00024450,0.00006438,-0.00025322,0.00074111,0.00539705,0.00128833,-0.01
 605031,-0.07960312,-0.01712811,0.31552534,0.00008802,0.00011429,-0.000
 35581,-0.00069947,-0.00084294,-0.00115918,0.00035395,0.00036908,0.0001
 5416,-0.00051256,-0.00120787,0.00508308,-0.05598268,0.00835381,-0.0544
 1373,-0.01242653,0.00742452,-0.03061090,0.00263520,-0.00439403,-0.0027
 9100,-0.00529769,0.00150667,0.00227418,0.00007346,-0.00006029,0.000179
 09,-0.00013380,0.00027941,0.00046040,0.00001927,-0.00022428,-0.0000222
 8,0.00000064,0.00016931,-0.00005969,-0.00001517,-0.00015559,0.00002006
 ,-0.00006493,-0.00007893,0.00004829,0.00066146,0.00006738,0.00015131,0
 .00056880,-0.00154293,0.00041953,0.06587953,-0.00005361,0.00000357,0.0
 0003212,-0.00063648,-0.00079684,0.00148245,0.00115617,-0.00021324,-0.0
 0026306,0.00435942,-0.00289687,0.02983075,0.00682971,-0.05043025,0.026
 06734,-0.00139928,0.00321418,-0.00863158,0.00265286,-0.00153273,0.0007
 0249,-0.00253349,0.00049811,-0.00023454,-0.00001359,0.00011374,-0.0000
 1416,0.00034033,-0.00019826,-0.00049544,0.00002063,0.00006516,-0.00013
 507,-0.00008908,0.00012891,-0.00004187,0.00016662,-0.00033629,0.000096
 31,-0.00012174,0.00002499,-0.00017631,-0.00029837,0.00187125,-0.000324
 21,0.00080573,-0.00509059,0.00152240,-0.00695686,0.05361508,-0.0002381
 5,0.00038199,-0.00039020,0.00019501,0.00023980,-0.00019460,-0.00017912
 ,0.00007774,0.00011548,0.00026957,0.00092561,-0.00590228,-0.05001580,0
 .02860342,-0.28897762,-0.00630701,0.00022464,-0.00070346,0.00091542,-0
 .00247235,0.00014982,-0.00076146,0.00030566,-0.00018496,-0.00001268,0.
 00006164,0.00003586,0.00004846,-0.00008050,0.00002512,0.00001748,0.000
 02332,0.00014646,0.00002881,0.00000818,-0.00001398,-0.00002121,0.00003
 049,-0.00005822,0.00002010,-0.00001605,0.00008093,0.00009120,0.0000557
 2,0.00094781,-0.00028886,0.00143780,0.00091363,0.06010005,-0.03156981,
 0.31263508,0.00025560,0.00023349,-0.00015699,-0.00082392,-0.00117273,0
 .00040851,0.00022328,0.00008955,0.00015964,0.00356844,-0.00305099,-0.0
 0326698,-0.15192709,0.09478004,0.09062398,-0.01872655,0.02001420,0.013
 92995,-0.00313365,-0.00325530,0.00233536,-0.00230705,0.00137776,-0.002
 42494,0.00003615,0.00006177,0.00012797,-0.00004253,-0.00001646,0.00003
 919,0.00000201,-0.00007367,-0.00008773,0.00000454,0.00007431,-0.000048
 60,-0.00001399,-0.00011644,0.00006883,-0.00002092,-0.00004242,-0.00000
 618,-0.00016597,-0.00019315,-0.00019021,0.00078325,0.00042106,-0.00031
 271,0.00514819,-0.00412062,-0.00329225,0.16677155,0.00055285,0.0001852
 9,0.00030724,-0.00274193,-0.00502756,0.00102875,0.00102839,0.00006318,
 -0.00034744,0.01954234,-0.01558384,-0.01381501,0.09450708,-0.13275241,
 -0.08291088,-0.00515316,0.00847209,0.00770295,0.00040522,-0.00147148,-
 0.00016142,-0.00223290,0.00075713,-0.00095064,-0.00000785,0.00006032,0
 .00012532,-0.00008276,0.00004294,-0.00001994,0.00005517,-0.00004489,-0
 .00028253,-0.00001549,0.00008348,-0.00006343,0.00013974,-0.00017569,0.
 00035616,-0.00001234,-0.00000375,0.00009640,0.00011056,-0.00117204,0.0
 0010842,0.00015341,0.00161046,-0.00000531,-0.00241596,0.00215023,0.001
 61700,-0.10440677,0.14303654,-0.00047380,0.00022265,-0.00040511,0.0000
 2320,0.00262205,0.00006127,-0.00033561,0.00000931,0.00018938,-0.008307
 07,0.00670770,0.00396234,0.09283582,-0.08499353,-0.12506444,-0.0044788
 4,0.00547141,0.00458345,-0.00286269,0.00062915,0.00024910,0.00075803,0
 .00015086,-0.00060417,0.00003054,-0.00004174,0.00004891,-0.00001950,0.
 00002522,0.00019277,-0.00001743,0.00002047,0.00022126,-0.00000363,-0.0
 0002425,-0.00000402,-0.00007485,0.00006366,-0.00013358,0.00000196,0.00
 000821,-0.00003431,0.00019265,0.00000969,-0.00000529,-0.00033969,0.000
 27052,0.00118929,0.02006398,-0.01825689,-0.01823010,-0.09745826,0.0873
 1477,0.13367057,0.00030278,0.00005619,-0.00009458,-0.00355557,0.001040
 53,-0.00193304,0.00096474,0.00078965,0.00018972,-0.00405537,-0.0008072
 3,-0.00198961,0.00075913,-0.01887156,0.00246213,-0.11539868,-0.1270959
 2,-0.00587517,0.01274028,0.02426902,-0.00028433,0.00039185,-0.00154741
 ,0.00116333,0.00004204,0.00011063,0.00010330,-0.00007145,-0.00001487,0
 .00008693,0.00006052,-0.00006299,-0.00004957,-0.00008586,0.00031486,-0
 .00026517,0.00004367,-0.00013179,0.00008607,-0.00004040,-0.00005094,0.
 00000546,0.00013713,-0.00130979,0.00057413,-0.00004981,-0.00026562,0.0
 0014685,-0.00029573,-0.00010837,-0.00056958,0.00036866,0.00057441,0.00
 046518,0.10774203,-0.00016612,-0.00028248,0.00006541,0.00290222,-0.000
 45040,0.00171554,-0.00064478,-0.00089111,-0.00034933,0.00166256,0.0004
 3289,0.00015602,0.00187629,0.00411913,-0.00007646,-0.11213084,-0.29659
 213,0.00023297,-0.01256787,-0.02658709,-0.00030839,-0.00329161,0.00335
 574,-0.00096842,0.00004539,-0.00001636,-0.00016357,-0.00000554,0.00002
 137,-0.00008459,0.00001624,-0.00005011,-0.00003667,0.00019956,-0.00019
 971,0.00028153,0.00004368,-0.00002578,-0.00000631,-0.00001644,0.000032
 07,0.00003452,0.00002350,0.00033715,-0.00005167,-0.00004906,0.00000391
 ,0.00001579,-0.00040478,-0.00019015,0.00014571,-0.00060360,-0.00023000
 ,-0.00020929,0.12311122,0.31721305,0.00120483,0.00225904,-0.00008933,-
 0.00176985,0.00017146,0.00926701,-0.00087335,-0.00125520,-0.00034006,-
 0.00077920,0.00040250,0.00134268,0.00004780,-0.00416015,0.00131783,-0.
 00627811,-0.00064829,-0.03254131,0.00265476,0.00413866,0.00567723,-0.0
 0000496,-0.00046036,-0.00597232,-0.00027439,0.00029377,0.00058481,-0.0
 0000607,-0.00003437,-0.00011769,-0.00003455,-0.00013235,-0.00011425,0.
 00027196,-0.00024053,0.00027642,0.00005985,0.00003065,-0.00000269,-0.0
 0003095,0.00005291,-0.00015517,0.00004564,0.00008546,0.00012746,-0.000
 02122,-0.00041906,-0.00011499,0.00045846,0.00040906,-0.00039479,-0.000
 44859,-0.00010041,0.00011267,0.00577794,-0.00039279,0.02113651\\0.0000
 0511,-0.00000473,-0.00000268,-0.00000236,0.00000112,-0.00000085,-0.000
 00014,-0.00000716,0.00000104,-0.00000315,0.00000716,-0.00000270,-0.000
 00271,-0.00000521,0.00000066,-0.00000078,0.00000135,0.00000385,-0.0000
 0351,-0.00000020,0.00000039,0.00000353,-0.00000158,0.00000202,-0.00000
 138,0.00000262,0.00000033,0.00000167,0.00000230,-0.00000019,-0.0000005
 6,0.00000234,0.00000013,-0.00000164,0.00000030,-0.00000123,-0.00000097
 ,-0.00000031,-0.00000039,-0.00000138,-0.00000182,-0.00000017,0.0000014
 2,0.00000156,-0.00000150,0.00000107,-0.00000075,0.00000008,0.00000315,
 0.00000231,-0.00000099,0.00000114,0.00000098,0.00000073,0.00000149,-0.
 00000028,0.00000148\\\@


 ... A MOLECULAR SYSTEM ... (PASSES) ... FROM ONE STATE OF EQUILIBRIUM 
 TO ANOTHER ... BY MEANS OF ALL POSSIBLE INTERMEDIATE PATHS, 
 BUT THE PATH MOST ECONOMICAL OF ENERGY WILL BE THE MORE OFTEN TRAVELED.

                      -- HENRY EYRING, 1945
 Job cpu time:       0 days  0 hours 44 minutes 17.2 seconds.
 Elapsed time:       0 days  0 hours  1 minutes 52.3 seconds.
 File lengths (MBytes):  RWF=    113 Int=      0 D2E=      0 Chk=      7 Scr=      1
 Normal termination of Gaussian 16 at Sun Oct 13 23:52:42 2019.
real 340.47
user 7955.03
sys 22.91
Machine:
brown-a076
brown-a076
brown-a076
brown-a076
brown-a076
brown-a076
brown-a076
brown-a076
brown-a076
brown-a076
brown-a076
brown-a076
brown-a076
brown-a076
brown-a076
brown-a076
brown-a076
brown-a076
brown-a076
brown-a076
brown-a076
brown-a076
brown-a076
brown-a076
