 Entering Gaussian System, Link 0=/apps/cent7/gaussian/g16-A.03/g16-haswell/g16/g16
 Initial command:
 /apps/cent7/gaussian/g16-A.03/g16-haswell/g16/l1.exe "/scratch/brown/finej/gaussian/Gau-134297.inp" -scrdir="/scratch/brown/finej/gaussian/"
 Entering Link 1 = /apps/cent7/gaussian/g16-A.03/g16-haswell/g16/l1.exe PID=    134300.
  
 Copyright (c) 1988,1990,1992,1993,1995,1998,2003,2009,2016,
            Gaussian, Inc.  All Rights Reserved.
  
 This is part of the Gaussian(R) 16 program.  It is based on
 the Gaussian(R) 09 system (copyright 2009, Gaussian, Inc.),
 the Gaussian(R) 03 system (copyright 2003, Gaussian, Inc.),
 the Gaussian(R) 98 system (copyright 1998, Gaussian, Inc.),
 the Gaussian(R) 94 system (copyright 1995, Gaussian, Inc.),
 the Gaussian 92(TM) system (copyright 1992, Gaussian, Inc.),
 the Gaussian 90(TM) system (copyright 1990, Gaussian, Inc.),
 the Gaussian 88(TM) system (copyright 1988, Gaussian, Inc.),
 the Gaussian 86(TM) system (copyright 1986, Carnegie Mellon
 University), and the Gaussian 82(TM) system (copyright 1983,
 Carnegie Mellon University). Gaussian is a federally registered
 trademark of Gaussian, Inc.
  
 This software contains proprietary and confidential information,
 including trade secrets, belonging to Gaussian, Inc.
  
 This software is provided under written license and may be
 used, copied, transmitted, or stored only in accord with that
 written license.
  
 The following legend is applicable only to US Government
 contracts under FAR:
  
                    RESTRICTED RIGHTS LEGEND
  
 Use, reproduction and disclosure by the US Government is
 subject to restrictions as set forth in subparagraphs (a)
 and (c) of the Commercial Computer Software - Restricted
 Rights clause in FAR 52.227-19.
  
 Gaussian, Inc.
 340 Quinnipiac St., Bldg. 40, Wallingford CT 06492
  
  
 ---------------------------------------------------------------
 Warning -- This program may not be used in any manner that
 competes with the business of Gaussian, Inc. or will provide
 assistance to any competitor of Gaussian, Inc.  The licensee
 of this program is prohibited from giving any competitor of
 Gaussian, Inc. access to this program.  By using this program,
 the user acknowledges that Gaussian, Inc. is engaged in the
 business of creating and licensing software in the field of
 computational chemistry and represents and warrants to the
 licensee that it is not a competitor of Gaussian, Inc. and that
 it will not use this program in any manner prohibited above.
 ---------------------------------------------------------------
  

 Cite this work as:
 Gaussian 16, Revision A.03,
 M. J. Frisch, G. W. Trucks, H. B. Schlegel, G. E. Scuseria, 
 M. A. Robb, J. R. Cheeseman, G. Scalmani, V. Barone, 
 G. A. Petersson, H. Nakatsuji, X. Li, M. Caricato, A. V. Marenich, 
 J. Bloino, B. G. Janesko, R. Gomperts, B. Mennucci, H. P. Hratchian, 
 J. V. Ortiz, A. F. Izmaylov, J. L. Sonnenberg, D. Williams-Young, 
 F. Ding, F. Lipparini, F. Egidi, J. Goings, B. Peng, A. Petrone, 
 T. Henderson, D. Ranasinghe, V. G. Zakrzewski, J. Gao, N. Rega, 
 G. Zheng, W. Liang, M. Hada, M. Ehara, K. Toyota, R. Fukuda, 
 J. Hasegawa, M. Ishida, T. Nakajima, Y. Honda, O. Kitao, H. Nakai, 
 T. Vreven, K. Throssell, J. A. Montgomery, Jr., J. E. Peralta, 
 F. Ogliaro, M. J. Bearpark, J. J. Heyd, E. N. Brothers, K. N. Kudin, 
 V. N. Staroverov, T. A. Keith, R. Kobayashi, J. Normand, 
 K. Raghavachari, A. P. Rendell, J. C. Burant, S. S. Iyengar, 
 J. Tomasi, M. Cossi, J. M. Millam, M. Klene, C. Adamo, R. Cammi, 
 J. W. Ochterski, R. L. Martin, K. Morokuma, O. Farkas, 
 J. B. Foresman, and D. J. Fox, Gaussian, Inc., Wallingford CT, 2016.
 
 ******************************************
 Gaussian 16:  ES64L-G16RevA.03 25-Dec-2016
                13-Oct-2019 
 ******************************************
 %chk=6.chk
 %nprocshared=24
 Will use up to   24 processors via shared memory.
 %mem=80GB
 -------------------------------------------------------------------
 #P opt freq m062x/6-311++g(d,p) geom=connectivity temperature=0.001
 -------------------------------------------------------------------
 1/18=20,19=15,26=3,38=1,57=2,112=-1000/1,3;
 2/9=110,12=2,17=6,18=5,40=1/2;
 3/5=4,6=6,7=1111,11=2,25=1,30=1,71=1,74=-55/1,2,3;
 4//1;
 5/5=2,38=5/2;
 6/7=2,8=2,9=2,10=2,28=1/1;
 7//1,2,3,16;
 1/18=20,19=15,26=3/3(2);
 2/9=110/2;
 99//99;
 2/9=110/2;
 3/5=4,6=6,7=1111,11=2,25=1,30=1,71=1,74=-55/1,2,3;
 4/5=5,16=3,69=1/1;
 5/5=2,38=5/2;
 7//1,2,3,16;
 1/18=20,19=15,26=3/3(-5);
 2/9=110/2;
 6/7=2,8=2,9=2,10=2,19=2,28=1/1;
 99/9=1/99;
 Leave Link    1 at Sun Oct 13 23:49:04 2019, MaxMem= 10737418240 cpu:               1.4 elap:               0.1
 (Enter /apps/cent7/gaussian/g16-A.03/g16-haswell/g16/l101.exe)
 -------------------
 Title Card Required
 -------------------
 Symbolic Z-matrix:
 Charge =  0 Multiplicity = 2
 C                    -1.5576   -0.541     2.3284 
 C                    -0.5428   -0.845     1.1705 
 C                     0.4809   -1.8724    1.783 
 C                    -1.2566   -1.5186   -0.0532 
 C                    -2.0789   -0.5317   -0.9217 
 C                    -1.2497    0.7104   -1.34 
 C                    -0.5491    1.436    -0.1393 
 C                    -1.5775    2.2763    0.6984 
 C                     0.4702    2.4915   -0.709 
 N                     0.1776    0.4148    0.7202 
 O                     1.3634    0.0765    0.1262 
 H                    -1.9237   -1.4789    2.7462 
 H                    -1.0576    0.0334    3.1082 
 H                    -2.3962    0.0334    1.9351 
 H                     0.4349   -1.8263    2.8711 
 H                     0.2277   -2.8793    1.451 
 H                     1.4887   -1.623     1.451 
 H                    -0.461    -1.8865   -0.7011 
 H                    -1.9828   -2.2143    0.3671 
 H                    -2.3167   -1.0632   -1.8432 
 H                    -2.8812   -0.1611   -0.2837 
 H                    -0.4474    0.3291   -1.9717 
 H                    -1.9698    1.4221   -1.7439 
 H                    -1.3909    2.1238    1.7614 
 H                    -1.4646    3.3334    0.4577 
 H                    -2.5909    1.955     0.4577 
 H                     0.9638    3.0027    0.1175 
 H                     1.2165    1.9832   -1.3195 
 H                    -0.064     3.2196   -1.3195 
 
 ITRead=  0  0  0  0  0  0  0  0  0  0  0  0  0  0  0  0  0  0  0  0
 ITRead=  0  0  0  0  0  0  0  0  0
 MicOpt= -1 -1 -1 -1 -1 -1 -1 -1 -1 -1 -1 -1 -1 -1 -1 -1 -1 -1 -1 -1
 MicOpt= -1 -1 -1 -1 -1 -1 -1 -1 -1
 NAtoms=     29 NQM=       29 NQMF=       0 NMMI=      0 NMMIF=      0
                NMic=       0 NMicF=      0.
                    Isotopes and Nuclear Properties:
 (Nuclear quadrupole moments (NQMom) in fm**2, nuclear magnetic moments (NMagM)
  in nuclear magnetons)

  Atom         1           2           3           4           5           6           7           8           9          10
 IAtWgt=          12          12          12          12          12          12          12          12          12          14
 AtmWgt=  12.0000000  12.0000000  12.0000000  12.0000000  12.0000000  12.0000000  12.0000000  12.0000000  12.0000000  14.0030740
 NucSpn=           0           0           0           0           0           0           0           0           0           2
 AtZEff=  -0.0000000  -0.0000000  -0.0000000  -0.0000000  -0.0000000  -0.0000000  -0.0000000  -0.0000000  -0.0000000  -0.0000000
 NQMom=    0.0000000   0.0000000   0.0000000   0.0000000   0.0000000   0.0000000   0.0000000   0.0000000   0.0000000   2.0440000
 NMagM=    0.0000000   0.0000000   0.0000000   0.0000000   0.0000000   0.0000000   0.0000000   0.0000000   0.0000000   0.4037610
 AtZNuc=   6.0000000   6.0000000   6.0000000   6.0000000   6.0000000   6.0000000   6.0000000   6.0000000   6.0000000   7.0000000

  Atom        11          12          13          14          15          16          17          18          19          20
 IAtWgt=          16           1           1           1           1           1           1           1           1           1
 AtmWgt=  15.9949146   1.0078250   1.0078250   1.0078250   1.0078250   1.0078250   1.0078250   1.0078250   1.0078250   1.0078250
 NucSpn=           0           1           1           1           1           1           1           1           1           1
 AtZEff=  -0.0000000  -0.0000000  -0.0000000  -0.0000000  -0.0000000  -0.0000000  -0.0000000  -0.0000000  -0.0000000  -0.0000000
 NQMom=    0.0000000   0.0000000   0.0000000   0.0000000   0.0000000   0.0000000   0.0000000   0.0000000   0.0000000   0.0000000
 NMagM=    0.0000000   2.7928460   2.7928460   2.7928460   2.7928460   2.7928460   2.7928460   2.7928460   2.7928460   2.7928460
 AtZNuc=   8.0000000   1.0000000   1.0000000   1.0000000   1.0000000   1.0000000   1.0000000   1.0000000   1.0000000   1.0000000

  Atom        21          22          23          24          25          26          27          28          29
 IAtWgt=           1           1           1           1           1           1           1           1           1
 AtmWgt=   1.0078250   1.0078250   1.0078250   1.0078250   1.0078250   1.0078250   1.0078250   1.0078250   1.0078250
 NucSpn=           1           1           1           1           1           1           1           1           1
 AtZEff=  -0.0000000  -0.0000000  -0.0000000  -0.0000000  -0.0000000  -0.0000000  -0.0000000  -0.0000000  -0.0000000
 NQMom=    0.0000000   0.0000000   0.0000000   0.0000000   0.0000000   0.0000000   0.0000000   0.0000000   0.0000000
 NMagM=    2.7928460   2.7928460   2.7928460   2.7928460   2.7928460   2.7928460   2.7928460   2.7928460   2.7928460
 AtZNuc=   1.0000000   1.0000000   1.0000000   1.0000000   1.0000000   1.0000000   1.0000000   1.0000000   1.0000000
 Leave Link  101 at Sun Oct 13 23:49:05 2019, MaxMem= 10737418240 cpu:               8.7 elap:               0.4
 (Enter /apps/cent7/gaussian/g16-A.03/g16-haswell/g16/l103.exe)

 GradGradGradGradGradGradGradGradGradGradGradGradGradGradGradGradGradGrad
 Berny optimization.
 Initialization pass.
                           ----------------------------
                           !    Initial Parameters    !
                           ! (Angstroms and Degrees)  !
 --------------------------                            --------------------------
 ! Name  Definition              Value          Derivative Info.                !
 --------------------------------------------------------------------------------
 ! R1    R(1,2)                  1.5694         estimate D2E/DX2                !
 ! R2    R(1,12)                 1.0901         estimate D2E/DX2                !
 ! R3    R(1,13)                 1.09           estimate D2E/DX2                !
 ! R4    R(1,14)                 1.0899         estimate D2E/DX2                !
 ! R5    R(2,3)                  1.5744         estimate D2E/DX2                !
 ! R6    R(2,4)                  1.5687         estimate D2E/DX2                !
 ! R7    R(2,10)                 1.5195         estimate D2E/DX2                !
 ! R8    R(3,15)                 1.09           estimate D2E/DX2                !
 ! R9    R(3,16)                 1.09           estimate D2E/DX2                !
 ! R10   R(3,17)                 1.09           estimate D2E/DX2                !
 ! R11   R(4,5)                  1.5506         estimate D2E/DX2                !
 ! R12   R(4,18)                 1.09           estimate D2E/DX2                !
 ! R13   R(4,19)                 1.09           estimate D2E/DX2                !
 ! R14   R(5,6)                  1.5509         estimate D2E/DX2                !
 ! R15   R(5,20)                 1.09           estimate D2E/DX2                !
 ! R16   R(5,21)                 1.09           estimate D2E/DX2                !
 ! R17   R(6,7)                  1.5681         estimate D2E/DX2                !
 ! R18   R(6,22)                 1.09           estimate D2E/DX2                !
 ! R19   R(6,23)                 1.09           estimate D2E/DX2                !
 ! R20   R(7,8)                  1.5702         estimate D2E/DX2                !
 ! R21   R(7,9)                  1.574          estimate D2E/DX2                !
 ! R22   R(7,10)                 1.5198         estimate D2E/DX2                !
 ! R23   R(8,24)                 1.09           estimate D2E/DX2                !
 ! R24   R(8,25)                 1.09           estimate D2E/DX2                !
 ! R25   R(8,26)                 1.09           estimate D2E/DX2                !
 ! R26   R(9,27)                 1.09           estimate D2E/DX2                !
 ! R27   R(9,28)                 1.09           estimate D2E/DX2                !
 ! R28   R(9,29)                 1.0901         estimate D2E/DX2                !
 ! R29   R(10,11)                1.3687         estimate D2E/DX2                !
 ! A1    A(2,1,12)             109.4685         estimate D2E/DX2                !
 ! A2    A(2,1,13)             109.4697         estimate D2E/DX2                !
 ! A3    A(2,1,14)             109.4738         estimate D2E/DX2                !
 ! A4    A(12,1,13)            109.4679         estimate D2E/DX2                !
 ! A5    A(12,1,14)            109.4723         estimate D2E/DX2                !
 ! A6    A(13,1,14)            109.4752         estimate D2E/DX2                !
 ! A7    A(1,2,3)              105.0594         estimate D2E/DX2                !
 ! A8    A(1,2,4)              111.3767         estimate D2E/DX2                !
 ! A9    A(1,2,10)             111.3839         estimate D2E/DX2                !
 ! A10   A(3,2,4)              108.6111         estimate D2E/DX2                !
 ! A11   A(3,2,10)             110.3689         estimate D2E/DX2                !
 ! A12   A(4,2,10)             109.9122         estimate D2E/DX2                !
 ! A13   A(2,3,15)             109.4698         estimate D2E/DX2                !
 ! A14   A(2,3,16)             109.4675         estimate D2E/DX2                !
 ! A15   A(2,3,17)             109.4741         estimate D2E/DX2                !
 ! A16   A(15,3,16)            109.469          estimate D2E/DX2                !
 ! A17   A(15,3,17)            109.4744         estimate D2E/DX2                !
 ! A18   A(16,3,17)            109.4726         estimate D2E/DX2                !
 ! A19   A(2,4,5)              113.8871         estimate D2E/DX2                !
 ! A20   A(2,4,18)             106.0508         estimate D2E/DX2                !
 ! A21   A(2,4,19)             106.0483         estimate D2E/DX2                !
 ! A22   A(5,4,18)             105.6027         estimate D2E/DX2                !
 ! A23   A(5,4,19)             105.5984         estimate D2E/DX2                !
 ! A24   A(18,4,19)            120.0055         estimate D2E/DX2                !
 ! A25   A(4,5,6)              112.164          estimate D2E/DX2                !
 ! A26   A(4,5,20)             106.1916         estimate D2E/DX2                !
 ! A27   A(4,5,21)             106.1941         estimate D2E/DX2                !
 ! A28   A(6,5,20)             106.2085         estimate D2E/DX2                !
 ! A29   A(6,5,21)             106.2067         estimate D2E/DX2                !
 ! A30   A(20,5,21)            120.0019         estimate D2E/DX2                !
 ! A31   A(5,6,7)              113.7617         estimate D2E/DX2                !
 ! A32   A(5,6,22)             105.6451         estimate D2E/DX2                !
 ! A33   A(5,6,23)             105.6429         estimate D2E/DX2                !
 ! A34   A(7,6,22)             106.0671         estimate D2E/DX2                !
 ! A35   A(7,6,23)             106.0663         estimate D2E/DX2                !
 ! A36   A(22,6,23)            119.9936         estimate D2E/DX2                !
 ! A37   A(6,7,8)              111.316          estimate D2E/DX2                !
 ! A38   A(6,7,9)              108.8124         estimate D2E/DX2                !
 ! A39   A(6,7,10)             109.618          estimate D2E/DX2                !
 ! A40   A(8,7,9)              104.9729         estimate D2E/DX2                !
 ! A41   A(8,7,10)             111.7808         estimate D2E/DX2                !
 ! A42   A(9,7,10)             110.2203         estimate D2E/DX2                !
 ! A43   A(7,8,24)             109.4693         estimate D2E/DX2                !
 ! A44   A(7,8,25)             109.4724         estimate D2E/DX2                !
 ! A45   A(7,8,26)             109.4729         estimate D2E/DX2                !
 ! A46   A(24,8,25)            109.4699         estimate D2E/DX2                !
 ! A47   A(24,8,26)            109.4678         estimate D2E/DX2                !
 ! A48   A(25,8,26)            109.475          estimate D2E/DX2                !
 ! A49   A(7,9,27)             109.4693         estimate D2E/DX2                !
 ! A50   A(7,9,28)             109.475          estimate D2E/DX2                !
 ! A51   A(7,9,29)             109.4667         estimate D2E/DX2                !
 ! A52   A(27,9,28)            109.4727         estimate D2E/DX2                !
 ! A53   A(27,9,29)            109.4716         estimate D2E/DX2                !
 ! A54   A(28,9,29)            109.472          estimate D2E/DX2                !
 ! A55   A(2,10,7)             119.8681         estimate D2E/DX2                !
 ! A56   A(2,10,11)            109.538          estimate D2E/DX2                !
 ! A57   A(7,10,11)            109.5668         estimate D2E/DX2                !
 ! D1    D(12,1,2,3)           -50.5249         estimate D2E/DX2                !
 ! D2    D(12,1,2,4)            66.8769         estimate D2E/DX2                !
 ! D3    D(12,1,2,10)         -170.0265         estimate D2E/DX2                !
 ! D4    D(13,1,2,3)            69.4684         estimate D2E/DX2                !
 ! D5    D(13,1,2,4)          -173.1298         estimate D2E/DX2                !
 ! D6    D(13,1,2,10)          -50.0332         estimate D2E/DX2                !
 ! D7    D(14,1,2,3)          -170.5261         estimate D2E/DX2                !
 ! D8    D(14,1,2,4)           -53.1243         estimate D2E/DX2                !
 ! D9    D(14,1,2,10)           69.9723         estimate D2E/DX2                !
 ! D10   D(1,2,3,15)           -19.4338         estimate D2E/DX2                !
 ! D11   D(1,2,3,16)           100.5603         estimate D2E/DX2                !
 ! D12   D(1,2,3,17)          -139.4385         estimate D2E/DX2                !
 ! D13   D(4,2,3,15)          -138.7019         estimate D2E/DX2                !
 ! D14   D(4,2,3,16)           -18.7078         estimate D2E/DX2                !
 ! D15   D(4,2,3,17)           101.2934         estimate D2E/DX2                !
 ! D16   D(10,2,3,15)          100.7427         estimate D2E/DX2                !
 ! D17   D(10,2,3,16)         -139.2632         estimate D2E/DX2                !
 ! D18   D(10,2,3,17)          -19.2621         estimate D2E/DX2                !
 ! D19   D(1,2,4,5)             76.3767         estimate D2E/DX2                !
 ! D20   D(1,2,4,18)          -167.9328         estimate D2E/DX2                !
 ! D21   D(1,2,4,19)           -39.307          estimate D2E/DX2                !
 ! D22   D(3,2,4,5)           -168.395          estimate D2E/DX2                !
 ! D23   D(3,2,4,18)           -52.7045         estimate D2E/DX2                !
 ! D24   D(3,2,4,19)            75.9213         estimate D2E/DX2                !
 ! D25   D(10,2,4,5)           -47.5574         estimate D2E/DX2                !
 ! D26   D(10,2,4,18)           68.1331         estimate D2E/DX2                !
 ! D27   D(10,2,4,19)         -163.2411         estimate D2E/DX2                !
 ! D28   D(1,2,10,7)           -75.3905         estimate D2E/DX2                !
 ! D29   D(1,2,10,11)          156.7597         estimate D2E/DX2                !
 ! D30   D(3,2,10,7)           168.3126         estimate D2E/DX2                !
 ! D31   D(3,2,10,11)           40.4627         estimate D2E/DX2                !
 ! D32   D(4,2,10,7)            48.5395         estimate D2E/DX2                !
 ! D33   D(4,2,10,11)          -79.3104         estimate D2E/DX2                !
 ! D34   D(2,4,5,6)             51.2901         estimate D2E/DX2                !
 ! D35   D(2,4,5,20)           166.8934         estimate D2E/DX2                !
 ! D36   D(2,4,5,21)           -64.3126         estimate D2E/DX2                !
 ! D37   D(18,4,5,6)           -64.6629         estimate D2E/DX2                !
 ! D38   D(18,4,5,20)           50.9404         estimate D2E/DX2                !
 ! D39   D(18,4,5,21)          179.7344         estimate D2E/DX2                !
 ! D40   D(19,4,5,6)           167.2374         estimate D2E/DX2                !
 ! D41   D(19,4,5,20)          -77.1593         estimate D2E/DX2                !
 ! D42   D(19,4,5,21)           51.6347         estimate D2E/DX2                !
 ! D43   D(4,5,6,7)            -51.8743         estimate D2E/DX2                !
 ! D44   D(4,5,6,22)            64.0592         estimate D2E/DX2                !
 ! D45   D(4,5,6,23)          -167.8054         estimate D2E/DX2                !
 ! D46   D(20,5,6,7)          -167.4673         estimate D2E/DX2                !
 ! D47   D(20,5,6,22)          -51.5339         estimate D2E/DX2                !
 ! D48   D(20,5,6,23)           76.6015         estimate D2E/DX2                !
 ! D49   D(21,5,6,7)            63.7208         estimate D2E/DX2                !
 ! D50   D(21,5,6,22)          179.6542         estimate D2E/DX2                !
 ! D51   D(21,5,6,23)          -52.2104         estimate D2E/DX2                !
 ! D52   D(5,6,7,8)            -75.607          estimate D2E/DX2                !
 ! D53   D(5,6,7,9)            169.1842         estimate D2E/DX2                !
 ! D54   D(5,6,7,10)            48.5826         estimate D2E/DX2                !
 ! D55   D(22,6,7,8)           168.7074         estimate D2E/DX2                !
 ! D56   D(22,6,7,9)            53.4987         estimate D2E/DX2                !
 ! D57   D(22,6,7,10)          -67.1029         estimate D2E/DX2                !
 ! D58   D(23,6,7,8)            40.0755         estimate D2E/DX2                !
 ! D59   D(23,6,7,9)           -75.1333         estimate D2E/DX2                !
 ! D60   D(23,6,7,10)          164.2651         estimate D2E/DX2                !
 ! D61   D(6,7,8,24)           136.5207         estimate D2E/DX2                !
 ! D62   D(6,7,8,25)          -103.4815         estimate D2E/DX2                !
 ! D63   D(6,7,8,26)            16.5249         estimate D2E/DX2                !
 ! D64   D(9,7,8,24)          -105.9195         estimate D2E/DX2                !
 ! D65   D(9,7,8,25)            14.0784         estimate D2E/DX2                !
 ! D66   D(9,7,8,26)           134.0848         estimate D2E/DX2                !
 ! D67   D(10,7,8,24)           13.5624         estimate D2E/DX2                !
 ! D68   D(10,7,8,25)          133.5602         estimate D2E/DX2                !
 ! D69   D(10,7,8,26)         -106.4334         estimate D2E/DX2                !
 ! D70   D(6,7,9,27)          -179.9995         estimate D2E/DX2                !
 ! D71   D(6,7,9,28)           -59.9966         estimate D2E/DX2                !
 ! D72   D(6,7,9,29)            60.0039         estimate D2E/DX2                !
 ! D73   D(8,7,9,27)            60.7497         estimate D2E/DX2                !
 ! D74   D(8,7,9,28)          -179.2474         estimate D2E/DX2                !
 ! D75   D(8,7,9,29)           -59.2469         estimate D2E/DX2                !
 ! D76   D(10,7,9,27)          -59.7698         estimate D2E/DX2                !
 ! D77   D(10,7,9,28)           60.2332         estimate D2E/DX2                !
 ! D78   D(10,7,9,29)         -179.7663         estimate D2E/DX2                !
 ! D79   D(6,7,10,2)           -49.0134         estimate D2E/DX2                !
 ! D80   D(6,7,10,11)           78.8233         estimate D2E/DX2                !
 ! D81   D(8,7,10,2)            74.9047         estimate D2E/DX2                !
 ! D82   D(8,7,10,11)         -157.2586         estimate D2E/DX2                !
 ! D83   D(9,7,10,2)          -168.7567         estimate D2E/DX2                !
 ! D84   D(9,7,10,11)          -40.92           estimate D2E/DX2                !
 --------------------------------------------------------------------------------
 Trust Radius=3.00D-01 FncErr=1.00D-07 GrdErr=1.00D-06 EigMax=2.50D+02 EigMin=1.00D-04
 Number of steps in this run=    174 maximum allowed number of steps=    174.
 GradGradGradGradGradGradGradGradGradGradGradGradGradGradGradGradGradGrad

 Leave Link  103 at Sun Oct 13 23:49:05 2019, MaxMem= 10737418240 cpu:               1.0 elap:               0.1
 (Enter /apps/cent7/gaussian/g16-A.03/g16-haswell/g16/l202.exe)
                          Input orientation:                          
 ---------------------------------------------------------------------
 Center     Atomic      Atomic             Coordinates (Angstroms)
 Number     Number       Type             X           Y           Z
 ---------------------------------------------------------------------
      1          6           0       -1.557600   -0.541000    2.328400
      2          6           0       -0.542800   -0.845000    1.170500
      3          6           0        0.480900   -1.872400    1.783000
      4          6           0       -1.256600   -1.518600   -0.053200
      5          6           0       -2.078900   -0.531700   -0.921700
      6          6           0       -1.249700    0.710400   -1.340000
      7          6           0       -0.549100    1.436000   -0.139300
      8          6           0       -1.577500    2.276300    0.698400
      9          6           0        0.470200    2.491500   -0.709000
     10          7           0        0.177600    0.414800    0.720200
     11          8           0        1.363400    0.076500    0.126200
     12          1           0       -1.923700   -1.478900    2.746200
     13          1           0       -1.057600    0.033400    3.108200
     14          1           0       -2.396200    0.033400    1.935100
     15          1           0        0.434900   -1.826300    2.871100
     16          1           0        0.227700   -2.879300    1.451000
     17          1           0        1.488700   -1.623000    1.451000
     18          1           0       -0.461000   -1.886500   -0.701100
     19          1           0       -1.982800   -2.214300    0.367100
     20          1           0       -2.316700   -1.063200   -1.843200
     21          1           0       -2.881200   -0.161100   -0.283700
     22          1           0       -0.447400    0.329100   -1.971700
     23          1           0       -1.969800    1.422100   -1.743900
     24          1           0       -1.390900    2.123800    1.761400
     25          1           0       -1.464600    3.333400    0.457700
     26          1           0       -2.590900    1.955000    0.457700
     27          1           0        0.963800    3.002700    0.117500
     28          1           0        1.216500    1.983200   -1.319500
     29          1           0       -0.064000    3.219600   -1.319500
 ---------------------------------------------------------------------
                    Distance matrix (angstroms):
                    1          2          3          4          5
     1  C    0.000000
     2  C    1.569384   0.000000
     3  C    2.495109   1.574379   0.000000
     4  C    2.591972   1.568658   2.552589   0.000000
     5  C    3.291655   2.614395   3.957961   1.550626   0.000000
     6  C    3.888182   3.036707   4.406695   2.573780   1.550922
     7  C    3.318907   2.630319   3.962530   3.039347   2.612332
     8  C    3.254916   3.322047   4.756583   3.881900   3.280395
     9  C    4.746981   3.961177   5.025316   4.415067   3.960163
    10  N    2.551623   1.519488   2.540240   2.528461   2.946776
    11  O    3.709883   2.360789   2.705920   3.072609   3.649306
    12  H    1.090065   2.188960   2.620057   2.878062   3.791407
    13  H    1.089965   2.188901   2.784818   3.527429   4.195532
    14  H    1.089895   2.188902   3.454405   2.767802   2.929390
    15  H    2.432401   2.193374   1.090047   3.392253   4.730805
    16  H    3.069979   2.193337   1.090038   2.513418   4.057257
    17  H    3.349701   2.193389   1.089993   3.132122   4.421358
    18  H    3.491529   2.143432   2.656714   1.090002   2.121732
    19  H    2.612934   2.143370   2.862077   1.089962   2.121646
    20  H    4.272139   3.503815   4.650881   2.129625   1.090047
    21  H    2.952847   2.837346   4.301571   2.129615   1.089988
    22  H    4.525536   3.355746   4.450406   2.783782   2.122562
    23  H    4.539526   3.958510   5.412826   3.466243   2.122557
    24  H    2.729549   3.143598   4.412903   4.071595   3.837193
    25  H    4.303387   4.337837   5.713295   4.883256   4.149591
    26  H    3.285916   3.541581   5.083440   3.755965   2.889388
    27  H    4.878867   4.264205   5.174329   5.039987   4.778069
    28  H    5.232054   4.158600   5.003225   4.470161   4.164448
    29  H    5.447947   4.790649   5.987561   5.047410   4.276718
                    6          7          8          9         10
     6  C    0.000000
     7  C    1.568125   0.000000
     8  C    2.591249   1.570176   0.000000
     9  C    2.555100   1.574043   2.494025   0.000000
    10  N    2.523686   1.519764   2.558522   2.537895   0.000000
    11  O    3.062656   2.361437   3.716911   2.706952   1.368724
    12  H    4.684479   4.325769   4.291255   5.782148   3.479402
    13  H    4.503522   3.573810   3.332872   4.790349   2.715461
    14  H    3.535403   3.111623   2.688921   4.609747   2.871567
    15  H    5.196738   4.546797   5.059813   5.609078   3.116906
    16  H    4.781039   4.664149   5.514106   5.793954   3.374563
    17  H    4.553380   4.004892   5.017223   4.757316   2.530945
    18  H    2.788213   3.370814   4.531454   4.475945   2.779188
    19  H    3.464895   3.954317   4.521008   5.414772   3.421136
    20  H    2.130107   3.503382   4.261268   4.657157   3.870018
    21  H    2.130041   2.830242   2.933440   4.295236   3.270433
    22  H    1.090009   2.143189   3.492585   2.666904   2.764832
    23  H    1.090044   2.143204   2.616942   2.858012   3.420200
    24  H    3.411205   2.189602   1.089975   3.114767   2.542631
    25  H    3.187167   2.189675   1.090020   2.411107   3.359160
    26  H    2.565068   2.189684   1.090023   3.319541   3.178949
    27  H    3.504073   2.193026   2.706161   1.089986   2.771026
    28  H    2.775353   2.193090   3.458940   1.089974   2.774810
    29  H    2.775318   2.193040   2.693031   1.090050   3.476442
                   11         12         13         14         15
    11  O    0.000000
    12  H    4.482041   0.000000
    13  H    3.841279   1.779951   0.000000
    14  H    4.172358   1.779941   1.779891   0.000000
    15  H    3.466589   2.387317   2.396301   3.514215   0.000000
    16  H    3.432443   2.875271   3.589168   3.950066   1.780007
    17  H    2.158494   3.652777   3.460291   4.250937   1.780031
    18  H    2.804680   3.766896   4.307286   3.792172   3.683324
    19  H    4.062370   2.490868   3.663575   2.771584   3.502261
    20  H    4.326730   4.624916   5.225345   3.935023   5.511647
    21  H    4.270960   3.440014   3.855948   2.279502   4.870541
    22  H    2.782802   5.263735   5.124955   4.375882   5.373724
    23  H    4.051930   5.345926   5.128691   3.955420   6.134567
    24  H    3.801511   3.772685   2.508930   2.326064   4.490910
    25  H    4.326069   5.348480   4.252152   3.733710   6.004590
    26  H    4.390347   4.180198   3.615066   2.431700   5.410933
    27  H    2.953371   5.944111   4.674087   4.838389   5.584021
    28  H    2.397318   6.194910   5.345819   5.238868   5.717020
    29  H    3.742539   6.485700   5.544695   5.116976   6.578080
                   16         17         18         19         20
    16  H    0.000000
    17  H    1.780003   0.000000
    18  H    2.468095   2.915870   0.000000
    19  H    2.550171   3.684534   1.887956   0.000000
    20  H    4.541359   5.064208   2.329343   2.514348   0.000000
    21  H    4.479180   4.923653   3.001432   2.333730   1.887984
    22  H    4.739669   4.390222   2.554113   3.781048   2.334372
    23  H    5.791238   5.607249   3.782954   4.204747   2.511357
    24  H    5.267563   4.735711   4.796991   4.594946   4.899716
    25  H    6.515226   5.854445   5.440348   5.572586   5.034909
    26  H    5.683450   5.516508   4.542732   4.214387   3.805109
    27  H    6.076018   4.842607   5.157949   5.996819   5.580105
    28  H    5.683072   4.555704   4.262746   5.540681   4.694499
    29  H    6.705024   5.791142   5.158710   6.004472   4.867370
                   21         22         23         24         25
    21  H    0.000000
    22  H    3.002170   0.000000
    23  H    2.338665   1.887920   0.000000
    24  H    3.409428   4.248197   3.621414   0.000000
    25  H    3.842910   3.995310   2.958942   1.779943   0.000000
    26  H    2.260935   3.624931   2.348785   1.779923   1.780039
    27  H    4.995460   3.674830   3.816951   3.003246   2.474313
    28  H    4.739414   2.435154   3.263044   4.038595   3.488521
    29  H    4.520910   2.987867   2.653902   3.528936   2.265628
                   26         27         28         29
    26  H    0.000000
    27  H    3.721465   0.000000
    28  H    4.201848   1.779946   0.000000
    29  H    3.338095   1.779996   1.779990   0.000000
 Stoichiometry    C9H18NO(2)
 Framework group  C1[X(C9H18NO)]
 Deg. of freedom    81
 Full point group                 C1      NOp   1
 Largest Abelian subgroup         C1      NOp   1
 Largest concise Abelian subgroup C1      NOp   1
                         Standard orientation:                         
 ---------------------------------------------------------------------
 Center     Atomic      Atomic             Coordinates (Angstroms)
 Number     Number       Type             X           Y           Z
 ---------------------------------------------------------------------
      1          6           0       -1.624047    0.453096    1.596470
      2          6           0       -1.315064   -0.108959    0.164132
      3          6           0       -2.514144   -1.075120   -0.163601
      4          6           0       -1.288712    1.037272   -0.906451
      5          6           0        0.001925    1.896176   -0.875114
      6          6           0        1.285013    1.026045   -0.918896
      7          6           0        1.315253   -0.109946    0.161672
      8          6           0        1.630827    0.466870    1.587557
      9          6           0        2.511163   -1.082347   -0.157464
     10          7           0       -0.000373   -0.870419    0.139497
     11          8           0       -0.002105   -1.752991   -0.906671
     12          1           0       -2.644392    0.835671    1.624306
     13          1           0       -1.515051   -0.344695    2.331094
     14          1           0       -0.927553    1.258586    1.828748
     15          1           0       -3.015131   -1.359321    0.761842
     16          1           0       -3.221815   -0.566673   -0.818479
     17          1           0       -2.135756   -1.968135   -0.661027
     18          1           0       -1.288123    0.542541   -1.877710
     19          1           0       -2.099072    1.716162   -0.641038
     20          1           0       -0.000188    2.481652   -1.794580
     21          1           0        0.008622    2.399651    0.091603
     22          1           0        1.265900    0.522556   -1.885464
     23          1           0        2.105532    1.699644   -0.671493
     24          1           0        0.969311    0.005403    2.320694
     25          1           0        2.667290    0.249924    1.846061
     26          1           0        1.474887    1.545679    1.585800
     27          1           0        2.542124   -1.876985    0.587961
     28          1           0        2.371497   -1.517599   -1.146955
     29          1           0        3.448084   -0.525704   -0.134301
 ---------------------------------------------------------------------
 Rotational constants (GHZ):           1.4892684           0.9726135           0.8794404
 Leave Link  202 at Sun Oct 13 23:49:05 2019, MaxMem= 10737418240 cpu:               0.4 elap:               0.0
 (Enter /apps/cent7/gaussian/g16-A.03/g16-haswell/g16/l301.exe)
 Standard basis: 6-311++G(d,p) (5D, 7F)
 Ernie: Thresh=  0.10000D-02 Tol=  0.10000D-05 Strict=F.
 There are   379 symmetry adapted cartesian basis functions of A   symmetry.
 There are   368 symmetry adapted basis functions of A   symmetry.
   368 basis functions,   558 primitive gaussians,   379 cartesian basis functions
    44 alpha electrons       43 beta electrons
       nuclear repulsion energy       708.4607385489 Hartrees.
 IExCor= 4336 DFT=T Ex+Corr=M062X ExCW=0 ScaHFX=  0.540000
 ScaDFX=  1.000000  1.000000  1.000000  1.000000 ScalE2=  1.000000  1.000000
 IRadAn=      5 IRanWt=     -1 IRanGd=            0 ICorTp=0 IEmpDi=  4
 NAtoms=   29 NActive=   29 NUniq=   29 SFac= 1.00D+00 NAtFMM=   60 NAOKFM=F Big=F
 Integral buffers will be    131072 words long.
 Raffenetti 2 integral format.
 Two-electron integral symmetry is turned on.
 Leave Link  301 at Sun Oct 13 23:49:05 2019, MaxMem= 10737418240 cpu:               1.3 elap:               0.1
 (Enter /apps/cent7/gaussian/g16-A.03/g16-haswell/g16/l302.exe)
 NPDir=0 NMtPBC=     1 NCelOv=     1 NCel=       1 NClECP=     1 NCelD=      1
         NCelK=      1 NCelE2=     1 NClLst=     1 CellRange=     0.0.
 One-electron integrals computed using PRISM.
 One-electron integral symmetry used in STVInt
 NBasis=   368 RedAO= T EigKep=  4.56D-06  NBF=   368
 NBsUse=   368 1.00D-06 EigRej= -1.00D+00 NBFU=   368
 Precomputing XC quadrature grid using
 IXCGrd= 4 IRadAn=           5 IRanWt=          -1 IRanGd=           0 AccXCQ= 0.00D+00.
 Generated NRdTot=       0 NPtTot=           0 NUsed=           0 NTot=          32
 NSgBfM=   379   379   379   379   379 MxSgAt=    29 MxSgA2=    29.
 Leave Link  302 at Sun Oct 13 23:49:05 2019, MaxMem= 10737418240 cpu:               7.2 elap:               0.3
 (Enter /apps/cent7/gaussian/g16-A.03/g16-haswell/g16/l303.exe)
 DipDrv:  MaxL=1.
 Leave Link  303 at Sun Oct 13 23:49:05 2019, MaxMem= 10737418240 cpu:               1.8 elap:               0.1
 (Enter /apps/cent7/gaussian/g16-A.03/g16-haswell/g16/l401.exe)
 ExpMin= 3.60D-02 ExpMax= 8.59D+03 ExpMxC= 1.30D+03 IAcc=3 IRadAn=         5 AccDes= 0.00D+00
 Harris functional with IExCor= 1009 and IRadAn=       5 diagonalized for initial guess.
 HarFok:  IExCor= 1009 AccDes= 0.00D+00 IRadAn=         5 IDoV= 1 UseB2=F ITyADJ=14
 ICtDFT=  3500011 ScaDFX=  1.000000  1.000000  1.000000  1.000000
 FoFCou: FMM=F IPFlag=           0 FMFlag=      100000 FMFlg1=           0
         NFxFlg=           0 DoJE=T BraDBF=F KetDBF=T FulRan=T
         wScrn=  0.000000 ICntrl=       500 IOpCl=  0 I1Cent=   200000004 NGrid=           0
         NMat0=    1 NMatS0=      1 NMatT0=    0 NMatD0=    1 NMtDS0=    0 NMtDT0=    0
 Petite list used in FoFCou.
 Harris En= -483.434828275055    
 JPrj=0 DoOrth=F DoCkMO=F.
 Initial guess <Sx>= 0.0000 <Sy>= 0.0000 <Sz>= 0.5000 <S**2>= 0.7500 S= 0.5000
 Leave Link  401 at Sun Oct 13 23:49:06 2019, MaxMem= 10737418240 cpu:              20.4 elap:               0.9
 (Enter /apps/cent7/gaussian/g16-A.03/g16-haswell/g16/l502.exe)
 Integral symmetry usage will be decided dynamically.
 UHF open shell SCF:
 Using DIIS extrapolation, IDIIS=  1040.
 NGot= 10737418240 LenX= 10737117993 LenY= 10736973911
 Requested convergence on RMS density matrix=1.00D-08 within 128 cycles.
 Requested convergence on MAX density matrix=1.00D-06.
 Requested convergence on             energy=1.00D-06.
 No special actions if energy rises.
 Fock matrices will be formed incrementally for  20 cycles.

 Cycle   1  Pass 1  IDiag  1:
 FoFJK:  IHMeth= 1 ICntrl=       0 DoSepK=F KAlg= 0 I1Cent=           0 FoldK=F
 IRaf= 960000000 NMat=       1 IRICut=       1 DoRegI=T DoRafI=F ISym2E= 0 IDoP0=0 IntGTp=1.
 FoFCou: FMM=F IPFlag=           0 FMFlag=      100000 FMFlg1=           0
         NFxFlg=           0 DoJE=F BraDBF=F KetDBF=F FulRan=T
         wScrn=  0.000000 ICntrl=         0 IOpCl=  1 I1Cent=           0 NGrid=           0
         NMat0=    1 NMatS0=      1 NMatT0=    0 NMatD0=    1 NMtDS0=    0 NMtDT0=    0
 Symmetry not used in FoFCou.
 E= -483.153653718442    
 DIIS: error= 3.20D-02 at cycle   1 NSaved=   1.
 NSaved= 1 IEnMin= 1 EnMin= -483.153653718442     IErMin= 1 ErrMin= 3.20D-02
 ErrMax= 3.20D-02  0.00D+00 EMaxC= 1.00D-01 BMatC= 2.02D+00 BMatP= 2.02D+00
 IDIUse=3 WtCom= 6.80D-01 WtEn= 3.20D-01
 Coeff-Com:  0.100D+01
 Coeff-En:   0.100D+01
 Coeff:      0.100D+01
 Gap=     0.335 Goal=   None    Shift=    0.000
 Gap=     0.184 Goal=   None    Shift=    0.000
 GapD=    0.184 DampG=1.000 DampE=0.500 DampFc=0.5000 IDamp=-1.
 Damping current iteration by 5.00D-01
 RMSDP=1.32D-02 MaxDP=1.61D+00              OVMax= 1.79D-01

 Cycle   2  Pass 1  IDiag  1:
 RMSU=  5.79D-03    CP:  8.64D-01
 E= -483.362398480921     Delta-E=       -0.208744762479 Rises=F Damp=T
 DIIS: error= 8.05D-03 at cycle   2 NSaved=   2.
 NSaved= 2 IEnMin= 2 EnMin= -483.362398480921     IErMin= 2 ErrMin= 8.05D-03
 ErrMax= 8.05D-03  0.00D+00 EMaxC= 1.00D-01 BMatC= 1.59D-01 BMatP= 2.02D+00
 IDIUse=3 WtCom= 9.20D-01 WtEn= 8.05D-02
 Coeff-Com: -0.174D-01 0.102D+01
 Coeff-En:   0.000D+00 0.100D+01
 Coeff:     -0.160D-01 0.102D+01
 Gap=     0.328 Goal=   None    Shift=    0.000
 Gap=     0.288 Goal=   None    Shift=    0.000
 RMSDP=5.14D-03 MaxDP=3.18D-01 DE=-2.09D-01 OVMax= 1.47D-01

 Cycle   3  Pass 1  IDiag  1:
 RMSU=  5.06D-03    CP:  8.23D-01  9.77D-01
 E= -483.557353687069     Delta-E=       -0.194955206147 Rises=F Damp=F
 DIIS: error= 1.37D-02 at cycle   3 NSaved=   3.
 NSaved= 3 IEnMin= 3 EnMin= -483.557353687069     IErMin= 2 ErrMin= 8.05D-03
 ErrMax= 1.37D-02  0.00D+00 EMaxC= 1.00D-01 BMatC= 1.39D-01 BMatP= 1.59D-01
 IDIUse=3 WtCom= 8.63D-01 WtEn= 1.37D-01
 Coeff-Com: -0.686D-01 0.523D+00 0.546D+00
 Coeff-En:   0.000D+00 0.000D+00 0.100D+01
 Coeff:     -0.592D-01 0.451D+00 0.608D+00
 Gap=     0.293 Goal=   None    Shift=    0.000
 Gap=     0.265 Goal=   None    Shift=    0.000
 RMSDP=3.54D-03 MaxDP=2.74D-01 DE=-1.95D-01 OVMax= 1.04D-01

 Cycle   4  Pass 1  IDiag  1:
 RMSU=  2.22D-03    CP:  8.19D-01  1.45D+00  9.07D-01
 E= -483.575540914312     Delta-E=       -0.018187227243 Rises=F Damp=F
 DIIS: error= 7.59D-03 at cycle   4 NSaved=   4.
 NSaved= 4 IEnMin= 4 EnMin= -483.575540914312     IErMin= 4 ErrMin= 7.59D-03
 ErrMax= 7.59D-03  0.00D+00 EMaxC= 1.00D-01 BMatC= 4.72D-02 BMatP= 1.39D-01
 IDIUse=3 WtCom= 9.24D-01 WtEn= 7.59D-02
 Coeff-Com: -0.160D-01 0.581D-01 0.379D+00 0.579D+00
 Coeff-En:   0.000D+00 0.000D+00 0.274D+00 0.726D+00
 Coeff:     -0.148D-01 0.537D-01 0.371D+00 0.590D+00
 Gap=     0.286 Goal=   None    Shift=    0.000
 Gap=     0.274 Goal=   None    Shift=    0.000
 RMSDP=1.61D-03 MaxDP=1.08D-01 DE=-1.82D-02 OVMax= 2.34D-02

 Cycle   5  Pass 1  IDiag  1:
 RMSU=  6.53D-04    CP:  8.02D-01  1.25D+00  1.01D+00  7.04D-01
 E= -483.584188158161     Delta-E=       -0.008647243849 Rises=F Damp=F
 DIIS: error= 8.33D-04 at cycle   5 NSaved=   5.
 NSaved= 5 IEnMin= 5 EnMin= -483.584188158161     IErMin= 5 ErrMin= 8.33D-04
 ErrMax= 8.33D-04  0.00D+00 EMaxC= 1.00D-01 BMatC= 5.84D-04 BMatP= 4.72D-02
 IDIUse=3 WtCom= 9.92D-01 WtEn= 8.33D-03
 Coeff-Com: -0.128D-02-0.321D-02 0.119D+00 0.205D+00 0.681D+00
 Coeff-En:   0.000D+00 0.000D+00 0.000D+00 0.000D+00 0.100D+01
 Coeff:     -0.127D-02-0.319D-02 0.118D+00 0.203D+00 0.683D+00
 Gap=     0.280 Goal=   None    Shift=    0.000
 Gap=     0.275 Goal=   None    Shift=    0.000
 RMSDP=4.66D-04 MaxDP=6.52D-02 DE=-8.65D-03 OVMax= 1.11D-02

 Cycle   6  Pass 1  IDiag  1:
 RMSU=  3.03D-04    CP:  8.12D-01  1.26D+00  1.05D+00  7.62D-01  1.09D+00
 E= -483.584365046890     Delta-E=       -0.000176888730 Rises=F Damp=F
 DIIS: error= 4.86D-04 at cycle   6 NSaved=   6.
 NSaved= 6 IEnMin= 6 EnMin= -483.584365046890     IErMin= 6 ErrMin= 4.86D-04
 ErrMax= 4.86D-04  0.00D+00 EMaxC= 1.00D-01 BMatC= 1.92D-04 BMatP= 5.84D-04
 IDIUse=3 WtCom= 9.95D-01 WtEn= 4.86D-03
 Coeff-Com:  0.384D-02-0.134D-01-0.250D-01-0.571D-01 0.244D+00 0.848D+00
 Coeff-En:   0.000D+00 0.000D+00 0.000D+00 0.000D+00 0.000D+00 0.100D+01
 Coeff:      0.382D-02-0.133D-01-0.248D-01-0.568D-01 0.242D+00 0.849D+00
 Gap=     0.281 Goal=   None    Shift=    0.000
 Gap=     0.276 Goal=   None    Shift=    0.000
 RMSDP=2.48D-04 MaxDP=2.39D-02 DE=-1.77D-04 OVMax= 6.20D-03

 Cycle   7  Pass 1  IDiag  1:
 RMSU=  8.23D-05    CP:  8.15D-01  1.25D+00  1.06D+00  7.73D-01  1.29D+00
                    CP:  1.49D+00
 E= -483.584445005852     Delta-E=       -0.000079958961 Rises=F Damp=F
 DIIS: error= 2.63D-04 at cycle   7 NSaved=   7.
 NSaved= 7 IEnMin= 7 EnMin= -483.584445005852     IErMin= 7 ErrMin= 2.63D-04
 ErrMax= 2.63D-04  0.00D+00 EMaxC= 1.00D-01 BMatC= 3.62D-05 BMatP= 1.92D-04
 IDIUse=3 WtCom= 9.97D-01 WtEn= 2.63D-03
 Coeff-Com:  0.936D-03-0.524D-03-0.224D-01-0.609D-01-0.146D+00-0.260D-01
 Coeff-Com:  0.125D+01
 Coeff-En:   0.000D+00 0.000D+00 0.000D+00 0.000D+00 0.000D+00 0.000D+00
 Coeff-En:   0.100D+01
 Coeff:      0.934D-03-0.522D-03-0.223D-01-0.607D-01-0.145D+00-0.259D-01
 Coeff:      0.125D+01
 Gap=     0.282 Goal=   None    Shift=    0.000
 Gap=     0.277 Goal=   None    Shift=    0.000
 RMSDP=1.98D-04 MaxDP=1.74D-02 DE=-8.00D-05 OVMax= 6.59D-03

 Cycle   8  Pass 1  IDiag  1:
 RMSU=  3.96D-05    CP:  8.17D-01  1.24D+00  1.08D+00  7.74D-01  1.44D+00
                    CP:  1.90D+00  1.74D+00
 E= -483.584474481517     Delta-E=       -0.000029475666 Rises=F Damp=F
 DIIS: error= 1.18D-04 at cycle   8 NSaved=   8.
 NSaved= 8 IEnMin= 8 EnMin= -483.584474481517     IErMin= 8 ErrMin= 1.18D-04
 ErrMax= 1.18D-04  0.00D+00 EMaxC= 1.00D-01 BMatC= 5.36D-06 BMatP= 3.62D-05
 IDIUse=3 WtCom= 9.99D-01 WtEn= 1.18D-03
 Coeff-Com: -0.382D-03 0.145D-02 0.621D-02 0.582D-02-0.270D-01-0.143D+00
 Coeff-Com: -0.126D-01 0.117D+01
 Coeff-En:   0.000D+00 0.000D+00 0.000D+00 0.000D+00 0.000D+00 0.000D+00
 Coeff-En:   0.000D+00 0.100D+01
 Coeff:     -0.381D-03 0.145D-02 0.620D-02 0.581D-02-0.269D-01-0.143D+00
 Coeff:     -0.126D-01 0.117D+01
 Gap=     0.281 Goal=   None    Shift=    0.000
 Gap=     0.277 Goal=   None    Shift=    0.000
 RMSDP=7.37D-05 MaxDP=5.89D-03 DE=-2.95D-05 OVMax= 2.45D-03

 Cycle   9  Pass 1  IDiag  1:
 RMSU=  1.33D-05    CP:  8.18D-01  1.24D+00  1.08D+00  7.68D-01  1.48D+00
                    CP:  2.06D+00  2.03D+00  1.49D+00
 E= -483.584478771758     Delta-E=       -0.000004290241 Rises=F Damp=F
 DIIS: error= 3.69D-05 at cycle   9 NSaved=   9.
 NSaved= 9 IEnMin= 9 EnMin= -483.584478771758     IErMin= 9 ErrMin= 3.69D-05
 ErrMax= 3.69D-05  0.00D+00 EMaxC= 1.00D-01 BMatC= 9.87D-07 BMatP= 5.36D-06
 IDIUse=1 WtCom= 1.00D+00 WtEn= 0.00D+00
 Coeff-Com: -0.287D-03 0.629D-03 0.719D-02 0.135D-01 0.168D-01-0.569D-01
 Coeff-Com: -0.241D+00 0.465D+00 0.795D+00
 Coeff:     -0.287D-03 0.629D-03 0.719D-02 0.135D-01 0.168D-01-0.569D-01
 Coeff:     -0.241D+00 0.465D+00 0.795D+00
 Gap=     0.281 Goal=   None    Shift=    0.000
 Gap=     0.277 Goal=   None    Shift=    0.000
 RMSDP=2.01D-05 MaxDP=1.59D-03 DE=-4.29D-06 OVMax= 7.38D-04

 Cycle  10  Pass 1  IDiag  1:
 RMSU=  5.86D-06    CP:  8.18D-01  1.24D+00  1.08D+00  7.67D-01  1.48D+00
                    CP:  2.10D+00  2.15D+00  1.64D+00  1.21D+00
 E= -483.584479332744     Delta-E=       -0.000000560985 Rises=F Damp=F
 DIIS: error= 1.19D-05 at cycle  10 NSaved=  10.
 NSaved=10 IEnMin=10 EnMin= -483.584479332744     IErMin=10 ErrMin= 1.19D-05
 ErrMax= 1.19D-05  0.00D+00 EMaxC= 1.00D-01 BMatC= 1.04D-07 BMatP= 9.87D-07
 IDIUse=1 WtCom= 1.00D+00 WtEn= 0.00D+00
 Coeff-Com:  0.544D-04-0.210D-03 0.361D-03 0.122D-02 0.788D-02 0.154D-01
 Coeff-Com: -0.342D-01-0.131D+00 0.140D+00 0.100D+01
 Coeff:      0.544D-04-0.210D-03 0.361D-03 0.122D-02 0.788D-02 0.154D-01
 Coeff:     -0.342D-01-0.131D+00 0.140D+00 0.100D+01
 Gap=     0.281 Goal=   None    Shift=    0.000
 Gap=     0.277 Goal=   None    Shift=    0.000
 RMSDP=5.02D-06 MaxDP=3.75D-04 DE=-5.61D-07 OVMax= 1.62D-04

 Cycle  11  Pass 1  IDiag  1:
 RMSU=  2.86D-06    CP:  8.18D-01  1.24D+00  1.08D+00  7.67D-01  1.49D+00
                    CP:  2.10D+00  2.16D+00  1.68D+00  1.38D+00  1.33D+00
 E= -483.584479399969     Delta-E=       -0.000000067225 Rises=F Damp=F
 DIIS: error= 3.42D-06 at cycle  11 NSaved=  11.
 NSaved=11 IEnMin=11 EnMin= -483.584479399969     IErMin=11 ErrMin= 3.42D-06
 ErrMax= 3.42D-06  0.00D+00 EMaxC= 1.00D-01 BMatC= 1.29D-08 BMatP= 1.04D-07
 IDIUse=1 WtCom= 1.00D+00 WtEn= 0.00D+00
 Coeff-Com:  0.557D-04-0.136D-03-0.998D-03-0.182D-02-0.113D-02 0.118D-01
 Coeff-Com:  0.329D-01-0.101D+00-0.104D+00 0.186D+00 0.979D+00
 Coeff:      0.557D-04-0.136D-03-0.998D-03-0.182D-02-0.113D-02 0.118D-01
 Coeff:      0.329D-01-0.101D+00-0.104D+00 0.186D+00 0.979D+00
 Gap=     0.281 Goal=   None    Shift=    0.000
 Gap=     0.277 Goal=   None    Shift=    0.000
 RMSDP=2.79D-06 MaxDP=3.29D-04 DE=-6.72D-08 OVMax= 3.86D-05

 Cycle  12  Pass 1  IDiag  1:
 RMSU=  9.77D-07    CP:  8.18D-01  1.24D+00  1.08D+00  7.67D-01  1.49D+00
                    CP:  2.10D+00  2.16D+00  1.66D+00  1.47D+00  1.55D+00
                    CP:  1.21D+00
 E= -483.584479408153     Delta-E=       -0.000000008184 Rises=F Damp=F
 DIIS: error= 9.04D-07 at cycle  12 NSaved=  12.
 NSaved=12 IEnMin=12 EnMin= -483.584479408153     IErMin=12 ErrMin= 9.04D-07
 ErrMax= 9.04D-07  0.00D+00 EMaxC= 1.00D-01 BMatC= 1.25D-09 BMatP= 1.29D-08
 IDIUse=1 WtCom= 1.00D+00 WtEn= 0.00D+00
 Coeff-Com:  0.931D-06-0.406D-06-0.175D-03-0.374D-03-0.825D-03 0.185D-03
 Coeff-Com:  0.773D-02-0.121D-02-0.270D-01-0.709D-01 0.152D+00 0.941D+00
 Coeff:      0.931D-06-0.406D-06-0.175D-03-0.374D-03-0.825D-03 0.185D-03
 Coeff:      0.773D-02-0.121D-02-0.270D-01-0.709D-01 0.152D+00 0.941D+00
 Gap=     0.281 Goal=   None    Shift=    0.000
 Gap=     0.277 Goal=   None    Shift=    0.000
 RMSDP=6.78D-07 MaxDP=6.32D-05 DE=-8.18D-09 OVMax= 1.46D-05

 Cycle  13  Pass 1  IDiag  1:
 RMSU=  2.93D-07    CP:  8.18D-01  1.24D+00  1.08D+00  7.67D-01  1.49D+00
                    CP:  2.10D+00  2.16D+00  1.66D+00  1.48D+00  1.59D+00
                    CP:  1.29D+00  1.13D+00
 E= -483.584479408859     Delta-E=       -0.000000000706 Rises=F Damp=F
 DIIS: error= 3.57D-07 at cycle  13 NSaved=  13.
 NSaved=13 IEnMin=13 EnMin= -483.584479408859     IErMin=13 ErrMin= 3.57D-07
 ErrMax= 3.57D-07  0.00D+00 EMaxC= 1.00D-01 BMatC= 3.09D-10 BMatP= 1.25D-09
 IDIUse=1 WtCom= 1.00D+00 WtEn= 0.00D+00
 Coeff-Com: -0.815D-05 0.207D-04 0.747D-04 0.121D-03-0.136D-03-0.157D-02
 Coeff-Com: -0.199D-02 0.138D-01 0.568D-02-0.515D-01-0.897D-01 0.332D+00
 Coeff-Com:  0.793D+00
 Coeff:     -0.815D-05 0.207D-04 0.747D-04 0.121D-03-0.136D-03-0.157D-02
 Coeff:     -0.199D-02 0.138D-01 0.568D-02-0.515D-01-0.897D-01 0.332D+00
 Coeff:      0.793D+00
 Gap=     0.281 Goal=   None    Shift=    0.000
 Gap=     0.277 Goal=   None    Shift=    0.000
 RMSDP=2.78D-07 MaxDP=2.48D-05 DE=-7.06D-10 OVMax= 8.94D-06

 Cycle  14  Pass 1  IDiag  1:
 RMSU=  1.30D-07    CP:  8.18D-01  1.24D+00  1.08D+00  7.67D-01  1.49D+00
                    CP:  2.10D+00  2.16D+00  1.66D+00  1.48D+00  1.60D+00
                    CP:  1.30D+00  1.23D+00  1.07D+00
 E= -483.584479409015     Delta-E=       -0.000000000156 Rises=F Damp=F
 DIIS: error= 2.93D-07 at cycle  14 NSaved=  14.
 NSaved=14 IEnMin=14 EnMin= -483.584479409015     IErMin=14 ErrMin= 2.93D-07
 ErrMax= 2.93D-07  0.00D+00 EMaxC= 1.00D-01 BMatC= 3.94D-11 BMatP= 3.09D-10
 IDIUse=1 WtCom= 1.00D+00 WtEn= 0.00D+00
 Coeff-Com: -0.164D-05 0.407D-05 0.370D-04 0.747D-04 0.842D-04-0.341D-03
 Coeff-Com: -0.157D-02 0.337D-02 0.490D-02-0.232D-02-0.400D-01-0.564D-01
 Coeff-Com:  0.176D+00 0.916D+00
 Coeff:     -0.164D-05 0.407D-05 0.370D-04 0.747D-04 0.842D-04-0.341D-03
 Coeff:     -0.157D-02 0.337D-02 0.490D-02-0.232D-02-0.400D-01-0.564D-01
 Coeff:      0.176D+00 0.916D+00
 Gap=     0.281 Goal=   None    Shift=    0.000
 Gap=     0.277 Goal=   None    Shift=    0.000
 RMSDP=1.13D-07 MaxDP=1.92D-05 DE=-1.56D-10 OVMax= 7.37D-06

 Cycle  15  Pass 1  IDiag  1:
 RMSU=  6.57D-08    CP:  8.18D-01  1.24D+00  1.08D+00  7.67D-01  1.49D+00
                    CP:  2.10D+00  2.16D+00  1.66D+00  1.47D+00  1.59D+00
                    CP:  1.30D+00  1.25D+00  1.22D+00  1.34D+00
 E= -483.584479409058     Delta-E=       -0.000000000043 Rises=F Damp=F
 DIIS: error= 2.23D-07 at cycle  15 NSaved=  15.
 NSaved=15 IEnMin=15 EnMin= -483.584479409058     IErMin=15 ErrMin= 2.23D-07
 ErrMax= 2.23D-07  0.00D+00 EMaxC= 1.00D-01 BMatC= 1.03D-11 BMatP= 3.94D-11
 IDIUse=1 WtCom= 1.00D+00 WtEn= 0.00D+00
 Coeff-Com:  0.116D-05-0.279D-05-0.716D-05-0.806D-05 0.369D-04 0.224D-03
 Coeff-Com:  0.104D-03-0.189D-02-0.409D-03 0.839D-02 0.104D-01-0.633D-01
 Coeff-Com: -0.113D+00 0.110D+00 0.105D+01
 Coeff:      0.116D-05-0.279D-05-0.716D-05-0.806D-05 0.369D-04 0.224D-03
 Coeff:      0.104D-03-0.189D-02-0.409D-03 0.839D-02 0.104D-01-0.633D-01
 Coeff:     -0.113D+00 0.110D+00 0.105D+01
 Gap=     0.281 Goal=   None    Shift=    0.000
 Gap=     0.277 Goal=   None    Shift=    0.000
 RMSDP=7.80D-08 MaxDP=9.42D-06 DE=-4.30D-11 OVMax= 6.69D-06

 Cycle  16  Pass 1  IDiag  1:
 RMSU=  2.97D-08    CP:  8.18D-01  1.24D+00  1.08D+00  7.67D-01  1.49D+00
                    CP:  2.10D+00  2.16D+00  1.66D+00  1.47D+00  1.59D+00
                    CP:  1.30D+00  1.25D+00  1.30D+00  1.69D+00  1.69D+00
 E= -483.584479409076     Delta-E=       -0.000000000018 Rises=F Damp=F
 DIIS: error= 1.63D-07 at cycle  16 NSaved=  16.
 NSaved=16 IEnMin=16 EnMin= -483.584479409076     IErMin=16 ErrMin= 1.63D-07
 ErrMax= 1.63D-07  0.00D+00 EMaxC= 1.00D-01 BMatC= 4.47D-12 BMatP= 1.03D-11
 IDIUse=1 WtCom= 1.00D+00 WtEn= 0.00D+00
 Coeff-Com:  0.502D-06-0.135D-05-0.996D-05-0.194D-04-0.169D-04 0.111D-03
 Coeff-Com:  0.427D-03-0.107D-02-0.132D-02 0.159D-02 0.124D-01 0.753D-02
 Coeff-Com: -0.648D-01-0.241D+00 0.130D+00 0.116D+01
 Coeff:      0.502D-06-0.135D-05-0.996D-05-0.194D-04-0.169D-04 0.111D-03
 Coeff:      0.427D-03-0.107D-02-0.132D-02 0.159D-02 0.124D-01 0.753D-02
 Coeff:     -0.648D-01-0.241D+00 0.130D+00 0.116D+01
 Gap=     0.281 Goal=   None    Shift=    0.000
 Gap=     0.277 Goal=   None    Shift=    0.000
 RMSDP=7.08D-08 MaxDP=9.48D-06 DE=-1.84D-11 OVMax= 6.27D-06

 Cycle  17  Pass 1  IDiag  1:
 RMSU=  1.31D-08    CP:  8.18D-01  1.24D+00  1.08D+00  7.67D-01  1.49D+00
                    CP:  2.10D+00  2.16D+00  1.66D+00  1.47D+00  1.59D+00
                    CP:  1.30D+00  1.25D+00  1.37D+00  1.95D+00  2.41D+00
                    CP:  1.84D+00
 E= -483.584479409086     Delta-E=       -0.000000000010 Rises=F Damp=F
 DIIS: error= 1.06D-07 at cycle  17 NSaved=  17.
 NSaved=17 IEnMin=17 EnMin= -483.584479409086     IErMin=17 ErrMin= 1.06D-07
 ErrMax= 1.06D-07  0.00D+00 EMaxC= 1.00D-01 BMatC= 1.97D-12 BMatP= 4.47D-12
 IDIUse=1 WtCom= 1.00D+00 WtEn= 0.00D+00
 Coeff-Com: -0.619D-06 0.142D-05 0.259D-05 0.170D-05-0.235D-04-0.111D-03
 Coeff-Com:  0.114D-04 0.878D-03 0.401D-04-0.445D-02-0.404D-02 0.373D-01
 Coeff-Com:  0.533D-01-0.103D+00-0.576D+00 0.240D+00 0.136D+01
 Coeff:     -0.619D-06 0.142D-05 0.259D-05 0.170D-05-0.235D-04-0.111D-03
 Coeff:      0.114D-04 0.878D-03 0.401D-04-0.445D-02-0.404D-02 0.373D-01
 Coeff:      0.533D-01-0.103D+00-0.576D+00 0.240D+00 0.136D+01
 Gap=     0.281 Goal=   None    Shift=    0.000
 Gap=     0.277 Goal=   None    Shift=    0.000
 RMSDP=7.32D-08 MaxDP=7.87D-06 DE=-9.55D-12 OVMax= 6.85D-06

 Cycle  18  Pass 1  IDiag  1:
 RMSU=  1.34D-08    CP:  8.18D-01  1.24D+00  1.08D+00  7.67D-01  1.49D+00
                    CP:  2.10D+00  2.16D+00  1.66D+00  1.47D+00  1.59D+00
                    CP:  1.31D+00  1.26D+00  1.44D+00  2.24D+00  3.00D+00
                    CP:  2.78D+00  2.02D+00
 E= -483.584479409099     Delta-E=       -0.000000000013 Rises=F Damp=F
 DIIS: error= 4.50D-08 at cycle  18 NSaved=  18.
 NSaved=18 IEnMin=18 EnMin= -483.584479409099     IErMin=18 ErrMin= 4.50D-08
 ErrMax= 4.50D-08  0.00D+00 EMaxC= 1.00D-01 BMatC= 4.17D-13 BMatP= 1.97D-12
 IDIUse=1 WtCom= 1.00D+00 WtEn= 0.00D+00
 Coeff-Com: -0.493D-07 0.203D-06 0.217D-05 0.407D-05 0.500D-05-0.254D-04
 Coeff-Com: -0.115D-03 0.244D-03 0.355D-03-0.233D-03-0.381D-02-0.438D-02
 Coeff-Com:  0.193D-01 0.910D-01-0.127D-01-0.427D+00-0.861D-01 0.142D+01
 Coeff:     -0.493D-07 0.203D-06 0.217D-05 0.407D-05 0.500D-05-0.254D-04
 Coeff:     -0.115D-03 0.244D-03 0.355D-03-0.233D-03-0.381D-02-0.438D-02
 Coeff:      0.193D-01 0.910D-01-0.127D-01-0.427D+00-0.861D-01 0.142D+01
 Gap=     0.281 Goal=   None    Shift=    0.000
 Gap=     0.277 Goal=   None    Shift=    0.000
 RMSDP=4.32D-08 MaxDP=4.27D-06 DE=-1.32D-11 OVMax= 4.01D-06

 Cycle  19  Pass 1  IDiag  1:
 RMSU=  1.96D-08    CP:  8.18D-01  1.24D+00  1.08D+00  7.67D-01  1.49D+00
                    CP:  2.10D+00  2.16D+00  1.66D+00  1.47D+00  1.59D+00
                    CP:  1.31D+00  1.27D+00  1.48D+00  2.40D+00  3.00D+00
                    CP:  3.00D+00  2.73D+00  2.66D+00
 E= -483.584479409098     Delta-E=        0.000000000001 Rises=F Damp=F
 DIIS: error= 9.81D-09 at cycle  19 NSaved=  19.
 NSaved=19 IEnMin=18 EnMin= -483.584479409099     IErMin=19 ErrMin= 9.81D-09
 ErrMax= 9.81D-09  0.00D+00 EMaxC= 1.00D-01 BMatC= 5.19D-14 BMatP= 4.17D-13
 IDIUse=1 WtCom= 1.00D+00 WtEn= 0.00D+00
 Coeff-Com:  0.990D-07-0.191D-06 0.720D-07 0.578D-06 0.483D-05 0.136D-04
 Coeff-Com: -0.284D-04-0.884D-04 0.755D-04 0.687D-03-0.219D-03-0.686D-02
 Coeff-Com: -0.449D-02 0.354D-01 0.896D-01-0.128D+00-0.240D+00 0.294D+00
 Coeff-Com:  0.959D+00
 Coeff:      0.990D-07-0.191D-06 0.720D-07 0.578D-06 0.483D-05 0.136D-04
 Coeff:     -0.284D-04-0.884D-04 0.755D-04 0.687D-03-0.219D-03-0.686D-02
 Coeff:     -0.449D-02 0.354D-01 0.896D-01-0.128D+00-0.240D+00 0.294D+00
 Coeff:      0.959D+00
 Gap=     0.281 Goal=   None    Shift=    0.000
 Gap=     0.277 Goal=   None    Shift=    0.000
 RMSDP=1.10D-08 MaxDP=1.52D-06 DE= 1.36D-12 OVMax= 9.17D-07

 Cycle  20  Pass 1  IDiag  1:
 RMSU=  2.45D-09    CP:  8.18D-01  1.24D+00  1.08D+00  7.67D-01  1.49D+00
                    CP:  2.10D+00  2.16D+00  1.66D+00  1.47D+00  1.59D+00
                    CP:  1.31D+00  1.27D+00  1.49D+00  2.44D+00  3.00D+00
                    CP:  3.00D+00  2.91D+00  3.00D+00  1.23D+00
 E= -483.584479409098     Delta-E=        0.000000000000 Rises=F Damp=F
 DIIS: error= 2.45D-09 at cycle  20 NSaved=  20.
 NSaved=20 IEnMin=18 EnMin= -483.584479409099     IErMin=20 ErrMin= 2.45D-09
 ErrMax= 2.45D-09  0.00D+00 EMaxC= 1.00D-01 BMatC= 7.46D-15 BMatP= 5.19D-14
 IDIUse=1 WtCom= 1.00D+00 WtEn= 0.00D+00
 Coeff-Com:  0.264D-07-0.656D-07-0.192D-06-0.283D-06 0.629D-06 0.612D-05
 Coeff-Com:  0.576D-05-0.467D-04-0.215D-04 0.183D-03 0.392D-03-0.106D-02
 Coeff-Com: -0.345D-02-0.319D-02 0.236D-01 0.270D-01-0.476D-01-0.126D+00
 Coeff-Com:  0.243D+00 0.887D+00
 Coeff:      0.264D-07-0.656D-07-0.192D-06-0.283D-06 0.629D-06 0.612D-05
 Coeff:      0.576D-05-0.467D-04-0.215D-04 0.183D-03 0.392D-03-0.106D-02
 Coeff:     -0.345D-02-0.319D-02 0.236D-01 0.270D-01-0.476D-01-0.126D+00
 Coeff:      0.243D+00 0.887D+00
 Gap=     0.281 Goal=   None    Shift=    0.000
 Gap=     0.277 Goal=   None    Shift=    0.000
 RMSDP=2.26D-09 MaxDP=2.92D-07 DE= 0.00D+00 OVMax= 1.61D-07

 SCF Done:  E(UM062X) =  -483.584479409     A.U. after   20 cycles
            NFock= 20  Conv=0.23D-08     -V/T= 2.0053
 <Sx>= 0.0000 <Sy>= 0.0000 <Sz>= 0.5000 <S**2>= 0.7560 S= 0.5030
 <L.S>= 0.000000000000E+00
 KE= 4.810341753608D+02 PE=-2.541006301059D+03 EE= 8.679269077400D+02
 Annihilation of the first spin contaminant:
 S**2 before annihilation     0.7560,   after     0.7500
 Leave Link  502 at Sun Oct 13 23:50:28 2019, MaxMem= 10737418240 cpu:            1960.8 elap:              82.0
 (Enter /apps/cent7/gaussian/g16-A.03/g16-haswell/g16/l601.exe)
 Copying SCF densities to generalized density rwf, IOpCl= 1 IROHF=0.

 **********************************************************************

            Population analysis using the SCF density.

 **********************************************************************

 Orbital symmetries:
 Alpha Orbitals:
       Occupied  (A) (A) (A) (A) (A) (A) (A) (A) (A) (A) (A) (A)
                 (A) (A) (A) (A) (A) (A) (A) (A) (A) (A) (A) (A)
                 (A) (A) (A) (A) (A) (A) (A) (A) (A) (A) (A) (A)
                 (A) (A) (A) (A) (A) (A) (A) (A)
       Virtual   (A) (A) (A) (A) (A) (A) (A) (A) (A) (A) (A) (A)
                 (A) (A) (A) (A) (A) (A) (A) (A) (A) (A) (A) (A)
                 (A) (A) (A) (A) (A) (A) (A) (A) (A) (A) (A) (A)
                 (A) (A) (A) (A) (A) (A) (A) (A) (A) (A) (A) (A)
                 (A) (A) (A) (A) (A) (A) (A) (A) (A) (A) (A) (A)
                 (A) (A) (A) (A) (A) (A) (A) (A) (A) (A) (A) (A)
                 (A) (A) (A) (A) (A) (A) (A) (A) (A) (A) (A) (A)
                 (A) (A) (A) (A) (A) (A) (A) (A) (A) (A) (A) (A)
                 (A) (A) (A) (A) (A) (A) (A) (A) (A) (A) (A) (A)
                 (A) (A) (A) (A) (A) (A) (A) (A) (A) (A) (A) (A)
                 (A) (A) (A) (A) (A) (A) (A) (A) (A) (A) (A) (A)
                 (A) (A) (A) (A) (A) (A) (A) (A) (A) (A) (A) (A)
                 (A) (A) (A) (A) (A) (A) (A) (A) (A) (A) (A) (A)
                 (A) (A) (A) (A) (A) (A) (A) (A) (A) (A) (A) (A)
                 (A) (A) (A) (A) (A) (A) (A) (A) (A) (A) (A) (A)
                 (A) (A) (A) (A) (A) (A) (A) (A) (A) (A) (A) (A)
                 (A) (A) (A) (A) (A) (A) (A) (A) (A) (A) (A) (A)
                 (A) (A) (A) (A) (A) (A) (A) (A) (A) (A) (A) (A)
                 (A) (A) (A) (A) (A) (A) (A) (A) (A) (A) (A) (A)
                 (A) (A) (A) (A) (A) (A) (A) (A) (A) (A) (A) (A)
                 (A) (A) (A) (A) (A) (A) (A) (A) (A) (A) (A) (A)
                 (A) (A) (A) (A) (A) (A) (A) (A) (A) (A) (A) (A)
                 (A) (A) (A) (A) (A) (A) (A) (A) (A) (A) (A) (A)
                 (A) (A) (A) (A) (A) (A) (A) (A) (A) (A) (A) (A)
                 (A) (A) (A) (A) (A) (A) (A) (A) (A) (A) (A) (A)
                 (A) (A) (A) (A) (A) (A) (A) (A) (A) (A) (A) (A)
                 (A) (A) (A) (A) (A) (A) (A) (A) (A) (A) (A) (A)
 Beta  Orbitals:
       Occupied  (A) (A) (A) (A) (A) (A) (A) (A) (A) (A) (A) (A)
                 (A) (A) (A) (A) (A) (A) (A) (A) (A) (A) (A) (A)
                 (A) (A) (A) (A) (A) (A) (A) (A) (A) (A) (A) (A)
                 (A) (A) (A) (A) (A) (A) (A)
       Virtual   (A) (A) (A) (A) (A) (A) (A) (A) (A) (A) (A) (A)
                 (A) (A) (A) (A) (A) (A) (A) (A) (A) (A) (A) (A)
                 (A) (A) (A) (A) (A) (A) (A) (A) (A) (A) (A) (A)
                 (A) (A) (A) (A) (A) (A) (A) (A) (A) (A) (A) (A)
                 (A) (A) (A) (A) (A) (A) (A) (A) (A) (A) (A) (A)
                 (A) (A) (A) (A) (A) (A) (A) (A) (A) (A) (A) (A)
                 (A) (A) (A) (A) (A) (A) (A) (A) (A) (A) (A) (A)
                 (A) (A) (A) (A) (A) (A) (A) (A) (A) (A) (A) (A)
                 (A) (A) (A) (A) (A) (A) (A) (A) (A) (A) (A) (A)
                 (A) (A) (A) (A) (A) (A) (A) (A) (A) (A) (A) (A)
                 (A) (A) (A) (A) (A) (A) (A) (A) (A) (A) (A) (A)
                 (A) (A) (A) (A) (A) (A) (A) (A) (A) (A) (A) (A)
                 (A) (A) (A) (A) (A) (A) (A) (A) (A) (A) (A) (A)
                 (A) (A) (A) (A) (A) (A) (A) (A) (A) (A) (A) (A)
                 (A) (A) (A) (A) (A) (A) (A) (A) (A) (A) (A) (A)
                 (A) (A) (A) (A) (A) (A) (A) (A) (A) (A) (A) (A)
                 (A) (A) (A) (A) (A) (A) (A) (A) (A) (A) (A) (A)
                 (A) (A) (A) (A) (A) (A) (A) (A) (A) (A) (A) (A)
                 (A) (A) (A) (A) (A) (A) (A) (A) (A) (A) (A) (A)
                 (A) (A) (A) (A) (A) (A) (A) (A) (A) (A) (A) (A)
                 (A) (A) (A) (A) (A) (A) (A) (A) (A) (A) (A) (A)
                 (A) (A) (A) (A) (A) (A) (A) (A) (A) (A) (A) (A)
                 (A) (A) (A) (A) (A) (A) (A) (A) (A) (A) (A) (A)
                 (A) (A) (A) (A) (A) (A) (A) (A) (A) (A) (A) (A)
                 (A) (A) (A) (A) (A) (A) (A) (A) (A) (A) (A) (A)
                 (A) (A) (A) (A) (A) (A) (A) (A) (A) (A) (A) (A)
                 (A) (A) (A) (A) (A) (A) (A) (A) (A) (A) (A) (A)
                 (A)
 The electronic state is 2-A.
 Alpha  occ. eigenvalues --  -19.63124 -14.83808 -10.59551 -10.59488 -10.54184
 Alpha  occ. eigenvalues --  -10.54171 -10.54042 -10.53660 -10.53541 -10.52503
 Alpha  occ. eigenvalues --  -10.52010  -1.17908  -0.96291  -0.90943  -0.87455
 Alpha  occ. eigenvalues --   -0.81806  -0.78174  -0.77706  -0.77079  -0.68995
 Alpha  occ. eigenvalues --   -0.67322  -0.59423  -0.56301  -0.54989  -0.54898
 Alpha  occ. eigenvalues --   -0.52844  -0.51181  -0.49892  -0.48604  -0.47883
 Alpha  occ. eigenvalues --   -0.47150  -0.46473  -0.45726  -0.45145  -0.44528
 Alpha  occ. eigenvalues --   -0.42819  -0.41459  -0.40184  -0.39369  -0.38413
 Alpha  occ. eigenvalues --   -0.37032  -0.36462  -0.33739  -0.28702
 Alpha virt. eigenvalues --   -0.00570   0.00633   0.00964   0.01318   0.02494
 Alpha virt. eigenvalues --    0.02845   0.03132   0.03397   0.03514   0.05157
 Alpha virt. eigenvalues --    0.05390   0.05709   0.05882   0.06256   0.06727
 Alpha virt. eigenvalues --    0.07418   0.09007   0.09099   0.09728   0.10012
 Alpha virt. eigenvalues --    0.10425   0.11158   0.11694   0.12038   0.12554
 Alpha virt. eigenvalues --    0.12954   0.13372   0.13611   0.13906   0.14211
 Alpha virt. eigenvalues --    0.14523   0.14848   0.15067   0.15481   0.15641
 Alpha virt. eigenvalues --    0.16043   0.16358   0.16958   0.17105   0.17331
 Alpha virt. eigenvalues --    0.17877   0.18157   0.18349   0.18452   0.18935
 Alpha virt. eigenvalues --    0.19440   0.19605   0.20427   0.20853   0.21051
 Alpha virt. eigenvalues --    0.21406   0.21635   0.21755   0.22359   0.23335
 Alpha virt. eigenvalues --    0.23479   0.24398   0.24752   0.25068   0.25634
 Alpha virt. eigenvalues --    0.26229   0.27259   0.27692   0.28135   0.28855
 Alpha virt. eigenvalues --    0.29233   0.30220   0.30582   0.31082   0.31998
 Alpha virt. eigenvalues --    0.32522   0.32804   0.33235   0.33807   0.34984
 Alpha virt. eigenvalues --    0.35227   0.35737   0.36054   0.37114   0.37199
 Alpha virt. eigenvalues --    0.37757   0.38165   0.38954   0.39249   0.40812
 Alpha virt. eigenvalues --    0.41057   0.42559   0.44173   0.45454   0.47247
 Alpha virt. eigenvalues --    0.48334   0.50732   0.50978   0.51534   0.52549
 Alpha virt. eigenvalues --    0.53642   0.54318   0.55109   0.56450   0.59635
 Alpha virt. eigenvalues --    0.60735   0.60754   0.62141   0.62581   0.63592
 Alpha virt. eigenvalues --    0.64280   0.65355   0.66542   0.66834   0.67522
 Alpha virt. eigenvalues --    0.69229   0.69787   0.70123   0.70588   0.71329
 Alpha virt. eigenvalues --    0.71785   0.72958   0.74129   0.74662   0.74929
 Alpha virt. eigenvalues --    0.76053   0.76382   0.77694   0.78293   0.79268
 Alpha virt. eigenvalues --    0.79860   0.80655   0.81582   0.82456   0.82834
 Alpha virt. eigenvalues --    0.83577   0.84674   0.84922   0.85069   0.87231
 Alpha virt. eigenvalues --    0.88700   0.92666   0.94436   0.97352   0.97892
 Alpha virt. eigenvalues --    1.00233   1.03226   1.05878   1.10577   1.11890
 Alpha virt. eigenvalues --    1.14244   1.16314   1.17834   1.20174   1.22230
 Alpha virt. eigenvalues --    1.22848   1.26132   1.28603   1.30742   1.32762
 Alpha virt. eigenvalues --    1.35861   1.37410   1.39587   1.40363   1.42827
 Alpha virt. eigenvalues --    1.44152   1.46579   1.48286   1.49916   1.50854
 Alpha virt. eigenvalues --    1.51367   1.52273   1.53317   1.54882   1.55576
 Alpha virt. eigenvalues --    1.57596   1.57880   1.59356   1.59648   1.60549
 Alpha virt. eigenvalues --    1.61730   1.62744   1.63153   1.63586   1.64706
 Alpha virt. eigenvalues --    1.65245   1.66473   1.67169   1.68212   1.69772
 Alpha virt. eigenvalues --    1.70586   1.71664   1.72283   1.72430   1.75615
 Alpha virt. eigenvalues --    1.75929   1.76786   1.77986   1.79506   1.81432
 Alpha virt. eigenvalues --    1.81449   1.83244   1.84406   1.85062   1.87318
 Alpha virt. eigenvalues --    1.87782   1.89025   1.90740   1.92081   1.92845
 Alpha virt. eigenvalues --    1.95050   1.97173   1.97690   1.98779   2.00341
 Alpha virt. eigenvalues --    2.02619   2.05194   2.07355   2.07733   2.11542
 Alpha virt. eigenvalues --    2.13542   2.16370   2.16841   2.18621   2.19001
 Alpha virt. eigenvalues --    2.21541   2.22104   2.24618   2.25290   2.26426
 Alpha virt. eigenvalues --    2.28413   2.30113   2.30531   2.33197   2.36578
 Alpha virt. eigenvalues --    2.38677   2.44056   2.44909   2.46519   2.48838
 Alpha virt. eigenvalues --    2.50031   2.52108   2.54890   2.55946   2.56169
 Alpha virt. eigenvalues --    2.57377   2.57656   2.58409   2.59497   2.60875
 Alpha virt. eigenvalues --    2.61411   2.62811   2.63305   2.64240   2.65559
 Alpha virt. eigenvalues --    2.66257   2.66896   2.68641   2.69674   2.70788
 Alpha virt. eigenvalues --    2.73114   2.73940   2.75460   2.76548   2.77863
 Alpha virt. eigenvalues --    2.79729   2.80214   2.82485   2.84949   2.86101
 Alpha virt. eigenvalues --    2.88401   2.91293   2.92233   2.96415   2.98437
 Alpha virt. eigenvalues --    2.99152   3.02029   3.04334   3.05393   3.07215
 Alpha virt. eigenvalues --    3.08986   3.11601   3.15431   3.18027   3.21501
 Alpha virt. eigenvalues --    3.25161   3.29244   3.29726   3.35034   3.39822
 Alpha virt. eigenvalues --    3.43139   3.47554   3.58632   3.71462   3.76997
 Alpha virt. eigenvalues --    3.81769   3.82108   3.83624   3.84487   3.85974
 Alpha virt. eigenvalues --    3.86755   3.87918   3.88754   3.95837   3.96551
 Alpha virt. eigenvalues --    4.02881   4.05776   4.14163   4.21534   4.24034
 Alpha virt. eigenvalues --    4.27461   4.36397   4.41823   4.60680   4.85477
 Alpha virt. eigenvalues --    5.22816   5.35370   5.80751  23.78245  23.84843
 Alpha virt. eigenvalues --   23.99873  24.01565  24.02303  24.05555  24.06072
 Alpha virt. eigenvalues --   24.07478  24.08613  35.56178  50.07593
  Beta  occ. eigenvalues --  -19.61960 -14.83127 -10.59550 -10.59486 -10.54160
  Beta  occ. eigenvalues --  -10.54147 -10.54042 -10.53659 -10.53538 -10.52502
  Beta  occ. eigenvalues --  -10.52011  -1.14850  -0.94983  -0.90809  -0.86644
  Beta  occ. eigenvalues --   -0.80447  -0.78109  -0.77667  -0.77013  -0.68513
  Beta  occ. eigenvalues --   -0.66849  -0.58883  -0.54733  -0.54646  -0.54488
  Beta  occ. eigenvalues --   -0.51339  -0.51093  -0.49837  -0.48500  -0.47253
  Beta  occ. eigenvalues --   -0.46365  -0.45913  -0.45344  -0.44492  -0.42560
  Beta  occ. eigenvalues --   -0.41685  -0.41115  -0.40067  -0.39253  -0.36849
  Beta  occ. eigenvalues --   -0.36559  -0.34070  -0.31731
  Beta virt. eigenvalues --   -0.03985  -0.00566   0.00643   0.00988   0.01356
  Beta virt. eigenvalues --    0.02535   0.02858   0.03138   0.03392   0.03538
  Beta virt. eigenvalues --    0.05144   0.05402   0.05734   0.05902   0.06254
  Beta virt. eigenvalues --    0.06722   0.07473   0.08996   0.09126   0.09729
  Beta virt. eigenvalues --    0.10021   0.10538   0.11198   0.11684   0.12079
  Beta virt. eigenvalues --    0.12616   0.12999   0.13420   0.13664   0.14008
  Beta virt. eigenvalues --    0.14255   0.14607   0.14905   0.15213   0.15423
  Beta virt. eigenvalues --    0.15684   0.16056   0.16384   0.16940   0.17126
  Beta virt. eigenvalues --    0.17429   0.17919   0.18174   0.18346   0.18446
  Beta virt. eigenvalues --    0.18933   0.19521   0.19691   0.20510   0.20939
  Beta virt. eigenvalues --    0.21122   0.21439   0.21682   0.21843   0.22498
  Beta virt. eigenvalues --    0.23484   0.23642   0.24516   0.24773   0.25192
  Beta virt. eigenvalues --    0.25683   0.26436   0.27314   0.28061   0.28241
  Beta virt. eigenvalues --    0.29040   0.29371   0.30305   0.30843   0.31226
  Beta virt. eigenvalues --    0.32159   0.32770   0.32932   0.33366   0.33855
  Beta virt. eigenvalues --    0.35033   0.35269   0.35941   0.36072   0.37185
  Beta virt. eigenvalues --    0.37238   0.37876   0.38206   0.39139   0.39607
  Beta virt. eigenvalues --    0.40722   0.41061   0.42736   0.44233   0.45431
  Beta virt. eigenvalues --    0.47376   0.48383   0.50825   0.51053   0.51518
  Beta virt. eigenvalues --    0.52623   0.53659   0.54364   0.55144   0.56479
  Beta virt. eigenvalues --    0.59702   0.60692   0.60937   0.62135   0.62611
  Beta virt. eigenvalues --    0.63680   0.64312   0.65457   0.66561   0.66900
  Beta virt. eigenvalues --    0.67572   0.69280   0.69868   0.70213   0.70649
  Beta virt. eigenvalues --    0.71352   0.71782   0.72991   0.74136   0.74663
  Beta virt. eigenvalues --    0.75008   0.76136   0.76382   0.77677   0.78322
  Beta virt. eigenvalues --    0.79341   0.79889   0.80740   0.81583   0.82473
  Beta virt. eigenvalues --    0.82889   0.83583   0.84688   0.84992   0.85149
  Beta virt. eigenvalues --    0.87281   0.88808   0.92810   0.94572   0.97537
  Beta virt. eigenvalues --    0.97974   1.00274   1.03312   1.05914   1.10846
  Beta virt. eigenvalues --    1.12630   1.14836   1.16427   1.17981   1.20268
  Beta virt. eigenvalues --    1.22909   1.24912   1.26605   1.28933   1.30932
  Beta virt. eigenvalues --    1.32959   1.35990   1.37653   1.39673   1.40511
  Beta virt. eigenvalues --    1.42935   1.44261   1.46679   1.48549   1.50064
  Beta virt. eigenvalues --    1.50902   1.51400   1.52344   1.53414   1.54978
  Beta virt. eigenvalues --    1.55636   1.57634   1.57954   1.59411   1.59781
  Beta virt. eigenvalues --    1.60572   1.61787   1.62814   1.63196   1.63645
  Beta virt. eigenvalues --    1.64769   1.65335   1.66541   1.67234   1.68337
  Beta virt. eigenvalues --    1.69867   1.70655   1.71777   1.72320   1.72546
  Beta virt. eigenvalues --    1.75696   1.76007   1.76888   1.78057   1.79582
  Beta virt. eigenvalues --    1.81465   1.81497   1.83331   1.84458   1.85105
  Beta virt. eigenvalues --    1.87576   1.87845   1.89178   1.90835   1.92403
  Beta virt. eigenvalues --    1.93138   1.95240   1.97304   1.98050   1.98825
  Beta virt. eigenvalues --    2.00810   2.02720   2.05325   2.07384   2.07915
  Beta virt. eigenvalues --    2.11675   2.13956   2.16446   2.16901   2.18871
  Beta virt. eigenvalues --    2.19218   2.21749   2.22302   2.24815   2.25435
  Beta virt. eigenvalues --    2.26616   2.28553   2.30186   2.30983   2.33467
  Beta virt. eigenvalues --    2.36705   2.38883   2.44261   2.44981   2.46813
  Beta virt. eigenvalues --    2.48927   2.50236   2.52348   2.54958   2.56054
  Beta virt. eigenvalues --    2.56200   2.57430   2.57675   2.58502   2.59553
  Beta virt. eigenvalues --    2.60931   2.61447   2.62902   2.63389   2.64314
  Beta virt. eigenvalues --    2.65606   2.66321   2.66952   2.68724   2.69702
  Beta virt. eigenvalues --    2.70849   2.73244   2.74088   2.75600   2.76633
  Beta virt. eigenvalues --    2.77974   2.79864   2.80289   2.82566   2.85088
  Beta virt. eigenvalues --    2.86404   2.88664   2.92020   2.92329   2.97071
  Beta virt. eigenvalues --    2.99053   3.00557   3.02242   3.05553   3.06576
  Beta virt. eigenvalues --    3.07394   3.09032   3.11817   3.15549   3.18543
  Beta virt. eigenvalues --    3.21753   3.26044   3.29426   3.31203   3.35291
  Beta virt. eigenvalues --    3.40060   3.43633   3.47662   3.59815   3.71537
  Beta virt. eigenvalues --    3.77266   3.81797   3.82154   3.83638   3.84526
  Beta virt. eigenvalues --    3.86033   3.86763   3.87943   3.88874   3.96048
  Beta virt. eigenvalues --    3.96781   4.03192   4.05812   4.14182   4.22234
  Beta virt. eigenvalues --    4.24121   4.27930   4.37309   4.41874   4.61779
  Beta virt. eigenvalues --    4.85700   5.28035   5.36461   5.81181  23.78252
  Beta virt. eigenvalues --   23.84851  23.99884  24.01571  24.02317  24.05556
  Beta virt. eigenvalues --   24.06075  24.07478  24.08613  35.55755  50.06894
          Condensed to atoms (all electrons):
               1          2          3          4          5          6
     1  C    6.932076  -1.004858  -0.540448  -0.209638  -0.034756   0.406771
     2  C   -1.004858  10.128887  -0.617462  -1.422070   0.286737  -0.127747
     3  C   -0.540448  -0.617462   6.288590   0.416700  -0.108080  -0.166162
     4  C   -0.209638  -1.422070   0.416700   6.975965  -0.186640  -0.243036
     5  C   -0.034756   0.286737  -0.108080  -0.186640   6.074368  -0.111271
     6  C    0.406771  -0.127747  -0.166162  -0.243036  -0.111271   7.361146
     7  C   -0.357059  -0.112926   0.340549  -0.158833   0.190234  -1.974867
     8  C   -0.140293  -0.098864  -0.024985   0.223641   0.059001   0.051455
     9  C   -0.130471   0.165744   0.091118  -0.009729  -0.147960  -0.235099
    10  N    0.499260  -1.171614  -0.317623   0.422020  -0.316738   0.732316
    11  O    0.008982   0.281607  -0.109257  -0.152888   0.106467  -0.152340
    12  H    0.441771  -0.003636  -0.039231  -0.068526   0.018202   0.007801
    13  H    0.493361  -0.085414  -0.025853  -0.011978  -0.008928   0.018585
    14  H    0.293513   0.003429   0.028488   0.047544  -0.013526  -0.047189
    15  H   -0.025953  -0.040876   0.404595   0.021653  -0.001622  -0.015114
    16  H    0.017633  -0.061042   0.404906  -0.023384  -0.012583   0.023070
    17  H    0.013329  -0.010718   0.419532  -0.042280  -0.005457   0.004071
    18  H   -0.006719   0.022212   0.019579   0.336401  -0.001606   0.017888
    19  H   -0.102200   0.032247   0.018990   0.399861  -0.018608  -0.023752
    20  H    0.017572   0.010979  -0.005292  -0.026973   0.345868  -0.001322
    21  H   -0.045178   0.019215   0.020561  -0.002692   0.357148  -0.039818
    22  H   -0.015385  -0.098872   0.017338   0.055319  -0.009527   0.346707
    23  H    0.021716  -0.015986  -0.007208  -0.000464  -0.039434   0.445571
    24  H    0.008659   0.004986   0.009550  -0.000774   0.001527  -0.026695
    25  H    0.012064   0.006997  -0.003098  -0.008895   0.014641   0.017133
    26  H    0.016100  -0.062807  -0.006427   0.008664  -0.030314  -0.051915
    27  H    0.013286   0.003866  -0.004687  -0.012384  -0.007793   0.049833
    28  H   -0.006888   0.021755  -0.001295  -0.008266   0.003802  -0.007888
    29  H   -0.007338  -0.020780   0.004247   0.021455  -0.009319  -0.076589
               7          8          9         10         11         12
     1  C   -0.357059  -0.140293  -0.130471   0.499260   0.008982   0.441771
     2  C   -0.112926  -0.098864   0.165744  -1.171614   0.281607  -0.003636
     3  C    0.340549  -0.024985   0.091118  -0.317623  -0.109257  -0.039231
     4  C   -0.158833   0.223641  -0.009729   0.422020  -0.152888  -0.068526
     5  C    0.190234   0.059001  -0.147960  -0.316738   0.106467   0.018202
     6  C   -1.974867   0.051455  -0.235099   0.732316  -0.152340   0.007801
     7  C   11.588032  -1.393838  -0.085126  -1.759906   0.281504  -0.028818
     8  C   -1.393838   6.776108  -0.530066   0.469085   0.015005   0.015255
     9  C   -0.085126  -0.530066   6.671174  -0.442857  -0.085390  -0.004116
    10  N   -1.759906   0.469085  -0.442857   8.568581   0.007863   0.025877
    11  O    0.281504   0.015005  -0.085390   0.007863   7.897846  -0.001264
    12  H   -0.028818   0.015255  -0.004116   0.025877  -0.001264   0.519457
    13  H   -0.046362  -0.011183  -0.013927   0.035046  -0.000792  -0.013322
    14  H    0.087537  -0.001719   0.017207  -0.048985  -0.001984  -0.051821
    15  H    0.010512   0.001718   0.001032  -0.012851  -0.000983  -0.004161
    16  H   -0.024144  -0.002077  -0.002996   0.044571  -0.006099   0.000404
    17  H    0.014654  -0.014996   0.002093  -0.026763   0.027917   0.001264
[...]
 53727,0.09055755,-0.00780140,0.00927803,-0.00755298,-0.00046543,0.0005
 8588,-0.00060683,0.00025730,0.00053244,-0.00007966,-0.00184257,-0.0017
 2315,-0.00201305,-0.00070578,0.00092088,-0.00130325,0.00002888,0.00001
 149,-0.00007748,-0.00002126,0.00002709,0.00008224,-0.00000955,-0.00002
 844,-0.00002758,0.00006409,-0.00002848,0.00005872,-0.00004033,0.000073
 32,-0.00005403,-0.00002246,-0.00001153,-0.00001247,-0.00032531,0.00043
 205,-0.00020395,0.00091642,-0.00102010,0.00117052,0.00035973,0.0003007
 0,-0.00062363,-0.00016253,0.00095420,0.00007364,0.00555647,-0.00781946
 ,0.00552584,-0.10243852,0.18550591,-0.00007404,0.00012671,0.00002835,-
 0.00009098,-0.00073105,0.00044603,0.00010807,0.00007259,-0.00008050,0.
 00198585,0.00103956,0.00031825,-0.00470380,0.00589797,-0.00528110,-0.0
 7001289,0.08833674,-0.11319717,-0.01377202,0.01866260,-0.01477510,-0.0
 0006393,0.00119081,0.00076842,0.00085361,0.00060054,0.00005559,-0.0016
 6220,-0.00422408,-0.00158775,-0.00145179,0.00084111,-0.00222228,0.0000
 6085,-0.00000224,-0.00003772,-0.00002847,-0.00000777,0.00000257,0.0000
 5913,-0.00000106,0.00002634,-0.00002277,-0.00002878,0.00003097,-0.0000
 0149,0.00003484,0.00000726,-0.00001597,-0.00001306,-0.00000198,-0.0002
 9179,0.00017504,0.00009521,-0.00051702,0.00047328,0.00002265,0.0002340
 9,-0.00031408,0.00043974,-0.00018270,-0.00013909,-0.00010591,0.0104934
 6,-0.01376067,0.01087922,0.07867102,-0.09685747,0.12360691,-0.00003751
 ,-0.00004629,0.00002549,0.00000507,0.00029285,-0.00017522,-0.00002462,
 -0.00003605,0.00005006,0.00002758,-0.00006243,-0.00004324,-0.00031162,
 -0.00006800,0.00025459,-0.00302618,0.00224891,0.00202207,0.00887390,0.
 00729331,0.01801574,-0.10428541,-0.04473741,-0.10477821,0.00137683,0.0
 0041826,0.00011526,0.00132384,-0.00076697,0.00008653,-0.00029393,-0.00
 001932,0.00010798,-0.00005061,0.00006476,0.00009490,0.00019604,-0.0000
 9294,0.00007888,-0.00011306,0.00000790,-0.00021876,0.00000572,0.000009
 43,-0.00001836,-0.00000614,-0.00002878,0.00000142,-0.00001494,0.000021
 89,0.00000816,0.00006243,-0.00006389,0.00005610,-0.00002099,-0.0000123
 8,-0.00003307,0.00013844,0.00000516,-0.00010711,0.00030922,0.00016618,
 -0.00020776,0.00060979,0.00075862,0.00094319,-0.00014125,-0.00005421,0
 .00006334,0.11121277,0.00004895,0.00021734,-0.00005843,0.00010599,-0.0
 0050755,-0.00028189,0.00004819,0.00006575,0.00006545,-0.00003332,0.000
 10942,-0.00015813,0.00001154,0.00034581,-0.00012188,0.00342996,-0.0017
 7279,-0.00135776,-0.00808632,-0.00949301,-0.01678317,-0.04309516,-0.07
 724898,-0.07404718,-0.00056322,0.00001210,0.00107762,-0.00230823,0.000
 41879,-0.00128396,0.00032677,0.00060038,0.00104650,0.00002836,0.000127
 81,0.00006611,0.00010849,-0.00023537,0.00029343,-0.00012042,0.00000830
 ,-0.00021697,0.00004322,-0.00003863,0.00003401,0.00000840,0.00003840,-
 0.00001721,-0.00002397,-0.00000999,0.00000713,0.00002375,0.00000049,0.
 00006703,0.00002450,-0.00002423,0.00005041,0.00003275,-0.00008423,0.00
 000743,0.00015262,0.00009278,-0.00000825,-0.00050601,-0.00052528,-0.00
 106254,-0.00010680,0.00019832,-0.00000227,0.04516382,0.08289945,-0.000
 06644,-0.00010314,0.00002328,0.00005389,-0.00017451,-0.00007211,0.0000
 3134,0.00003759,0.00003215,-0.00008537,0.00001193,0.00000976,0.0003357
 6,0.00019150,-0.00018128,0.00302842,-0.00121068,-0.00092404,-0.0078153
 7,-0.00586121,-0.01464994,-0.10188992,-0.07618661,-0.23159242,-0.00104
 362,-0.00009029,0.00008582,-0.00191612,0.00082681,-0.00039495,0.000303
 38,0.00145436,0.00106674,0.00001478,-0.00001745,-0.00002387,-0.0000342
 4,0.00003521,-0.00002661,0.00008531,-0.00018961,0.00009021,0.00000850,
 -0.00000932,0.00001615,0.00000570,0.00001928,-0.00001227,0.00000441,-0
 .00001233,-0.00001206,-0.00004070,0.00003997,-0.00001773,0.00002161,-0
 .00004062,0.00005365,-0.00012020,-0.00003809,0.00007637,-0.00018539,-0
 .00001838,0.00013322,-0.00038169,-0.00082296,-0.00059605,0.00024175,0.
 00003060,0.00042276,0.11046286,0.08468029,0.25033092,-0.00055853,-0.00
 017041,0.00003369,-0.00085988,-0.00051291,0.00026891,0.00020280,0.0002
 5383,-0.00014163,-0.00000548,0.00004649,-0.00008959,-0.00029931,-0.000
 12618,-0.00003098,0.00005939,-0.00062782,-0.00047552,-0.00586442,0.014
 36441,-0.01256434,-0.06461946,0.05353593,-0.03955033,0.00040916,0.0004
 8168,-0.00067522,-0.00343311,0.00412508,0.00137201,0.00046930,0.000336
 33,0.00026592,0.00025463,-0.00014100,0.00003058,-0.00005126,-0.0000011
 7,0.00003030,0.00047101,-0.00010034,0.00007490,-0.00000538,-0.00004829
 ,0.00002764,-0.00003905,0.00011190,-0.00004640,0.00005369,-0.00004674,
 -0.00000640,0.00000268,-0.00001023,-0.00002645,0.00003587,0.00003559,0
 .00005651,0.00008128,-0.00006431,-0.00005885,0.00012694,-0.00006195,-0
 .00000060,0.00002206,-0.00014508,0.00007774,0.00042779,-0.00016573,0.0
 0012310,-0.00430269,0.01176934,-0.00687915,0.06903373,-0.00046228,-0.0
 0010587,-0.00000137,0.00033204,0.00074460,0.00001821,-0.00012220,-0.00
 015821,-0.00000570,0.00010627,0.00011577,0.00012163,-0.00035677,-0.000
 08978,-0.00008989,0.00018612,0.00012813,0.00112946,0.00452528,-0.01504
 912,0.01138857,0.05479590,-0.20845615,0.11956505,-0.00126086,0.0006104
 4,0.00123333,0.00234316,-0.00265029,-0.00271697,-0.00013023,0.00059055
 ,0.00047829,0.00009655,-0.00006236,0.00008531,0.00004610,-0.00000276,-
 0.00001667,0.00024044,-0.00009378,0.00004694,-0.00001687,0.00005079,-0
 .00002278,0.00001122,-0.00007597,0.00004320,0.00001671,0.00001505,-0.0
 0001014,0.00002180,-0.00002447,-0.00003424,-0.00005180,0.00001270,-0.0
 0007803,0.00004902,-0.00006607,-0.00008437,0.00019130,-0.00007839,0.00
 003383,-0.00019592,0.00036661,-0.00021686,-0.00040275,-0.00003414,-0.0
 0088349,-0.00284957,0.01026463,-0.00660019,-0.06171022,0.22522381,0.00
 021552,0.00001494,-0.00002334,0.00024400,0.00015594,-0.00013777,-0.000
 04267,-0.00008411,0.00007386,0.00001402,0.00001825,0.00007236,0.000064
 49,0.00003860,-0.00003035,0.00005157,-0.00003685,0.00071799,0.00456944
 ,-0.01333061,0.00768825,-0.04137464,0.12061565,-0.13486500,0.00010372,
 -0.00036232,0.00044846,0.00146649,-0.00296552,-0.00099033,0.00038355,0
 .00065303,0.00100830,-0.00009949,0.00014049,0.00008018,0.00010308,-0.0
 0010137,0.00010740,-0.00025907,-0.00005243,-0.00009787,0.00001195,0.00
 001989,-0.00001282,0.00001830,-0.00003123,0.00001325,-0.00002652,0.000
 01465,0.00001325,0.00000060,0.00001085,0.00001510,-0.00000766,-0.00000
 123,-0.00003834,-0.00002804,0.00000777,0.00002483,-0.00008007,0.000019
 57,-0.00003554,-0.00003525,0.00025368,0.00012869,-0.00007558,-0.000158
 77,-0.00025126,-0.00495665,0.02124208,-0.01347914,0.04209490,-0.130853
 38,0.14454796,-0.00101700,-0.00032199,0.00008303,-0.00080974,0.0001125
 1,0.00016025,0.00015617,0.00012594,-0.00013531,0.00016688,0.00009160,-
 0.00012649,-0.00035619,-0.00028499,0.00005090,-0.00011828,-0.00064726,
 -0.00078852,-0.01559374,-0.01112800,0.00460236,-0.23240022,-0.11143876
 ,0.05862941,-0.00197065,0.00373304,0.00171447,0.00094573,-0.00068889,0
 .00000239,-0.00022305,0.00065991,-0.00036603,0.00046768,-0.00035474,0.
 00006897,-0.00011287,0.00014222,-0.00005711,0.00125551,-0.00022186,0.0
 0019227,-0.00002293,-0.00002027,0.00002095,-0.00002617,0.00006486,-0.0
 0001594,0.00007874,-0.00006571,-0.00002076,0.00006226,-0.00011663,-0.0
 0002547,0.00001229,0.00005495,0.00002392,0.00028053,-0.00003528,-0.000
 24065,0.00089959,-0.00052160,-0.00053965,0.00000132,-0.00002109,-0.000
 05796,-0.00001219,0.00014764,0.00014516,-0.01108347,-0.00653066,0.0048
 6770,0.00870257,0.00469791,-0.00242346,0.25093136,-0.00022900,-0.00116
 241,0.00041377,0.00008407,-0.00013576,-0.00012359,-0.00003576,-0.00004
 925,0.00006778,0.00009771,-0.00014037,-0.00006694,0.00001224,-0.000697
 84,-0.00032322,-0.00053276,0.00084828,0.00064854,0.01716004,0.01128816
 ,-0.00474125,-0.11305898,-0.11515370,0.03581279,0.00194612,-0.00205434
 ,-0.00183723,-0.00128382,0.00160435,0.00002136,0.00001390,-0.00004698,
 0.00023558,0.00010921,-0.00009112,0.00004656,-0.00018392,0.00025140,-0
 .00006397,0.00022396,-0.00219792,0.00143247,0.,-0.00000049,-0.00000227
 ,0.00000498,0.00001125,-0.00000390,-0.00003072,0.00002948,0.00000402,0
 .,0.00001267,0.00002071,-0.00000580,0.00002293,0.00000507,-0.00005053,
 0.00011048,0.00010015,-0.00024951,-0.00150679,-0.00109430,0.00005140,0
 .00009729,0.00025516,-0.00023607,-0.00001266,0.00006207,-0.00735196,-0
 .00599380,0.00373536,-0.02077113,-0.01195419,0.00481473,0.12323418,0.1
 2621140,0.00011470,0.00045159,-0.00036525,0.00030378,-0.00018647,0.000
 48343,0.00000521,-0.00006399,-0.00014472,0.00000222,-0.00005122,0.0002
 3568,0.00036469,-0.00049155,-0.00043782,0.00032304,0.00081368,0.000704
 59,0.01227832,0.01008633,-0.00583664,0.05858457,0.03479741,-0.06546397
 ,0.00230453,-0.00314000,-0.00143252,-0.00078189,0.00010230,0.00025054,
 -0.00038562,0.00013970,-0.00015173,-0.00004143,-0.00005456,-0.00009741
 ,-0.00011075,-0.00003354,-0.00015348,-0.00005133,0.00164187,-0.0002452
 7,-0.00003713,0.00001731,-0.00002165,0.00000962,-0.00001440,0.00002265
 ,0.00004225,-0.00001463,-0.00000036,-0.00008963,0.00007561,-0.00009831
 ,-0.00000890,0.00003244,-0.00002555,-0.00020409,0.00012647,0.00012711,
 -0.00067166,-0.00127779,-0.00019841,-0.00016484,0.00017193,0.00013427,
 -0.00006475,0.00020435,-0.00020106,-0.02172791,-0.01353077,0.00927571,
 0.01568202,0.00828590,-0.00503789,-0.06663896,-0.03853018,0.06844070,0
 .00005276,0.00006321,-0.00001030,0.00004681,-0.00019386,-0.00017955,0.
 00000535,0.00004671,0.00005908,-0.00014523,0.00012931,-0.00000864,-0.0
 0015895,-0.00046936,-0.00164437,-0.00296228,-0.00297518,0.00340200,-0.
 01148345,-0.01226660,-0.01870767,0.00109221,-0.00028188,-0.00126352,-0
 .09682142,-0.06136624,-0.08487453,-0.00044653,0.00042288,-0.00084722,0
 .00026566,0.00173680,-0.00018454,-0.00000420,0.00001933,-0.00000878,0.
 00000494,-0.00001625,0.00004188,-0.00002276,-0.00003136,-0.00002028,0.
 00004050,-0.00001277,0.00001370,-0.00000109,0.00001106,-0.00000160,-0.
 00000176,-0.00000316,0.00000677,0.00001729,-0.00001496,-0.00000700,0.0
 0004672,-0.00005411,0.00004328,-0.00031530,-0.00045651,0.00016251,-0.0
 0002716,0.00007110,0.00003093,0.00018551,-0.00012228,-0.00012314,0.000
 19263,0.00013822,0.00016529,-0.00038029,0.00004501,0.00080383,-0.00015
 418,0.00014477,-0.00011083,0.00042498,0.00018056,0.00008523,0.10522592
 ,0.00003198,0.00020001,0.00001773,0.00006511,-0.00042540,-0.00001023,0
 .00008111,0.00006778,0.00003294,0.00001761,0.00022576,-0.00016238,-0.0
 0067861,0.00020909,-0.00104367,-0.00199246,-0.00205837,0.00224924,-0.0
 0705417,-0.01073318,-0.01416792,0.00130890,0.00042943,-0.00036069,-0.0
 6109217,-0.12364410,-0.10812935,-0.00132113,0.00016727,-0.00124111,0.0
 0110699,0.00067425,0.00072100,0.00004975,0.00000582,-0.00005025,-0.000
 02117,-0.00001023,0.00005101,0.00002872,-0.00002233,-0.00001569,0.0000
 1713,-0.00002628,0.00005116,0.00000361,0.00004390,-0.00001124,-0.00001
 186,-0.00002887,-0.00001057,0.00000818,0.00001646,0.00001439,0.0000368
 0,0.00000059,0.00007674,-0.00020278,-0.00030638,0.00013727,-0.00010063
 ,-0.00008604,0.00005523,-0.00003461,0.00014950,0.00046149,-0.00029589,
 0.00012394,-0.00017531,-0.00019430,0.00054240,0.00031147,-0.00003942,-
 0.00004332,0.00024409,0.00023699,-0.00011404,0.00015409,0.06928130,0.1
 3173242,-0.00001849,-0.00010127,0.00001830,-0.00001896,0.00029840,0.00
 008748,-0.00003533,-0.00003420,0.00000052,-0.00006545,-0.00011596,-0.0
 0001041,0.00039429,0.00042707,0.00080500,0.00144234,0.00122954,-0.0009
 2513,0.00589758,0.00611627,0.00952810,0.00003797,0.00048810,0.00101341
 ,-0.08731647,-0.11192914,-0.19880752,-0.00091288,-0.00062684,0.0001096
 2,0.00068372,0.00253149,-0.00250685,-0.00002635,-0.00000756,0.00003098
 ,-0.00000163,0.00000828,-0.00001144,-0.00000603,0.00000326,0.00000005,
 -0.00000322,-0.00000420,0.00000362,0.00000832,-0.00002034,0.00001109,-
 0.00000143,0.00001046,-0.00000603,-0.00000771,0.00001884,-0.00000605,-
 0.00001429,-0.00001068,0.00000233,0.00012756,0.00023917,-0.00004388,-0
 .00008351,-0.00012286,0.00003214,-0.00002862,0.00033307,0.00013784,0.0
 0018515,0.00002726,-0.00000243,0.00010795,0.00006768,-0.00005441,-0.00
 028443,-0.00019372,-0.00005143,-0.00007646,0.00007845,0.00006138,0.092
 82254,0.11803453,0.21403146,-0.00004822,0.00005018,-0.00006726,0.00006
 773,-0.00007756,0.00004172,-0.00006351,-0.00005358,0.00000367,-0.00005
 141,0.00005421,0.00008643,0.00035330,-0.00038367,-0.00026420,0.0003794
 3,0.00163824,0.00120947,-0.01765461,0.01512454,0.00961219,-0.00350586,
 -0.00377095,0.00121338,-0.17645909,0.10833857,0.07884810,0.00096625,0.
 00067265,-0.00191917,0.00032843,0.00009251,0.00075249,0.00005384,-0.00
 003201,0.00000002,-0.00001485,0.00001675,-0.00001783,0.00008019,0.0000
 5143,-0.00000289,-0.00000153,0.00000485,-0.00001064,0.00002224,-0.0000
 0870,0.00000430,0.00003821,-0.00003272,0.00000662,0.00002748,-0.000083
 79,-0.00003283,0.00002725,-0.00000171,-0.00002719,-0.00002855,-0.00005
 805,0.00000256,0.00021085,0.00020421,-0.00008659,-0.00006497,-0.000816
 28,-0.00094903,0.00009692,-0.00009758,0.00007965,0.00003163,0.00000091
 ,0.00013876,0.00029434,-0.00034263,-0.00019467,-0.00078271,0.00084411,
 0.00115332,0.01082308,-0.00846426,-0.00556530,0.19244133,0.00000285,0.
 00004467,-0.00002978,-0.00020748,-0.00010818,-0.00005814,0.00003201,0.
 00006044,-0.00000721,-0.00002971,0.00005531,0.00000095,0.00009026,0.00
 008856,0.00012594,-0.00003866,0.00094308,0.00088628,-0.01389954,0.0094
 3251,0.00824056,-0.00224150,-0.00165486,0.00110551,0.11165040,-0.14030
 572,-0.06843285,0.00005621,0.00146941,-0.00038713,-0.00033817,0.000149
 10,-0.00005034,0.00001918,0.00001188,-0.00001212,-0.00000483,-0.000009
 26,0.00000788,0.00001684,0.00001205,-0.00000623,0.00000726,-0.00001270
 ,0.,-0.00000670,0.00002553,-0.00000788,0.00002252,-0.00001103,-0.00000
 892,0.00003874,-0.00000863,-0.00002641,0.00001283,0.00000667,-0.000000
 36,0.00003170,0.00003206,-0.00000988,-0.00002334,0.00002051,0.00002914
 ,-0.00002588,0.00001370,-0.00009364,-0.00009374,-0.00003911,-0.0000657
 8,-0.00007953,-0.00007674,0.00015628,-0.00032878,0.00013684,-0.0001329
 2,-0.00074935,0.00071352,0.00052301,0.01205362,-0.00974717,-0.00521524
 ,-0.11788850,0.14976855,-0.00000360,-0.00008034,0.00001520,0.00017612,
 0.00014401,-0.00011132,0.00002925,-0.00003908,-0.00005682,0.00003157,-
 0.00006851,0.00004574,0.00003463,0.00005135,0.00000294,-0.00121953,0.0
 0015044,-0.00010556,0.00840392,-0.00688404,-0.00746283,0.00212945,0.00
 247185,-0.00059332,0.07862381,-0.06708707,-0.09494351,0.00074991,-0.00
 053495,0.00115625,-0.00110119,-0.00003615,-0.00019103,-0.00004245,0.00
 001289,0.00001624,0.00002270,-0.00001198,-0.00001287,-0.00006648,-0.00
 002382,0.00001559,0.00000138,0.00002083,-0.00002243,-0.00003246,-0.000
 01967,0.00002312,-0.00002302,0.00007594,0.00003131,-0.00000500,0.00002
 872,0.00002367,-0.00003159,-0.00000100,-0.00002077,-0.00000926,0.00004
 545,-0.00000569,-0.00007411,-0.00001990,0.00000968,-0.00030848,-0.0001
 6175,0.00043574,-0.00017384,-0.00004350,0.00005889,-0.00023936,0.00010
 754,0.00036526,-0.00011946,-0.00019157,0.00017816,0.00080034,-0.000618
 86,-0.00013285,0.01744206,-0.01292899,-0.00898586,-0.08860653,0.072893
 93,0.09935756,0.00002111,-0.00002777,-0.00002662,0.00076159,-0.0001538
 0,0.00078648,-0.00023339,-0.00021136,0.00006955,0.00011777,0.00007822,
 0.00013737,0.00010355,0.00022847,0.00017413,0.00080046,-0.00019617,0.0
 0053457,0.00810153,-0.01439375,0.01655696,0.00074789,-0.00031648,0.000
 02298,-0.08452031,0.06396486,-0.06972057,-0.00398581,-0.00449384,0.001
 32266,0.00080130,0.00072012,-0.00061363,-0.00004092,0.00000970,0.00002
 040,-0.00000581,0.00000045,0.00000939,-0.00002717,0.00000620,0.0000092
 1,-0.00000123,0.00000577,0.00000711,0.00010287,-0.00006404,0.00002137,
 0.00002224,-0.00002353,-0.00002298,-0.00000360,-0.00002350,-0.00001981
 ,-0.00002061,0.00002101,-0.00003639,0.00004447,0.00007053,-0.00002495,
 0.00001385,-0.00001055,-0.00000109,0.00005060,0.00021395,-0.00021936,-
 0.00034017,-0.00015942,-0.00015075,-0.00008054,0.00000152,0.00005024,-
 0.00045449,0.00009751,0.00037298,0.00014360,0.00005750,-0.00027459,-0.
 00549973,0.00922931,-0.00724085,-0.00756719,0.01192129,-0.01638877,0.0
 9094811,-0.00005177,-0.00027888,0.00003635,0.00069238,0.00057770,0.000
 77284,-0.00020170,-0.00019309,-0.00000009,0.00021826,0.00012054,0.0001
 0174,-0.00013870,0.00005726,-0.00021380,0.00096143,0.00064833,0.000472
 69,0.00834778,-0.01281463,0.01177792,0.00074190,-0.00008864,-0.0006807
 4,0.06175618,-0.15078028,0.11504602,-0.00388608,-0.00301752,0.00169532
 ,-0.00000066,0.00059769,-0.00106035,-0.00009942,-0.00001657,0.00007912
 ,0.00001702,0.00000110,-0.00004073,-0.00004756,0.00002820,0.00000605,-
 0.00000667,0.00003480,-0.00001715,0.00004953,-0.00008352,0.00004288,0.
 00000847,0.00003649,-0.00000069,-0.00000071,-0.00000926,-0.00000760,-0
 .00008418,0.00003576,-0.00007854,-0.00001556,0.00000559,-0.00000964,0.
 00007916,0.00007353,-0.00002896,0.00018069,-0.00026904,-0.00009507,-0.
 00077650,-0.00004352,-0.00030765,0.00001294,0.00006841,-0.00015526,0.0
 0001113,0.00068494,-0.00015348,-0.00015466,0.00011045,-0.00023488,-0.0
 0607935,0.01265710,-0.01152985,0.00501881,-0.01101100,0.01274821,-0.06
 655220,0.16286806,-0.00002244,0.00015179,-0.00000451,-0.00056267,-0.00
 055115,-0.00027040,0.00020668,0.00015285,-0.00004457,-0.00003005,-0.00
 009977,-0.00004076,0.00028461,-0.00003197,0.00002261,-0.00102826,-0.00
 085730,0.00026041,-0.00578850,0.00552851,-0.00830652,-0.00070892,0.000
 29129,-0.00012198,-0.06747990,0.11539505,-0.17456541,0.00077078,0.0010
 9678,-0.00093234,0.00068034,0.00144340,-0.00016630,0.00006974,0.000004
 83,-0.00004428,-0.00002385,-0.00000390,0.00002468,0.00004595,-0.000004
 55,0.00000665,0.00000797,-0.00002618,0.00002031,-0.00004078,0.00007611
 ,-0.00000825,-0.00000514,-0.00001296,0.00001217,0.00000065,-0.00000515
 ,0.00001547,0.00004689,0.00000999,0.00004576,0.00002086,-0.00000187,0.
 00000474,0.00001386,0.00002510,-0.00003134,0.00027887,0.00006501,-0.00
 000097,0.00014103,-0.00009011,0.00053508,0.00001114,0.00011771,0.00005
 490,0.00081113,-0.00043035,-0.00006696,0.00015070,-0.00034887,0.000308
 83,-0.00708714,0.01569500,-0.01446189,0.00459147,-0.00942463,0.0109095
 1,0.07464498,-0.12816464,0.18684536\\0.00000623,-0.00002057,-0.0000053
 3,0.00002134,0.00000367,0.00002040,-0.00000422,0.00001384,0.00000556,-
 0.00000671,-0.00001990,0.00000465,-0.00001131,-0.00000317,-0.00000141,
 -0.00000010,0.00001863,-0.00000680,0.00001779,0.00001232,-0.00000067,0
 .00002322,0.00001231,-0.00000119,-0.00000967,-0.00001958,0.00001317,-0
 .00000100,0.00001024,0.00001489,-0.00002491,-0.00000269,-0.00002469,0.
 00000134,-0.00000347,0.00000237,-0.00000406,-0.00000025,-0.00000177,0.
 00000561,-0.00000522,0.00000920,-0.00000557,0.00000277,-0.00000471,-0.
 00000061,-0.00000275,-0.00000509,0.00000006,-0.00000012,-0.00000975,-0
 .00000222,0.00000504,0.00000407,-0.00000342,0.00000163,-0.00000082,0.0
 0000265,0.00000065,0.00000106,0.00000636,-0.00000191,-0.00000373,-0.00
 000250,0.00000011,0.00000515,-0.00000362,-0.00000085,-0.00000063,-0.00
 000355,0.00000082,-0.00000664,0.00000181,-0.00000071,-0.00000231,0.000
 00154,0.00000399,-0.00000358,-0.00000218,-0.00000267,0.00000082,-0.000
 00112,-0.00000305,0.00000016,-0.00000120,0.00000088,-0.00000238\\\@


 THE ONLY EXISTING THINGS ARE ATOMS AND EMPTY SPACE;
 ALL ELSE IS MERE OPINION. -- DEMOCRITUS OF ABDERA D. 370 B.C.
 EXPERIMENTS ARE THE ONLY MEANS OF KNOWLEDGE AT OUR DISPOSAL
 THE REST IS POETRY, IMAGINATION. -- MAX PLANCK
 Job cpu time:       0 days  4 hours 15 minutes 14.7 seconds.
 Elapsed time:       0 days  0 hours 10 minutes 49.0 seconds.
 File lengths (MBytes):  RWF=    645 Int=      0 D2E=      0 Chk=     17 Scr=      1
 Normal termination of Gaussian 16 at Mon Oct 14 00:23:21 2019.
real 2056.43
user 48358.26
sys 171.06
Machine:
brown-a540
brown-a540
brown-a540
brown-a540
brown-a540
brown-a540
brown-a540
brown-a540
brown-a540
brown-a540
brown-a540
brown-a540
brown-a540
brown-a540
brown-a540
brown-a540
brown-a540
brown-a540
brown-a540
brown-a540
brown-a540
brown-a540
brown-a540
brown-a540
