 Entering Gaussian System, Link 0=/apps/cent7/gaussian/g16-A.03/g16-haswell/g16/g16
 Initial command:
 /apps/cent7/gaussian/g16-A.03/g16-haswell/g16/l1.exe "/scratch/brown/finej/gaussian/Gau-170684.inp" -scrdir="/scratch/brown/finej/gaussian/"
 Entering Link 1 = /apps/cent7/gaussian/g16-A.03/g16-haswell/g16/l1.exe PID=    170685.
  
 Copyright (c) 1988,1990,1992,1993,1995,1998,2003,2009,2016,
            Gaussian, Inc.  All Rights Reserved.
  
 This is part of the Gaussian(R) 16 program.  It is based on
 the Gaussian(R) 09 system (copyright 2009, Gaussian, Inc.),
 the Gaussian(R) 03 system (copyright 2003, Gaussian, Inc.),
 the Gaussian(R) 98 system (copyright 1998, Gaussian, Inc.),
 the Gaussian(R) 94 system (copyright 1995, Gaussian, Inc.),
 the Gaussian 92(TM) system (copyright 1992, Gaussian, Inc.),
 the Gaussian 90(TM) system (copyright 1990, Gaussian, Inc.),
 the Gaussian 88(TM) system (copyright 1988, Gaussian, Inc.),
 the Gaussian 86(TM) system (copyright 1986, Carnegie Mellon
 University), and the Gaussian 82(TM) system (copyright 1983,
 Carnegie Mellon University). Gaussian is a federally registered
 trademark of Gaussian, Inc.
  
 This software contains proprietary and confidential information,
 including trade secrets, belonging to Gaussian, Inc.
  
 This software is provided under written license and may be
 used, copied, transmitted, or stored only in accord with that
 written license.
  
 The following legend is applicable only to US Government
 contracts under FAR:
  
                    RESTRICTED RIGHTS LEGEND
  
 Use, reproduction and disclosure by the US Government is
 subject to restrictions as set forth in subparagraphs (a)
 and (c) of the Commercial Computer Software - Restricted
 Rights clause in FAR 52.227-19.
  
 Gaussian, Inc.
 340 Quinnipiac St., Bldg. 40, Wallingford CT 06492
  
  
 ---------------------------------------------------------------
 Warning -- This program may not be used in any manner that
 competes with the business of Gaussian, Inc. or will provide
 assistance to any competitor of Gaussian, Inc.  The licensee
 of this program is prohibited from giving any competitor of
 Gaussian, Inc. access to this program.  By using this program,
 the user acknowledges that Gaussian, Inc. is engaged in the
 business of creating and licensing software in the field of
 computational chemistry and represents and warrants to the
 licensee that it is not a competitor of Gaussian, Inc. and that
 it will not use this program in any manner prohibited above.
 ---------------------------------------------------------------
  

 Cite this work as:
 Gaussian 16, Revision A.03,
 M. J. Frisch, G. W. Trucks, H. B. Schlegel, G. E. Scuseria, 
 M. A. Robb, J. R. Cheeseman, G. Scalmani, V. Barone, 
 G. A. Petersson, H. Nakatsuji, X. Li, M. Caricato, A. V. Marenich, 
 J. Bloino, B. G. Janesko, R. Gomperts, B. Mennucci, H. P. Hratchian, 
 J. V. Ortiz, A. F. Izmaylov, J. L. Sonnenberg, D. Williams-Young, 
 F. Ding, F. Lipparini, F. Egidi, J. Goings, B. Peng, A. Petrone, 
 T. Henderson, D. Ranasinghe, V. G. Zakrzewski, J. Gao, N. Rega, 
 G. Zheng, W. Liang, M. Hada, M. Ehara, K. Toyota, R. Fukuda, 
 J. Hasegawa, M. Ishida, T. Nakajima, Y. Honda, O. Kitao, H. Nakai, 
 T. Vreven, K. Throssell, J. A. Montgomery, Jr., J. E. Peralta, 
 F. Ogliaro, M. J. Bearpark, J. J. Heyd, E. N. Brothers, K. N. Kudin, 
 V. N. Staroverov, T. A. Keith, R. Kobayashi, J. Normand, 
 K. Raghavachari, A. P. Rendell, J. C. Burant, S. S. Iyengar, 
 J. Tomasi, M. Cossi, J. M. Millam, M. Klene, C. Adamo, R. Cammi, 
 J. W. Ochterski, R. L. Martin, K. Morokuma, O. Farkas, 
 J. B. Foresman, and D. J. Fox, Gaussian, Inc., Wallingford CT, 2016.
 
 ******************************************
 Gaussian 16:  ES64L-G16RevA.03 25-Dec-2016
                13-Oct-2019 
 ******************************************
 %chk=7.chk
 %nprocshared=24
 Will use up to   24 processors via shared memory.
 %mem=80GB
 -------------------------------------------------------------------
 #P opt freq m062x/6-311++g(d,p) geom=connectivity temperature=0.001
 -------------------------------------------------------------------
 1/18=20,19=15,26=3,38=1,57=2,112=-1000/1,3;
 2/9=110,12=2,17=6,18=5,40=1/2;
 3/5=4,6=6,7=1111,11=2,25=1,30=1,71=1,74=-55/1,2,3;
 4//1;
 5/5=2,38=5/2;
 6/7=2,8=2,9=2,10=2,28=1/1;
 7//1,2,3,16;
 1/18=20,19=15,26=3/3(2);
 2/9=110/2;
 99//99;
 2/9=110/2;
 3/5=4,6=6,7=1111,11=2,25=1,30=1,71=1,74=-55/1,2,3;
 4/5=5,16=3,69=1/1;
 5/5=2,38=5/2;
 7//1,2,3,16;
 1/18=20,19=15,26=3/3(-5);
 2/9=110/2;
 6/7=2,8=2,9=2,10=2,19=2,28=1/1;
 99/9=1/99;
 Leave Link    1 at Sun Oct 13 23:50:23 2019, MaxMem= 10737418240 cpu:               1.5 elap:               0.1
 (Enter /apps/cent7/gaussian/g16-A.03/g16-haswell/g16/l101.exe)
 -------------------
 Title Card Required
 -------------------
 Symbolic Z-matrix:
 Charge =  0 Multiplicity = 1
 C                     1.4992   -0.0165   -0.0225 
 O                     0.0612   -0.0286    0.0532 
 C                    -0.4212    0.6125    1.1283 
 N                    -0.6533    1.8742    1.1162 
 C                    -1.1114    2.2168    2.2889 
 C                    -1.4857    3.4913    2.7503 
 C                    -1.9067    3.6229    4.0896 
 C                    -1.9391    2.4963    4.9396 
 C                    -1.5675    1.2232    4.4583 
 C                    -1.167     1.0907    3.1085 
 C                    -0.7612    0.0392    2.3141 
 C                    -0.7193   -1.2833    2.5658 
 N                    -1.128    -1.8356    3.6954 
 O                    -1.0569   -3.1234    3.8897 
 H                     1.9161   -0.013     0.9846 
 H                     1.8425   -0.9036   -0.5547 
 H                     1.8275    0.8763   -0.5547 
 H                    -1.4505    4.3553    2.0867 
 H                    -2.2082    4.5991    4.4693 
 H                    -2.2538    2.6106    5.9769 
 H                    -1.5896    0.3561    5.1185 
 H                    -0.3269   -1.9539    1.8014 
 H                    -1.5057   -1.2566    4.4317 
 H                    -1.0468   -3.3048    4.8323 
 
 ITRead=  0  0  0  0  0  0  0  0  0  0  0  0  0  0  0  0  0  0  0  0
 ITRead=  0  0  0  0
 MicOpt= -1 -1 -1 -1 -1 -1 -1 -1 -1 -1 -1 -1 -1 -1 -1 -1 -1 -1 -1 -1
 MicOpt= -1 -1 -1 -1
 NAtoms=     24 NQM=       24 NQMF=       0 NMMI=      0 NMMIF=      0
                NMic=       0 NMicF=      0.
                    Isotopes and Nuclear Properties:
 (Nuclear quadrupole moments (NQMom) in fm**2, nuclear magnetic moments (NMagM)
  in nuclear magnetons)

  Atom         1           2           3           4           5           6           7           8           9          10
 IAtWgt=          12          16          12          14          12          12          12          12          12          12
 AtmWgt=  12.0000000  15.9949146  12.0000000  14.0030740  12.0000000  12.0000000  12.0000000  12.0000000  12.0000000  12.0000000
 NucSpn=           0           0           0           2           0           0           0           0           0           0
 AtZEff=  -0.0000000  -0.0000000  -0.0000000  -0.0000000  -0.0000000  -0.0000000  -0.0000000  -0.0000000  -0.0000000  -0.0000000
 NQMom=    0.0000000   0.0000000   0.0000000   2.0440000   0.0000000   0.0000000   0.0000000   0.0000000   0.0000000   0.0000000
 NMagM=    0.0000000   0.0000000   0.0000000   0.4037610   0.0000000   0.0000000   0.0000000   0.0000000   0.0000000   0.0000000
 AtZNuc=   6.0000000   8.0000000   6.0000000   7.0000000   6.0000000   6.0000000   6.0000000   6.0000000   6.0000000   6.0000000

  Atom        11          12          13          14          15          16          17          18          19          20
 IAtWgt=          12          12          14          16           1           1           1           1           1           1
 AtmWgt=  12.0000000  12.0000000  14.0030740  15.9949146   1.0078250   1.0078250   1.0078250   1.0078250   1.0078250   1.0078250
 NucSpn=           0           0           2           0           1           1           1           1           1           1
 AtZEff=  -0.0000000  -0.0000000  -0.0000000  -0.0000000  -0.0000000  -0.0000000  -0.0000000  -0.0000000  -0.0000000  -0.0000000
 NQMom=    0.0000000   0.0000000   2.0440000   0.0000000   0.0000000   0.0000000   0.0000000   0.0000000   0.0000000   0.0000000
 NMagM=    0.0000000   0.0000000   0.4037610   0.0000000   2.7928460   2.7928460   2.7928460   2.7928460   2.7928460   2.7928460
 AtZNuc=   6.0000000   6.0000000   7.0000000   8.0000000   1.0000000   1.0000000   1.0000000   1.0000000   1.0000000   1.0000000

  Atom        21          22          23          24
 IAtWgt=           1           1           1           1
 AtmWgt=   1.0078250   1.0078250   1.0078250   1.0078250
 NucSpn=           1           1           1           1
 AtZEff=  -0.0000000  -0.0000000  -0.0000000  -0.0000000
 NQMom=    0.0000000   0.0000000   0.0000000   0.0000000
 NMagM=    2.7928460   2.7928460   2.7928460   2.7928460
 AtZNuc=   1.0000000   1.0000000   1.0000000   1.0000000
 Leave Link  101 at Sun Oct 13 23:50:23 2019, MaxMem= 10737418240 cpu:               8.8 elap:               0.4
 (Enter /apps/cent7/gaussian/g16-A.03/g16-haswell/g16/l103.exe)

 GradGradGradGradGradGradGradGradGradGradGradGradGradGradGradGradGradGrad
 Berny optimization.
 Initialization pass.
                           ----------------------------
                           !    Initial Parameters    !
                           ! (Angstroms and Degrees)  !
 --------------------------                            --------------------------
 ! Name  Definition              Value          Derivative Info.                !
 --------------------------------------------------------------------------------
 ! R1    R(1,2)                  1.44           estimate D2E/DX2                !
 ! R2    R(1,15)                 1.09           estimate D2E/DX2                !
 ! R3    R(1,16)                 1.09           estimate D2E/DX2                !
 ! R4    R(1,17)                 1.09           estimate D2E/DX2                !
 ! R5    R(2,3)                  1.3415         estimate D2E/DX2                !
 ! R6    R(3,4)                  1.2829         estimate D2E/DX2                !
 ! R7    R(3,11)                 1.3603         estimate D2E/DX2                !
 ! R8    R(4,5)                  1.3048         estimate D2E/DX2                !
 ! R9    R(5,6)                  1.4062         estimate D2E/DX2                !
 ! R10   R(5,10)                 1.3939         estimate D2E/DX2                !
 ! R11   R(6,7)                  1.4101         estimate D2E/DX2                !
 ! R12   R(6,18)                 1.09           estimate D2E/DX2                !
 ! R13   R(7,8)                  1.4117         estimate D2E/DX2                !
 ! R14   R(7,19)                 1.09           estimate D2E/DX2                !
 ! R15   R(8,9)                  1.4109         estimate D2E/DX2                !
 ! R16   R(8,20)                 1.09           estimate D2E/DX2                !
 ! R17   R(9,10)                 1.4142         estimate D2E/DX2                !
 ! R18   R(9,21)                 1.0901         estimate D2E/DX2                !
 ! R19   R(10,11)                1.3789         estimate D2E/DX2                !
 ! R20   R(11,12)                1.3469         estimate D2E/DX2                !
 ! R21   R(12,13)                1.3221         estimate D2E/DX2                !
 ! R22   R(12,22)                1.0899         estimate D2E/DX2                !
 ! R23   R(13,14)                1.3043         estimate D2E/DX2                !
 ! R24   R(13,23)                1.01           estimate D2E/DX2                !
 ! R25   R(14,24)                0.9599         estimate D2E/DX2                !
 ! A1    A(2,1,15)             109.475          estimate D2E/DX2                !
 ! A2    A(2,1,16)             109.4719         estimate D2E/DX2                !
 ! A3    A(2,1,17)             109.47           estimate D2E/DX2                !
 ! A4    A(15,1,16)            109.4684         estimate D2E/DX2                !
 ! A5    A(15,1,17)            109.469          estimate D2E/DX2                !
 ! A6    A(16,1,17)            109.4731         estimate D2E/DX2                !
 ! A7    A(1,2,3)              113.4037         estimate D2E/DX2                !
 ! A8    A(2,3,4)              121.8365         estimate D2E/DX2                !
 ! A9    A(2,3,11)             125.951          estimate D2E/DX2                !
 ! A10   A(4,3,11)             112.1779         estimate D2E/DX2                !
 ! A11   A(3,4,5)              108.2563         estimate D2E/DX2                !
 ! A12   A(4,5,6)              128.7811         estimate D2E/DX2                !
 ! A13   A(4,5,10)             109.2899         estimate D2E/DX2                !
 ! A14   A(6,5,10)             121.9161         estimate D2E/DX2                !
 ! A15   A(5,6,7)              118.4062         estimate D2E/DX2                !
 ! A16   A(5,6,18)             120.6687         estimate D2E/DX2                !
 ! A17   A(7,6,18)             120.9251         estimate D2E/DX2                !
 ! A18   A(6,7,8)              120.2836         estimate D2E/DX2                !
 ! A19   A(6,7,19)             119.805          estimate D2E/DX2                !
 ! A20   A(8,7,19)             119.9114         estimate D2E/DX2                !
 ! A21   A(7,8,9)              120.5765         estimate D2E/DX2                !
 ! A22   A(7,8,20)             119.7329         estimate D2E/DX2                !
 ! A23   A(9,8,20)             119.6905         estimate D2E/DX2                !
 ! A24   A(8,9,10)             118.9958         estimate D2E/DX2                !
 ! A25   A(8,9,21)             120.3872         estimate D2E/DX2                !
 ! A26   A(10,9,21)            120.617          estimate D2E/DX2                !
 ! A27   A(5,10,9)             119.7903         estimate D2E/DX2                !
 ! A28   A(5,10,11)            105.4009         estimate D2E/DX2                !
 ! A29   A(9,10,11)            134.8028         estimate D2E/DX2                !
 ! A30   A(3,11,10)            104.7369         estimate D2E/DX2                !
 ! A31   A(3,11,12)            124.677          estimate D2E/DX2                !
 ! A32   A(10,11,12)           130.56           estimate D2E/DX2                !
 ! A33   A(11,12,13)           124.0703         estimate D2E/DX2                !
 ! A34   A(11,12,22)           118.9638         estimate D2E/DX2                !
 ! A35   A(13,12,22)           116.9659         estimate D2E/DX2                !
 ! A36   A(12,13,14)           121.5245         estimate D2E/DX2                !
 ! A37   A(12,13,23)           119.933          estimate D2E/DX2                !
 ! A38   A(14,13,23)           118.5425         estimate D2E/DX2                !
 ! A39   A(13,14,24)           109.4767         estimate D2E/DX2                !
 ! D1    D(15,1,2,3)            31.6032         estimate D2E/DX2                !
 ! D2    D(16,1,2,3)           151.6025         estimate D2E/DX2                !
 ! D3    D(17,1,2,3)           -88.3956         estimate D2E/DX2                !
 ! D4    D(1,2,3,4)             87.2338         estimate D2E/DX2                !
 ! D5    D(1,2,3,11)           -95.0782         estimate D2E/DX2                !
 ! D6    D(2,3,4,5)           -179.943          estimate D2E/DX2                !
 ! D7    D(11,3,4,5)             2.078          estimate D2E/DX2                !
 ! D8    D(2,3,11,10)          178.5056         estimate D2E/DX2                !
 ! D9    D(2,3,11,12)           -3.186          estimate D2E/DX2                !
 ! D10   D(4,3,11,10)           -3.6154         estimate D2E/DX2                !
 ! D11   D(4,3,11,12)          174.693          estimate D2E/DX2                !
 ! D12   D(3,4,5,6)            179.0599         estimate D2E/DX2                !
 ! D13   D(3,4,5,10)             0.3644         estimate D2E/DX2                !
 ! D14   D(4,5,6,7)           -177.497          estimate D2E/DX2                !
 ! D15   D(4,5,6,18)             2.5079         estimate D2E/DX2                !
 ! D16   D(10,5,6,7)             1.0525         estimate D2E/DX2                !
 ! D17   D(10,5,6,18)         -178.9427         estimate D2E/DX2                !
 ! D18   D(4,5,10,9)           176.6861         estimate D2E/DX2                !
 ! D19   D(4,5,10,11)           -2.545          estimate D2E/DX2                !
 ! D20   D(6,5,10,9)            -2.1159         estimate D2E/DX2                !
 ! D21   D(6,5,10,11)          178.653          estimate D2E/DX2                !
 ! D22   D(5,6,7,8)              0.4029         estimate D2E/DX2                !
 ! D23   D(5,6,7,19)          -179.5984         estimate D2E/DX2                !
 ! D24   D(18,6,7,8)          -179.602          estimate D2E/DX2                !
 ! D25   D(18,6,7,19)            0.3967         estimate D2E/DX2                !
 ! D26   D(6,7,8,9)             -0.7796         estimate D2E/DX2                !
 ! D27   D(6,7,8,20)           179.2141         estimate D2E/DX2                !
 ! D28   D(19,7,8,9)           179.2217         estimate D2E/DX2                !
 ! D29   D(19,7,8,20)           -0.7846         estimate D2E/DX2                !
 ! D30   D(7,8,9,10)            -0.2699         estimate D2E/DX2                !
 ! D31   D(7,8,9,21)           179.7384         estimate D2E/DX2                !
 ! D32   D(20,8,9,10)          179.7365         estimate D2E/DX2                !
 ! D33   D(20,8,9,21)           -0.2553         estimate D2E/DX2                !
 ! D34   D(8,9,10,5)             1.6891         estimate D2E/DX2                !
 ! D35   D(8,9,10,11)         -179.3556         estimate D2E/DX2                !
 ! D36   D(21,9,10,5)         -178.3191         estimate D2E/DX2                !
 ! D37   D(21,9,10,11)           0.6361         estimate D2E/DX2                !
 ! D38   D(5,10,11,3)            3.5589         estimate D2E/DX2                !
 ! D39   D(5,10,11,12)        -174.61           estimate D2E/DX2                !
 ! D40   D(9,10,11,3)         -175.5006         estimate D2E/DX2                !
 ! D41   D(9,10,11,12)           6.3305         estimate D2E/DX2                !
 ! D42   D(3,11,12,13)        -175.7739         estimate D2E/DX2                !
 ! D43   D(3,11,12,22)           4.2293         estimate D2E/DX2                !
 ! D44   D(10,11,12,13)          2.0725         estimate D2E/DX2                !
 ! D45   D(10,11,12,22)       -177.9242         estimate D2E/DX2                !
 ! D46   D(11,12,13,14)       -179.5661         estimate D2E/DX2                !
 ! D47   D(11,12,13,23)          0.4331         estimate D2E/DX2                !
 ! D48   D(22,12,13,14)          0.4308         estimate D2E/DX2                !
 ! D49   D(22,12,13,23)       -179.5701         estimate D2E/DX2                !
 ! D50   D(12,13,14,24)        157.096          estimate D2E/DX2                !
 ! D51   D(23,13,14,24)        -22.9032         estimate D2E/DX2                !
 --------------------------------------------------------------------------------
 Trust Radius=3.00D-01 FncErr=1.00D-07 GrdErr=1.00D-06 EigMax=2.50D+02 EigMin=1.00D-04
 Number of steps in this run=    125 maximum allowed number of steps=    144.
 GradGradGradGradGradGradGradGradGradGradGradGradGradGradGradGradGradGrad

 Leave Link  103 at Sun Oct 13 23:50:23 2019, MaxMem= 10737418240 cpu:               0.3 elap:               0.0
 (Enter /apps/cent7/gaussian/g16-A.03/g16-haswell/g16/l202.exe)
                          Input orientation:                          
 ---------------------------------------------------------------------
 Center     Atomic      Atomic             Coordinates (Angstroms)
 Number     Number       Type             X           Y           Z
 ---------------------------------------------------------------------
      1          6           0        1.499200   -0.016500   -0.022500
      2          8           0        0.061200   -0.028600    0.053200
      3          6           0       -0.421200    0.612500    1.128300
      4          7           0       -0.653300    1.874200    1.116200
      5          6           0       -1.111400    2.216800    2.288900
      6          6           0       -1.485700    3.491300    2.750300
      7          6           0       -1.906700    3.622900    4.089600
      8          6           0       -1.939100    2.496300    4.939600
      9          6           0       -1.567500    1.223200    4.458300
     10          6           0       -1.167000    1.090700    3.108500
     11          6           0       -0.761200    0.039200    2.314100
     12          6           0       -0.719300   -1.283300    2.565800
     13          7           0       -1.128000   -1.835600    3.695400
     14          8           0       -1.056900   -3.123400    3.889700
     15          1           0        1.916100   -0.013000    0.984600
     16          1           0        1.842500   -0.903600   -0.554700
     17          1           0        1.827500    0.876300   -0.554700
     18          1           0       -1.450500    4.355300    2.086700
     19          1           0       -2.208200    4.599100    4.469300
     20          1           0       -2.253800    2.610600    5.976900
     21          1           0       -1.589600    0.356100    5.118500
     22          1           0       -0.326900   -1.953900    1.801400
     23          1           0       -1.505700   -1.256600    4.431700
     24          1           0       -1.046800   -3.304800    4.832300
 ---------------------------------------------------------------------
                    Distance matrix (angstroms):
                    1          2          3          4          5
     1  C    0.000000
     2  O    1.440042   0.000000
     3  C    2.325493   1.341476   0.000000
     4  N    3.082960   2.293715   1.282928   0.000000
     5  C    4.140704   3.378634   2.096938   1.304782   0.000000
     6  C    5.376124   4.696482   3.471532   2.445033   1.406179
     7  C    6.461792   5.787798   4.476440   3.670160   2.419120
     8  C    6.538999   5.852625   4.514281   4.081504   2.790953
     9  C    5.569477   4.860512   3.574333   3.525506   2.429314
    10  C    4.258835   3.477954   2.169351   2.201595   1.393893
    11  C    3.251494   2.406784   1.360292   2.194045   2.205724
    12  C    3.636732   2.914895   2.397776   3.474982   3.532862
    13  N    4.902457   4.236162   3.617010   4.543152   4.289576
    14  O    5.611754   5.054371   4.688965   5.729852   5.575237
    15  H    1.089985   2.075669   2.423813   3.190714   3.979819
    16  H    1.089972   2.075620   3.202403   4.091100   5.152522
    17  H    1.090004   2.075621   2.821122   3.153106   4.303503
    18  H    5.679973   5.063491   3.998317   2.780873   2.174639
    19  H    7.431342   6.787321   5.499875   4.591957   3.410640
    20  H    7.548474   6.885842   5.555155   5.170134   3.880915
    21  H    6.009110   5.341385   4.165645   4.381745   3.420163
    22  H    3.227192   2.629373   2.654876   3.902613   4.271748
    23  H    5.514270   4.809826   3.947420   4.639077   4.100192
    24  H    6.392505   5.899233   5.427359   6.386414   6.079566
                    6          7          8          9         10
     6  C    0.000000
     7  C    1.410065   0.000000
     8  C    2.447168   1.411658   0.000000
     9  C    2.840463   2.451440   1.410858   0.000000
    10  C    2.448011   2.814560   2.434086   1.414184   0.000000
    11  C    3.554176   4.160225   3.783918   2.578676   1.378912
    12  C    4.839237   5.272825   4.626901   3.253236   2.476052
    13  N    5.421903   5.527838   4.579440   3.182991   2.984829
    14  O    6.725798   6.802550   5.784600   4.413270   4.287311
    15  H    5.193270   6.121650   6.066397   5.072499   3.903154
    16  H    6.427681   7.491010   7.486465   6.425072   5.143283
    17  H    5.360834   6.561828   6.855582   6.064366   4.736247
    18  H    1.090000   2.180857   3.440007   3.930423   3.432501
    19  H    2.168914   1.089973   2.171489   3.436178   3.904452
    20  H    3.431699   2.169592   1.089996   2.168417   3.423295
    21  H    3.930476   3.439647   2.175916   1.090053   2.181359
    22  H    5.647427   6.231559   5.679064   4.323444   3.418167
    23  H    5.036870   4.907887   3.811831   2.480713   2.715768
    24  H    7.121400   7.020261   5.870304   4.573160   4.722960
                   11         12         13         14         15
    11  C    0.000000
    12  C    1.346891   0.000000
    13  N    2.357415   1.322145   0.000000
    14  O    3.545701   2.291867   1.304315   0.000000
    15  H    2.989687   3.325536   4.465070   5.191620   0.000000
    16  H    3.987247   4.055183   5.268382   5.752106   1.779896
    17  H    3.953747   4.570293   5.844034   6.638528   1.779929
    18  H    4.376707   5.705962   6.404621   7.703031   5.624115
    19  H    5.247036   6.359463   6.570473   7.829332   7.101018
    20  H    4.717633   5.399329   5.122632   6.218338   7.013872
    21  H    2.941315   3.156158   2.653646   3.728356   5.432798
    22  H    2.103313   1.089949   2.059852   2.502324   3.076573
    23  H    2.591835   2.025024   1.009968   1.995026   5.013757
    24  H    4.195859   3.054626   1.859485   0.959949   5.866815
                   16         17         18         19         20
    16  H    0.000000
    17  H    1.779963   0.000000
    18  H    6.743654   5.461293   0.000000
    19  H    8.481064   7.442223   2.512037   0.000000
    20  H    8.472961   7.894720   4.338540   2.495810   0.000000
    21  H    6.749174   6.643221   5.020434   4.336724   2.502156
    22  H    3.370554   4.266460   6.414817   7.321119   6.479383
    23  H    6.016580   6.365820   6.082392   5.897808   4.231138
    24  H    6.567616   7.400200   8.147296   7.997015   6.144828
                   21         22         23         24
    21  H    0.000000
    22  H    4.234816   0.000000
    23  H    1.754860   2.965514   0.000000
    24  H    3.711971   3.395518   2.136865   0.000000
 Stoichiometry    C10H10N2O2
 Framework group  C1[X(C10H10N2O2)]
 Deg. of freedom    66
 Full point group                 C1      NOp   1
 Largest Abelian subgroup         C1      NOp   1
 Largest concise Abelian subgroup C1      NOp   1
                         Standard orientation:                         
 ---------------------------------------------------------------------
 Center     Atomic      Atomic             Coordinates (Angstroms)
 Number     Number       Type             X           Y           Z
 ---------------------------------------------------------------------
      1          6           0       -2.208801   -2.673728    0.796729
      2          8           0       -1.750146   -2.099200   -0.441526
      3          6           0       -0.651515   -1.341993   -0.302935
      4          7           0        0.527759   -1.844418   -0.355715
      5          6           0        1.390742   -0.880098   -0.188976
      6          6           0        2.794650   -0.951095   -0.152335
      7          6           0        3.519901    0.232402    0.095918
      8          6           0        2.841221    1.451623    0.309629
      9          6           0        1.432248    1.506665    0.261805
     10          6           0        0.708747    0.322224   -0.009413
     11          6           0       -0.627556    0.008349   -0.140468
     12          6           0       -1.716106    0.801414   -0.155356
     13          7           0       -1.672642    2.120478   -0.076317
     14          8           0       -2.760144    2.840521   -0.086940
     15          1           0       -1.973144   -1.998999    1.619696
     16          1           0       -3.287032   -2.826043    0.749221
     17          1           0       -1.713372   -3.631049    0.958577
     18          1           0        3.307751   -1.899364   -0.312370
     19          1           0        4.609192    0.204739    0.122753
     20          1           0        3.410347    2.358609    0.513498
     21          1           0        0.911168    2.448947    0.431496
     22          1           0       -2.701764    0.343387   -0.237087
     23          1           0       -0.782319    2.592048   -0.005721
     24          1           0       -2.585493    3.690157    0.324299
 ---------------------------------------------------------------------
 Rotational constants (GHZ):           0.8677988           0.6233909           0.3745132
 Leave Link  202 at Sun Oct 13 23:50:23 2019, MaxMem= 10737418240 cpu:               0.4 elap:               0.0
 (Enter /apps/cent7/gaussian/g16-A.03/g16-haswell/g16/l301.exe)
 Standard basis: 6-311++G(d,p) (5D, 7F)
 Ernie: Thresh=  0.10000D-02 Tol=  0.10000D-05 Strict=F.
 There are   392 symmetry adapted cartesian basis functions of A   symmetry.
 There are   378 symmetry adapted basis functions of A   symmetry.
   378 basis functions,   594 primitive gaussians,   392 cartesian basis functions
    50 alpha electrons       50 beta electrons
       nuclear repulsion energy       861.1567443376 Hartrees.
 IExCor= 4336 DFT=T Ex+Corr=M062X ExCW=0 ScaHFX=  0.540000
 ScaDFX=  1.000000  1.000000  1.000000  1.000000 ScalE2=  1.000000  1.000000
 IRadAn=      5 IRanWt=     -1 IRanGd=            0 ICorTp=0 IEmpDi=  4
 NAtoms=   24 NActive=   24 NUniq=   24 SFac= 1.00D+00 NAtFMM=   60 NAOKFM=F Big=F
 Integral buffers will be    131072 words long.
 Raffenetti 2 integral format.
 Two-electron integral symmetry is turned on.
 Leave Link  301 at Sun Oct 13 23:50:23 2019, MaxMem= 10737418240 cpu:               1.2 elap:               0.1
 (Enter /apps/cent7/gaussian/g16-A.03/g16-haswell/g16/l302.exe)
 NPDir=0 NMtPBC=     1 NCelOv=     1 NCel=       1 NClECP=     1 NCelD=      1
         NCelK=      1 NCelE2=     1 NClLst=     1 CellRange=     0.0.
 One-electron integrals computed using PRISM.
 One-electron integral symmetry used in STVInt
 NBasis=   378 RedAO= T EigKep=  1.68D-06  NBF=   378
 NBsUse=   375 1.00D-06 EigRej=  8.44D-07 NBFU=   375
 Precomputing XC quadrature grid using
 IXCGrd= 4 IRadAn=           5 IRanWt=          -1 IRanGd=           0 AccXCQ= 0.00D+00.
 Generated NRdTot=       0 NPtTot=           0 NUsed=           0 NTot=          32
 NSgBfM=   392   392   392   392   392 MxSgAt=    24 MxSgA2=    24.
 Leave Link  302 at Sun Oct 13 23:50:24 2019, MaxMem= 10737418240 cpu:               6.0 elap:               0.3
 (Enter /apps/cent7/gaussian/g16-A.03/g16-haswell/g16/l303.exe)
 DipDrv:  MaxL=1.
 Leave Link  303 at Sun Oct 13 23:50:24 2019, MaxMem= 10737418240 cpu:               1.7 elap:               0.1
 (Enter /apps/cent7/gaussian/g16-A.03/g16-haswell/g16/l401.exe)
 ExpMin= 3.60D-02 ExpMax= 8.59D+03 ExpMxC= 1.30D+03 IAcc=3 IRadAn=         5 AccDes= 0.00D+00
 Harris functional with IExCor= 1009 and IRadAn=       5 diagonalized for initial guess.
 HarFok:  IExCor= 1009 AccDes= 0.00D+00 IRadAn=         5 IDoV= 1 UseB2=F ITyADJ=14
 ICtDFT=  3500011 ScaDFX=  1.000000  1.000000  1.000000  1.000000
 FoFCou: FMM=F IPFlag=           0 FMFlag=      100000 FMFlg1=           0
         NFxFlg=           0 DoJE=T BraDBF=F KetDBF=T FulRan=T
         wScrn=  0.000000 ICntrl=       500 IOpCl=  0 I1Cent=   200000004 NGrid=           0
         NMat0=    1 NMatS0=      1 NMatT0=    0 NMatD0=    1 NMtDS0=    0 NMtDT0=    0
 Petite list used in FoFCou.
 Harris En= -646.538248647433    
 JPrj=0 DoOrth=F DoCkMO=F.
 Leave Link  401 at Sun Oct 13 23:50:25 2019, MaxMem= 10737418240 cpu:              17.2 elap:               0.8
 (Enter /apps/cent7/gaussian/g16-A.03/g16-haswell/g16/l502.exe)
 Integral symmetry usage will be decided dynamically.
 Closed shell SCF:
 Using DIIS extrapolation, IDIIS=  1040.
 NGot= 10737418240 LenX= 10737097724 LenY= 10736943619
 Requested convergence on RMS density matrix=1.00D-08 within 128 cycles.
 Requested convergence on MAX density matrix=1.00D-06.
 Requested convergence on             energy=1.00D-06.
 No special actions if energy rises.
 Fock matrices will be formed incrementally for  20 cycles.

 Cycle   1  Pass 1  IDiag  1:
 FoFJK:  IHMeth= 1 ICntrl=       0 DoSepK=F KAlg= 0 I1Cent=           0 FoldK=F
 IRaf= 890000000 NMat=       1 IRICut=       1 DoRegI=T DoRafI=F ISym2E= 0 IDoP0=0 IntGTp=1.
 FoFCou: FMM=F IPFlag=           0 FMFlag=      100000 FMFlg1=           0
         NFxFlg=           0 DoJE=F BraDBF=F KetDBF=F FulRan=T
         wScrn=  0.000000 ICntrl=         0 IOpCl=  0 I1Cent=           0 NGrid=           0
         NMat0=    1 NMatS0=      1 NMatT0=    0 NMatD0=    1 NMtDS0=    0 NMtDT0=    0
 Symmetry not used in FoFCou.
 E= -646.414208688976    
 DIIS: error= 2.04D-02 at cycle   1 NSaved=   1.
 NSaved= 1 IEnMin= 1 EnMin= -646.414208688976     IErMin= 1 ErrMin= 2.04D-02
 ErrMax= 2.04D-02  0.00D+00 EMaxC= 1.00D-01 BMatC= 4.73D-01 BMatP= 4.73D-01
 IDIUse=3 WtCom= 7.96D-01 WtEn= 2.04D-01
 Coeff-Com:  0.100D+01
 Coeff-En:   0.100D+01
 Coeff:      0.100D+01
 Gap=     0.350 Goal=   None    Shift=    0.000
 GapD=    0.350 DampG=1.000 DampE=0.500 DampFc=0.5000 IDamp=-1.
 Damping current iteration by 5.00D-01
 RMSDP=3.88D-02 MaxDP=4.74D+00              OVMax= 3.46D-01

 Cycle   2  Pass 1  IDiag  1:
 RMSU=  1.62D-02    CP:  1.17D+00
 E= -646.583593431213     Delta-E=       -0.169384742237 Rises=F Damp=T
 DIIS: error= 6.33D-03 at cycle   2 NSaved=   2.
 NSaved= 2 IEnMin= 2 EnMin= -646.583593431213     IErMin= 2 ErrMin= 6.33D-03
 ErrMax= 6.33D-03  0.00D+00 EMaxC= 1.00D-01 BMatC= 5.55D-02 BMatP= 4.73D-01
 IDIUse=3 WtCom= 9.37D-01 WtEn= 6.33D-02
 Coeff-Com: -0.266D-01 0.103D+01
 Coeff-En:   0.857D-01 0.914D+00
 Coeff:     -0.194D-01 0.102D+01
 Gap=     0.245 Goal=   None    Shift=    0.000
 RMSDP=1.33D-02 MaxDP=1.35D+00 DE=-1.69D-01 OVMax= 3.48D-01

 Cycle   3  Pass 1  IDiag  1:
 RMSU=  7.99D-03    CP:  1.04D+00  6.05D-01
 E= -646.771201790207     Delta-E=       -0.187608358994 Rises=F Damp=F
 DIIS: error= 9.28D-03 at cycle   3 NSaved=   3.
 NSaved= 3 IEnMin= 3 EnMin= -646.771201790207     IErMin= 2 ErrMin= 6.33D-03
 ErrMax= 9.28D-03  0.00D+00 EMaxC= 1.00D-01 BMatC= 4.71D-02 BMatP= 5.55D-02
 IDIUse=3 WtCom= 9.07D-01 WtEn= 9.28D-02
 Coeff-Com: -0.112D+00 0.544D+00 0.568D+00
 Coeff-En:   0.000D+00 0.000D+00 0.100D+01
 Coeff:     -0.102D+00 0.493D+00 0.608D+00
 Gap=     0.226 Goal=   None    Shift=    0.000
 RMSDP=5.34D-03 MaxDP=3.55D-01 DE=-1.88D-01 OVMax= 1.08D-01

 Cycle   4  Pass 1  IDiag  1:
 RMSU=  3.13D-03    CP:  1.01D+00  8.16D-01  7.43D-01
 E= -646.812161491809     Delta-E=       -0.040959701602 Rises=F Damp=F
 DIIS: error= 4.38D-03 at cycle   4 NSaved=   4.
 NSaved= 4 IEnMin= 4 EnMin= -646.812161491809     IErMin= 4 ErrMin= 4.38D-03
 ErrMax= 4.38D-03  0.00D+00 EMaxC= 1.00D-01 BMatC= 6.69D-03 BMatP= 4.71D-02
 IDIUse=3 WtCom= 9.56D-01 WtEn= 4.38D-02
 Coeff-Com: -0.470D-01 0.126D+00 0.316D+00 0.605D+00
 Coeff-En:   0.000D+00 0.000D+00 0.803D-01 0.920D+00
 Coeff:     -0.449D-01 0.121D+00 0.305D+00 0.619D+00
 Gap=     0.221 Goal=   None    Shift=    0.000
 RMSDP=1.39D-03 MaxDP=1.17D-01 DE=-4.10D-02 OVMax= 2.62D-02

 Cycle   5  Pass 1  IDiag  1:
 RMSU=  8.29D-04    CP:  9.98D-01  7.89D-01  8.33D-01  8.90D-01
 E= -646.818214721426     Delta-E=       -0.006053229618 Rises=F Damp=F
 DIIS: error= 1.19D-03 at cycle   5 NSaved=   5.
 NSaved= 5 IEnMin= 5 EnMin= -646.818214721426     IErMin= 5 ErrMin= 1.19D-03
 ErrMax= 1.19D-03  0.00D+00 EMaxC= 1.00D-01 BMatC= 3.70D-04 BMatP= 6.69D-03
 IDIUse=3 WtCom= 9.88D-01 WtEn= 1.19D-02
 Coeff-Com: -0.130D-01 0.198D-01 0.989D-01 0.285D+00 0.609D+00
 Coeff-En:   0.000D+00 0.000D+00 0.000D+00 0.000D+00 0.100D+01
 Coeff:     -0.129D-01 0.196D-01 0.977D-01 0.282D+00 0.614D+00
 Gap=     0.217 Goal=   None    Shift=    0.000
 RMSDP=3.49D-04 MaxDP=1.94D-02 DE=-6.05D-03 OVMax= 7.72D-03

 Cycle   6  Pass 1  IDiag  1:
 RMSU=  2.79D-04    CP:  9.98D-01  7.86D-01  8.13D-01  8.96D-01  8.54D-01
 E= -646.818600342012     Delta-E=       -0.000385620585 Rises=F Damp=F
 DIIS: error= 4.10D-04 at cycle   6 NSaved=   6.
 NSaved= 6 IEnMin= 6 EnMin= -646.818600342012     IErMin= 6 ErrMin= 4.10D-04
 ErrMax= 4.10D-04  0.00D+00 EMaxC= 1.00D-01 BMatC= 3.34D-05 BMatP= 3.70D-04
 IDIUse=3 WtCom= 9.96D-01 WtEn= 4.10D-03
 Coeff-Com:  0.386D-02-0.129D-01-0.121D-01-0.209D-02 0.219D+00 0.805D+00
 Coeff-En:   0.000D+00 0.000D+00 0.000D+00 0.000D+00 0.000D+00 0.100D+01
 Coeff:      0.385D-02-0.128D-01-0.120D-01-0.208D-02 0.218D+00 0.805D+00
 Gap=     0.218 Goal=   None    Shift=    0.000
 RMSDP=1.71D-04 MaxDP=1.47D-02 DE=-3.86D-04 OVMax= 3.30D-03

 Cycle   7  Pass 1  IDiag  1:
 RMSU=  1.14D-04    CP:  9.97D-01  7.79D-01  8.18D-01  8.91D-01  8.79D-01
                    CP:  1.06D+00
 E= -646.818650592448     Delta-E=       -0.000050250437 Rises=F Damp=F
 DIIS: error= 7.09D-05 at cycle   7 NSaved=   7.
 NSaved= 7 IEnMin= 7 EnMin= -646.818650592448     IErMin= 7 ErrMin= 7.09D-05
 ErrMax= 7.09D-05  0.00D+00 EMaxC= 1.00D-01 BMatC= 3.82D-06 BMatP= 3.34D-05
 IDIUse=1 WtCom= 1.00D+00 WtEn= 0.00D+00
 Coeff-Com:  0.293D-02-0.659D-02-0.110D-01-0.317D-01-0.156D-01 0.211D+00
 Coeff-Com:  0.851D+00
 Coeff:      0.293D-02-0.659D-02-0.110D-01-0.317D-01-0.156D-01 0.211D+00
 Coeff:      0.851D+00
 Gap=     0.218 Goal=   None    Shift=    0.000
 RMSDP=8.88D-05 MaxDP=1.01D-02 DE=-5.03D-05 OVMax= 1.13D-03

 Cycle   8  Pass 1  IDiag  1:
 RMSU=  3.85D-05    CP:  9.96D-01  7.76D-01  8.21D-01  8.92D-01  8.93D-01
                    CP:  1.08D+00  1.10D+00
 E= -646.818655640330     Delta-E=       -0.000005047882 Rises=F Damp=F
 DIIS: error= 4.62D-05 at cycle   8 NSaved=   8.
 NSaved= 8 IEnMin= 8 EnMin= -646.818655640330     IErMin= 8 ErrMin= 4.62D-05
 ErrMax= 4.62D-05  0.00D+00 EMaxC= 1.00D-01 BMatC= 8.29D-07 BMatP= 3.82D-06
 IDIUse=1 WtCom= 1.00D+00 WtEn= 0.00D+00
 Coeff-Com:  0.102D-02-0.177D-02-0.260D-02-0.140D-01-0.322D-01 0.842D-02
 Coeff-Com:  0.388D+00 0.654D+00
 Coeff:      0.102D-02-0.177D-02-0.260D-02-0.140D-01-0.322D-01 0.842D-02
 Coeff:      0.388D+00 0.654D+00
 Gap=     0.219 Goal=   None    Shift=    0.000
 RMSDP=3.30D-05 MaxDP=4.62D-03 DE=-5.05D-06 OVMax= 3.75D-04

 Cycle   9  Pass 1  IDiag  1:
 RMSU=  1.36D-05    CP:  9.96D-01  7.75D-01  8.21D-01  8.91D-01  8.87D-01
                    CP:  1.10D+00  1.08D+00  1.02D+00
 E= -646.818656580969     Delta-E=       -0.000000940639 Rises=F Damp=F
 DIIS: error= 9.57D-06 at cycle   9 NSaved=   9.
 NSaved= 9 IEnMin= 9 EnMin= -646.818656580969     IErMin= 9 ErrMin= 9.57D-06
 ErrMax= 9.57D-06  0.00D+00 EMaxC= 1.00D-01 BMatC= 6.89D-08 BMatP= 8.29D-07
 IDIUse=1 WtCom= 1.00D+00 WtEn= 0.00D+00
 Coeff-Com: -0.131D-03 0.365D-03 0.149D-02 0.161D-02-0.428D-02-0.247D-01
 Coeff-Com: -0.509D-01 0.156D+00 0.920D+00
 Coeff:     -0.131D-03 0.365D-03 0.149D-02 0.161D-02-0.428D-02-0.247D-01
 Coeff:     -0.509D-01 0.156D+00 0.920D+00
 Gap=     0.219 Goal=   None    Shift=    0.000
 RMSDP=9.94D-06 MaxDP=7.82D-04 DE=-9.41D-07 OVMax= 1.29D-04

 Cycle  10  Pass 1  IDiag  1:
 RMSU=  3.97D-06    CP:  9.96D-01  7.75D-01  8.21D-01  8.90D-01  8.85D-01
                    CP:  1.09D+00  1.10D+00  1.12D+00  1.07D+00
 E= -646.818656670098     Delta-E=       -0.000000089130 Rises=F Damp=F
 DIIS: error= 4.10D-06 at cycle  10 NSaved=  10.
 NSaved=10 IEnMin=10 EnMin= -646.818656670098     IErMin=10 ErrMin= 4.10D-06
 ErrMax= 4.10D-06  0.00D+00 EMaxC= 1.00D-01 BMatC= 7.31D-09 BMatP= 6.89D-08
 IDIUse=1 WtCom= 1.00D+00 WtEn= 0.00D+00
 Coeff-Com: -0.104D-03 0.234D-03 0.846D-03 0.147D-02 0.309D-04-0.998D-02
 Coeff-Com: -0.459D-01 0.200D-01 0.353D+00 0.681D+00
 Coeff:     -0.104D-03 0.234D-03 0.846D-03 0.147D-02 0.309D-04-0.998D-02
 Coeff:     -0.459D-01 0.200D-01 0.353D+00 0.681D+00
 Gap=     0.219 Goal=   None    Shift=    0.000
 RMSDP=3.07D-06 MaxDP=3.74D-04 DE=-8.91D-08 OVMax= 3.53D-05

 Cycle  11  Pass 1  IDiag  1:
 RMSU=  9.73D-07    CP:  9.96D-01  7.74D-01  8.21D-01  8.89D-01  8.85D-01
                    CP:  1.09D+00  1.10D+00  1.12D+00  1.11D+00  1.03D+00
 E= -646.818656678451     Delta-E=       -0.000000008353 Rises=F Damp=F
 DIIS: error= 1.51D-06 at cycle  11 NSaved=  11.
 NSaved=11 IEnMin=11 EnMin= -646.818656678451     IErMin=11 ErrMin= 1.51D-06
 ErrMax= 1.51D-06  0.00D+00 EMaxC= 1.00D-01 BMatC= 1.28D-09 BMatP= 7.31D-09
 IDIUse=1 WtCom= 1.00D+00 WtEn= 0.00D+00
 Coeff-Com: -0.216D-04 0.399D-04 0.189D-03 0.400D-03 0.507D-03-0.770D-03
 Coeff-Com: -0.151D-01-0.151D-01 0.225D-01 0.305D+00 0.702D+00
 Coeff:     -0.216D-04 0.399D-04 0.189D-03 0.400D-03 0.507D-03-0.770D-03
 Coeff:     -0.151D-01-0.151D-01 0.225D-01 0.305D+00 0.702D+00
 Gap=     0.219 Goal=   None    Shift=    0.000
 RMSDP=1.82D-06 MaxDP=2.29D-04 DE=-8.35D-09 OVMax= 1.72D-05

 Cycle  12  Pass 1  IDiag  1:
 RMSU=  7.34D-07    CP:  9.96D-01  7.74D-01  8.21D-01  8.89D-01  8.85D-01
                    CP:  1.09D+00  1.10D+00  1.14D+00  1.14D+00  1.01D+00
                    CP:  6.50D-01
 E= -646.818656679828     Delta-E=       -0.000000001377 Rises=F Damp=F
 DIIS: error= 6.06D-07 at cycle  12 NSaved=  12.
 NSaved=12 IEnMin=12 EnMin= -646.818656679828     IErMin=12 ErrMin= 6.06D-07
 ErrMax= 6.06D-07  0.00D+00 EMaxC= 1.00D-01 BMatC= 1.57D-10 BMatP= 1.28D-09
 IDIUse=1 WtCom= 1.00D+00 WtEn= 0.00D+00
 Coeff-Com:  0.166D-05-0.666D-05 0.182D-04 0.492D-04 0.246D-03 0.778D-03
 Coeff-Com: -0.246D-02-0.901D-02-0.280D-01 0.746D-01 0.330D+00 0.634D+00
 Coeff:      0.166D-05-0.666D-05 0.182D-04 0.492D-04 0.246D-03 0.778D-03
 Coeff:     -0.246D-02-0.901D-02-0.280D-01 0.746D-01 0.330D+00 0.634D+00
 Gap=     0.219 Goal=   None    Shift=    0.000
 RMSDP=3.28D-07 MaxDP=3.27D-05 DE=-1.38D-09 OVMax= 5.11D-06

 Cycle  13  Pass 1  IDiag  1:
 RMSU=  1.13D-07    CP:  9.96D-01  7.74D-01  8.21D-01  8.89D-01  8.85D-01
                    CP:  1.09D+00  1.10D+00  1.14D+00  1.15D+00  1.03D+00
                    CP:  7.34D-01  9.38D-01
 E= -646.818656679997     Delta-E=       -0.000000000169 Rises=F Damp=F
 DIIS: error= 2.48D-07 at cycle  13 NSaved=  13.
 NSaved=13 IEnMin=13 EnMin= -646.818656679997     IErMin=13 ErrMin= 2.48D-07
 ErrMax= 2.48D-07  0.00D+00 EMaxC= 1.00D-01 BMatC= 1.96D-11 BMatP= 1.57D-10
 IDIUse=1 WtCom= 1.00D+00 WtEn= 0.00D+00
 Coeff-Com:  0.443D-05-0.991D-05-0.194D-04-0.448D-04 0.159D-04 0.457D-03
 Coeff-Com:  0.128D-02-0.111D-02-0.148D-01-0.238D-01 0.571D-02 0.266D+00
 Coeff-Com:  0.766D+00
 Coeff:      0.443D-05-0.991D-05-0.194D-04-0.448D-04 0.159D-04 0.457D-03
 Coeff:      0.128D-02-0.111D-02-0.148D-01-0.238D-01 0.571D-02 0.266D+00
 Coeff:      0.766D+00
 Gap=     0.219 Goal=   None    Shift=    0.000
 RMSDP=1.82D-07 MaxDP=1.44D-05 DE=-1.69D-10 OVMax= 2.94D-06

 Cycle  14  Pass 1  IDiag  1:
 RMSU=  4.99D-08    CP:  9.96D-01  7.74D-01  8.21D-01  8.89D-01  8.85D-01
                    CP:  1.09D+00  1.10D+00  1.14D+00  1.15D+00  1.03D+00
                    CP:  7.21D-01  1.01D+00  1.08D+00
 E= -646.818656680010     Delta-E=       -0.000000000013 Rises=F Damp=F
 DIIS: error= 3.21D-08 at cycle  14 NSaved=  14.
 NSaved=14 IEnMin=14 EnMin= -646.818656680010     IErMin=14 ErrMin= 3.21D-08
 ErrMax= 3.21D-08  0.00D+00 EMaxC= 1.00D-01 BMatC= 8.20D-13 BMatP= 1.96D-11
 IDIUse=1 WtCom= 1.00D+00 WtEn= 0.00D+00
 Coeff-Com:  0.734D-06-0.165D-05-0.366D-05-0.102D-04-0.109D-04 0.412D-04
 Coeff-Com:  0.325D-03 0.344D-03-0.768D-03-0.941D-02-0.206D-01 0.846D-02
 Coeff-Com:  0.197D+00 0.824D+00
 Coeff:      0.734D-06-0.165D-05-0.366D-05-0.102D-04-0.109D-04 0.412D-04
 Coeff:      0.325D-03 0.344D-03-0.768D-03-0.941D-02-0.206D-01 0.846D-02
 Coeff:      0.197D+00 0.824D+00
 Gap=     0.219 Goal=   None    Shift=    0.000
 RMSDP=5.33D-08 MaxDP=4.98D-06 DE=-1.25D-11 OVMax= 5.93D-07

 Cycle  15  Pass 1  IDiag  1:
 RMSU=  2.42D-08    CP:  9.96D-01  7.74D-01  8.21D-01  8.89D-01  8.85D-01
                    CP:  1.09D+00  1.10D+00  1.14D+00  1.15D+00  1.03D+00
                    CP:  7.29D-01  1.01D+00  1.14D+00  1.16D+00
 E= -646.818656680002     Delta-E=        0.000000000008 Rises=F Damp=F
 DIIS: error= 1.81D-08 at cycle  15 NSaved=  15.
 NSaved=15 IEnMin=14 EnMin= -646.818656680010     IErMin=15 ErrMin= 1.81D-08
 ErrMax= 1.81D-08  0.00D+00 EMaxC= 1.00D-01 BMatC= 1.36D-13 BMatP= 8.20D-13
 IDIUse=1 WtCom= 1.00D+00 WtEn= 0.00D+00
 Coeff-Com: -0.109D-06 0.202D-06 0.160D-06-0.306D-06-0.563D-05-0.215D-04
 Coeff-Com:  0.244D-04 0.220D-03 0.998D-03-0.195D-02-0.944D-02-0.243D-01
 Coeff-Com:  0.105D-01 0.326D+00 0.698D+00
 Coeff:     -0.109D-06 0.202D-06 0.160D-06-0.306D-06-0.563D-05-0.215D-04
 Coeff:      0.244D-04 0.220D-03 0.998D-03-0.195D-02-0.944D-02-0.243D-01
 Coeff:      0.105D-01 0.326D+00 0.698D+00
 Gap=     0.219 Goal=   None    Shift=    0.000
 RMSDP=6.83D-09 MaxDP=3.03D-07 DE= 7.73D-12 OVMax= 2.71D-07

 SCF Done:  E(RM062X) =  -646.818656680     A.U. after   15 cycles
            NFock= 15  Conv=0.68D-08     -V/T= 2.0024
 KE= 6.452607807683D+02 PE=-3.231844676230D+03 EE= 1.078608494444D+03
 Leave Link  502 at Sun Oct 13 23:50:57 2019, MaxMem= 10737418240 cpu:             780.9 elap:              32.7
 (Enter /apps/cent7/gaussian/g16-A.03/g16-haswell/g16/l601.exe)
 Copying SCF densities to generalized density rwf, IOpCl= 0 IROHF=0.

 **********************************************************************

            Population analysis using the SCF density.

 **********************************************************************

 Orbital symmetries:
       Occupied  (A) (A) (A) (A) (A) (A) (A) (A) (A) (A) (A) (A)
                 (A) (A) (A) (A) (A) (A) (A) (A) (A) (A) (A) (A)
                 (A) (A) (A) (A) (A) (A) (A) (A) (A) (A) (A) (A)
                 (A) (A) (A) (A) (A) (A) (A) (A) (A) (A) (A) (A)
                 (A) (A)
       Virtual   (A) (A) (A) (A) (A) (A) (A) (A) (A) (A) (A) (A)
                 (A) (A) (A) (A) (A) (A) (A) (A) (A) (A) (A) (A)
                 (A) (A) (A) (A) (A) (A) (A) (A) (A) (A) (A) (A)
                 (A) (A) (A) (A) (A) (A) (A) (A) (A) (A) (A) (A)
                 (A) (A) (A) (A) (A) (A) (A) (A) (A) (A) (A) (A)
                 (A) (A) (A) (A) (A) (A) (A) (A) (A) (A) (A) (A)
                 (A) (A) (A) (A) (A) (A) (A) (A) (A) (A) (A) (A)
                 (A) (A) (A) (A) (A) (A) (A) (A) (A) (A) (A) (A)
                 (A) (A) (A) (A) (A) (A) (A) (A) (A) (A) (A) (A)
                 (A) (A) (A) (A) (A) (A) (A) (A) (A) (A) (A) (A)
                 (A) (A) (A) (A) (A) (A) (A) (A) (A) (A) (A) (A)
                 (A) (A) (A) (A) (A) (A) (A) (A) (A) (A) (A) (A)
                 (A) (A) (A) (A) (A) (A) (A) (A) (A) (A) (A) (A)
                 (A) (A) (A) (A) (A) (A) (A) (A) (A) (A) (A) (A)
                 (A) (A) (A) (A) (A) (A) (A) (A) (A) (A) (A) (A)
                 (A) (A) (A) (A) (A) (A) (A) (A) (A) (A) (A) (A)
                 (A) (A) (A) (A) (A) (A) (A) (A) (A) (A) (A) (A)
                 (A) (A) (A) (A) (A) (A) (A) (A) (A) (A) (A) (A)
                 (A) (A) (A) (A) (A) (A) (A) (A) (A) (A) (A) (A)
                 (A) (A) (A) (A) (A) (A) (A) (A) (A) (A) (A) (A)
                 (A) (A) (A) (A) (A) (A) (A) (A) (A) (A) (A) (A)
                 (A) (A) (A) (A) (A) (A) (A) (A) (A) (A) (A) (A)
                 (A) (A) (A) (A) (A) (A) (A) (A) (A) (A) (A) (A)
                 (A) (A) (A) (A) (A) (A) (A) (A) (A) (A) (A) (A)
                 (A) (A) (A) (A) (A) (A) (A) (A) (A) (A) (A) (A)
                 (A) (A) (A) (A) (A) (A) (A) (A) (A) (A) (A) (A)
                 (A) (A) (A) (A) (A) (A) (A) (A) (A) (A) (A) (A)
                 (A)
 The electronic state is 1-A.
 Alpha  occ. eigenvalues --  -19.72207 -19.63858 -14.87715 -14.70258 -10.62936
 Alpha  occ. eigenvalues --  -10.60638 -10.58762 -10.55070 -10.54443 -10.53829
 Alpha  occ. eigenvalues --  -10.53638 -10.53217 -10.53057 -10.52947  -1.31758
 Alpha  occ. eigenvalues --   -1.19260  -1.08445  -1.04287  -0.93058  -0.89809
 Alpha  occ. eigenvalues --   -0.83196  -0.82579  -0.79116  -0.76865  -0.75030
 Alpha  occ. eigenvalues --   -0.68802  -0.67971  -0.64000  -0.61038  -0.59546
 Alpha  occ. eigenvalues --   -0.58402  -0.57492  -0.55187  -0.54403  -0.51969
 Alpha  occ. eigenvalues --   -0.50907  -0.49011  -0.48969  -0.48388  -0.47631
 Alpha  occ. eigenvalues --   -0.42581  -0.41865  -0.41481  -0.40668  -0.38126
 Alpha  occ. eigenvalues --   -0.35595  -0.32488  -0.31856  -0.26041  -0.25442
 Alpha virt. eigenvalues --   -0.03578  -0.03007  -0.00142   0.00464   0.01501
 Alpha virt. eigenvalues --    0.01878   0.02329   0.02952   0.03054   0.04270
 Alpha virt. eigenvalues --    0.04373   0.05550   0.06156   0.06900   0.07459
 Alpha virt. eigenvalues --    0.07808   0.07978   0.08676   0.09148   0.09884
 Alpha virt. eigenvalues --    0.10492   0.10703   0.11219   0.11962   0.12227
 Alpha virt. eigenvalues --    0.12987   0.13178   0.13621   0.13830   0.14078
 Alpha virt. eigenvalues --    0.14370   0.14758   0.15245   0.15524   0.16055
 Alpha virt. eigenvalues --    0.16232   0.16947   0.17350   0.17834   0.18348
 Alpha virt. eigenvalues --    0.19248   0.19815   0.20101   0.20224   0.20504
 Alpha virt. eigenvalues --    0.21274   0.21879   0.22301   0.22816   0.23235
 Alpha virt. eigenvalues --    0.23458   0.24314   0.24588   0.25185   0.25758
 Alpha virt. eigenvalues --    0.26003   0.26595   0.27403   0.27573   0.28150
 Alpha virt. eigenvalues --    0.28637   0.28851   0.29839   0.30005   0.30090
 Alpha virt. eigenvalues --    0.30763   0.31620   0.32033   0.32884   0.33265
 Alpha virt. eigenvalues --    0.33614   0.33744   0.34269   0.34423   0.36135
 Alpha virt. eigenvalues --    0.36578   0.36683   0.37745   0.38380   0.39475
 Alpha virt. eigenvalues --    0.40318   0.41273   0.42440   0.44670   0.45671
 Alpha virt. eigenvalues --    0.47134   0.47490   0.50315   0.50645   0.51757
 Alpha virt. eigenvalues --    0.53442   0.54502   0.55666   0.57235   0.58096
 Alpha virt. eigenvalues --    0.58831   0.60045   0.60412   0.61417   0.61783
 Alpha virt. eigenvalues --    0.62600   0.63097   0.64275   0.65349   0.65891
 Alpha virt. eigenvalues --    0.66882   0.68042   0.68345   0.69414   0.70857
 Alpha virt. eigenvalues --    0.71938   0.72781   0.73607   0.74215   0.74871
 Alpha virt. eigenvalues --    0.77241   0.77653   0.78040   0.79993   0.81123
 Alpha virt. eigenvalues --    0.81318   0.82022   0.84767   0.85890   0.87704
 Alpha virt. eigenvalues --    0.88251   0.88825   0.89515   0.90354   0.92288
 Alpha virt. eigenvalues --    0.93173   0.93262   0.94786   0.95740   0.96234
 Alpha virt. eigenvalues --    0.98345   0.99393   1.00743   1.01245   1.02955
 Alpha virt. eigenvalues --    1.04034   1.05317   1.05548   1.07130   1.08447
 Alpha virt. eigenvalues --    1.08783   1.09436   1.10536   1.11860   1.13078
 Alpha virt. eigenvalues --    1.14364   1.15357   1.17734   1.18762   1.19911
 Alpha virt. eigenvalues --    1.20658   1.21706   1.23123   1.23586   1.28642
 Alpha virt. eigenvalues --    1.31298   1.33217   1.34177   1.35489   1.36274
 Alpha virt. eigenvalues --    1.37617   1.39600   1.41656   1.46450   1.48360
 Alpha virt. eigenvalues --    1.50853   1.52880   1.54286   1.56073   1.56455
 Alpha virt. eigenvalues --    1.58780   1.59753   1.61032   1.61727   1.63184
 Alpha virt. eigenvalues --    1.63463   1.64792   1.65543   1.68878   1.70411
 Alpha virt. eigenvalues --    1.72507   1.73349   1.73723   1.75060   1.77387
 Alpha virt. eigenvalues --    1.77631   1.78133   1.79306   1.80728   1.82806
 Alpha virt. eigenvalues --    1.86288   1.87504   1.88173   1.90156   1.91517
 Alpha virt. eigenvalues --    1.93369   1.93976   1.94736   1.95471   1.96938
 Alpha virt. eigenvalues --    1.97709   1.99076   2.00762   2.01378   2.06255
 Alpha virt. eigenvalues --    2.08106   2.09069   2.09901   2.10719   2.13438
 Alpha virt. eigenvalues --    2.14952   2.16526   2.19729   2.22307   2.24096
 Alpha virt. eigenvalues --    2.26101   2.27608   2.31779   2.33267   2.35686
 Alpha virt. eigenvalues --    2.38895   2.42802   2.48366   2.49067   2.49668
 Alpha virt. eigenvalues --    2.53048   2.54661   2.55500   2.56844   2.57810
 Alpha virt. eigenvalues --    2.59728   2.60416   2.62590   2.63330   2.66742
 Alpha virt. eigenvalues --    2.67516   2.69717   2.70342   2.74149   2.75005
 Alpha virt. eigenvalues --    2.75443   2.76733   2.79541   2.80043   2.81459
 Alpha virt. eigenvalues --    2.82484   2.84653   2.87310   2.88555   2.90121
 Alpha virt. eigenvalues --    2.92125   2.92446   2.94026   2.95527   3.01035
 Alpha virt. eigenvalues --    3.01880   3.04790   3.05221   3.09489   3.12802
 Alpha virt. eigenvalues --    3.13659   3.17063   3.18306   3.19647   3.20705
 Alpha virt. eigenvalues --    3.26241   3.27000   3.31908   3.39856   3.42012
 Alpha virt. eigenvalues --    3.43886   3.47090   3.48785   3.49985   3.54052
 Alpha virt. eigenvalues --    3.56507   3.57690   3.63580   3.65009   3.69316
 Alpha virt. eigenvalues --    3.74608   3.82040   3.85037   3.87194   3.91554
 Alpha virt. eigenvalues --    3.94312   3.99558   4.06618   4.08281   4.09047
 Alpha virt. eigenvalues --    4.10739   4.19484   4.23507   4.41179   4.51657
 Alpha virt. eigenvalues --    4.58981   4.65514   4.86404   5.03081   5.06627
 Alpha virt. eigenvalues --    5.28192   5.40609   5.50768   5.52310   5.90850
 Alpha virt. eigenvalues --    6.02368  23.74185  23.93207  24.00994  24.04387
 Alpha virt. eigenvalues --   24.09585  24.14851  24.16157  24.17276  24.25848
 Alpha virt. eigenvalues --   24.41634  35.63464  35.90127  49.99957  50.11766
          Condensed to atoms (all electrons):
               1          2          3          4          5          6
     1  C    5.217223   0.141237  -0.302027  -0.028130   0.001765  -0.022142
     2  O    0.141237   8.113552   0.750171  -0.096052  -0.117012  -0.014926
     3  C   -0.302027   0.750171  13.306762  -0.093490   1.087659  -0.781793
     4  N   -0.028130  -0.096052  -0.093490   7.064700  -0.535738  -0.765713
     5  C    0.001765  -0.117012   1.087659  -0.535738  19.667288  -1.175620
     6  C   -0.022142  -0.014926  -0.781793  -0.765713  -1.175620  12.283589
     7  C   -0.004720  -0.007358  -0.164411  -0.004839   0.212440   0.447459
     8  C    0.005279   0.009265   0.378718   0.011650   0.555178  -1.608911
     9  C    0.005749  -0.003597  -2.249361   0.035304  -2.382285   2.703860
    10  C    0.076699  -0.169946  -3.566415   0.530556   0.666061  -3.232482
    11  C    0.286592  -0.630201  -3.803248   0.701427  -3.780623  -2.315691
    12  C   -0.254270   0.337033   2.319428   0.243057  -7.293887   0.716710
    13  N    0.004044  -0.010235  -0.259069  -0.001334   0.035193  -0.017821
    14  O    0.001485   0.000395  -0.025532  -0.001164  -0.008754   0.002030
    15  H    0.397671  -0.062987  -0.156666   0.017818   0.012396  -0.024749
    16  H    0.384800  -0.067376   0.059642   0.002696   0.002826  -0.001942
    17  H    0.423219  -0.032078   0.035013  -0.008680   0.000523   0.013863
    18  H   -0.000333  -0.000453  -0.001916  -0.001356  -0.113295   0.456974
    19  H   -0.000205  -0.000187  -0.008243   0.001051   0.037497  -0.088480
    20  H    0.000143   0.000146   0.014452  -0.000371   0.079230  -0.032724
    21  H   -0.000873  -0.001408  -0.078866  -0.003164   0.012252   0.097197
    22  H   -0.005273   0.031250   0.057571  -0.009842  -0.123696   0.005625
    23  H    0.002488   0.000516   0.034816   0.000208   0.076461  -0.029970
    24  H   -0.000742   0.000099   0.003922   0.000070  -0.008272   0.002124
               7          8          9         10         11         12
     1  C   -0.004720   0.005279   0.005749   0.076699   0.286592  -0.254270
     2  O   -0.007358   0.009265  -0.003597  -0.169946  -0.630201   0.337033
     3  C   -0.164411   0.378718  -2.249361  -3.566415  -3.803248   2.319428
     4  N   -0.004839   0.011650   0.035304   0.530556   0.701427   0.243057
     5  C    0.212440   0.555178  -2.382285   0.666061  -3.780623  -7.293887
     6  C    0.447459  -1.608911   2.703860  -3.232482  -2.315691   0.716710
     7  C    6.737992   0.430222  -0.700979  -0.163299  -0.465803  -0.396907
     8  C    0.430222   8.775587  -1.204023  -1.447492   0.511116  -0.158126
     9  C   -0.700979  -1.204023  10.775054  -1.644968  -1.541627   2.069617
    10  C   -0.163299  -1.447492  -1.644968  13.853343   5.845467  -6.382027
    11  C   -0.465803   0.511116  -1.541627   5.845467  18.638401  -8.978293
    12  C   -0.396907  -0.158126   2.069617  -6.382027  -8.978293  24.858798
    13  N    0.005106   0.007695   0.123431   0.276043   0.533948  -0.994846
    14  O    0.000267  -0.008000   0.001519   0.037549   0.086442  -0.170473
    15  H    0.001649   0.007282   0.003099   0.075447   0.247826  -0.171641
    16  H   -0.000102   0.000195  -0.002526  -0.001099  -0.005745  -0.016749
    17  H    0.000823  -0.002217  -0.002468  -0.027152  -0.059235   0.037896
    18  H   -0.066763  -0.008880   0.039840  -0.013697  -0.007938   0.026502
    19  H    0.393409  -0.049161  -0.074643   0.099684   0.024674  -0.000471
    20  H   -0.071201   0.433926  -0.102244   0.026520   0.004204  -0.021780
    21  H    0.036728  -0.134317   0.475130  -0.099160  -0.147344   0.063801
    22  H    0.000053  -0.002430   0.046493  -0.137578  -0.380330   0.898998
    23  H   -0.003612  -0.051067  -0.055618   0.144034   0.184221  -0.349838
    24  H    0.000013  -0.004626   0.005484  -0.040004  -0.081076   0.141906
              13         14         15         16         17         18
     1  C    0.004044   0.001485   0.397671   0.384800   0.423219  -0.000333
     2  O   -0.010235   0.000395  -0.062987  -0.067376  -0.032078  -0.000453
     3  C   -0.259069  -0.025532  -0.156666   0.059642   0.035013  -0.001916
     4  N   -0.001334  -0.001164   0.017818   0.002696  -0.008680  -0.001356
     5  C    0.035193  -0.008754   0.012396   0.002826   0.000523  -0.113295
     6  C   -0.017821   0.002030  -0.024749  -0.001942   0.013863   0.456974
     7  C    0.005106   0.000267   0.001649  -0.000102   0.000823  -0.066763
     8  C    0.007695  -0.008000   0.007282   0.000195  -0.002217  -0.008880
     9  C    0.123431   0.001519   0.003099  -0.002526  -0.002468   0.039840
    10  C    0.276043   0.037549   0.075447  -0.001099  -0.027152  -0.013697
    11  C    0.533948   0.086442   0.247826  -0.005745  -0.059235  -0.007938
    12  C   -0.994846  -0.170473  -0.171641  -0.016749   0.037896   0.026502
    13  N    7.401679   0.075334   0.003924  -0.000344   0.000166  -0.000179
    14  O    0.075334   7.674838  -0.001452  -0.000371   0.000271  -0.000019
    15  H    0.003924  -0.001452   0.580758  -0.026428  -0.051202  -0.000262
    16  H   -0.000344  -0.000371  -0.026428   0.531947  -0.029919  -0.000022
    17  H    0.000166   0.000271  -0.051202  -0.029919   0.520952   0.000346
    18  H   -0.000179  -0.000019  -0.000262  -0.000022   0.000346   0.485369
    19  H    0.000287   0.000012   0.000016  -0.000003   0.000023  -0.009435
    20  H   -0.000881  -0.000032   0.000084   0.000006  -0.000023   0.001028
    21  H    0.020922  -0.006095   0.000063  -0.000177   0.000059   0.000053
    22  H   -0.108762   0.008945  -0.006134  -0.008235   0.002375   0.000179
    23  H    0.298296   0.012311   0.000359   0.000271   0.000047   0.000087
    24  H    0.004879   0.205870  -0.000331  -0.000095   0.000021   0.000014
              19         20         21         22         23         24
     1  C   -0.000205   0.000143  -0.000873  -0.005273   0.002488  -0.000742
     2  O   -0.000187   0.000146  -0.001408   0.031250   0.000516   0.000099
     3  C   -0.008243   0.014452  -0.078866   0.057571   0.034816   0.003922
     4  N    0.001051  -0.000371  -0.003164  -0.009842   0.000208   0.000070
     5  C    0.037497   0.079230   0.012252  -0.123696   0.076461  -0.008272
     6  C   -0.088480  -0.032724   0.097197   0.005625  -0.029970   0.002124
     7  C    0.393409  -0.071201   0.036728   0.000053  -0.003612   0.000013
     8  C   -0.049161   0.433926  -0.134317  -0.002430  -0.051067  -0.004626
     9  C   -0.074643  -0.102244   0.475130   0.046493  -0.055618   0.005484
    10  C    0.099684   0.026520  -0.099160  -0.137578   0.144034  -0.040004
    11  C    0.024674   0.004204  -0.147344  -0.380330   0.184221  -0.081076
    12  C   -0.000471  -0.021780   0.063801   0.898998  -0.349838   0.141906
    13  N    0.000287  -0.000881   0.020922  -0.108762   0.298296   0.004879
    14  O    0.000012  -0.000032  -0.006095   0.008945   0.012311   0.205870
    15  H    0.000016   0.000084   0.000063  -0.006134   0.000359  -0.000331
    16  H   -0.000003   0.000006  -0.000177  -0.008235   0.000271  -0.000095
    17  H    0.000023  -0.000023   0.000059   0.002375   0.000047   0.000021
    18  H   -0.009435   0.001028   0.000053   0.000179   0.000087   0.000014
    19  H    0.490198  -0.012371   0.000879   0.000051  -0.000353   0.000012
    20  H   -0.012371   0.518898  -0.029174  -0.000646   0.003360  -0.000232
    21  H    0.000879  -0.029174   0.727446   0.004291  -0.008172   0.001115
    22  H    0.000051  -0.000646   0.004291   0.463059  -0.005765   0.010610
    23  H   -0.000353   0.003360  -0.008172  -0.005765   0.498696  -0.032524
    24  H    0.000012  -0.000232   0.001115   0.010610  -0.032524   0.506539
 Mulliken charges:
               1
     1  C   -0.329678
     2  O   -0.169848
     3  C   -0.557119
     4  N   -0.058663
     5  C   -0.907589
     6  C   -0.616468
     7  C   -0.216165
     8  C   -0.446863
     9  C   -0.320240
    10  C    1.293918
    11  C    1.132836
    12  C   -0.524437
    13  N   -0.397475
    14  O    0.114626
    15  H    0.153461
    16  H    0.178748
    17  H    0.177378
    18  H    0.214158
    19  H    0.195760
    20  H    0.189683
    21  H    0.068813
    22  H    0.259192
    23  H    0.280748
    24  H    0.285223
 Sum of Mulliken charges =  -0.00000
 Mulliken charges with hydrogens summed into heavy atoms:
               1
     1  C    0.179909
     2  O   -0.169848
     3  C   -0.557119
     4  N   -0.058663
     5  C   -0.907589
     6  C   -0.402309
     7  C   -0.020405
     8  C   -0.257181
     9  C   -0.251426
    10  C    1.293918
    11  C    1.132836
    12  C   -0.265245
    13  N   -0.116727
    14  O    0.399849
 Electronic spatial extent (au):  <R**2>=           2871.5666
 Charge=             -0.0000 electrons
 Dipole moment (field-independent basis, Debye):
    X=             -3.1667    Y=              5.6634    Z=              2.5387  Tot=              6.9675
 Quadrupole moment (field-independent basis, Debye-Ang):
   XX=            -75.7028   YY=            -66.9460   ZZ=            -86.4388
   XY=             -2.9018   XZ=             -4.7384   YZ=             -1.2272
 Traceless Quadrupole moment (field-independent basis, Debye-Ang):
   XX=              0.6597   YY=              9.4165   ZZ=            -10.0762
   XY=             -2.9018   XZ=             -4.7384   YZ=             -1.2272
 Octapole moment (field-independent basis, Debye-Ang**2):
  XXX=            -16.2683  YYY=             89.5914  ZZZ=             -1.1844  XYY=            -44.8148
  XXY=             -1.9593  XXZ=             11.7120  XZZ=            -18.6085  YZZ=              0.6013
  YYZ=             27.1497  XYZ=              3.1301
 Hexadecapole moment (field-independent basis, Debye-Ang**3):
 XXXX=          -2032.5584 YYYY=          -1181.0447 ZZZZ=           -160.1795 XXXY=             -9.2115
 XXXZ=            -21.7906 YYYX=           -128.2148 YYYZ=             14.8211 ZZZX=             -4.9063
 ZZZY=             -2.9977 XXYY=           -517.9283 XXZZ=           -419.2660 YYZZ=           -284.7732
 XXYZ=             14.2678 YYXZ=            -47.4385 ZZXY=            -11.9424
 N-N= 8.611567443376D+02 E-N=-3.231844675444D+03  KE= 6.452607807683D+02
 No NMR shielding tensors so no spin-rotation constants.
 Leave Link  601 at Sun Oct 13 23:50:58 2019, MaxMem= 10737418240 cpu:               3.9 elap:               0.2
 (Enter /apps/cent7/gaussian/g16-A.03/g16-haswell/g16/l701.exe)
 ... and contract with generalized density number  0.
 Compute integral first derivatives.
 Leave Link  701 at Sun Oct 13 23:50:58 2019, MaxMem= 10737418240 cpu:               4.2 elap:               0.2
 (Enter /apps/cent7/gaussian/g16-A.03/g16-haswell/g16/l702.exe)
 L702 exits ... SP integral derivatives will be done elsewhere.
 Leave Link  702 at Sun Oct 13 23:50:58 2019, MaxMem= 10737418240 cpu:               0.7 elap:               0.0
 (Enter /apps/cent7/gaussian/g16-A.03/g16-haswell/g16/l703.exe)
 Integral derivatives from FoFJK, PRISM(SPDF).
 Compute integral first derivatives, UseDBF=F ICtDFT=           0.
 Calling FoFJK, ICntrl=      2127 FMM=F ISym2X=0 I1Cent= 0 IOpClX= 0 NMat=1 NMatS=1 NMatT=0.
 FoFJK:  IHMeth= 1 ICntrl=    2127 DoSepK=F KAlg= 0 I1Cent=           0 FoldK=F
 IRaf=         0 NMat=       1 IRICut=       1 DoRegI=T DoRafI=F ISym2E= 0 IDoP0=0 IntGTp=1.
 FoFCou: FMM=F IPFlag=           0 FMFlag=      100000 FMFlg1=         800
         NFxFlg=           0 DoJE=F BraDBF=F KetDBF=F FulRan=T
         wScrn=  0.000000 ICntrl=      2127 IOpCl=  0 I1Cent=           0 NGrid=           0
         NMat0=    1 NMatS0=      1 NMatT0=    0 NMatD0=    1 NMtDS0=    0 NMtDT0=    0
 Symmetry not used in FoFCou.
 Leave Link  703 at Sun Oct 13 23:51:04 2019, MaxMem= 10737418240 cpu:             139.0 elap:               5.9
 (Enter /apps/cent7/gaussian/g16-A.03/g16-haswell/g16/l716.exe)
 Dipole        =-1.24588564D+00 2.22813400D+00 9.98793097D-01
 ***** Axes restored to original set *****
 -------------------------------------------------------------------
 Center     Atomic                   Forces (Hartrees/Bohr)
 Number     Number              X              Y              Z
 -------------------------------------------------------------------
      1        6          -0.006042794    0.004618799   -0.000203208
      2        8           0.013226026   -0.018769896   -0.007837811
      3        6           0.012284371    0.024818513   -0.061307138
      4        7           0.029389051    0.017696439   -0.088237350
      5        6          -0.023585936    0.037407246    0.056890292
      6        6          -0.003847193   -0.001624529    0.013587203
      7        6           0.004648422   -0.009564428   -0.011320247
      8        6           0.003322051   -0.007882794   -0.005868278
      9        6          -0.002611955    0.009807288   -0.008324710
     10        6          -0.031702049    0.029485549    0.077407998
     11        6           0.000783819   -0.052498817    0.031533255
     12        6           0.008156544   -0.025287482   -0.003228657
     13        7          -0.000481648    0.070316675   -0.001122010
     14        8          -0.001439208   -0.073740131    0.003341550
     15        1           0.002204357   -0.000483690    0.001475455
     16        1          -0.004514684   -0.000491384   -0.000552045
     17        1           0.000261220    0.001300784    0.000410565
     18        1           0.000694805   -0.004564797    0.001992847
     19        1           0.001534318   -0.004426362   -0.001206908
     20        1           0.001477850   -0.000666746   -0.004394814
     21        1          -0.001023532    0.007940913    0.003676663
     22        1          -0.003044963   -0.002432064    0.003730242
     23        1          -0.003930371   -0.002157736   -0.002100631
     24        1           0.004241499    0.001198651    0.001657737
 -------------------------------------------------------------------
 Cartesian Forces:  Max     0.088237350 RMS     0.024448037
 Leave Link  716 at Sun Oct 13 23:51:04 2019, MaxMem= 10737418240 cpu:               1.0 elap:               0.1
 (Enter /apps/cent7/gaussian/g16-A.03/g16-haswell/g16/l103.exe)

 GradGradGradGradGradGradGradGradGradGradGradGradGradGradGradGradGradGrad
 Berny optimization.
 FormGI is forming the generalized inverse of G from B-inverse, IUseBI=4.
 GSVD:  received Info=                   1 from GESDD.
 Internal  Forces:  Max     0.087270757 RMS     0.016193787
 Search for a local minimum.
 Step number   1 out of a maximum of  125
 All quantities printed in internal units (Hartrees-Bohrs-Radians)
 RMS Force = .16194D-01 SwitMx=.10000D-02 MixMth= 1
 Mixed Optimization -- RFO/linear search
 Second derivative matrix not updated -- first step.
 ITU=  0
     Eigenvalues ---    0.01162   0.01921   0.01935   0.01940   0.01946
     Eigenvalues ---    0.01961   0.01983   0.02142   0.02236   0.02308
     Eigenvalues ---    0.02466   0.02561   0.02572   0.02669   0.02711
     Eigenvalues ---    0.02722   0.02757   0.02791   0.02887   0.10293
     Eigenvalues ---    0.10293   0.16000   0.16000   0.16000   0.16000
     Eigenvalues ---    0.16000   0.16000   0.16000   0.16000   0.16000
     Eigenvalues ---    0.16000   0.22000   0.22000   0.22000   0.22601
     Eigenvalues ---    0.24515   0.24964   0.24973   0.24989   0.24991
     Eigenvalues ---    0.25000   0.34807   0.34812   0.34813   0.34813
     Eigenvalues ---    0.34814   0.34816   0.34816   0.34818   0.38883
     Eigenvalues ---    0.39580   0.40190   0.43395   0.43599   0.43889
     Eigenvalues ---    0.44373   0.45978   0.46498   0.50657   0.55484
     Eigenvalues ---    0.55688   0.56875   0.61400   0.62837   0.66009
     Eigenvalues ---    0.68547
 RFO step:  Lambda=-5.28940491D-02 EMin= 1.16210178D-02
 Linear search not attempted -- first point.
 Maximum step size (   0.300) exceeded in Quadratic search.
    -- Step size scaled by   0.963
 Iteration  1 RMS(Cart)=  0.10274935 RMS(Int)=  0.00190077
 Iteration  2 RMS(Cart)=  0.00380021 RMS(Int)=  0.00020324
 Iteration  3 RMS(Cart)=  0.00000856 RMS(Int)=  0.00020320
 Iteration  4 RMS(Cart)=  0.00000000 RMS(Int)=  0.00020320
 ITry= 1 IFail=0 DXMaxC= 4.79D-01 DCOld= 1.00D+10 DXMaxT= 3.00D-01 DXLimC= 3.00D+00 Rises=F
 Variable       Old X    -DE/DX   Delta X   Delta X   Delta X     New X
                                 (Linear)    (Quad)   (Total)
    R1        2.72128  -0.00810   0.00000  -0.01739  -0.01739   2.70390
    R2        2.05977   0.00220   0.00000   0.00529   0.00529   2.06506
    R3        2.05975  -0.00075   0.00000  -0.00180  -0.00180   2.05794
    R4        2.05981   0.00094   0.00000   0.00226   0.00226   2.06207
    R5        2.53502   0.01383   0.00000   0.02142   0.02142   2.55644
    R6        2.42438   0.02508   0.00000   0.03237   0.03237   2.45675
    R7        2.57058   0.08328   0.00000   0.13824   0.13828   2.70886
    R8        2.46568   0.08727   0.00000   0.11858   0.11856   2.58424
    R9        2.65729  -0.01110   0.00000  -0.02012  -0.02010   2.63719
   R10        2.63408   0.03179   0.00000   0.06004   0.05996   2.69404
   R11        2.66464  -0.01828   0.00000  -0.03700  -0.03692   2.62772
   R12        2.05980  -0.00481   0.00000  -0.01154  -0.01154   2.04826
   R13        2.66765  -0.01000   0.00000  -0.02220  -0.02214   2.64551
   R14        2.05975  -0.00481   0.00000  -0.01154  -0.01154   2.04821
   R15        2.66613  -0.01937   0.00000  -0.03923  -0.03925   2.62689
   R16        2.05979  -0.00468   0.00000  -0.01123  -0.01123   2.04856
   R17        2.67242  -0.01044   0.00000  -0.01935  -0.01943   2.65299
   R18        2.05990  -0.00407   0.00000  -0.00977  -0.00977   2.05013
   R19        2.60577   0.06560   0.00000   0.11419   0.11419   2.71995
   R20        2.54525   0.03205   0.00000   0.05060   0.05060   2.59586
   R21        2.49849   0.00385   0.00000   0.00556   0.00556   2.50405
   R22        2.05971  -0.00222   0.00000  -0.00532  -0.00532   2.05439
   R23        2.46480   0.07252   0.00000   0.09791   0.09791   2.56271
   R24        1.90856  -0.00130   0.00000  -0.00244  -0.00244   1.90613
   R25        1.81404   0.00145   0.00000   0.00229   0.00229   1.81633
    A1        1.91070   0.00355   0.00000   0.01689   0.01687   1.92757
    A2        1.91064  -0.00752   0.00000  -0.03524  -0.03524   1.87540
    A3        1.91061   0.00078   0.00000   0.00394   0.00386   1.91448
    A4        1.91058   0.00134   0.00000   0.00523   0.00529   1.91587
    A5        1.91059  -0.00028   0.00000   0.00121   0.00112   1.91171
    A6        1.91067   0.00213   0.00000   0.00797   0.00789   1.91856
    A7        1.97927   0.00158   0.00000   0.00501   0.00501   1.98428
    A8        2.12645   0.00483   0.00000   0.01334   0.01334   2.13979
    A9        2.19826  -0.01010   0.00000  -0.03415  -0.03417   2.16409
   A10        1.95787   0.00531   0.00000   0.02125   0.02120   1.97907
   A11        1.88943  -0.01386   0.00000  -0.03686  -0.03701   1.85242
   A12        2.24765  -0.00772   0.00000  -0.02738  -0.02730   2.22035
   A13        1.90747   0.01781   0.00000   0.05401   0.05392   1.96138
   A14        2.12784  -0.01008   0.00000  -0.02649  -0.02650   2.10134
   A15        2.06658   0.00185   0.00000   0.00573   0.00582   2.07240
   A16        2.10607  -0.00238   0.00000  -0.00945  -0.00949   2.09657
   A17        2.11054   0.00053   0.00000   0.00372   0.00367   2.11421
   A18        2.09934   0.00671   0.00000   0.01585   0.01599   2.11533
   A19        2.09099  -0.00292   0.00000  -0.00593  -0.00600   2.08499
   A20        2.09285  -0.00380   0.00000  -0.00992  -0.00999   2.08286
   A21        2.10446   0.00341   0.00000   0.00425   0.00429   2.10874
   A22        2.08973  -0.00150   0.00000  -0.00121  -0.00123   2.08851
   A23        2.08899  -0.00191   0.00000  -0.00305  -0.00307   2.08593
   A24        2.07687  -0.00032   0.00000  -0.00184  -0.00198   2.07489
   A25        2.10115  -0.00776   0.00000  -0.03488  -0.03485   2.06631
   A26        2.10516   0.00808   0.00000   0.03672   0.03675   2.14191
   A27        2.09074  -0.00157   0.00000   0.00253   0.00242   2.09315
   A28        1.83959  -0.00855   0.00000  -0.03372  -0.03376   1.80583
   A29        2.35275   0.01011   0.00000   0.03105   0.03115   2.38390
   A30        1.82800  -0.00055   0.00000  -0.00271  -0.00279   1.82521
   A31        2.17602  -0.01092   0.00000  -0.03439  -0.03434   2.14168
   A32        2.27870   0.01143   0.00000   0.03664   0.03657   2.31527
   A33        2.16544   0.01050   0.00000   0.03704   0.03699   2.20243
   A34        2.07631  -0.00047   0.00000   0.00311   0.00306   2.07937
   A35        2.04144  -0.01003   0.00000  -0.04015  -0.04020   2.00124
   A36        2.12100  -0.00809   0.00000  -0.02855  -0.02873   2.09228
   A37        2.09323   0.00511   0.00000   0.01910   0.01893   2.11215
   A38        2.06896   0.00298   0.00000   0.00945   0.00928   2.07823
   A39        1.91073  -0.00229   0.00000  -0.01034  -0.01034   1.90039
    D1        0.55158   0.00231   0.00000   0.02543   0.02555   0.57713
    D2        2.64596   0.00153   0.00000   0.02060   0.02049   2.66645
    D3       -1.54279   0.00000   0.00000   0.01119   0.01118  -1.53161
    D4        1.52252  -0.00347   0.00000  -0.04306  -0.04319   1.47933
    D5       -1.65943  -0.00225   0.00000  -0.02789  -0.02776  -1.68719
    D6       -3.14060  -0.00065   0.00000  -0.00409  -0.00340   3.13919
    D7        0.03627  -0.00138   0.00000  -0.01617  -0.01615   0.02012
    D8        3.11551   0.00071   0.00000   0.01153   0.01165   3.12716
    D9       -0.05561  -0.00023   0.00000  -0.00253  -0.00184  -0.05745
   D10       -0.06310   0.00186   0.00000   0.02544   0.02578  -0.03732
   D11        3.04897   0.00093   0.00000   0.01137   0.01229   3.06126
   D12        3.12518   0.00048   0.00000   0.00638   0.00648   3.13166
   D13        0.00636   0.00012   0.00000  -0.00037  -0.00052   0.00584
   D14       -3.09791  -0.00082   0.00000  -0.00938  -0.00952  -3.10743
   D15        0.04377  -0.00087   0.00000  -0.00992  -0.00999   0.03378
   D16        0.01837  -0.00009   0.00000  -0.00097  -0.00111   0.01726
   D17       -3.12314  -0.00015   0.00000  -0.00152  -0.00157  -3.12471
   D18        3.08375   0.00048   0.00000   0.00746   0.00798   3.09174
   D19       -0.04442   0.00112   0.00000   0.01643   0.01650  -0.02792
   D20       -0.03693   0.00015   0.00000   0.00137   0.00163  -0.03530
   D21        3.11808   0.00078   0.00000   0.01034   0.01015   3.12823
   D22        0.00703  -0.00006   0.00000   0.00023   0.00019   0.00723
   D23       -3.13458  -0.00033   0.00000  -0.00319  -0.00313  -3.13771
   D24       -3.13465  -0.00001   0.00000   0.00077   0.00067  -3.13398
   D25        0.00692  -0.00027   0.00000  -0.00264  -0.00266   0.00427
   D26       -0.01361  -0.00014   0.00000  -0.00064  -0.00052  -0.01413
   D27        3.12788  -0.00044   0.00000  -0.00483  -0.00470   3.12318
   D28        3.12801   0.00012   0.00000   0.00278   0.00280   3.13080
   D29       -0.01369  -0.00018   0.00000  -0.00141  -0.00138  -0.01507
   D30       -0.00471  -0.00001   0.00000   0.00070   0.00071  -0.00400
   D31        3.13703  -0.00102   0.00000  -0.01278  -0.01255   3.12448
   D32        3.13699   0.00029   0.00000   0.00490   0.00488  -3.14132
   D33       -0.00446  -0.00071   0.00000  -0.00858  -0.00839  -0.01284
   D34        0.02948  -0.00007   0.00000  -0.00109  -0.00129   0.02819
   D35       -3.13035  -0.00116   0.00000  -0.01401  -0.01410   3.13874
   D36       -3.11226   0.00093   0.00000   0.01242   0.01257  -3.09969
   D37        0.01110  -0.00016   0.00000  -0.00050  -0.00024   0.01086
   D38        0.06211  -0.00232   0.00000  -0.02620  -0.02562   0.03649
   D39       -3.04752  -0.00075   0.00000  -0.00922  -0.00837  -3.05589
   D40       -3.06306  -0.00136   0.00000  -0.01475  -0.01437  -3.07744
   D41        0.11049   0.00021   0.00000   0.00223   0.00288   0.11337
   D42       -3.06783   0.00158   0.00000   0.01906   0.01911  -3.04872
   D43        0.07382  -0.00002   0.00000  -0.00010  -0.00024   0.07357
   D44        0.03617   0.00001   0.00000  -0.00005   0.00009   0.03626
   D45       -3.10536  -0.00159   0.00000  -0.01921  -0.01927  -3.12464
   D46       -3.13402  -0.00235   0.00000  -0.02835  -0.02828   3.12088
   D47        0.00756   0.00054   0.00000   0.00662   0.00675   0.01431
   D48        0.00752  -0.00078   0.00000  -0.00954  -0.00968  -0.00216
   D49       -3.13409   0.00211   0.00000   0.02543   0.02536  -3.10873
   D50        2.74184  -0.00225   0.00000  -0.02784  -0.02791   2.71393
   D51       -0.39974  -0.00510   0.00000  -0.06234  -0.06227  -0.46201
         Item               Value     Threshold  Converged?
 Maximum Force            0.087271     0.000450     NO 
 RMS     Force            0.016194     0.000300     NO 
 Maximum Displacement     0.478611     0.001800     NO 
 RMS     Displacement     0.103127     0.001200     NO 
 Predicted change in Energy=-2.916522D-02
 Lowest energy point so far.  Saving SCF results.
 GradGradGradGradGradGradGradGradGradGradGradGradGradGradGradGradGradGrad

 Leave Link  103 at Sun Oct 13 23:51:04 2019, MaxMem= 10737418240 cpu:               2.7 elap:               0.2
 (Enter /apps/cent7/gaussian/g16-A.03/g16-haswell/g16/l202.exe)
                          Input orientation:                          
 ---------------------------------------------------------------------
 Center     Atomic      Atomic             Coordinates (Angstroms)
 Number     Number       Type             X           Y           Z
 ---------------------------------------------------------------------
      1          6           0        1.496049   -0.031929   -0.034143
      2          8           0        0.068976   -0.056736    0.066631
      3          6           0       -0.413365    0.635197    1.124305
      4          7           0       -0.628853    1.916626    1.083625
      5          6           0       -1.111515    2.260173    2.316151
      6          6           0       -1.477406    3.533579    2.754446
      7          6           0       -1.911229    3.690152    4.066259
      8          6           0       -1.976141    2.601079    4.943496
      9          6           0       -1.623185    1.324512    4.521419
     10          6           0       -1.203057    1.140998    3.194484
     11          6           0       -0.763942    0.038700    2.379741
     12          6           0       -0.701448   -1.315540    2.601311
[...]
 3,0.00022603,-0.00003641,-0.00008019,-0.00001868,0.01249118,-0.0148696
 1,-0.01172424,0.10864730,0.09495663,-0.20745276,-0.11449738,-0.0120805
 9,0.01427176,0.01595398,-0.00153053,-0.00285494,0.00331516,0.00087256,
 -0.00022327,-0.00123265,-0.00019555,0.00072097,0.00017641,0.00002146,-
 0.00003260,-0.00002411,-0.00001586,-0.00000192,0.00001975,0.00001248,-
 0.00001193,-0.00000662,-0.00002829,0.00014237,-0.00001323,0.00009462,-
 0.00011806,-0.00011474,-0.00020710,0.00069043,0.00021545,-0.00001745,-
 0.00000352,0.00006423,0.00001670,-0.00002453,-0.00012263,0.00001982,0.
 00003602,0.00000496,0.01066571,-0.01245892,-0.00863801,-0.09579047,0.2
 1536855,0.05721708,-0.10210819,-0.12016723,0.01901567,-0.01883333,-0.0
 2635647,0.00066596,0.00524449,-0.00224165,-0.00016128,0.00011618,0.000
 75414,0.00006893,-0.00025295,0.00016081,0.00001439,0.00002890,-0.00000
 758,0.00002016,0.00001286,-0.00005842,0.00005388,-0.00006932,-0.000057
 78,-0.00006306,-0.00010498,0.00006362,0.00024194,0.00013234,-0.0004237
 0,0.00050617,-0.00077118,-0.00033921,-0.00009582,-0.00041974,0.0002492
 3,0.00001620,0.00008859,-0.00036354,0.00003742,0.00011681,0.00001966,0
 .00389511,-0.00721182,-0.00377254,-0.07502369,0.11205035,0.14036727,-0
 .20008440,0.09001033,-0.10733909,0.01446863,-0.00963936,0.01522388,0.0
 0202385,-0.00173329,-0.00030411,0.00005549,0.00151210,0.00085666,-0.00
 041954,-0.00044664,-0.00001182,0.00003730,0.00002363,-0.00001003,0.000
 01329,0.00003704,-0.00001911,0.00002250,-0.00005388,-0.00002306,-0.000
 06142,-0.00001261,0.00005682,0.00005537,-0.00006203,-0.00002544,-0.000
 66037,-0.00035185,-0.00006183,0.00001508,0.00012574,-0.00004001,-0.000
 02744,-0.00000161,0.00017997,0.00000879,-0.00002389,0.00000728,-0.0143
 0584,0.01064707,-0.01014830,-0.00780923,0.00319364,-0.00651501,0.20668
 935,0.08655188,-0.10259395,0.06068290,0.00568223,-0.01007623,0.0171545
 6,0.00118976,-0.00041598,-0.00234283,-0.00063869,0.00040970,0.00011171
 ,0.00041407,-0.00001664,-0.00021436,-0.00003625,0.00001395,0.00003151,
 -0.00004135,-0.00005022,0.00004713,-0.00005958,0.00011584,0.00006726,0
 .00003606,-0.00005214,-0.00010576,-0.00018009,-0.00001141,0.00024400,-
 0.00023153,-0.00020005,0.00017050,0.00010857,0.00015633,-0.00016852,-0
 .00005433,0.00003409,0.00019442,-0.00003940,-0.00008710,0.00000020,-0.
 01571515,0.01103791,-0.01242025,0.01617985,-0.00802840,0.01200829,-0.0
 9323335,0.10969147,-0.09850428,0.05725753,-0.11989322,-0.00963294,0.01
 748078,-0.02981820,-0.00457158,0.00665331,0.00309159,-0.00027728,-0.00
 197157,0.00030577,0.00053780,-0.00046540,0.00023693,-0.00005800,0.0000
 9122,0.00000140,0.00006214,0.00000946,-0.00007355,0.00000203,-0.000068
 14,-0.00000648,0.00001984,-0.00008142,0.00006387,-0.00014171,0.0001249
 8,0.00009766,0.00078381,0.00013128,-0.00027586,-0.00014436,-0.00023454
 ,0.00015172,0.00005980,-0.00006452,-0.00020625,0.00002263,0.00004894,-
 0.00001588,-0.00880894,0.00382147,-0.00374708,0.01247686,-0.00717564,0
 .01214087,0.10823818,-0.07542721,0.13783492,0.00001022,0.00002156,0.00
 000270,0.00020310,-0.00005384,0.00012549,-0.00024216,0.00008091,-0.000
 19031,-0.00254470,-0.00140812,-0.00219797,0.00678722,0.00621804,-0.005
 16243,-0.06105289,-0.05224196,0.05323916,-0.00044316,-0.01313317,0.007
 78173,0.00395957,0.00191794,0.00545922,-0.00098557,0.00048631,-0.00013
 217,0.00490575,0.00253479,0.00314239,0.00010877,0.00038149,-0.00026111
 ,-0.00014078,0.00014082,0.00001712,-0.00001275,-0.00000672,0.00008139,
 -0.00000467,-0.00000700,-0.00000495,-0.00002390,0.00000229,-0.00001227
 ,0.00000182,-0.00001266,0.00000440,-0.00000306,0.00001351,0.00000604,0
 .05297018,-0.00001310,-0.00007609,0.00004663,0.00004388,0.00021879,-0.
 00005719,0.00000314,-0.00049426,0.00000415,-0.00084031,0.00245642,-0.0
 0021950,-0.00940775,-0.01650533,0.02078292,-0.05201886,-0.22367346,0.1
 3242613,0.00209645,0.00856304,-0.00500318,0.00167314,0.00152589,-0.001
 36585,0.00058985,-0.00044698,-0.00110746,0.00261443,-0.00352575,-0.001
 72254,-0.00053727,-0.00080216,0.00102939,0.00037879,-0.00020232,-0.000
 53592,0.00001839,0.00007424,0.00004144,-0.00002145,-0.00005495,0.00000
 976,0.00002372,-0.00001474,-0.00000663,0.00000384,0.00001939,-0.000011
 19,-0.00000453,-0.00001922,-0.00002337,0.05622030,0.23234755,0.0000166
 0,-0.00001488,-0.00000430,0.00008916,0.00013065,0.00009114,-0.00017216
 ,-0.00016143,-0.00002739,-0.00228805,0.00082025,-0.00052228,-0.0012383
 9,-0.00613959,0.00812813,0.05284465,0.13316837,-0.15709288,0.00427867,
 0.02030842,-0.00979195,0.00551643,-0.00178374,-0.00120094,-0.00032240,
 -0.00065582,-0.00029769,0.00341099,-0.00129226,0.00190290,-0.00007530,
 -0.00037463,0.00021435,0.00000328,-0.00018817,-0.00004437,0.00002698,0
 .00003600,-0.00007865,0.00000671,0.00002278,0.00001092,0.00001341,-0.0
 0001291,0.00000248,-0.00000014,0.00001635,-0.00000157,-0.00001892,-0.0
 0001360,-0.00001383,-0.05967246,-0.14419231,0.15990947,0.00004911,0.00
 003302,-0.00007103,-0.00019311,0.00021117,0.00007300,-0.00020439,-0.00
 030490,0.00016489,0.00000957,0.00100409,0.00012931,0.00389785,0.000363
 59,0.00562206,-0.00079140,0.01570300,0.00284569,-0.06548927,0.07712006
 ,0.02868052,0.00541158,-0.00776922,-0.00187890,0.00504670,-0.00080938,
 0.00356445,-0.00103977,-0.00037424,0.00004696,-0.00037835,-0.00004187,
 -0.00034404,0.00004693,-0.00003609,0.00003897,-0.00021178,0.00012840,-
 0.00011974,0.00004533,0.00003725,0.00006145,0.00000005,-0.00000872,0.0
 0000471,-0.00000477,0.00000597,0.00000484,0.00000278,-0.00000946,-0.00
 000244,-0.00264008,-0.00074780,-0.00212683,0.05894506,-0.00004578,-0.0
 0004249,0.00008980,0.00013032,-0.00015223,-0.00019794,-0.00003599,0.00
 032729,-0.00005325,0.00008932,-0.00042224,0.00002059,0.00069455,0.0021
 7925,0.00013276,0.00010481,-0.00068812,0.00084107,0.07710433,-0.304848
 85,-0.06132869,0.00781059,-0.01679410,-0.00817441,-0.00098316,-0.00171
 720,0.00401221,-0.00047766,0.00051034,0.00047383,-0.00007100,-0.000003
 34,-0.00009228,-0.00000324,0.00001260,0.00003908,-0.00005092,0.0000302
 4,0.00000525,0.00000597,-0.00008369,-0.00000668,-0.00000059,0.00001211
 ,-0.00000281,0.00000608,-0.00000601,-0.00000880,0.00000060,0.00001183,
 -0.00000324,-0.00032643,0.00045621,-0.00058499,-0.08366601,0.32149132,
 -0.00005528,-0.00004354,0.00010849,0.00011213,-0.00035364,-0.00019831,
 0.00011840,0.00035406,-0.00041962,0.00033905,-0.00154288,0.00005360,0.
 00557867,0.00054708,-0.00207217,0.00664258,-0.02537043,-0.00156822,0.0
 2875610,-0.06149991,-0.06948114,-0.00580147,0.01844193,0.00829545,0.00
 361702,0.00367620,-0.00016737,0.00003025,0.00032673,-0.00121777,-0.000
 32740,-0.00021945,-0.00001313,0.00009743,0.00013698,-0.00013459,-0.000
 13645,0.00003469,0.00011970,-0.00002164,0.00002274,0.00006381,-0.00000
 385,0.00001212,0.00000051,0.00000532,-0.00000816,-0.00000699,0.0000013
 3,0.00001240,-0.00000163,-0.00222980,0.00016080,-0.00035046,-0.0345862
 2,0.06525627,0.06733157,-0.00004465,0.00000929,-0.00006397,-0.00018372
 ,-0.00004386,0.00002399,0.00003456,0.00019001,-0.00009336,-0.00040317,
 -0.00011816,-0.00018699,-0.00048822,0.00007390,-0.00071146,0.00545085,
 -0.00077647,0.00291401,-0.00096580,0.00241569,0.00520846,-0.11583838,0
 .03011050,0.13316922,-0.00122584,-0.00045551,0.00612685,0.00459355,0.0
 0224328,0.00239321,0.00050987,-0.00011985,0.00050836,-0.00004352,-0.00
 008028,0.00021124,0.00000154,-0.00001733,-0.00020956,0.00001528,0.0000
 4763,-0.00000472,-0.00000568,-0.00001060,0.00001623,-0.00000075,0.0000
 0292,0.00000751,0.00000467,0.00000046,-0.00000947,0.00003728,0.0001606
 9,0.00029043,-0.00289243,-0.00069918,-0.00203223,0.11419721,-0.0000166
 7,-0.00005438,0.00002111,0.00009831,0.00015805,-0.00024085,0.00001351,
 -0.00069820,0.00013461,-0.00008934,0.00049227,-0.00010863,-0.00000599,
 -0.00161055,0.00022985,-0.00041151,-0.00317621,0.00334978,-0.01290842,
 0.00844041,0.02070835,0.02963045,-0.06736734,-0.04224759,0.01511614,-0
 .00101590,-0.02544726,0.00208661,-0.00534162,-0.00045563,0.00053704,0.
 00063281,-0.00093399,0.00016348,0.00017296,-0.00026373,-0.00002595,-0.
 00001261,0.00022411,-0.00006140,-0.00006073,0.00002545,0.00000545,0.00
 000341,-0.00000402,0.00000932,0.00000621,-0.00001604,0.00000262,0.0000
 0380,-0.00001087,-0.00062608,0.00027952,0.00097397,-0.00028662,0.00067
 037,-0.00076235,-0.03245419,0.06774019,-0.00004882,-0.00002142,0.00000
 978,-0.00002045,0.00000972,-0.00013192,-0.00004648,-0.00014167,0.00010
 075,-0.00018578,-0.00006565,-0.00017329,-0.00070781,0.00068577,0.00014
 565,0.00292858,0.00380089,0.00089705,0.00895176,-0.00622923,-0.0113889
 3,0.13344352,-0.04211436,-0.25440610,0.00241325,0.00093958,-0.00221445
 ,0.00207566,-0.00077166,0.00295813,0.00034443,0.00005895,0.00014970,0.
 00015385,0.00014777,-0.00024363,-0.00003248,-0.00001040,0.00024178,-0.
 00004972,-0.00008384,-0.00001416,-0.00000633,0.00000313,0.00000208,0.0
 0000634,-0.00000499,-0.00000517,0.00000813,0.00001043,-0.00000736,0.00
 054053,-0.00032273,-0.00055699,-0.00210436,-0.00010224,-0.00047735,-0.
 14576294,0.04486125,0.26561449,0.00002282,0.00000484,0.00001711,0.0000
 1215,0.00013874,0.00000472,-0.00034686,-0.00085970,0.00018785,-0.00088
 560,-0.00013811,0.00074808,0.00517294,0.00220015,0.00525483,-0.0011904
 9,0.00046988,0.00006540,0.00522953,0.00258892,0.00275751,0.00522367,0.
 00594555,-0.00563525,-0.05448430,-0.04227114,0.04939628,-0.00033580,-0
 .01318913,0.00871277,-0.00183845,-0.00020985,-0.00243552,-0.00037164,-
 0.00022680,0.00058554,-0.00101265,0.00055673,-0.00103241,0.00015261,-0
 .00006685,0.00017276,0.00001717,-0.00000879,-0.00000896,0.00000375,0.0
 0001359,0.00000127,-0.00001429,-0.00000087,-0.00000745,-0.00085407,-0.
 00019847,-0.00054761,0.00023070,0.00035459,-0.00017629,-0.00279276,-0.
 00080548,-0.00191820,0.04600075,0.00005336,0.00005241,-0.00008460,-0.0
 0018712,0.00011575,0.00028501,-0.00007186,-0.00007866,0.00005460,0.000
 07570,0.00047232,-0.00029409,0.00211977,0.00129933,-0.00107486,0.00029
 764,-0.00002481,-0.00088830,0.00332004,-0.00427022,-0.00216522,-0.0084
 7488,-0.01644824,0.02093566,-0.04275397,-0.20956292,0.13247755,0.00146
 617,0.00780533,-0.00422884,-0.00082895,0.00012411,0.00017502,-0.000114
 78,0.00010590,0.00013568,-0.00061416,-0.00096449,0.00007491,0.00030416
 ,-0.00011984,-0.00014905,-0.00000341,-0.00001670,0.00000210,-0.0000079
 3,0.00000134,0.00001323,-0.00000104,-0.00001229,0.00000827,-0.00022106
 ,-0.00001802,-0.00001234,-0.00042608,-0.00101871,0.00099429,-0.0005196
 0,0.00080639,-0.00069708,0.04623115,0.22350401,-0.00000128,-0.00000931
 ,0.00002902,0.00006119,-0.00028256,-0.00001534,0.00014212,0.00152096,-
 0.00075525,0.00086731,-0.00013045,-0.00165622,0.00469228,-0.00205090,0
 .00033579,0.00009492,-0.00095560,-0.00088026,0.00260662,-0.00157386,0.
 00261251,-0.00140175,-0.00607185,0.00750732,0.05041362,0.13506112,-0.1
 6898613,0.00344212,0.02164995,-0.01033559,-0.00222724,-0.00164945,0.00
 080866,0.00100946,0.00113711,-0.00218852,-0.00041857,-0.00010001,0.001
 28811,-0.00033025,0.00059196,0.00037399,-0.00002555,0.00000404,-0.0000
 0234,0.00000631,-0.00002540,0.00000077,0.00000360,0.00001620,0.0000246
 3,-0.00050068,0.00004857,-0.00027001,-0.00001865,-0.00034017,0.0002134
 4,-0.00189630,0.00005502,-0.00047333,-0.05648531,-0.14425071,0.1727775
 9,-0.00012654,0.00000170,0.00008736,-0.00017022,0.00004944,0.00028308,
 -0.00462350,-0.00084589,-0.00324110,0.00134195,0.00039457,0.00084213,-
 0.00031657,-0.00010860,-0.00052143,-0.00050167,-0.00020309,-0.00035446
 ,0.00008101,-0.00007038,0.00020735,-0.00057383,0.00009228,-0.00035095,
 -0.00031269,-0.00020820,0.00001398,0.00634317,-0.00039937,0.00436288,0
 .00730695,-0.00158834,-0.00017473,-0.10599166,0.08921959,0.08312327,-0
 .00557879,0.00792273,0.01315536,0.00018847,0.00241982,-0.00263830,0.00
 000227,-0.00001599,-0.00000546,0.00002553,-0.00000269,0.00005653,0.000
 01455,0.00007128,-0.00006928,-0.00005143,-0.00004372,-0.00004002,0.000
 05878,0.00000951,0.00003519,0.00003193,-0.00000314,0.00000698,0.000400
 27,0.00011903,0.00013607,0.10165623,-0.00043606,0.00021719,0.00068619,
 -0.00024401,0.00090270,0.00017119,0.00047008,-0.00207181,-0.00139961,-
 0.00057563,0.00134231,0.00091564,0.00137179,-0.00103648,-0.00209834,-0
 .00046507,-0.00005570,0.00069820,0.00010347,0.00016686,-0.00017939,0.0
 0003351,-0.00017801,-0.00015033,-0.00018443,-0.00001492,0.00030580,-0.
 00103999,-0.00189025,0.00318580,0.01427959,-0.01423547,-0.01795417,0.0
 9364593,-0.18646449,-0.11440631,-0.00860105,0.00889049,0.00998730,-0.0
 0020162,0.00182345,0.00043324,0.00008429,0.00008163,-0.00012198,0.0000
 0753,-0.00003296,0.00001081,0.00004481,0.00008122,-0.00013964,0.000037
 86,-0.00015250,-0.00004183,0.00000712,-0.00000764,-0.00000036,0.000024
 02,-0.00006392,-0.00001066,0.00006273,0.00000321,-0.00006570,-0.096756
 92,0.19353744,0.00015419,-0.00003405,-0.00033000,0.00029750,-0.0002175
 0,-0.00033658,-0.00417692,0.00036016,-0.00132678,0.00128485,-0.0002831
 5,0.00030866,-0.00071437,0.00003301,0.00036410,-0.00032774,-0.00002039
 ,-0.00034675,0.00008677,0.00002664,0.00009816,-0.00045042,0.00000003,-
 0.00019648,-0.00003511,0.00001770,-0.00043610,0.00461737,0.00235215,0.
 00250265,-0.00167582,0.00395924,0.00975655,0.08222936,-0.10761117,-0.1
 4915276,0.01860398,-0.01810380,-0.01532341,-0.00252914,-0.00062256,0.0
 0181107,-0.00006177,-0.00008866,0.00008630,0.00005980,0.00002313,-0.00
 002950,-0.00002347,-0.00002102,0.00006443,-0.00005060,0.00005037,-0.00
 002410,0.00004102,0.00000352,0.00002814,0.00000751,0.00003322,0.000023
 35,0.00023939,-0.00000179,0.00026592,-0.09854073,0.11725862,0.15488283
 ,0.00010358,0.00000737,-0.00002147,-0.00021637,0.00013428,0.00010268,0
 .00106476,0.00065129,-0.00031269,0.00014726,-0.00036171,-0.00054341,-0
 .00027411,0.00057546,0.00031093,0.00044881,-0.00046561,-0.00061389,-0.
 00033350,-0.00020977,0.00069433,-0.00028047,0.00089360,-0.00062581,-0.
 00095297,-0.00082956,0.00092476,-0.00062588,-0.00167338,-0.00069684,0.
 00045583,-0.00035969,0.00173954,-0.00990249,0.00812592,-0.00417319,-0.
 32018863,0.15997233,0.13566135,0.01415395,-0.01549178,-0.01018034,-0.0
 0000410,-0.00000517,-0.00000325,-0.00000665,0.00000389,0.00000647,-0.0
 0001665,-0.00000433,0.00001828,0.00001297,0.00001288,0.00000149,0.0000
 9279,0.00005509,0.00002873,-0.00000167,0.00002208,0.00000704,0.0016228
 7,0.00023255,-0.00023474,0.00075060,-0.00149548,0.00041132,0.31436887,
 0.00017338,-0.00000263,-0.00009043,-0.00016704,-0.00016095,0.00034530,
 0.00058243,0.00196975,-0.00274832,0.00096557,-0.00219252,-0.00074267,-
 0.00116554,-0.00070461,0.00224059,-0.00005809,0.00049346,-0.00000343,0
 .00007922,0.00023331,-0.00041670,0.00129551,-0.00033483,-0.00022389,0.
 00018220,-0.00093201,0.00051447,-0.00069249,0.00342108,0.00122093,-0.0
 0206983,-0.00513658,0.00168309,-0.00843630,0.01841239,0.00115114,0.134
 74592,-0.13375842,-0.04674449,0.02427370,-0.03470029,-0.00507940,-0.00
 001401,-0.00000481,0.00001435,-0.00000735,0.00000805,0.00001058,-0.000
 03611,-0.00001057,0.00005197,-0.00002032,0.00003209,-0.00000057,-0.000
 11718,0.00006689,-0.00016879,0.00002513,-0.00000986,0.00003807,-0.0005
 7548,-0.00172269,-0.00254479,-0.00025450,-0.00094441,0.00275926,-0.149
 93901,0.16026545,0.00018012,0.00014125,-0.00015203,-0.00083146,0.00067
 103,0.00118418,0.00098291,0.00160010,-0.00481996,0.00105901,-0.0021875
 7,-0.00029754,-0.00118462,-0.00006960,0.00148061,0.00029736,-0.0000778
 0,-0.00042965,-0.00012662,-0.00030957,0.00026740,0.00045758,0.00058005
 ,-0.00049180,-0.00031636,-0.00102433,0.00081303,-0.00082339,0.00350391
 ,0.00136650,-0.00264999,-0.00819661,0.00319889,0.03135267,-0.00820993,
 -0.02381480,0.09147798,-0.03889362,-0.04403039,0.00110733,-0.00319794,
 -0.00374007,-0.00000294,-0.00001828,0.00001102,-0.00003446,0.00001239,
 0.00006081,-0.00002872,-0.00001756,0.00002580,0.00001492,-0.00001982,0
 .00001129,-0.00003223,0.00003619,-0.00010004,0.00007133,-0.00009483,-0
 .00002804,0.00009150,-0.00133491,-0.00075096,0.00385980,0.00240073,-0.
 00242722,-0.12301227,0.05225498,0.07198836,0.00003483,0.00001046,-0.00
 003614,-0.00019405,0.00014517,0.00020470,0.00011634,-0.00035050,-0.000
 47068,-0.00003574,-0.00005868,0.00021990,0.00002888,0.00001865,-0.0000
 2543,-0.00000712,-0.00001762,-0.00000309,-0.00000169,-0.00002766,0.000
 00998,-0.00006349,0.00000321,0.00001239,0.00001680,0.00000562,-0.00010
 130,0.00000738,0.00002851,-0.00000638,-0.00113002,-0.00023563,0.000899
 08,0.00120120,-0.00487614,0.00074939,0.00504192,-0.01294805,0.01446343
 ,-0.14405529,0.11186538,-0.21590613,-0.00000023,-0.00001391,0.00000843
 ,-0.00000502,0.00000119,0.00002492,-0.00000942,-0.00000329,0.00000035,
 0.00000235,-0.00000627,0.00000347,0.00000816,-0.00000583,0.00000842,0.
 00000986,0.00000979,0.00000329,0.00003768,0.00000526,0.00006469,0.0000
 4520,-0.00017248,0.00055303,-0.00041881,0.00123022,-0.00190945,0.13937
 028,-0.00007898,-0.00004514,0.00021423,0.00036796,-0.00018453,-0.00052
 851,-0.00117819,-0.00080643,0.00084648,-0.00000519,0.00059842,0.000295
 09,0.00024395,-0.00002948,-0.00044735,-0.00008119,0.00008807,0.0001547
 8,0.00002490,0.00014659,-0.00010143,0.00011038,-0.00010968,0.00000953,
 -0.00019458,0.00011814,0.00012745,0.00029924,-0.00046716,-0.00022677,-
 0.00077690,0.00176338,-0.00023464,0.00083318,-0.00741499,0.00306318,0.
 01675839,-0.03263504,0.02612806,0.07794622,-0.11398032,0.12745549,0.00
 000948,0.00002153,-0.00002539,0.00001567,-0.00001526,-0.00002590,0.000
 00260,0.00001807,-0.00001366,0.00000154,0.00001264,-0.00000772,-0.0000
 1610,0.00001617,-0.00000679,-0.00000845,0.00000496,0.00002038,-0.00001
 620,-0.00003251,-0.00003416,0.00020089,0.00010208,0.00012704,0.0001487
 8,-0.00428729,0.00245175,-0.09460740,0.15711778,0.00008160,0.00007170,
 -0.00016227,-0.00022720,0.00000522,0.00039487,0.00059991,0.00066265,-0
 .00104925,0.00015230,-0.00079462,-0.00007746,-0.00029672,-0.00001376,0
 .00046647,0.00004459,-0.00004395,-0.00010161,0.00000661,-0.00012145,0.
 00003403,-0.00000491,0.00004307,-0.00002365,0.00005752,-0.00011796,-0.
 00011174,-0.00021045,0.00075971,0.00034157,-0.00034966,-0.00187512,0.0
 0097079,0.00057820,0.00243605,-0.00321880,0.00607233,-0.01338639,0.010
 78891,-0.20803018,0.17468471,-0.32181620,-0.00000811,-0.00002031,0.000
 01859,-0.00001030,0.00001141,0.00001418,-0.00000693,-0.00002039,0.0000
 1974,-0.00000031,-0.00001247,0.00000673,0.00000655,-0.00001506,-0.0000
 0593,0.00002266,-0.00003091,-0.00002206,0.00001196,0.00002547,0.000076
 17,-0.00023352,0.00051479,-0.00026250,0.00051095,-0.00352125,0.0006746
 3,0.20123310,-0.15924113,0.31304479\\-0.00000446,-0.00000148,-0.000003
 07,0.00000780,0.00000221,0.00000108,-0.00001960,-0.00000700,0.00002717
 ,0.00003187,-0.00002098,-0.00003726,-0.00004371,0.00000790,0.00007065,
 0.00000867,0.00000077,-0.00001545,-0.00000031,0.00000126,0.00000472,0.
 00000226,-0.00001016,-0.00000669,-0.00001676,0.00000961,0.00001890,0.0
 0004854,-0.00003071,-0.00004527,-0.00001353,0.00004875,-0.00002676,-0.
 00000639,-0.00000830,0.00001781,0.00000790,-0.00001622,0.00001375,0.00
 000871,0.00001185,-0.00000405,0.00000193,-0.00000007,0.00000082,0.0000
 0121,0.00000065,0.,0.00000268,0.00000264,0.00000171,-0.00000313,0.0000
 0152,0.00000433,0.00000013,0.00000039,-0.00000080,-0.00000096,-0.00000
 119,0.00000119,0.00000078,-0.00000136,-0.00000265,0.00000076,0.0000039
 5,-0.00001043,-0.00001067,0.00000199,-0.00000883,-0.00000374,0.0000039
 8,-0.00000086\\\@


 LEARN FROM YESTERDAY,
 LIVE FOR TODAY,
 LOOK TO TOMORROW,
 REST THIS AFTERNOON.

           -- SNOOPY
 Job cpu time:       0 days  1 hours 53 minutes 17.3 seconds.
 Elapsed time:       0 days  0 hours  4 minutes 44.5 seconds.
 File lengths (MBytes):  RWF=    320 Int=      0 D2E=      0 Chk=     13 Scr=      1
 Normal termination of Gaussian 16 at Mon Oct 14 00:03:40 2019.
real 797.00
user 18638.82
sys 99.55
Machine:
brown-a442
brown-a442
brown-a442
brown-a442
brown-a442
brown-a442
brown-a442
brown-a442
brown-a442
brown-a442
brown-a442
brown-a442
brown-a442
brown-a442
brown-a442
brown-a442
brown-a442
brown-a442
brown-a442
brown-a442
brown-a442
brown-a442
brown-a442
brown-a442
