 Entering Gaussian System, Link 0=/apps/cent7/gaussian/g16-A.03/g16-haswell/g16/g16
 Initial command:
 /apps/cent7/gaussian/g16-A.03/g16-haswell/g16/l1.exe "/scratch/brown/finej/gaussian/Gau-148522.inp" -scrdir="/scratch/brown/finej/gaussian/"
 Entering Link 1 = /apps/cent7/gaussian/g16-A.03/g16-haswell/g16/l1.exe PID=    148524.
  
 Copyright (c) 1988,1990,1992,1993,1995,1998,2003,2009,2016,
            Gaussian, Inc.  All Rights Reserved.
  
 This is part of the Gaussian(R) 16 program.  It is based on
 the Gaussian(R) 09 system (copyright 2009, Gaussian, Inc.),
 the Gaussian(R) 03 system (copyright 2003, Gaussian, Inc.),
 the Gaussian(R) 98 system (copyright 1998, Gaussian, Inc.),
 the Gaussian(R) 94 system (copyright 1995, Gaussian, Inc.),
 the Gaussian 92(TM) system (copyright 1992, Gaussian, Inc.),
 the Gaussian 90(TM) system (copyright 1990, Gaussian, Inc.),
 the Gaussian 88(TM) system (copyright 1988, Gaussian, Inc.),
 the Gaussian 86(TM) system (copyright 1986, Carnegie Mellon
 University), and the Gaussian 82(TM) system (copyright 1983,
 Carnegie Mellon University). Gaussian is a federally registered
 trademark of Gaussian, Inc.
  
 This software contains proprietary and confidential information,
 including trade secrets, belonging to Gaussian, Inc.
  
 This software is provided under written license and may be
 used, copied, transmitted, or stored only in accord with that
 written license.
  
 The following legend is applicable only to US Government
 contracts under FAR:
  
                    RESTRICTED RIGHTS LEGEND
  
 Use, reproduction and disclosure by the US Government is
 subject to restrictions as set forth in subparagraphs (a)
 and (c) of the Commercial Computer Software - Restricted
 Rights clause in FAR 52.227-19.
  
 Gaussian, Inc.
 340 Quinnipiac St., Bldg. 40, Wallingford CT 06492
  
  
 ---------------------------------------------------------------
 Warning -- This program may not be used in any manner that
 competes with the business of Gaussian, Inc. or will provide
 assistance to any competitor of Gaussian, Inc.  The licensee
 of this program is prohibited from giving any competitor of
 Gaussian, Inc. access to this program.  By using this program,
 the user acknowledges that Gaussian, Inc. is engaged in the
 business of creating and licensing software in the field of
 computational chemistry and represents and warrants to the
 licensee that it is not a competitor of Gaussian, Inc. and that
 it will not use this program in any manner prohibited above.
 ---------------------------------------------------------------
  

 Cite this work as:
 Gaussian 16, Revision A.03,
 M. J. Frisch, G. W. Trucks, H. B. Schlegel, G. E. Scuseria, 
 M. A. Robb, J. R. Cheeseman, G. Scalmani, V. Barone, 
 G. A. Petersson, H. Nakatsuji, X. Li, M. Caricato, A. V. Marenich, 
 J. Bloino, B. G. Janesko, R. Gomperts, B. Mennucci, H. P. Hratchian, 
 J. V. Ortiz, A. F. Izmaylov, J. L. Sonnenberg, D. Williams-Young, 
 F. Ding, F. Lipparini, F. Egidi, J. Goings, B. Peng, A. Petrone, 
 T. Henderson, D. Ranasinghe, V. G. Zakrzewski, J. Gao, N. Rega, 
 G. Zheng, W. Liang, M. Hada, M. Ehara, K. Toyota, R. Fukuda, 
 J. Hasegawa, M. Ishida, T. Nakajima, Y. Honda, O. Kitao, H. Nakai, 
 T. Vreven, K. Throssell, J. A. Montgomery, Jr., J. E. Peralta, 
 F. Ogliaro, M. J. Bearpark, J. J. Heyd, E. N. Brothers, K. N. Kudin, 
 V. N. Staroverov, T. A. Keith, R. Kobayashi, J. Normand, 
 K. Raghavachari, A. P. Rendell, J. C. Burant, S. S. Iyengar, 
 J. Tomasi, M. Cossi, J. M. Millam, M. Klene, C. Adamo, R. Cammi, 
 J. W. Ochterski, R. L. Martin, K. Morokuma, O. Farkas, 
 J. B. Foresman, and D. J. Fox, Gaussian, Inc., Wallingford CT, 2016.
 
 ******************************************
 Gaussian 16:  ES64L-G16RevA.03 25-Dec-2016
                13-Oct-2019 
 ******************************************
 %chk=7_p.chk
 %nprocshared=24
 Will use up to   24 processors via shared memory.
 %mem=80GB
 -------------------------------------------------------------------
 #P opt freq m062x/6-311++g(d,p) geom=connectivity temperature=0.001
 -------------------------------------------------------------------
 1/18=20,19=15,26=3,38=1,57=2,112=-1000/1,3;
 2/9=110,12=2,17=6,18=5,40=1/2;
 3/5=4,6=6,7=1111,11=2,25=1,30=1,71=1,74=-55/1,2,3;
 4//1;
 5/5=2,38=5/2;
 6/7=2,8=2,9=2,10=2,28=1/1;
 7//1,2,3,16;
 1/18=20,19=15,26=3/3(2);
 2/9=110/2;
 99//99;
 2/9=110/2;
 3/5=4,6=6,7=1111,11=2,25=1,30=1,71=1,74=-55/1,2,3;
 4/5=5,16=3,69=1/1;
 5/5=2,38=5/2;
 7//1,2,3,16;
 1/18=20,19=15,26=3/3(-5);
 2/9=110/2;
 6/7=2,8=2,9=2,10=2,19=2,28=1/1;
 99/9=1/99;
 Leave Link    1 at Sun Oct 13 23:51:34 2019, MaxMem= 10737418240 cpu:               0.9 elap:               0.0
 (Enter /apps/cent7/gaussian/g16-A.03/g16-haswell/g16/l101.exe)
 -------------------
 Title Card Required
 -------------------
 Symbolic Z-matrix:
 Charge =  1 Multiplicity = 1
 C                     1.4992   -0.0165   -0.0225 
 O                     0.0612   -0.0286    0.0532 
 C                    -0.4212    0.6125    1.1283 
 N                    -0.6533    1.8742    1.1162 
 C                    -1.1114    2.2168    2.2889 
 C                    -1.4857    3.4913    2.7503 
 C                    -1.9067    3.6229    4.0896 
 C                    -1.9391    2.4963    4.9396 
 C                    -1.5675    1.2232    4.4583 
 C                    -1.167     1.0907    3.1085 
 C                    -0.7612    0.0392    2.3141 
 C                    -0.7193   -1.2833    2.5658 
 N                    -1.128    -1.8356    3.6954 
 O                    -1.0569   -3.1234    3.8897 
 H                     1.9161   -0.013     0.9846 
 H                     1.8425   -0.9036   -0.5547 
 H                     1.8275    0.8763   -0.5547 
 H                    -1.4505    4.3553    2.0867 
 H                    -2.2082    4.5991    4.4693 
 H                    -2.2538    2.6106    5.9769 
 H                    -1.5896    0.3561    5.1185 
 H                    -0.3269   -1.9539    1.8014 
 H                    -0.6104   -1.40247   4.4333 
 H                    -1.0468   -3.3048    4.8323 
 H                    -2.08687  -1.5775    3.81352 
 
 ITRead=  0  0  0  0  0  0  0  0  0  0  0  0  0  0  0  0  0  0  0  0
 ITRead=  0  0  0  0  0
 MicOpt= -1 -1 -1 -1 -1 -1 -1 -1 -1 -1 -1 -1 -1 -1 -1 -1 -1 -1 -1 -1
 MicOpt= -1 -1 -1 -1 -1
 NAtoms=     25 NQM=       25 NQMF=       0 NMMI=      0 NMMIF=      0
                NMic=       0 NMicF=      0.
                    Isotopes and Nuclear Properties:
 (Nuclear quadrupole moments (NQMom) in fm**2, nuclear magnetic moments (NMagM)
  in nuclear magnetons)

  Atom         1           2           3           4           5           6           7           8           9          10
 IAtWgt=          12          16          12          14          12          12          12          12          12          12
 AtmWgt=  12.0000000  15.9949146  12.0000000  14.0030740  12.0000000  12.0000000  12.0000000  12.0000000  12.0000000  12.0000000
 NucSpn=           0           0           0           2           0           0           0           0           0           0
 AtZEff=  -0.0000000  -0.0000000  -0.0000000  -0.0000000  -0.0000000  -0.0000000  -0.0000000  -0.0000000  -0.0000000  -0.0000000
 NQMom=    0.0000000   0.0000000   0.0000000   2.0440000   0.0000000   0.0000000   0.0000000   0.0000000   0.0000000   0.0000000
 NMagM=    0.0000000   0.0000000   0.0000000   0.4037610   0.0000000   0.0000000   0.0000000   0.0000000   0.0000000   0.0000000
 AtZNuc=   6.0000000   8.0000000   6.0000000   7.0000000   6.0000000   6.0000000   6.0000000   6.0000000   6.0000000   6.0000000

  Atom        11          12          13          14          15          16          17          18          19          20
 IAtWgt=          12          12          14          16           1           1           1           1           1           1
 AtmWgt=  12.0000000  12.0000000  14.0030740  15.9949146   1.0078250   1.0078250   1.0078250   1.0078250   1.0078250   1.0078250
 NucSpn=           0           0           2           0           1           1           1           1           1           1
 AtZEff=  -0.0000000  -0.0000000  -0.0000000  -0.0000000  -0.0000000  -0.0000000  -0.0000000  -0.0000000  -0.0000000  -0.0000000
 NQMom=    0.0000000   0.0000000   2.0440000   0.0000000   0.0000000   0.0000000   0.0000000   0.0000000   0.0000000   0.0000000
 NMagM=    0.0000000   0.0000000   0.4037610   0.0000000   2.7928460   2.7928460   2.7928460   2.7928460   2.7928460   2.7928460
 AtZNuc=   6.0000000   6.0000000   7.0000000   8.0000000   1.0000000   1.0000000   1.0000000   1.0000000   1.0000000   1.0000000

  Atom        21          22          23          24          25
 IAtWgt=           1           1           1           1           1
 AtmWgt=   1.0078250   1.0078250   1.0078250   1.0078250   1.0078250
 NucSpn=           1           1           1           1           1
 AtZEff=  -0.0000000  -0.0000000  -0.0000000  -0.0000000  -0.0000000
 NQMom=    0.0000000   0.0000000   0.0000000   0.0000000   0.0000000
 NMagM=    2.7928460   2.7928460   2.7928460   2.7928460   2.7928460
 AtZNuc=   1.0000000   1.0000000   1.0000000   1.0000000   1.0000000
 Leave Link  101 at Sun Oct 13 23:51:34 2019, MaxMem= 10737418240 cpu:              14.6 elap:               0.6
 (Enter /apps/cent7/gaussian/g16-A.03/g16-haswell/g16/l103.exe)

 GradGradGradGradGradGradGradGradGradGradGradGradGradGradGradGradGradGrad
 Berny optimization.
 Initialization pass.
                           ----------------------------
                           !    Initial Parameters    !
                           ! (Angstroms and Degrees)  !
 --------------------------                            --------------------------
 ! Name  Definition              Value          Derivative Info.                !
 --------------------------------------------------------------------------------
 ! R1    R(1,2)                  1.44           estimate D2E/DX2                !
 ! R2    R(1,15)                 1.09           estimate D2E/DX2                !
 ! R3    R(1,16)                 1.09           estimate D2E/DX2                !
 ! R4    R(1,17)                 1.09           estimate D2E/DX2                !
 ! R5    R(2,3)                  1.3415         estimate D2E/DX2                !
 ! R6    R(3,4)                  1.2829         estimate D2E/DX2                !
 ! R7    R(3,11)                 1.3603         estimate D2E/DX2                !
 ! R8    R(4,5)                  1.3048         estimate D2E/DX2                !
 ! R9    R(5,6)                  1.4062         estimate D2E/DX2                !
 ! R10   R(5,10)                 1.3939         estimate D2E/DX2                !
 ! R11   R(6,7)                  1.4101         estimate D2E/DX2                !
 ! R12   R(6,18)                 1.09           estimate D2E/DX2                !
 ! R13   R(7,8)                  1.4117         estimate D2E/DX2                !
 ! R14   R(7,19)                 1.09           estimate D2E/DX2                !
 ! R15   R(8,9)                  1.4109         estimate D2E/DX2                !
 ! R16   R(8,20)                 1.09           estimate D2E/DX2                !
 ! R17   R(9,10)                 1.4142         estimate D2E/DX2                !
 ! R18   R(9,21)                 1.0901         estimate D2E/DX2                !
 ! R19   R(10,11)                1.3789         estimate D2E/DX2                !
 ! R20   R(11,12)                1.3469         estimate D2E/DX2                !
 ! R21   R(12,13)                1.3221         estimate D2E/DX2                !
 ! R22   R(12,22)                1.0899         estimate D2E/DX2                !
 ! R23   R(13,14)                1.3043         estimate D2E/DX2                !
 ! R24   R(13,23)                1.0            estimate D2E/DX2                !
 ! R25   R(13,25)                1.0            estimate D2E/DX2                !
 ! R26   R(14,24)                0.9599         estimate D2E/DX2                !
 ! A1    A(2,1,15)             109.475          estimate D2E/DX2                !
 ! A2    A(2,1,16)             109.4719         estimate D2E/DX2                !
 ! A3    A(2,1,17)             109.47           estimate D2E/DX2                !
 ! A4    A(15,1,16)            109.4684         estimate D2E/DX2                !
 ! A5    A(15,1,17)            109.469          estimate D2E/DX2                !
 ! A6    A(16,1,17)            109.4731         estimate D2E/DX2                !
 ! A7    A(1,2,3)              113.4037         estimate D2E/DX2                !
 ! A8    A(2,3,4)              121.8365         estimate D2E/DX2                !
 ! A9    A(2,3,11)             125.951          estimate D2E/DX2                !
 ! A10   A(4,3,11)             112.1779         estimate D2E/DX2                !
 ! A11   A(3,4,5)              108.2563         estimate D2E/DX2                !
 ! A12   A(4,5,6)              128.7811         estimate D2E/DX2                !
 ! A13   A(4,5,10)             109.2899         estimate D2E/DX2                !
 ! A14   A(6,5,10)             121.9161         estimate D2E/DX2                !
 ! A15   A(5,6,7)              118.4062         estimate D2E/DX2                !
 ! A16   A(5,6,18)             120.6687         estimate D2E/DX2                !
 ! A17   A(7,6,18)             120.9251         estimate D2E/DX2                !
 ! A18   A(6,7,8)              120.2836         estimate D2E/DX2                !
 ! A19   A(6,7,19)             119.805          estimate D2E/DX2                !
 ! A20   A(8,7,19)             119.9114         estimate D2E/DX2                !
 ! A21   A(7,8,9)              120.5765         estimate D2E/DX2                !
 ! A22   A(7,8,20)             119.7329         estimate D2E/DX2                !
 ! A23   A(9,8,20)             119.6905         estimate D2E/DX2                !
 ! A24   A(8,9,10)             118.9958         estimate D2E/DX2                !
 ! A25   A(8,9,21)             120.3872         estimate D2E/DX2                !
 ! A26   A(10,9,21)            120.617          estimate D2E/DX2                !
 ! A27   A(5,10,9)             119.7903         estimate D2E/DX2                !
 ! A28   A(5,10,11)            105.4009         estimate D2E/DX2                !
 ! A29   A(9,10,11)            134.8028         estimate D2E/DX2                !
 ! A30   A(3,11,10)            104.7369         estimate D2E/DX2                !
 ! A31   A(3,11,12)            124.677          estimate D2E/DX2                !
 ! A32   A(10,11,12)           130.56           estimate D2E/DX2                !
 ! A33   A(11,12,13)           124.0703         estimate D2E/DX2                !
 ! A34   A(11,12,22)           118.9638         estimate D2E/DX2                !
 ! A35   A(13,12,22)           116.9659         estimate D2E/DX2                !
 ! A36   A(12,13,14)           121.5245         estimate D2E/DX2                !
 ! A37   A(12,13,23)           106.8284         estimate D2E/DX2                !
 ! A38   A(12,13,25)           106.8284         estimate D2E/DX2                !
 ! A39   A(14,13,23)           106.8284         estimate D2E/DX2                !
 ! A40   A(14,13,25)           106.8284         estimate D2E/DX2                !
 ! A41   A(23,13,25)           107.2989         estimate D2E/DX2                !
 ! A42   A(13,14,24)           109.4767         estimate D2E/DX2                !
 ! D1    D(15,1,2,3)            31.6032         estimate D2E/DX2                !
 ! D2    D(16,1,2,3)           151.6025         estimate D2E/DX2                !
 ! D3    D(17,1,2,3)           -88.3956         estimate D2E/DX2                !
 ! D4    D(1,2,3,4)             87.2338         estimate D2E/DX2                !
 ! D5    D(1,2,3,11)           -95.0782         estimate D2E/DX2                !
 ! D6    D(2,3,4,5)           -179.943          estimate D2E/DX2                !
 ! D7    D(11,3,4,5)             2.078          estimate D2E/DX2                !
 ! D8    D(2,3,11,10)          178.5056         estimate D2E/DX2                !
 ! D9    D(2,3,11,12)           -3.186          estimate D2E/DX2                !
 ! D10   D(4,3,11,10)           -3.6154         estimate D2E/DX2                !
 ! D11   D(4,3,11,12)          174.693          estimate D2E/DX2                !
 ! D12   D(3,4,5,6)            179.0599         estimate D2E/DX2                !
 ! D13   D(3,4,5,10)             0.3644         estimate D2E/DX2                !
 ! D14   D(4,5,6,7)           -177.497          estimate D2E/DX2                !
 ! D15   D(4,5,6,18)             2.5079         estimate D2E/DX2                !
 ! D16   D(10,5,6,7)             1.0525         estimate D2E/DX2                !
 ! D17   D(10,5,6,18)         -178.9427         estimate D2E/DX2                !
 ! D18   D(4,5,10,9)           176.6861         estimate D2E/DX2                !
 ! D19   D(4,5,10,11)           -2.545          estimate D2E/DX2                !
 ! D20   D(6,5,10,9)            -2.1159         estimate D2E/DX2                !
 ! D21   D(6,5,10,11)          178.653          estimate D2E/DX2                !
 ! D22   D(5,6,7,8)              0.4029         estimate D2E/DX2                !
 ! D23   D(5,6,7,19)          -179.5984         estimate D2E/DX2                !
 ! D24   D(18,6,7,8)          -179.602          estimate D2E/DX2                !
 ! D25   D(18,6,7,19)            0.3967         estimate D2E/DX2                !
 ! D26   D(6,7,8,9)             -0.7796         estimate D2E/DX2                !
 ! D27   D(6,7,8,20)           179.2141         estimate D2E/DX2                !
 ! D28   D(19,7,8,9)           179.2217         estimate D2E/DX2                !
 ! D29   D(19,7,8,20)           -0.7846         estimate D2E/DX2                !
 ! D30   D(7,8,9,10)            -0.2699         estimate D2E/DX2                !
 ! D31   D(7,8,9,21)           179.7384         estimate D2E/DX2                !
 ! D32   D(20,8,9,10)          179.7365         estimate D2E/DX2                !
 ! D33   D(20,8,9,21)           -0.2553         estimate D2E/DX2                !
 ! D34   D(8,9,10,5)             1.6891         estimate D2E/DX2                !
 ! D35   D(8,9,10,11)         -179.3556         estimate D2E/DX2                !
 ! D36   D(21,9,10,5)         -178.3191         estimate D2E/DX2                !
 ! D37   D(21,9,10,11)           0.6361         estimate D2E/DX2                !
 ! D38   D(5,10,11,3)            3.5589         estimate D2E/DX2                !
 ! D39   D(5,10,11,12)        -174.61           estimate D2E/DX2                !
 ! D40   D(9,10,11,3)         -175.5006         estimate D2E/DX2                !
 ! D41   D(9,10,11,12)           6.3305         estimate D2E/DX2                !
 ! D42   D(3,11,12,13)        -175.7739         estimate D2E/DX2                !
 ! D43   D(3,11,12,22)           4.2293         estimate D2E/DX2                !
 ! D44   D(10,11,12,13)          2.0725         estimate D2E/DX2                !
 ! D45   D(10,11,12,22)       -177.9242         estimate D2E/DX2                !
 ! D46   D(11,12,13,14)       -179.5661         estimate D2E/DX2                !
 ! D47   D(11,12,13,23)        -56.8585         estimate D2E/DX2                !
 ! D48   D(11,12,13,25)         57.7264         estimate D2E/DX2                !
 ! D49   D(22,12,13,14)          0.4308         estimate D2E/DX2                !
 ! D50   D(22,12,13,23)        123.1383         estimate D2E/DX2                !
 ! D51   D(22,12,13,25)       -122.2768         estimate D2E/DX2                !
 ! D52   D(12,13,14,24)        157.096          estimate D2E/DX2                !
 ! D53   D(23,13,14,24)         34.3885         estimate D2E/DX2                !
 ! D54   D(25,13,14,24)        -80.1964         estimate D2E/DX2                !
 --------------------------------------------------------------------------------
 Trust Radius=3.00D-01 FncErr=1.00D-07 GrdErr=1.00D-06 EigMax=2.50D+02 EigMin=1.00D-04
 Number of steps in this run=    132 maximum allowed number of steps=    150.
 GradGradGradGradGradGradGradGradGradGradGradGradGradGradGradGradGradGrad

 Leave Link  103 at Sun Oct 13 23:51:34 2019, MaxMem= 10737418240 cpu:               0.3 elap:               0.0
 (Enter /apps/cent7/gaussian/g16-A.03/g16-haswell/g16/l202.exe)
                          Input orientation:                          
 ---------------------------------------------------------------------
 Center     Atomic      Atomic             Coordinates (Angstroms)
 Number     Number       Type             X           Y           Z
 ---------------------------------------------------------------------
      1          6           0        1.499200   -0.016500   -0.022500
      2          8           0        0.061200   -0.028600    0.053200
      3          6           0       -0.421200    0.612500    1.128300
      4          7           0       -0.653300    1.874200    1.116200
      5          6           0       -1.111400    2.216800    2.288900
      6          6           0       -1.485700    3.491300    2.750300
      7          6           0       -1.906700    3.622900    4.089600
      8          6           0       -1.939100    2.496300    4.939600
      9          6           0       -1.567500    1.223200    4.458300
     10          6           0       -1.167000    1.090700    3.108500
     11          6           0       -0.761200    0.039200    2.314100
     12          6           0       -0.719300   -1.283300    2.565800
     13          7           0       -1.128000   -1.835600    3.695400
     14          8           0       -1.056900   -3.123400    3.889700
     15          1           0        1.916100   -0.013000    0.984600
     16          1           0        1.842500   -0.903600   -0.554700
     17          1           0        1.827500    0.876300   -0.554700
     18          1           0       -1.450500    4.355300    2.086700
     19          1           0       -2.208200    4.599100    4.469300
     20          1           0       -2.253800    2.610600    5.976900
     21          1           0       -1.589600    0.356100    5.118500
     22          1           0       -0.326900   -1.953900    1.801400
     23          1           0       -0.610402   -1.402472    4.433297
     24          1           0       -1.046800   -3.304800    4.832300
     25          1           0       -2.086870   -1.577498    3.813521
 ---------------------------------------------------------------------
                    Distance matrix (angstroms):
                    1          2          3          4          5
     1  C    0.000000
     2  O    1.440042   0.000000
     3  C    2.325493   1.341476   0.000000
     4  N    3.082960   2.293715   1.282928   0.000000
     5  C    4.140704   3.378634   2.096938   1.304782   0.000000
     6  C    5.376124   4.696482   3.471532   2.445033   1.406179
     7  C    6.461792   5.787798   4.476440   3.670160   2.419120
     8  C    6.538999   5.852625   4.514281   4.081504   2.790953
     9  C    5.569477   4.860512   3.574333   3.525506   2.429314
    10  C    4.258835   3.477954   2.169351   2.201595   1.393893
    11  C    3.251494   2.406784   1.360292   2.194045   2.205724
    12  C    3.636732   2.914895   2.397776   3.474982   3.532862
    13  N    4.902457   4.236162   3.617010   4.543152   4.289576
    14  O    5.611754   5.054371   4.688965   5.729852   5.575237
    15  H    1.089985   2.075669   2.423813   3.190714   3.979819
    16  H    1.089972   2.075620   3.202403   4.091100   5.152522
    17  H    1.090004   2.075621   2.821122   3.153106   4.303503
    18  H    5.679973   5.063491   3.998317   2.780873   2.174639
    19  H    7.431342   6.787321   5.499875   4.591957   3.410640
    20  H    7.548474   6.885842   5.555155   5.170134   3.880915
    21  H    6.009110   5.341385   4.165645   4.381745   3.420163
    22  H    3.227192   2.629373   2.654876   3.902613   4.271748
    23  H    5.121081   4.639378   3.875425   4.662784   4.236575
    24  H    6.392505   5.899233   5.427359   6.386414   6.079566
    25  H    5.478291   4.599272   3.844601   4.609217   4.203892
                    6          7          8          9         10
     6  C    0.000000
     7  C    1.410065   0.000000
     8  C    2.447168   1.411658   0.000000
     9  C    2.840463   2.451440   1.410858   0.000000
    10  C    2.448011   2.814560   2.434086   1.414184   0.000000
    11  C    3.554176   4.160225   3.783918   2.578676   1.378912
    12  C    4.839237   5.272825   4.626901   3.253236   2.476052
    13  N    5.421903   5.527838   4.579440   3.182991   2.984829
    14  O    6.725798   6.802550   5.784600   4.413270   4.287311
    15  H    5.193270   6.121650   6.066397   5.072499   3.903154
    16  H    6.427681   7.491010   7.486465   6.425072   5.143283
    17  H    5.360834   6.561828   6.855582   6.064366   4.736247
    18  H    1.090000   2.180857   3.440007   3.930423   3.432501
    19  H    2.168914   1.089973   2.171489   3.436178   3.904452
    20  H    3.431699   2.169592   1.089996   2.168417   3.423295
    21  H    3.930476   3.439647   2.175916   1.090053   2.181359
    22  H    5.647427   6.231559   5.679064   4.323444   3.418167
    23  H    5.248583   5.201238   4.149964   2.794783   2.877637
    24  H    7.121400   7.020261   5.870304   4.573160   4.722960
    25  H    5.213882   5.210837   4.229152   2.920513   2.909037
                   11         12         13         14         15
    11  C    0.000000
    12  C    1.346891   0.000000
    13  N    2.357415   1.322145   0.000000
    14  O    3.545701   2.291867   1.304315   0.000000
    15  H    2.989687   3.325536   4.465070   5.191620   0.000000
    16  H    3.987247   4.055183   5.268382   5.752106   1.779896
    17  H    3.953747   4.570293   5.844034   6.638528   1.779929
    18  H    4.376707   5.705962   6.404621   7.703031   5.624115
    19  H    5.247036   6.359463   6.570473   7.829332   7.101018
    20  H    4.717633   5.399329   5.122632   6.218338   7.013872
    21  H    2.941315   3.156158   2.653646   3.728356   5.432798
    22  H    2.103313   1.089949   2.059852   2.502324   3.076573
    23  H    2.567519   1.874462   1.000000   1.859154   4.495260
    24  H    4.195859   3.054626   1.859485   0.959949   5.866815
    25  H    2.572815   1.874462   1.000000   1.859154   5.145310
                   16         17         18         19         20
    16  H    0.000000
    17  H    1.779963   0.000000
    18  H    6.743654   5.461293   0.000000
    19  H    8.481064   7.442223   2.512037   0.000000
    20  H    8.472961   7.894720   4.338540   2.495810   0.000000
    21  H    6.749174   6.643221   5.020434   4.336724   2.502156
    22  H    3.370554   4.266460   6.414817   7.321119   6.479383
    23  H    5.580835   6.001357   6.274091   6.210726   4.603065
    24  H    6.567616   7.400200   8.147296   7.997015   6.144828
    25  H    5.914004   6.358048   6.211680   6.212498   4.716804
                   21         22         23         24         25
    21  H    0.000000
    22  H    4.234816   0.000000
    23  H    2.126242   2.703947   0.000000
    24  H    3.711971   3.395518   1.992109   0.000000
    25  H    2.385173   2.699593   1.610811   2.259032   0.000000
 Stoichiometry    C10H11N2O2(1+)
 Framework group  C1[X(C10H11N2O2)]
 Deg. of freedom    69
 Full point group                 C1      NOp   1
 Largest Abelian subgroup         C1      NOp   1
 Largest concise Abelian subgroup C1      NOp   1
                         Standard orientation:                         
 ---------------------------------------------------------------------
 Center     Atomic      Atomic             Coordinates (Angstroms)
 Number     Number       Type             X           Y           Z
 ---------------------------------------------------------------------
      1          6           0       -2.115438   -2.757938    0.795387
      2          8           0       -1.673539   -2.169535   -0.442445
      3          6           0       -0.597115   -1.381175   -0.303310
      4          7           0        0.596107   -1.849464   -0.356496
      5          6           0        1.431030   -0.860868   -0.189051
      6          6           0        2.836400   -0.891519   -0.152498
      7          6           0        3.527353    0.312144    0.096631
      8          6           0        2.813926    1.511196    0.311277
      9          6           0        1.403952    1.525763    0.263528
     10          6           0        0.714774    0.321223   -0.008566
     11          6           0       -0.611963   -0.030824   -0.139825
     12          6           0       -1.722855    0.730642   -0.154089
     13          7           0       -1.717310    2.050351   -0.074056
     14          8           0       -2.825056    2.738853   -0.084110
     15          1           0       -1.899231   -2.077336    1.618857
     16          1           0       -3.188848   -2.941141    0.747791
     17          1           0       -1.592696   -3.700749    0.956502
     18          1           0        3.376533   -1.824531   -0.313260
     19          1           0        4.616990    0.315774    0.123418
     20          1           0        3.356763    2.434009    0.515817
     21          1           0        0.856016    2.452553    0.433943
     22          1           0       -2.694947    0.244542   -0.236142
     23          1           0       -1.236909    2.287161    0.770417
     24          1           0       -2.674874    3.592847    0.327766
     25          1           0       -1.161989    2.384249   -0.835719
 ---------------------------------------------------------------------
 Rotational constants (GHZ):           0.8594804           0.6205097           0.3726372
 Leave Link  202 at Sun Oct 13 23:51:34 2019, MaxMem= 10737418240 cpu:               0.4 elap:               0.0
 (Enter /apps/cent7/gaussian/g16-A.03/g16-haswell/g16/l301.exe)
 Standard basis: 6-311++G(d,p) (5D, 7F)
 Ernie: Thresh=  0.10000D-02 Tol=  0.10000D-05 Strict=F.
 There are   399 symmetry adapted cartesian basis functions of A   symmetry.
 There are   385 symmetry adapted basis functions of A   symmetry.
   385 basis functions,   603 primitive gaussians,   399 cartesian basis functions
    50 alpha electrons       50 beta electrons
       nuclear repulsion energy       879.6788930694 Hartrees.
 IExCor= 4336 DFT=T Ex+Corr=M062X ExCW=0 ScaHFX=  0.540000
 ScaDFX=  1.000000  1.000000  1.000000  1.000000 ScalE2=  1.000000  1.000000
 IRadAn=      5 IRanWt=     -1 IRanGd=            0 ICorTp=0 IEmpDi=  4
 NAtoms=   25 NActive=   25 NUniq=   25 SFac= 1.00D+00 NAtFMM=   60 NAOKFM=F Big=F
 Integral buffers will be    131072 words long.
 Raffenetti 2 integral format.
 Two-electron integral symmetry is turned on.
 Leave Link  301 at Sun Oct 13 23:51:35 2019, MaxMem= 10737418240 cpu:               1.3 elap:               0.1
 (Enter /apps/cent7/gaussian/g16-A.03/g16-haswell/g16/l302.exe)
 NPDir=0 NMtPBC=     1 NCelOv=     1 NCel=       1 NClECP=     1 NCelD=      1
         NCelK=      1 NCelE2=     1 NClLst=     1 CellRange=     0.0.
 One-electron integrals computed using PRISM.
 One-electron integral symmetry used in STVInt
 NBasis=   385 RedAO= T EigKep=  1.53D-06  NBF=   385
 NBsUse=   382 1.00D-06 EigRej=  8.13D-07 NBFU=   382
 Precomputing XC quadrature grid using
 IXCGrd= 4 IRadAn=           5 IRanWt=          -1 IRanGd=           0 AccXCQ= 0.00D+00.
 Generated NRdTot=       0 NPtTot=           0 NUsed=           0 NTot=          32
 NSgBfM=   399   399   399   399   399 MxSgAt=    25 MxSgA2=    25.
 Leave Link  302 at Sun Oct 13 23:51:35 2019, MaxMem= 10737418240 cpu:               6.7 elap:               0.3
 (Enter /apps/cent7/gaussian/g16-A.03/g16-haswell/g16/l303.exe)
 DipDrv:  MaxL=1.
 Leave Link  303 at Sun Oct 13 23:51:35 2019, MaxMem= 10737418240 cpu:               1.1 elap:               0.1
 (Enter /apps/cent7/gaussian/g16-A.03/g16-haswell/g16/l401.exe)
 ExpMin= 3.60D-02 ExpMax= 8.59D+03 ExpMxC= 1.30D+03 IAcc=3 IRadAn=         5 AccDes= 0.00D+00
 Harris functional with IExCor= 1009 and IRadAn=       5 diagonalized for initial guess.
 HarFok:  IExCor= 1009 AccDes= 0.00D+00 IRadAn=         5 IDoV= 1 UseB2=F ITyADJ=14
 ICtDFT=  3500011 ScaDFX=  1.000000  1.000000  1.000000  1.000000
 FoFCou: FMM=F IPFlag=           0 FMFlag=      100000 FMFlg1=           0
         NFxFlg=           0 DoJE=T BraDBF=F KetDBF=T FulRan=T
         wScrn=  0.000000 ICntrl=       500 IOpCl=  0 I1Cent=   200000004 NGrid=           0
         NMat0=    1 NMatS0=      1 NMatT0=    0 NMatD0=    1 NMtDS0=    0 NMtDT0=    0
 Petite list used in FoFCou.
 Harris En= -646.851780359971    
 JPrj=0 DoOrth=F DoCkMO=F.
 Leave Link  401 at Sun Oct 13 23:51:36 2019, MaxMem= 10737418240 cpu:              16.8 elap:               0.7
 (Enter /apps/cent7/gaussian/g16-A.03/g16-haswell/g16/l502.exe)
 Integral symmetry usage will be decided dynamically.
 Closed shell SCF:
 Using DIIS extrapolation, IDIIS=  1040.
 NGot= 10737418240 LenX= 10737086397 LenY= 10736926755
 Requested convergence on RMS density matrix=1.00D-08 within 128 cycles.
 Requested convergence on MAX density matrix=1.00D-06.
 Requested convergence on             energy=1.00D-06.
 No special actions if energy rises.
 Fock matrices will be formed incrementally for  20 cycles.

 Cycle   1  Pass 1  IDiag  1:
 FoFJK:  IHMeth= 1 ICntrl=       0 DoSepK=F KAlg= 0 I1Cent=           0 FoldK=F
 IRaf= 890000000 NMat=       1 IRICut=       1 DoRegI=T DoRafI=F ISym2E= 0 IDoP0=0 IntGTp=1.
 FoFCou: FMM=F IPFlag=           0 FMFlag=      100000 FMFlg1=           0
         NFxFlg=           0 DoJE=F BraDBF=F KetDBF=F FulRan=T
         wScrn=  0.000000 ICntrl=         0 IOpCl=  0 I1Cent=           0 NGrid=           0
         NMat0=    1 NMatS0=      1 NMatT0=    0 NMatD0=    1 NMtDS0=    0 NMtDT0=    0
 Symmetry not used in FoFCou.
 E= -646.743114110393    
 DIIS: error= 2.46D-02 at cycle   1 NSaved=   1.
 NSaved= 1 IEnMin= 1 EnMin= -646.743114110393     IErMin= 1 ErrMin= 2.46D-02
 ErrMax= 2.46D-02  0.00D+00 EMaxC= 1.00D-01 BMatC= 4.34D-01 BMatP= 4.34D-01
 IDIUse=3 WtCom= 7.54D-01 WtEn= 2.46D-01
 Coeff-Com:  0.100D+01
 Coeff-En:   0.100D+01
 Coeff:      0.100D+01
 Gap=     0.033 Goal=   None    Shift=    0.000
 GapD=    0.033 DampG=0.250 DampE=0.500 DampFc=0.2500 IDamp=-1.
 Damping current iteration by 2.50D-01
 RMSDP=4.25D-02 MaxDP=4.77D+00              OVMax= 3.97D-01

 Cycle   2  Pass 1  IDiag  1:
 RMSU=  8.33D-03    CP:  1.11D+00
 E= -646.862311976624     Delta-E=       -0.119197866231 Rises=F Damp=T
 DIIS: error= 1.13D-02 at cycle   2 NSaved=   2.
 NSaved= 2 IEnMin= 2 EnMin= -646.862311976624     IErMin= 2 ErrMin= 1.13D-02
 ErrMax= 1.13D-02  0.00D+00 EMaxC= 1.00D-01 BMatC= 1.54D-01 BMatP= 4.34D-01
 IDIUse=3 WtCom= 8.87D-01 WtEn= 1.13D-01
 Coeff-Com: -0.101D+01 0.201D+01
 Coeff-En:   0.000D+00 0.100D+01
 Coeff:     -0.897D+00 0.190D+01
 Gap=     0.236 Goal=   None    Shift=    0.000
 RMSDP=7.75D-03 MaxDP=5.37D-01 DE=-1.19D-01 OVMax= 4.00D-01

 Cycle   3  Pass 1  IDiag  1:
 RMSU=  7.17D-03    CP:  1.13D+00  1.33D+00
 E= -647.058267184729     Delta-E=       -0.195955208105 Rises=F Damp=F
 DIIS: error= 1.46D-02 at cycle   3 NSaved=   3.
 NSaved= 3 IEnMin= 3 EnMin= -647.058267184729     IErMin= 2 ErrMin= 1.13D-02
 ErrMax= 1.46D-02  0.00D+00 EMaxC= 1.00D-01 BMatC= 4.07D-02 BMatP= 1.54D-01
 IDIUse=3 WtCom= 8.54D-01 WtEn= 1.46D-01
 Coeff-Com: -0.604D+00 0.101D+01 0.592D+00
 Coeff-En:   0.000D+00 0.000D+00 0.100D+01
 Coeff:     -0.516D+00 0.865D+00 0.651D+00
 Gap=     0.156 Goal=   None    Shift=    0.000
 RMSDP=4.95D-03 MaxDP=4.04D-01 DE=-1.96D-01 OVMax= 1.12D-01

 Cycle   4  Pass 1  IDiag  1:
 RMSU=  3.43D-03    CP:  1.08D+00  1.44D+00  8.24D-01
 E= -647.094765467280     Delta-E=       -0.036498282551 Rises=F Damp=F
 DIIS: error= 4.17D-03 at cycle   4 NSaved=   4.
 NSaved= 4 IEnMin= 4 EnMin= -647.094765467280     IErMin= 4 ErrMin= 4.17D-03
 ErrMax= 4.17D-03  0.00D+00 EMaxC= 1.00D-01 BMatC= 7.93D-03 BMatP= 4.07D-02
 IDIUse=3 WtCom= 9.58D-01 WtEn= 4.17D-02
 Coeff-Com: -0.140D+00 0.216D+00 0.344D+00 0.581D+00
 Coeff-En:   0.000D+00 0.000D+00 0.141D+00 0.859D+00
 Coeff:     -0.134D+00 0.207D+00 0.335D+00 0.592D+00
 Gap=     0.172 Goal=   None    Shift=    0.000
 RMSDP=1.51D-03 MaxDP=1.29D-01 DE=-3.65D-02 OVMax= 3.12D-02

 Cycle   5  Pass 1  IDiag  1:
 RMSU=  1.06D-03    CP:  1.06D+00  1.43D+00  8.56D-01  7.71D-01
 E= -647.102334340657     Delta-E=       -0.007568873377 Rises=F Damp=F
 DIIS: error= 8.50D-04 at cycle   5 NSaved=   5.
 NSaved= 5 IEnMin= 5 EnMin= -647.102334340657     IErMin= 5 ErrMin= 8.50D-04
 ErrMax= 8.50D-04  0.00D+00 EMaxC= 1.00D-01 BMatC= 3.83D-04 BMatP= 7.93D-03
 IDIUse=3 WtCom= 9.92D-01 WtEn= 8.50D-03
 Coeff-Com: -0.285D-01 0.381D-01 0.123D+00 0.284D+00 0.583D+00
 Coeff-En:   0.000D+00 0.000D+00 0.000D+00 0.000D+00 0.100D+01
 Coeff:     -0.283D-01 0.378D-01 0.122D+00 0.282D+00 0.587D+00
 Gap=     0.175 Goal=   None    Shift=    0.000
 RMSDP=3.53D-04 MaxDP=2.14D-02 DE=-7.57D-03 OVMax= 7.33D-03

 Cycle   6  Pass 1  IDiag  1:
 RMSU=  2.56D-04    CP:  1.06D+00  1.41D+00  8.46D-01  8.02D-01  8.92D-01
 E= -647.102700853785     Delta-E=       -0.000366513128 Rises=F Damp=F
 DIIS: error= 3.10D-04 at cycle   6 NSaved=   6.
 NSaved= 6 IEnMin= 6 EnMin= -647.102700853785     IErMin= 6 ErrMin= 3.10D-04
 ErrMax= 3.10D-04  0.00D+00 EMaxC= 1.00D-01 BMatC= 3.44D-05 BMatP= 3.83D-04
 IDIUse=3 WtCom= 9.97D-01 WtEn= 3.10D-03
 Coeff-Com:  0.119D-01-0.191D-01-0.147D-01-0.131D-01 0.202D+00 0.833D+00
 Coeff-En:   0.000D+00 0.000D+00 0.000D+00 0.000D+00 0.000D+00 0.100D+01
 Coeff:      0.119D-01-0.191D-01-0.146D-01-0.131D-01 0.201D+00 0.834D+00
 Gap=     0.176 Goal=   None    Shift=    0.000
 RMSDP=1.95D-04 MaxDP=1.35D-02 DE=-3.67D-04 OVMax= 4.53D-03

 Cycle   7  Pass 1  IDiag  1:
 RMSU=  1.28D-04    CP:  1.06D+00  1.39D+00  8.49D-01  7.91D-01  9.42D-01
                    CP:  9.94D-01
 E= -647.102754771815     Delta-E=       -0.000053918030 Rises=F Damp=F
 DIIS: error= 1.14D-04 at cycle   7 NSaved=   7.
 NSaved= 7 IEnMin= 7 EnMin= -647.102754771815     IErMin= 7 ErrMin= 1.14D-04
 ErrMax= 1.14D-04  0.00D+00 EMaxC= 1.00D-01 BMatC= 4.57D-06 BMatP= 3.44D-05
 IDIUse=3 WtCom= 9.99D-01 WtEn= 1.14D-03
 Coeff-Com:  0.770D-02-0.113D-01-0.186D-01-0.420D-01-0.978D-02 0.281D+00
 Coeff-Com:  0.793D+00
 Coeff-En:   0.000D+00 0.000D+00 0.000D+00 0.000D+00 0.000D+00 0.000D+00
 Coeff-En:   0.100D+01
 Coeff:      0.769D-02-0.113D-01-0.185D-01-0.419D-01-0.977D-02 0.281D+00
 Coeff:      0.793D+00
 Gap=     0.177 Goal=   None    Shift=    0.000
 RMSDP=7.89D-05 MaxDP=6.50D-03 DE=-5.39D-05 OVMax= 1.56D-03

 Cycle   8  Pass 1  IDiag  1:
 RMSU=  2.96D-05    CP:  1.06D+00  1.39D+00  8.52D-01  7.96D-01  9.61D-01
                    CP:  1.03D+00  1.07D+00
 E= -647.102761128389     Delta-E=       -0.000006356574 Rises=F Damp=F
 DIIS: error= 3.83D-05 at cycle   8 NSaved=   8.
 NSaved= 8 IEnMin= 8 EnMin= -647.102761128389     IErMin= 8 ErrMin= 3.83D-05
 ErrMax= 3.83D-05  0.00D+00 EMaxC= 1.00D-01 BMatC= 6.90D-07 BMatP= 4.57D-06
 IDIUse=1 WtCom= 1.00D+00 WtEn= 0.00D+00
 Coeff-Com:  0.181D-02-0.240D-02-0.503D-02-0.149D-01-0.234D-01 0.303D-01
 Coeff-Com:  0.350D+00 0.664D+00
 Coeff:      0.181D-02-0.240D-02-0.503D-02-0.149D-01-0.234D-01 0.303D-01
 Coeff:      0.350D+00 0.664D+00
 Gap=     0.177 Goal=   None    Shift=    0.000
 RMSDP=2.02D-05 MaxDP=1.79D-03 DE=-6.36D-06 OVMax= 2.94D-04

 Cycle   9  Pass 1  IDiag  1:
 RMSU=  1.37D-05    CP:  1.06D+00  1.39D+00  8.51D-01  7.95D-01  9.62D-01
                    CP:  1.03D+00  1.06D+00  9.51D-01
 E= -647.102761871285     Delta-E=       -0.000000742896 Rises=F Damp=F
 DIIS: error= 9.96D-06 at cycle   9 NSaved=   9.
 NSaved= 9 IEnMin= 9 EnMin= -647.102761871285     IErMin= 9 ErrMin= 9.96D-06
 ErrMax= 9.96D-06  0.00D+00 EMaxC= 1.00D-01 BMatC= 2.54D-08 BMatP= 6.90D-07
 IDIUse=1 WtCom= 1.00D+00 WtEn= 0.00D+00
 Coeff-Com: -0.863D-04 0.160D-03 0.448D-03 0.244D-03-0.390D-02-0.174D-01
 Coeff-Com:  0.107D-01 0.126D+00 0.884D+00
 Coeff:     -0.863D-04 0.160D-03 0.448D-03 0.244D-03-0.390D-02-0.174D-01
 Coeff:      0.107D-01 0.126D+00 0.884D+00
 Gap=     0.177 Goal=   None    Shift=    0.000
 RMSDP=7.57D-06 MaxDP=6.71D-04 DE=-7.43D-07 OVMax= 1.26D-04

 Cycle  10  Pass 1  IDiag  1:
 RMSU=  4.22D-06    CP:  1.06D+00  1.39D+00  8.52D-01  7.95D-01  9.63D-01
                    CP:  1.02D+00  1.07D+00  1.04D+00  9.81D-01
 E= -647.102761918631     Delta-E=       -0.000000047346 Rises=F Damp=F
 DIIS: error= 4.93D-06 at cycle  10 NSaved=  10.
 NSaved=10 IEnMin=10 EnMin= -647.102761918631     IErMin=10 ErrMin= 4.93D-06
 ErrMax= 4.93D-06  0.00D+00 EMaxC= 1.00D-01 BMatC= 8.25D-09 BMatP= 2.54D-08
 IDIUse=1 WtCom= 1.00D+00 WtEn= 0.00D+00
 Coeff-Com: -0.198D-03 0.283D-03 0.729D-03 0.168D-02 0.916D-03-0.114D-01
 Coeff-Com: -0.308D-01-0.190D-01 0.403D+00 0.655D+00
 Coeff:     -0.198D-03 0.283D-03 0.729D-03 0.168D-02 0.916D-03-0.114D-01
 Coeff:     -0.308D-01-0.190D-01 0.403D+00 0.655D+00
 Gap=     0.177 Goal=   None    Shift=    0.000
 RMSDP=2.43D-06 MaxDP=2.21D-04 DE=-4.73D-08 OVMax= 4.89D-05

 Cycle  11  Pass 1  IDiag  1:
 RMSU=  1.23D-06    CP:  1.06D+00  1.39D+00  8.52D-01  7.95D-01  9.62D-01
                    CP:  1.02D+00  1.07D+00  1.04D+00  1.06D+00  9.31D-01
 E= -647.102761929786     Delta-E=       -0.000000011155 Rises=F Damp=F
 DIIS: error= 1.91D-06 at cycle  11 NSaved=  11.
 NSaved=11 IEnMin=11 EnMin= -647.102761929786     IErMin=11 ErrMin= 1.91D-06
 ErrMax= 1.91D-06  0.00D+00 EMaxC= 1.00D-01 BMatC= 7.13D-10 BMatP= 8.25D-09
 IDIUse=1 WtCom= 1.00D+00 WtEn= 0.00D+00
 Coeff-Com: -0.285D-04 0.380D-04 0.987D-04 0.326D-03 0.675D-03-0.135D-02
 Coeff-Com: -0.747D-02-0.242D-01-0.193D-01 0.177D+00 0.874D+00
 Coeff:     -0.285D-04 0.380D-04 0.987D-04 0.326D-03 0.675D-03-0.135D-02
 Coeff:     -0.747D-02-0.242D-01-0.193D-01 0.177D+00 0.874D+00
 Gap=     0.177 Goal=   None    Shift=    0.000
 RMSDP=8.51D-07 MaxDP=5.11D-05 DE=-1.12D-08 OVMax= 3.33D-05

 Cycle  12  Pass 1  IDiag  1:
 RMSU=  4.44D-07    CP:  1.06D+00  1.39D+00  8.52D-01  7.95D-01  9.62D-01
                    CP:  1.02D+00  1.07D+00  1.04D+00  1.07D+00  9.69D-01
                    CP:  9.62D-01
 E= -647.102761931620     Delta-E=       -0.000000001834 Rises=F Damp=F
 DIIS: error= 1.10D-06 at cycle  12 NSaved=  12.
 NSaved=12 IEnMin=12 EnMin= -647.102761931620     IErMin=12 ErrMin= 1.10D-06
 ErrMax= 1.10D-06  0.00D+00 EMaxC= 1.00D-01 BMatC= 1.62D-10 BMatP= 7.13D-10
 IDIUse=1 WtCom= 1.00D+00 WtEn= 0.00D+00
 Coeff-Com:  0.522D-05-0.888D-05-0.496D-04-0.697D-04 0.239D-03 0.888D-03
 Coeff-Com:  0.218D-02-0.737D-02-0.594D-01-0.925D-02 0.347D+00 0.726D+00
 Coeff:      0.522D-05-0.888D-05-0.496D-04-0.697D-04 0.239D-03 0.888D-03
 Coeff:      0.218D-02-0.737D-02-0.594D-01-0.925D-02 0.347D+00 0.726D+00
 Gap=     0.177 Goal=   None    Shift=    0.000
 RMSDP=3.14D-07 MaxDP=2.65D-05 DE=-1.83D-09 OVMax= 1.15D-05

 Cycle  13  Pass 1  IDiag  1:
 RMSU=  1.54D-07    CP:  1.06D+00  1.39D+00  8.52D-01  7.95D-01  9.62D-01
                    CP:  1.02D+00  1.07D+00  1.04D+00  1.07D+00  9.97D-01
                    CP:  9.49D-01  1.06D+00
 E= -647.102761931934     Delta-E=       -0.000000000314 Rises=F Damp=F
 DIIS: error= 5.77D-07 at cycle  13 NSaved=  13.
 NSaved=13 IEnMin=13 EnMin= -647.102761931934     IErMin=13 ErrMin= 5.77D-07
 ErrMax= 5.77D-07  0.00D+00 EMaxC= 1.00D-01 BMatC= 3.58D-11 BMatP= 1.62D-10
 IDIUse=1 WtCom= 1.00D+00 WtEn= 0.00D+00
 Coeff-Com:  0.470D-05-0.731D-05-0.493D-04-0.997D-04-0.137D-04 0.579D-03
 Coeff-Com:  0.254D-02 0.723D-03-0.239D-01-0.400D-01-0.399D-01 0.313D+00
 Coeff-Com:  0.787D+00
 Coeff:      0.470D-05-0.731D-05-0.493D-04-0.997D-04-0.137D-04 0.579D-03
 Coeff:      0.254D-02 0.723D-03-0.239D-01-0.400D-01-0.399D-01 0.313D+00
 Coeff:      0.787D+00
 Gap=     0.177 Goal=   None    Shift=    0.000
 RMSDP=1.16D-07 MaxDP=5.91D-06 DE=-3.14D-10 OVMax= 7.89D-06

 Cycle  14  Pass 1  IDiag  1:
 RMSU=  6.88D-08    CP:  1.06D+00  1.39D+00  8.52D-01  7.95D-01  9.62D-01
                    CP:  1.02D+00  1.07D+00  1.04D+00  1.07D+00  1.00D+00
                    CP:  9.78D-01  1.18D+00  1.02D+00
 E= -647.102761932012     Delta-E=       -0.000000000078 Rises=F Damp=F
 DIIS: error= 2.06D-07 at cycle  14 NSaved=  14.
 NSaved=14 IEnMin=14 EnMin= -647.102761932012     IErMin=14 ErrMin= 2.06D-07
 ErrMax= 2.06D-07  0.00D+00 EMaxC= 1.00D-01 BMatC= 7.80D-12 BMatP= 3.58D-11
 IDIUse=1 WtCom= 1.00D+00 WtEn= 0.00D+00
 Coeff-Com: -0.622D-07-0.139D-06-0.192D-04-0.408D-04-0.365D-04 0.164D-03
 Coeff-Com:  0.111D-02 0.155D-02-0.337D-02-0.188D-01-0.712D-01 0.476D-01
 Coeff-Com:  0.401D+00 0.642D+00
 Coeff:     -0.622D-07-0.139D-06-0.192D-04-0.408D-04-0.365D-04 0.164D-03
 Coeff:      0.111D-02 0.155D-02-0.337D-02-0.188D-01-0.712D-01 0.476D-01
 Coeff:      0.401D+00 0.642D+00
 Gap=     0.177 Goal=   None    Shift=    0.000
 RMSDP=9.63D-08 MaxDP=9.50D-06 DE=-7.84D-11 OVMax= 2.09D-06

 Cycle  15  Pass 1  IDiag  1:
 RMSU=  3.71D-08    CP:  1.06D+00  1.39D+00  8.52D-01  7.95D-01  9.62D-01
                    CP:  1.02D+00  1.07D+00  1.04D+00  1.07D+00  1.01D+00
                    CP:  9.47D-01  1.20D+00  1.27D+00  9.79D-01
 E= -647.102761932020     Delta-E=       -0.000000000008 Rises=F Damp=F
 DIIS: error= 6.46D-08 at cycle  15 NSaved=  15.
 NSaved=15 IEnMin=15 EnMin= -647.102761932020     IErMin=15 ErrMin= 6.46D-08
 ErrMax= 6.46D-08  0.00D+00 EMaxC= 1.00D-01 BMatC= 7.10D-13 BMatP= 7.80D-12
 IDIUse=1 WtCom= 1.00D+00 WtEn= 0.00D+00
 Coeff-Com: -0.136D-05 0.183D-05 0.425D-06 0.217D-05-0.114D-04-0.478D-04
 Coeff-Com: -0.889D-04 0.378D-03 0.283D-02 0.857D-03-0.172D-01-0.415D-01
 Coeff-Com: -0.853D-02 0.223D+00 0.840D+00
 Coeff:     -0.136D-05 0.183D-05 0.425D-06 0.217D-05-0.114D-04-0.478D-04
 Coeff:     -0.889D-04 0.378D-03 0.283D-02 0.857D-03-0.172D-01-0.415D-01
 Coeff:     -0.853D-02 0.223D+00 0.840D+00
 Gap=     0.177 Goal=   None    Shift=    0.000
 RMSDP=1.83D-08 MaxDP=1.18D-06 DE=-7.73D-12 OVMax= 1.58D-06

 Cycle  16  Pass 1  IDiag  1:
 RMSU=  8.73D-09    CP:  1.06D+00  1.39D+00  8.52D-01  7.95D-01  9.62D-01
                    CP:  1.02D+00  1.07D+00  1.04D+00  1.07D+00  1.00D+00
                    CP:  9.43D-01  1.21D+00  1.31D+00  1.07D+00  1.02D+00
 E= -647.102761932015     Delta-E=        0.000000000005 Rises=F Damp=F
 DIIS: error= 2.17D-08 at cycle  16 NSaved=  16.
 NSaved=16 IEnMin=15 EnMin= -647.102761932020     IErMin=16 ErrMin= 2.17D-08
 ErrMax= 2.17D-08  0.00D+00 EMaxC= 1.00D-01 BMatC= 1.44D-13 BMatP= 7.10D-13
 IDIUse=1 WtCom= 1.00D+00 WtEn= 0.00D+00
 Coeff-Com: -0.817D-06 0.117D-05 0.202D-05 0.486D-05-0.164D-05-0.329D-04
 Coeff-Com: -0.148D-03 0.617D-04 0.161D-02 0.239D-02 0.611D-04-0.220D-01
 Coeff-Com: -0.503D-01 0.312D-01 0.381D+00 0.656D+00
 Coeff:     -0.817D-06 0.117D-05 0.202D-05 0.486D-05-0.164D-05-0.329D-04
 Coeff:     -0.148D-03 0.617D-04 0.161D-02 0.239D-02 0.611D-04-0.220D-01
 Coeff:     -0.503D-01 0.312D-01 0.381D+00 0.656D+00
 Gap=     0.177 Goal=   None    Shift=    0.000
 RMSDP=6.66D-09 MaxDP=2.94D-07 DE= 4.77D-12 OVMax= 3.32D-07

 SCF Done:  E(RM062X) =  -647.102761932     A.U. after   16 cycles
            NFock= 16  Conv=0.67D-08     -V/T= 2.0018
 KE= 6.459516738112D+02 PE=-3.252980353743D+03 EE= 1.080247024930D+03
 Leave Link  502 at Sun Oct 13 23:52:13 2019, MaxMem= 10737418240 cpu:             888.1 elap:              37.2
 (Enter /apps/cent7/gaussian/g16-A.03/g16-haswell/g16/l601.exe)
 Copying SCF densities to generalized density rwf, IOpCl= 0 IROHF=0.

 **********************************************************************

            Population analysis using the SCF density.

 **********************************************************************

 Orbital symmetries:
       Occupied  (A) (A) (A) (A) (A) (A) (A) (A) (A) (A) (A) (A)
                 (A) (A) (A) (A) (A) (A) (A) (A) (A) (A) (A) (A)
                 (A) (A) (A) (A) (A) (A) (A) (A) (A) (A) (A) (A)
                 (A) (A) (A) (A) (A) (A) (A) (A) (A) (A) (A) (A)
                 (A) (A)
       Virtual   (A) (A) (A) (A) (A) (A) (A) (A) (A) (A) (A) (A)
                 (A) (A) (A) (A) (A) (A) (A) (A) (A) (A) (A) (A)
                 (A) (A) (A) (A) (A) (A) (A) (A) (A) (A) (A) (A)
                 (A) (A) (A) (A) (A) (A) (A) (A) (A) (A) (A) (A)
                 (A) (A) (A) (A) (A) (A) (A) (A) (A) (A) (A) (A)
                 (A) (A) (A) (A) (A) (A) (A) (A) (A) (A) (A) (A)
                 (A) (A) (A) (A) (A) (A) (A) (A) (A) (A) (A) (A)
                 (A) (A) (A) (A) (A) (A) (A) (A) (A) (A) (A) (A)
                 (A) (A) (A) (A) (A) (A) (A) (A) (A) (A) (A) (A)
                 (A) (A) (A) (A) (A) (A) (A) (A) (A) (A) (A) (A)
                 (A) (A) (A) (A) (A) (A) (A) (A) (A) (A) (A) (A)
                 (A) (A) (A) (A) (A) (A) (A) (A) (A) (A) (A) (A)
                 (A) (A) (A) (A) (A) (A) (A) (A) (A) (A) (A) (A)
                 (A) (A) (A) (A) (A) (A) (A) (A) (A) (A) (A) (A)
                 (A) (A) (A) (A) (A) (A) (A) (A) (A) (A) (A) (A)
                 (A) (A) (A) (A) (A) (A) (A) (A) (A) (A) (A) (A)
                 (A) (A) (A) (A) (A) (A) (A) (A) (A) (A) (A) (A)
                 (A) (A) (A) (A) (A) (A) (A) (A) (A) (A) (A) (A)
                 (A) (A) (A) (A) (A) (A) (A) (A) (A) (A) (A) (A)
                 (A) (A) (A) (A) (A) (A) (A) (A) (A) (A) (A) (A)
                 (A) (A) (A) (A) (A) (A) (A) (A) (A) (A) (A) (A)
                 (A) (A) (A) (A) (A) (A) (A) (A) (A) (A) (A) (A)
                 (A) (A) (A) (A) (A) (A) (A) (A) (A) (A) (A) (A)
                 (A) (A) (A) (A) (A) (A) (A) (A) (A) (A) (A) (A)
                 (A) (A) (A) (A) (A) (A) (A) (A) (A) (A) (A) (A)
                 (A) (A) (A) (A) (A) (A) (A) (A) (A) (A) (A) (A)
                 (A) (A) (A) (A) (A) (A) (A) (A) (A) (A) (A) (A)
                 (A) (A) (A) (A) (A) (A) (A) (A)
 The electronic state is 1-A.
 Alpha  occ. eigenvalues --  -19.91145 -19.77602 -15.14950 -14.87441 -10.78614
 Alpha  occ. eigenvalues --  -10.77062 -10.73878 -10.71440 -10.70633 -10.70585
 Alpha  occ. eigenvalues --  -10.69129 -10.68931 -10.68671 -10.68251  -1.55366
 Alpha  occ. eigenvalues --   -1.33601  -1.29224  -1.24760  -1.09291  -1.08016
 Alpha  occ. eigenvalues --   -1.01025  -0.97479  -0.97140  -0.96068  -0.94030
 Alpha  occ. eigenvalues --   -0.91658  -0.86193  -0.83367  -0.80613  -0.77589
 Alpha  occ. eigenvalues --   -0.74707  -0.72453  -0.71106  -0.69766  -0.68848
 Alpha  occ. eigenvalues --   -0.65507  -0.65119  -0.64552  -0.63293  -0.63183
 Alpha  occ. eigenvalues --   -0.62840  -0.56535  -0.56192  -0.55512  -0.54171
 Alpha  occ. eigenvalues --   -0.52314  -0.49121  -0.47836  -0.44306  -0.41060
 Alpha virt. eigenvalues --   -0.23400  -0.18773  -0.14247  -0.12572  -0.11946
 Alpha virt. eigenvalues --   -0.11066  -0.09329  -0.08066  -0.07686  -0.07355
 Alpha virt. eigenvalues --   -0.06605  -0.06382  -0.05534  -0.04701  -0.04349
 Alpha virt. eigenvalues --   -0.03870  -0.03496  -0.03080  -0.02818  -0.02382
 Alpha virt. eigenvalues --   -0.02072  -0.01833  -0.00907  -0.00343   0.00047
 Alpha virt. eigenvalues --    0.00844   0.01014   0.01628   0.02520   0.02742
 Alpha virt. eigenvalues --    0.02839   0.02989   0.03634   0.03888   0.04442
 Alpha virt. eigenvalues --    0.04625   0.05052   0.05222   0.05658   0.06040
 Alpha virt. eigenvalues --    0.06586   0.06790   0.07117   0.07968   0.08299
 Alpha virt. eigenvalues --    0.09025   0.09128   0.09636   0.09995   0.10348
 Alpha virt. eigenvalues --    0.10625   0.10873   0.11314   0.11794   0.12002
 Alpha virt. eigenvalues --    0.12178   0.12694   0.13293   0.14162   0.14884
 Alpha virt. eigenvalues --    0.15531   0.15639   0.16121   0.16746   0.16864
 Alpha virt. eigenvalues --    0.17382   0.17556   0.18299   0.18830   0.19648
 Alpha virt. eigenvalues --    0.19943   0.20489   0.21465   0.21654   0.21890
 Alpha virt. eigenvalues --    0.22684   0.23330   0.23657   0.24228   0.25286
 Alpha virt. eigenvalues --    0.25981   0.26734   0.27281   0.28199   0.28327
 Alpha virt. eigenvalues --    0.28737   0.30151   0.32147   0.33411   0.34648
 Alpha virt. eigenvalues --    0.36961   0.38293   0.39225   0.40057   0.41150
 Alpha virt. eigenvalues --    0.41548   0.44102   0.44309   0.45189   0.45309
 Alpha virt. eigenvalues --    0.45819   0.46938   0.47620   0.48739   0.49861
 Alpha virt. eigenvalues --    0.50474   0.51276   0.51959   0.52708   0.53572
 Alpha virt. eigenvalues --    0.54141   0.55296   0.56185   0.57063   0.58480
 Alpha virt. eigenvalues --    0.60054   0.60832   0.61546   0.62254   0.63259
 Alpha virt. eigenvalues --    0.63694   0.64465   0.65620   0.66538   0.67118
 Alpha virt. eigenvalues --    0.68204   0.69521   0.70508   0.72181   0.73787
 Alpha virt. eigenvalues --    0.74650   0.76253   0.77211   0.77679   0.77898
 Alpha virt. eigenvalues --    0.79215   0.80274   0.81370   0.82468   0.82526
 Alpha virt. eigenvalues --    0.84047   0.84399   0.86245   0.86689   0.88552
 Alpha virt. eigenvalues --    0.90306   0.91304   0.91830   0.94245   0.94624
 Alpha virt. eigenvalues --    0.95500   0.96163   0.98245   0.98486   1.00223
 Alpha virt. eigenvalues --    1.01287   1.01367   1.04433   1.04965   1.06465
 Alpha virt. eigenvalues --    1.07346   1.08278   1.15074   1.16290   1.17252
 Alpha virt. eigenvalues --    1.19567   1.21057   1.21873   1.23298   1.23911
 Alpha virt. eigenvalues --    1.27665   1.32264   1.32400   1.35042   1.36987
 Alpha virt. eigenvalues --    1.38419   1.40219   1.40636   1.41321   1.42468
 Alpha virt. eigenvalues --    1.45175   1.46105   1.47932   1.49244   1.49595
 Alpha virt. eigenvalues --    1.51379   1.52336   1.54405   1.55371   1.55723
 Alpha virt. eigenvalues --    1.56888   1.59210   1.60073   1.61537   1.62757
 Alpha virt. eigenvalues --    1.63527   1.63969   1.66225   1.66956   1.69607
 Alpha virt. eigenvalues --    1.71054   1.72235   1.74351   1.75030   1.76312
 Alpha virt. eigenvalues --    1.78957   1.79546   1.80270   1.80889   1.82937
 Alpha virt. eigenvalues --    1.83723   1.85691   1.86935   1.89688   1.90077
 Alpha virt. eigenvalues --    1.92210   1.95375   1.96825   1.97388   1.98335
 Alpha virt. eigenvalues --    1.99378   1.99625   2.04800   2.06966   2.09329
 Alpha virt. eigenvalues --    2.11958   2.12364   2.14961   2.17748   2.19356
 Alpha virt. eigenvalues --    2.22005   2.28022   2.30177   2.33534   2.34098
 Alpha virt. eigenvalues --    2.37528   2.39451   2.40018   2.41855   2.43322
 Alpha virt. eigenvalues --    2.45687   2.46848   2.48657   2.48832   2.49246
 Alpha virt. eigenvalues --    2.50234   2.53523   2.54909   2.55319   2.59159
 Alpha virt. eigenvalues --    2.61669   2.62185   2.63518   2.64464   2.66982
 Alpha virt. eigenvalues --    2.67895   2.68365   2.69870   2.70093   2.74103
 Alpha virt. eigenvalues --    2.75035   2.75203   2.77295   2.78378   2.79098
 Alpha virt. eigenvalues --    2.82736   2.84068   2.86280   2.87745   2.91481
 Alpha virt. eigenvalues --    2.95119   2.96447   2.97293   3.00441   3.02316
 Alpha virt. eigenvalues --    3.04388   3.06419   3.11115   3.13085   3.16387
 Alpha virt. eigenvalues --    3.21338   3.25454   3.27150   3.28559   3.30968
 Alpha virt. eigenvalues --    3.34138   3.36505   3.39064   3.42489   3.47501
 Alpha virt. eigenvalues --    3.47823   3.52149   3.57787   3.66210   3.71584
 Alpha virt. eigenvalues --    3.73469   3.75205   3.84484   3.92662   3.93069
 Alpha virt. eigenvalues --    3.94544   3.95230   4.03955   4.08480   4.24772
 Alpha virt. eigenvalues --    4.34312   4.37109   4.49311   4.54782   4.70989
 Alpha virt. eigenvalues --    4.76586   4.92978   5.14201   5.24543   5.34502
 Alpha virt. eigenvalues --    5.37418   5.76874   5.88164  23.58700  23.77609
 Alpha virt. eigenvalues --   23.88778  23.89176  23.94357  24.00090  24.00380
 Alpha virt. eigenvalues --   24.01898  24.09820  24.22997  35.42910  35.73102
 Alpha virt. eigenvalues --   49.81249  49.98040
          Condensed to atoms (all electrons):
               1          2          3          4          5          6
     1  C    5.216009   0.141025  -0.243599  -0.024239  -0.048103  -0.038421
     2  O    0.141025   8.067253   0.666339  -0.090583  -0.054806   0.010944
     3  C   -0.243599   0.666339  13.204291  -0.003495   0.778181  -0.751080
     4  N   -0.024239  -0.090583  -0.003495   7.016401  -0.667591  -0.964997
     5  C   -0.048103  -0.054806   0.778181  -0.667591  19.746432  -1.157674
     6  C   -0.038421   0.010944  -0.751080  -0.964997  -1.157674  13.729213
     7  C   -0.007229  -0.006225  -0.225855   0.009222  -0.158871   0.570720
     8  C    0.005026   0.001848   0.502341   0.046944   0.497862  -1.979074
     9  C    0.002862  -0.000592  -2.074761  -0.048537  -1.962247   3.249631
    10  C    0.080131  -0.136048  -3.622961   0.603986   0.740207  -4.189084
    11  C    0.263246  -0.607476  -4.514243   0.828728  -4.372948  -2.816158
    12  C   -0.193280   0.275314   3.166319   0.265105  -6.905984   0.536801
    13  N    0.006258  -0.007984  -0.394993  -0.014341   0.245626   0.005823
    14  O    0.003088   0.001131  -0.042152  -0.002279   0.009982   0.003685
    15  H    0.365792  -0.067744  -0.101785   0.019336  -0.032485  -0.036236
    16  H    0.397191  -0.055682   0.046798   0.003093   0.000799  -0.003085
    17  H    0.425349  -0.030375   0.013581  -0.008473   0.021739   0.028609
    18  H   -0.000043   0.000320   0.004440  -0.006868  -0.104996   0.485721
    19  H   -0.000232  -0.000124  -0.010826   0.002329   0.021306  -0.072560
    20  H    0.000106   0.000058   0.012802  -0.000035   0.088028  -0.051244
    21  H    0.000660   0.000334  -0.083765  -0.015298   0.149190   0.176509
    22  H   -0.008317   0.022769   0.168220  -0.002639  -0.135579   0.001603
    23  H    0.003842   0.000678  -0.014031   0.003325  -0.019313  -0.032556
    24  H   -0.000725   0.000160   0.014359   0.000087  -0.005869   0.001728
    25  H    0.000926  -0.000572  -0.071884   0.001092  -0.026673  -0.007947
               7          8          9         10         11         12
     1  C   -0.007229   0.005026   0.002862   0.080131   0.263246  -0.193280
     2  O   -0.006225   0.001848  -0.000592  -0.136048  -0.607476   0.275314
     3  C   -0.225855   0.502341  -2.074761  -3.622961  -4.514243   3.166319
     4  N    0.009222   0.046944  -0.048537   0.603986   0.828728   0.265105
     5  C   -0.158871   0.497862  -1.962247   0.740207  -4.372948  -6.905984
     6  C    0.570720  -1.979074   3.249631  -4.189084  -2.816158   0.536801
     7  C    6.601841   0.452545  -0.650892  -0.073465  -0.351603  -0.258825
     8  C    0.452545   9.754200  -1.993674  -1.607957   0.622327   0.250824
     9  C   -0.650892  -1.993674  11.466027  -2.198048  -1.672626   1.879935
    10  C   -0.073465  -1.607957  -2.198048  15.247641   6.500473  -7.432398
    11  C   -0.351603   0.622327  -1.672626   6.500473  19.054784  -8.734005
    12  C   -0.258825   0.250824   1.879935  -7.432398  -8.734005  25.768928
    13  N    0.005504  -0.201866   0.031187   0.737802   0.697733  -2.147154
    14  O   -0.000080  -0.019547  -0.018259   0.103426   0.125884  -0.195227
    15  H   -0.000283   0.010775   0.005791   0.058610   0.226660  -0.111377
    16  H   -0.000058   0.000598  -0.003116  -0.000079  -0.016125  -0.011264
    17  H    0.002133  -0.004230  -0.002171  -0.028030  -0.054656   0.018028
    18  H   -0.055503  -0.010122   0.048395  -0.052031  -0.019971   0.020436
    19  H    0.396391  -0.044822  -0.080346   0.099991   0.024330   0.003217
    20  H   -0.071854   0.461327  -0.124726   0.030967   0.010043  -0.023062
    21  H    0.010627  -0.395170   0.684931  -0.000465  -0.233537  -0.082095
    22  H    0.001030   0.018467   0.049186  -0.241050  -0.499830   1.054305
    23  H   -0.005270   0.029771   0.009714   0.057002   0.217676  -0.310448
    24  H    0.000332   0.000328   0.004789  -0.055146  -0.068302   0.145172
    25  H    0.001647  -0.041834   0.028720   0.118942   0.047029  -0.146590
              13         14         15         16         17         18
     1  C    0.006258   0.003088   0.365792   0.397191   0.425349  -0.000043
     2  O   -0.007984   0.001131  -0.067744  -0.055682  -0.030375   0.000320
     3  C   -0.394993  -0.042152  -0.101785   0.046798   0.013581   0.004440
     4  N   -0.014341  -0.002279   0.019336   0.003093  -0.008473  -0.006868
     5  C    0.245626   0.009982  -0.032485   0.000799   0.021739  -0.104996
     6  C    0.005823   0.003685  -0.036236  -0.003085   0.028609   0.485721
     7  C    0.005504  -0.000080  -0.000283  -0.000058   0.002133  -0.055503
     8  C   -0.201866  -0.019547   0.010775   0.000598  -0.004230  -0.010122
     9  C    0.031187  -0.018259   0.005791  -0.003116  -0.002171   0.048395
    10  C    0.737802   0.103426   0.058610  -0.000079  -0.028030  -0.052031
    11  C    0.697733   0.125884   0.226660  -0.016125  -0.054656  -0.019971
    12  C   -2.147154  -0.195227  -0.111377  -0.011264   0.018028   0.020436
    13  N    7.574194   0.089877   0.001801   0.000402   0.000762   0.000105
    14  O    0.089877   7.676943  -0.001496  -0.000253   0.000275  -0.000016
    15  H    0.001801  -0.001496   0.586767  -0.029335  -0.046349  -0.000158
    16  H    0.000402  -0.000253  -0.029335   0.485549  -0.018099  -0.000026
    17  H    0.000762   0.000275  -0.046349  -0.018099   0.472991   0.000214
    18  H    0.000105  -0.000016  -0.000158  -0.000026   0.000214   0.430843
    19  H    0.000002   0.000014   0.000010  -0.000002   0.000018  -0.007803
    20  H   -0.001056  -0.000258   0.000123   0.000014  -0.000056   0.001178
    21  H    0.049997   0.011969  -0.000926  -0.000116   0.000334   0.000956
    22  H   -0.135933  -0.037408  -0.002278  -0.009039   0.000658   0.000109
    23  H    0.336254  -0.042499  -0.000533   0.000877  -0.000423   0.000038
    24  H    0.012003   0.186363  -0.000231  -0.000195   0.000023   0.000006
    25  H    0.382890  -0.011199   0.000200  -0.000245   0.000209  -0.000082
              19         20         21         22         23         24
     1  C   -0.000232   0.000106   0.000660  -0.008317   0.003842  -0.000725
     2  O   -0.000124   0.000058   0.000334   0.022769   0.000678   0.000160
     3  C   -0.010826   0.012802  -0.083765   0.168220  -0.014031   0.014359
     4  N    0.002329  -0.000035  -0.015298  -0.002639   0.003325   0.000087
     5  C    0.021306   0.088028   0.149190  -0.135579  -0.019313  -0.005869
     6  C   -0.072560  -0.051244   0.176509   0.001603  -0.032556   0.001728
     7  C    0.396391  -0.071854   0.010627   0.001030  -0.005270   0.000332
     8  C   -0.044822   0.461327  -0.395170   0.018467   0.029771   0.000328
     9  C   -0.080346  -0.124726   0.684931   0.049186   0.009714   0.004789
    10  C    0.099991   0.030967  -0.000465  -0.241050   0.057002  -0.055146
    11  C    0.024330   0.010043  -0.233537  -0.499830   0.217676  -0.068302
    12  C    0.003217  -0.023062  -0.082095   1.054305  -0.310448   0.145172
    13  N    0.000002  -0.001056   0.049997  -0.135933   0.336254   0.012003
    14  O    0.000014  -0.000258   0.011969  -0.037408  -0.042499   0.186363
    15  H    0.000010   0.000123  -0.000926  -0.002278  -0.000533  -0.000231
    16  H   -0.000002   0.000014  -0.000116  -0.009039   0.000877  -0.000195
    17  H    0.000018  -0.000056   0.000334   0.000658  -0.000423   0.000023
    18  H   -0.007803   0.001178   0.000956   0.000109   0.000038   0.000006
    19  H    0.428396  -0.009715   0.000250   0.000098  -0.000265   0.000014
    20  H   -0.009715   0.462564  -0.029660  -0.000391   0.002436  -0.000151
    21  H    0.000250  -0.029660   0.714838  -0.006775   0.010343  -0.004354
    22  H    0.000098  -0.000391  -0.006775   0.402688  -0.006571   0.017425
    23  H   -0.000265   0.002436   0.010343  -0.006571   0.524492  -0.026749
    24  H    0.000014  -0.000151  -0.004354   0.017425  -0.026749   0.465803
    25  H   -0.000025  -0.000211  -0.005691  -0.004156  -0.049396  -0.006605
              25
     1  C    0.000926
     2  O   -0.000572
     3  C   -0.071884
     4  N    0.001092
     5  C   -0.026673
     6  C   -0.007947
     7  C    0.001647
     8  C   -0.041834
     9  C    0.028720
    10  C    0.118942
    11  C    0.047029
    12  C   -0.146590
    13  N    0.382890
    14  O   -0.011199
    15  H    0.000200
    16  H   -0.000245
    17  H    0.000209
    18  H   -0.000082
    19  H   -0.000025
    20  H   -0.000211
    21  H   -0.005691
    22  H   -0.004156
    23  H   -0.049396
    24  H   -0.006605
    25  H    0.435468
 Mulliken charges:
               1
     1  C   -0.347322
     2  O   -0.129963
     3  C   -0.422242
     4  N    0.049725
     5  C   -0.646217
     6  C   -0.700874
     7  C   -0.185980
     8  C   -0.356888
     9  C   -0.631175
    10  C    1.257585
    11  C    1.342566
    12  C   -0.832673
    13  N   -0.274894
    14  O    0.158036
    15  H    0.155349
    16  H    0.211394
    17  H    0.207940
    18  H    0.264857
    19  H    0.250353
    20  H    0.242771
    21  H    0.046912
    22  H    0.353409
    23  H    0.311607
    24  H    0.319736
    25  H    0.355986
 Sum of Mulliken charges =   1.00000
 Mulliken charges with hydrogens summed into heavy atoms:
               1
     1  C    0.227362
     2  O   -0.129963
     3  C   -0.422242
     4  N    0.049725
     5  C   -0.646217
     6  C   -0.436017
     7  C    0.064373
     8  C   -0.114117
     9  C   -0.584263
    10  C    1.257585
    11  C    1.342566
    12  C   -0.479264
    13  N    0.392699
    14  O    0.477772
 Electronic spatial extent (au):  <R**2>=           2858.6231
 Charge=              1.0000 electrons
 Dipole moment (field-independent basis, Debye):
    X=             -3.9492    Y=              9.5511    Z=              2.4750  Tot=             10.6276
 Quadrupole moment (field-independent basis, Debye-Ang):
   XX=            -49.3456   YY=            -43.6921   ZZ=            -80.3989
   XY=            -10.5665   XZ=             -4.6832   YZ=             -1.5090
 Traceless Quadrupole moment (field-independent basis, Debye-Ang):
   XX=              8.4667   YY=             14.1201   ZZ=            -22.5867
   XY=            -10.5665   XZ=             -4.6832   YZ=             -1.5090
 Octapole moment (field-independent basis, Debye-Ang**2):
  XXX=             17.1412  YYY=            107.4688  ZZZ=             -1.1833  XYY=            -72.2917
  XXY=             20.0619  XXZ=             13.9538  XZZ=            -20.3283  YZZ=              7.3189
  YYZ=             27.8405  XYZ=              5.8283
 Hexadecapole moment (field-independent basis, Debye-Ang**3):
 XXXX=          -1691.2580 YYYY=          -1017.7206 ZZZZ=           -150.3693 XXXY=            -37.9650
 XXXZ=            -20.8121 YYYX=           -175.5872 YYYZ=              1.2786 ZZZX=             -4.8583
 ZZZY=             -3.8918 XXYY=           -388.6712 XXZZ=           -392.6023 YYZZ=           -254.5133
 XXYZ=             16.6803 YYXZ=            -49.9532 ZZXY=            -20.7920
 N-N= 8.796788930694D+02 E-N=-3.252980353271D+03  KE= 6.459516738112D+02
 No NMR shielding tensors so no spin-rotation constants.
 Leave Link  601 at Sun Oct 13 23:52:13 2019, MaxMem= 10737418240 cpu:               3.3 elap:               0.2
 (Enter /apps/cent7/gaussian/g16-A.03/g16-haswell/g16/l701.exe)
 ... and contract with generalized density number  0.
 Compute integral first derivatives.
 Leave Link  701 at Sun Oct 13 23:52:13 2019, MaxMem= 10737418240 cpu:               3.7 elap:               0.2
 (Enter /apps/cent7/gaussian/g16-A.03/g16-haswell/g16/l702.exe)
 L702 exits ... SP integral derivatives will be done elsewhere.
 Leave Link  702 at Sun Oct 13 23:52:13 2019, MaxMem= 10737418240 cpu:               0.4 elap:               0.0
 (Enter /apps/cent7/gaussian/g16-A.03/g16-haswell/g16/l703.exe)
 Integral derivatives from FoFJK, PRISM(SPDF).
 Compute integral first derivatives, UseDBF=F ICtDFT=           0.
 Calling FoFJK, ICntrl=      2127 FMM=F ISym2X=0 I1Cent= 0 IOpClX= 0 NMat=1 NMatS=1 NMatT=0.
 FoFJK:  IHMeth= 1 ICntrl=    2127 DoSepK=F KAlg= 0 I1Cent=           0 FoldK=F
 IRaf=         0 NMat=       1 IRICut=       1 DoRegI=T DoRafI=F ISym2E= 0 IDoP0=0 IntGTp=1.
 FoFCou: FMM=F IPFlag=           0 FMFlag=      100000 FMFlg1=         800
         NFxFlg=           0 DoJE=F BraDBF=F KetDBF=F FulRan=T
         wScrn=  0.000000 ICntrl=      2127 IOpCl=  0 I1Cent=           0 NGrid=           0
         NMat0=    1 NMatS0=      1 NMatT0=    0 NMatD0=    1 NMtDS0=    0 NMtDT0=    0
 Symmetry not used in FoFCou.
 Leave Link  703 at Sun Oct 13 23:52:20 2019, MaxMem= 10737418240 cpu:             146.7 elap:               6.2
 (Enter /apps/cent7/gaussian/g16-A.03/g16-haswell/g16/l716.exe)
 Dipole        =-1.55374036D+00 3.75768522D+00 9.73730848D-01
 ***** Axes restored to original set *****
 -------------------------------------------------------------------
 Center     Atomic                   Forces (Hartrees/Bohr)
 Number     Number              X              Y              Z
 -------------------------------------------------------------------
      1        6           0.003636335    0.003948957   -0.001953013
      2        8          -0.000086063   -0.014137147    0.008154630
      3        6           0.029718213    0.049427267   -0.112277982
      4        7           0.035829366   -0.012191818   -0.096909286
      5        6          -0.034549640    0.045927292    0.081165611
      6        6           0.001735514   -0.009615907    0.000331527
      7        6           0.002722524   -0.016000350   -0.001323921
      8        6           0.002048795    0.000344522   -0.005348742
      9        6           0.000325790    0.003330609   -0.013794108
     10        6          -0.036534422    0.045754350    0.087211616
     11        6          -0.008670299   -0.100413665    0.068589795
     12        6           0.054802396    0.032146148   -0.136557116
     13        7          -0.038880204    0.031785295    0.098490349
     14        8           0.015039627   -0.089878041   -0.021410760
     15        1           0.002717204   -0.000645327    0.001285700
     16        1          -0.005246820    0.000227016   -0.000157530
     17        1          -0.000726472    0.000708496    0.000671530
     18        1           0.000754547   -0.004823915    0.002005323
     19        1           0.001562368   -0.004806419   -0.001224538
     20        1           0.001719200   -0.000748471   -0.005078060
     21        1          -0.002461766    0.005441987    0.003797408
     22        1          -0.003697522   -0.001692570    0.002592758
     23        1           0.010905639    0.022608569    0.024685311
     24        1          -0.000414590   -0.002799581    0.007442438
     25        1          -0.032249720    0.016102700    0.009611061
 -------------------------------------------------------------------
 Cartesian Forces:  Max     0.136557116 RMS     0.038296786
 Leave Link  716 at Sun Oct 13 23:52:20 2019, MaxMem= 10737418240 cpu:               0.7 elap:               0.0
 (Enter /apps/cent7/gaussian/g16-A.03/g16-haswell/g16/l103.exe)

 GradGradGradGradGradGradGradGradGradGradGradGradGradGradGradGradGradGrad
 Berny optimization.
 FormGI is forming the generalized inverse of G from B-inverse, IUseBI=4.
 GSVD:  received Info=                   1 from GESDD.
 Internal  Forces:  Max     0.124876975 RMS     0.022821363
 Search for a local minimum.
 Step number   1 out of a maximum of  132
 All quantities printed in internal units (Hartrees-Bohrs-Radians)
 RMS Force = .22821D-01 SwitMx=.10000D-02 MixMth= 1
 Mixed Optimization -- RFO/linear search
 Second derivative matrix not updated -- first step.
 ITU=  0
     Eigenvalues ---    0.01162   0.01921   0.01935   0.01940   0.01946
     Eigenvalues ---    0.01961   0.01983   0.02142   0.02236   0.02308
     Eigenvalues ---    0.02466   0.02561   0.02572   0.02711   0.02722
     Eigenvalues ---    0.02750   0.02791   0.02887   0.06275   0.08402
     Eigenvalues ---    0.10293   0.10293   0.13031   0.14804   0.16000
     Eigenvalues ---    0.16000   0.16000   0.16000   0.16000   0.16000
     Eigenvalues ---    0.16000   0.16000   0.16000   0.22000   0.22000
     Eigenvalues ---    0.22254   0.22601   0.24515   0.24964   0.24973
     Eigenvalues ---    0.24989   0.24991   0.25000   0.34807   0.34812
     Eigenvalues ---    0.34813   0.34813   0.34814   0.34816   0.34816
     Eigenvalues ---    0.34818   0.38883   0.39580   0.40190   0.43395
     Eigenvalues ---    0.43599   0.43889   0.44373   0.46498   0.47688
     Eigenvalues ---    0.47688   0.50657   0.55484   0.55688   0.56875
     Eigenvalues ---    0.61400   0.62837   0.66009   0.68547
 RFO step:  Lambda=-1.02450609D-01 EMin= 1.16210178D-02
 Linear search not attempted -- first point.
 Maximum step size (   0.300) exceeded in Quadratic search.
    -- Step size scaled by   0.711
 Iteration  1 RMS(Cart)=  0.05428471 RMS(Int)=  0.00139257
 Iteration  2 RMS(Cart)=  0.00236512 RMS(Int)=  0.00018502
 Iteration  3 RMS(Cart)=  0.00000585 RMS(Int)=  0.00018500
 Iteration  4 RMS(Cart)=  0.00000000 RMS(Int)=  0.00018500
 ITry= 1 IFail=0 DXMaxC= 2.79D-01 DCOld= 1.00D+10 DXMaxT= 3.00D-01 DXLimC= 3.00D+00 Rises=F
 Variable       Old X    -DE/DX   Delta X   Delta X   Delta X     New X
                                 (Linear)    (Quad)   (Total)
    R1        2.72128   0.00042   0.00000   0.00060   0.00060   2.72188
    R2        2.05977   0.00222   0.00000   0.00351   0.00351   2.06328
    R3        2.05975  -0.00176   0.00000  -0.00278  -0.00278   2.05697
    R4        2.05981   0.00003   0.00000   0.00005   0.00005   2.05986
    R5        2.53502  -0.00158   0.00000  -0.00167  -0.00167   2.53336
    R6        2.42438   0.00450   0.00000   0.00461   0.00467   2.42905
    R7        2.57058   0.11137   0.00000   0.12593   0.12594   2.69652
    R8        2.46568   0.10990   0.00000   0.10270   0.10273   2.56841
    R9        2.65729  -0.02185   0.00000  -0.02788  -0.02785   2.62945
   R10        2.63408   0.02343   0.00000   0.02923   0.02918   2.66325
   R11        2.66464  -0.00885   0.00000  -0.01215  -0.01209   2.65254
   R12        2.05980  -0.00502   0.00000  -0.00792  -0.00792   2.05188
   R13        2.66765  -0.01486   0.00000  -0.02054  -0.02052   2.64713
   R14        2.05975  -0.00516   0.00000  -0.00814  -0.00814   2.05161
   R15        2.66613  -0.01675   0.00000  -0.02243  -0.02246   2.64367
   R16        2.05979  -0.00541   0.00000  -0.00853  -0.00853   2.05126
   R17        2.67242  -0.01593   0.00000  -0.02056  -0.02061   2.65181
   R18        2.05990  -0.00198   0.00000  -0.00312  -0.00312   2.05678
   R19        2.60577   0.07008   0.00000   0.08295   0.08290   2.68866
   R20        2.54525  -0.01078   0.00000  -0.01162  -0.01162   2.53363
   R21        2.49849   0.12488   0.00000   0.12389   0.12389   2.62238
   R22        2.05971  -0.00211   0.00000  -0.00333  -0.00333   2.05638
   R23        2.46480   0.09022   0.00000   0.08410   0.08410   2.54889
   R24        1.88973   0.03365   0.00000   0.04129   0.04129   1.93101
   R25        1.88973   0.03621   0.00000   0.04443   0.04443   1.93416
   R26        1.81404   0.00783   0.00000   0.00847   0.00847   1.82251
    A1        1.91070   0.00481   0.00000   0.01359   0.01359   1.92429
    A2        1.91064  -0.00822   0.00000  -0.02293  -0.02294   1.88770
    A3        1.91061  -0.00043   0.00000  -0.00105  -0.00109   1.90952
    A4        1.91058   0.00134   0.00000   0.00340   0.00344   1.91403
    A5        1.91059  -0.00000   0.00000   0.00131   0.00128   1.91187
    A6        1.91067   0.00250   0.00000   0.00568   0.00562   1.91628
    A7        1.97927   0.00647   0.00000   0.01304   0.01304   1.99231
    A8        2.12645   0.01512   0.00000   0.02923   0.02922   2.15567
    A9        2.19826  -0.01001   0.00000  -0.02150  -0.02152   2.17674
   A10        1.95787  -0.00511   0.00000  -0.00775  -0.00771   1.95016
   A11        1.88943  -0.00599   0.00000  -0.00912  -0.00904   1.88039
   A12        2.24765  -0.00747   0.00000  -0.01553  -0.01552   2.23213
   A13        1.90747   0.01863   0.00000   0.03578   0.03576   1.94322
   A14        2.12784  -0.01115   0.00000  -0.02018  -0.02017   2.10767
   A15        2.06658  -0.00013   0.00000  -0.00085  -0.00077   2.06581
   A16        2.10607  -0.00156   0.00000  -0.00397  -0.00401   2.10206
   A17        2.11054   0.00169   0.00000   0.00482   0.00478   2.11532
   A18        2.09934   0.00859   0.00000   0.01597   0.01604   2.11538
   A19        2.09099  -0.00372   0.00000  -0.00642  -0.00645   2.08454
   A20        2.09285  -0.00487   0.00000  -0.00956  -0.00959   2.08326
   A21        2.10446   0.00028   0.00000  -0.00212  -0.00214   2.10231
   A22        2.08973   0.00007   0.00000   0.00164   0.00166   2.09139
   A23        2.08899  -0.00036   0.00000   0.00048   0.00049   2.08948
   A24        2.07687  -0.00361   0.00000  -0.00809  -0.00819   2.06868
   A25        2.10115  -0.00518   0.00000  -0.01488  -0.01483   2.08632
   A26        2.10516   0.00879   0.00000   0.02297   0.02302   2.12818
   A27        2.09074   0.00604   0.00000   0.01539   0.01536   2.10609
   A28        1.83959  -0.01228   0.00000  -0.02806  -0.02813   1.81146
   A29        2.35275   0.00624   0.00000   0.01267   0.01277   2.36552
   A30        1.82800   0.00488   0.00000   0.00987   0.00979   1.83779
   A31        2.17602  -0.00847   0.00000  -0.01714  -0.01711   2.15891
   A32        2.27870   0.00354   0.00000   0.00705   0.00707   2.28578
   A33        2.16544  -0.01430   0.00000  -0.03152  -0.03152   2.13391
   A34        2.07631   0.01074   0.00000   0.02549   0.02549   2.10180
   A35        2.04144   0.00356   0.00000   0.00603   0.00603   2.04747
   A36        2.12100  -0.05118   0.00000  -0.11161  -0.11113   2.00987
   A37        1.86451   0.01089   0.00000   0.02138   0.02194   1.88645
   A38        1.86451   0.01299   0.00000   0.02613   0.02640   1.89091
   A39        1.86451   0.02099   0.00000   0.05037   0.05027   1.91478
   A40        1.86451   0.01754   0.00000   0.03923   0.03901   1.90352
   A41        1.87272  -0.00865   0.00000  -0.02007  -0.02101   1.85171
   A42        1.91073   0.00238   0.00000   0.00645   0.00645   1.91718
    D1        0.55158   0.00239   0.00000   0.01202   0.01207   0.56365
    D2        2.64596   0.00194   0.00000   0.01046   0.01038   2.65634
    D3       -1.54279  -0.00029   0.00000   0.00273   0.00276  -1.54004
    D4        1.52252  -0.00316   0.00000  -0.01819  -0.01821   1.50431
    D5       -1.65943  -0.00344   0.00000  -0.01869  -0.01866  -1.67809
    D6       -3.14060  -0.00142   0.00000  -0.00544  -0.00537   3.13722
    D7        0.03627  -0.00100   0.00000  -0.00457  -0.00454   0.03173
    D8        3.11551   0.00120   0.00000   0.00813   0.00815   3.12366
    D9       -0.05561   0.00004   0.00000   0.00121   0.00129  -0.05432
   D10       -0.06310   0.00137   0.00000   0.00847   0.00854  -0.05456
   D11        3.04897   0.00020   0.00000   0.00155   0.00168   3.05065
   D12        3.12518   0.00008   0.00000   0.00128   0.00129   3.12648
   D13        0.00636  -0.00037   0.00000  -0.00204  -0.00210   0.00426
   D14       -3.09791  -0.00116   0.00000  -0.00599  -0.00596  -3.10387
   D15        0.04377  -0.00110   0.00000  -0.00566  -0.00564   0.03813
   D16        0.01837  -0.00032   0.00000  -0.00165  -0.00165   0.01672
   D17       -3.12314  -0.00026   0.00000  -0.00133  -0.00132  -3.12446
   D18        3.08375   0.00113   0.00000   0.00727   0.00735   3.09111
   D19       -0.04442   0.00116   0.00000   0.00737   0.00741  -0.03701
   D20       -0.03693   0.00070   0.00000   0.00421   0.00424  -0.03269
   D21        3.11808   0.00073   0.00000   0.00431   0.00430   3.12238
   D22        0.00703  -0.00028   0.00000  -0.00109  -0.00108   0.00596
   D23       -3.13458  -0.00022   0.00000  -0.00091  -0.00090  -3.13549
[...]
 ,0.00009830,-0.00016941,-0.00003158,-0.00023985,0.00018510,0.00016213,
 0.00090960,0.00019017,-0.00019288,-0.00003933,-0.00008241,0.00003009,-
 0.00004450,-0.00006379,-0.00006123,0.00001765,0.00000656,-0.00001504,-
 0.00718758,0.00218766,-0.00246388,0.01216246,-0.00502503,0.01193800,0.
 11854468,-0.06248860,0.14159631,0.00000400,0.00003058,-0.00003076,0.00
 019678,-0.00003994,0.00016207,-0.00017290,0.00005586,-0.00007996,-0.00
 253022,-0.00168227,-0.00208008,0.00655600,0.00795279,-0.00740439,-0.05
 230425,-0.03256392,0.03912889,0.00137571,-0.01251173,0.00843695,0.0041
 0443,0.00215026,0.00534709,-0.00122351,0.00045531,-0.00003806,0.004951
 76,0.00334315,0.00309384,0.00030182,0.00064521,-0.00023464,-0.00030851
 ,0.00008184,0.00001624,0.00002839,0.00000200,0.00006110,-0.00001045,0.
 00000865,-0.00000321,-0.00002375,0.00000166,-0.00000851,-0.00000224,-0
 .00001262,0.00000858,-0.00000007,0.00001772,0.00000910,0.04253426,0.00
 003780,-0.00002085,-0.00004604,-0.00012256,0.00037723,0.00017420,0.000
 16293,-0.00055894,-0.00017933,-0.00146515,0.00205399,-0.00016960,-0.00
 599518,-0.01615541,0.02002017,-0.03247867,-0.22496595,0.14209530,0.001
 51331,0.00921710,-0.00544306,0.00220782,0.00135292,-0.00128963,0.00037
 049,-0.00020610,-0.00102424,0.00320780,-0.00286842,-0.00110774,-0.0003
 1187,-0.00078485,0.00104659,0.00025271,-0.00020852,-0.00045905,0.00004
 194,0.00006644,-0.00001042,-0.00000991,-0.00000596,0.00000888,0.000017
 98,-0.00002010,-0.00000243,-0.00000028,0.00001642,-0.00000816,-0.00000
 376,-0.00002461,-0.00001199,0.03375396,0.23231354,-0.00002755,-0.00005
 437,0.00007520,0.00020177,0.00005671,-0.00009729,-0.00014758,-0.000209
 62,0.00017892,-0.00220823,0.00051016,-0.00048123,-0.00078879,-0.006636
 13,0.00880120,0.03845985,0.14290994,-0.17201162,0.00253986,0.01965812,
 -0.01048238,0.00526435,-0.00110128,-0.00140909,-0.00021918,-0.00080544
 ,-0.00036370,0.00354219,-0.00079268,0.00165680,0.00019116,-0.00048315,
 0.00021903,-0.00002421,-0.00019440,-0.00019030,0.00005538,0.00004893,-
 0.00000292,-0.00000969,-0.00000716,0.00000750,0.00002355,-0.00001033,0
 .00000094,0.00000253,0.00001477,-0.00001162,-0.00001616,-0.00001627,-0
 .00001984,-0.04437044,-0.15310595,0.17502745,0.00001081,0.00001391,-0.
 00006136,-0.00004398,0.00018900,0.00007909,-0.00008153,-0.00027517,0.0
 0021251,-0.00065967,0.00072358,-0.00015102,0.00460760,0.00119338,0.005
 53989,-0.00016971,0.01446790,0.00310267,-0.08194756,0.09533868,0.02909
 705,0.00661099,-0.00514539,-0.00044270,0.00574921,-0.00001624,0.003232
 15,-0.00107822,-0.00047953,-0.00008461,-0.00061543,-0.00027673,-0.0003
 8609,0.00013473,0.00002827,-0.00009132,-0.00015867,0.00008845,0.000003
 87,-0.00001042,0.00005274,0.00001344,0.00000307,-0.00000550,0.00000451
 ,-0.00000058,0.00000257,0.00000253,0.00000096,-0.00000240,-0.00000366,
 -0.00257031,-0.00094225,-0.00192762,0.07309772,-0.00001893,-0.00001376
 ,0.00002845,0.00007945,-0.00008433,-0.00007683,-0.00001626,0.00006217,
 0.00001668,-0.00018546,-0.00014362,0.00013307,0.00112145,0.00190173,0.
 00072893,0.00034146,0.00123787,0.00122650,0.09535502,-0.29912646,-0.05
 544460,0.00868401,-0.01492072,-0.00679830,0.00045464,-0.00168585,0.003
 65036,-0.00083138,0.00079807,0.00062883,0.00005520,-0.00037607,-0.0003
 7939,-0.00001674,0.00015761,0.00001066,-0.00008126,-0.00000965,0.00003
 615,0.00001642,0.00000073,-0.00001469,0.00000029,0.00000303,-0.0000020
 3,0.00000131,0.00000124,-0.00000199,0.00000156,0.00000409,-0.00000322,
 -0.00072908,0.00025705,-0.00057981,-0.10363142,0.31231453,-0.00005386,
 -0.00003374,0.00007786,0.00015699,-0.00029474,-0.00008203,0.00017624,0
 .00030865,-0.00043491,0.00017449,-0.00156258,-0.00015409,0.00558618,0.
 00047292,-0.00229630,0.00939016,-0.02478962,-0.00076234,0.02913553,-0.
 05570187,-0.06980578,-0.00671627,0.01960697,0.00853261,0.00309632,0.00
 427354,-0.00056248,-0.00009513,0.00035176,-0.00121967,-0.00038004,-0.0
 0031336,-0.00008578,0.00010530,0.00012783,-0.00011880,-0.00011453,0.00
 005193,0.00006994,-0.00002563,0.00006977,0.00003907,-0.00000611,0.0000
 0496,0.00000112,0.00000309,-0.00000346,-0.00000200,0.00000258,0.000009
 43,0.00000136,-0.00203456,-0.00012650,-0.00012981,-0.03622037,0.057519
 40,0.06721783,-0.00007142,-0.00001307,-0.00002624,-0.00005274,-0.00014
 517,-0.00005550,-0.00003971,0.00027496,-0.00008087,-0.00035746,-0.0003
 0545,-0.00017398,-0.00081557,0.00017731,-0.00066866,0.00591425,0.00047
 129,0.00246131,0.00145470,0.00119546,0.00292493,-0.11066645,0.03007759
 ,0.12985166,-0.00157008,-0.00006949,0.00757472,0.00435851,0.00304150,0
 .00231038,0.00080428,-0.00017107,0.00058155,-0.00005313,0.00004503,0.0
 0005474,0.00001367,-0.00001182,0.00000389,-0.00000028,0.00002770,-0.00
 002060,-0.00000312,-0.00000395,0.00001561,0.00000173,0.00000021,0.0000
 0279,0.00000481,0.00000573,-0.00001224,-0.00004306,0.00007449,0.000006
 55,-0.00299379,-0.00098161,-0.00184185,0.10695814,-0.00000515,-0.00003
 575,-0.00001386,-0.00001008,0.00023971,-0.00013931,0.00010427,-0.00066
 471,0.00006466,-0.00016506,0.00046696,-0.00015377,0.00004908,-0.001485
 72,0.00015510,0.00061023,-0.00304812,0.00376795,-0.01226323,0.00818311
 ,0.02136584,0.02921340,-0.06561447,-0.04115194,0.01405383,-0.00185128,
 -0.02544106,0.00272657,-0.00469847,0.00025704,0.00062515,0.00038644,-0
 .00092199,0.00013965,0.00014468,-0.00020649,0.00000440,0.00001850,0.00
 006560,-0.00005177,-0.00001571,0.00004455,0.00000155,-0.00000234,-0.00
 000044,0.00000540,0.00000764,-0.00001101,0.00000461,-0.00000083,-0.000
 00732,-0.00063729,0.00031677,0.00089456,-0.00076747,0.00048272,-0.0008
 0200,-0.03263238,0.06662064,-0.00002905,-0.00000528,-0.00002154,-0.000
 05368,0.00002429,-0.00002494,-0.00004821,-0.00023163,0.00013006,-0.000
 25827,0.00001236,-0.00001181,-0.00075078,0.00097939,-0.00011837,0.0025
 7725,0.00369466,0.00038961,0.00912791,-0.00560774,-0.01166816,0.130435
 96,-0.04105017,-0.26949688,0.00132574,0.00101819,-0.00076610,0.0018058
 2,-0.00012690,0.00285306,0.00040105,0.00021217,0.00023257,0.00001728,-
 0.00006527,-0.00000970,0.00004378,0.00000643,-0.00002070,-0.00002535,-
 0.00000987,0.00000632,-0.00000410,-0.00000249,0.00000301,0.00000177,-0
 .00000041,0.00000008,0.00000722,0.00000408,-0.00000604,0.00041620,-0.0
 0036907,-0.00055260,-0.00186946,-0.00045686,-0.00026903,-0.14140622,0.
 04270525,0.27957090,-0.00003335,-0.00001063,-0.00004008,-0.00011319,0.
 00016000,0.00005401,0.00015427,-0.00046886,-0.00002437,-0.00065115,-0.
 00045942,0.00063893,0.00515803,0.00303391,0.00524472,-0.00109659,0.000
 23937,-0.00005719,0.00501636,0.00340084,0.00271438,0.00621177,0.007252
 48,-0.00710678,-0.04353677,-0.01725875,0.03097439,0.00000234,-0.011792
 34,0.00871212,-0.00226542,-0.00158788,-0.00218963,0.00030974,0.0004512
 7,-0.00038147,-0.00069891,0.00064285,0.00015572,-0.00020487,0.00014527
 ,0.00006844,0.00001182,0.00000490,0.00001667,0.00000409,0.00000906,0.0
 0000180,0.00000636,-0.00000679,-0.00000964,-0.00080736,-0.00026904,-0.
 00048118,-0.00012549,0.00030070,-0.00048150,-0.00286894,-0.00109308,-0
 .00174460,0.03289052,0.00003581,0.00004461,-0.00009675,-0.00021310,0.0
 0015609,0.00029051,0.00003257,-0.00029674,0.00016582,-0.00008070,0.000
 53727,-0.00009170,0.00268873,0.00165694,-0.00059058,0.00011308,-0.0001
 1503,-0.00081152,0.00445889,-0.00435008,-0.00196442,-0.00557203,-0.017
 19965,0.02363528,-0.01660953,-0.19004893,0.13290229,-0.00013577,0.0071
 1073,-0.00409151,-0.00088395,-0.00090817,-0.00013680,-0.00026513,0.000
 16794,0.00018655,-0.00033960,-0.00198018,-0.00106141,0.00030862,-0.000
 35784,-0.00032937,0.00000468,-0.00001377,0.00000724,-0.00000442,0.0000
 0078,0.00000994,-0.00000248,-0.00001363,0.00000084,-0.00032960,-0.0000
 4498,-0.00005906,-0.00044611,-0.00097283,0.00113207,-0.00110282,0.0006
 4362,-0.00075079,0.01744806,0.20694275,-0.00006224,-0.00003888,0.00005
 690,0.00020140,-0.00049448,-0.00018902,0.00009699,0.00163950,-0.000538
 70,0.00086344,-0.00021737,-0.00151777,0.00426354,-0.00227496,0.0001970
 4,0.00005275,-0.00076625,-0.00060391,0.00232944,-0.00102087,0.00235522
 ,0.00034490,-0.00460538,0.00686154,0.03181240,0.13973677,-0.18808385,-
 0.00003119,0.02046515,-0.01096214,-0.00202342,-0.00056603,0.00075609,0
 .00090416,0.00015630,-0.00139685,-0.00022518,0.00037598,0.00041666,-0.
 00032636,0.00061929,0.00038295,-0.00002593,0.00001367,0.00000814,0.000
 00785,-0.00001783,0.00000066,0.00001338,0.00001942,0.00001405,-0.00040
 813,0.00000077,-0.00019276,-0.00014835,-0.00028207,0.00001947,-0.00159
 020,-0.00033866,-0.00023610,-0.03665496,-0.14741252,0.19367491,-0.0000
 8592,0.00000128,0.00014096,-0.00052244,0.00019445,0.00037333,-0.004255
 84,-0.00132295,-0.00297937,0.00099342,0.00087370,0.00088042,0.00046451
 ,-0.00006567,-0.00081639,-0.00054005,-0.00034254,-0.00029871,0.0000510
 2,-0.00007117,0.00021644,-0.00071983,-0.00002633,-0.00035794,-0.000271
 31,-0.00017626,0.00030481,0.00622738,-0.00039042,0.00446569,0.00563844
 ,-0.00149709,-0.00197787,-0.09722455,0.09948884,0.08191415,-0.00890896
 ,0.00532173,0.01227651,0.00137718,0.00268132,-0.00004795,0.00000946,-0
 .00001739,-0.00000164,0.00002870,-0.00001376,0.00009069,0.00000267,0.0
 0008133,-0.00005544,-0.00006102,-0.00007128,-0.00006668,0.00010338,0.0
 0003196,0.00005867,0.00000436,-0.00001404,-0.00001010,0.00054463,0.000
 25641,0.00014432,0.09770243,-0.00035950,0.00022003,0.00060026,-0.00017
 496,0.00067135,-0.00001665,0.00061592,-0.00126859,-0.00183051,-0.00052
 274,0.00077009,0.00090481,0.00121809,-0.00097437,-0.00179212,-0.000451
 28,0.00000865,0.00073298,0.00007070,0.00014487,-0.00017561,0.00007470,
 -0.00002130,-0.00028540,-0.00000574,-0.00027376,0.00022630,-0.00125949
 ,-0.00026420,0.00334607,0.01265917,-0.01370339,-0.01512697,0.10546226,
 -0.20606858,-0.12258132,-0.01362274,0.00982415,0.01577158,0.00171213,0
 .00182481,-0.00012058,0.00005178,0.00005099,-0.00011422,0.00001029,-0.
 00001337,0.00001702,0.00004119,0.00006002,-0.00010466,0.00004686,-0.00
 011729,-0.00004708,0.00001385,-0.00000258,-0.00000892,0.00002372,-0.00
 006279,-0.00000074,0.00008985,0.00009111,-0.00018806,-0.10399735,0.210
 30036,0.00011585,-0.00003586,-0.00029050,0.00057199,-0.00069290,-0.001
 01632,-0.00449003,-0.00015178,0.00055432,0.00120442,-0.00012341,0.0000
 6486,-0.00044264,-0.00005281,0.00066330,-0.00038912,-0.00002102,-0.000
 22300,0.00000561,-0.00003578,0.00023689,-0.00060378,0.00037548,-0.0002
 8010,0.00027483,-0.00021573,-0.00083176,0.00406129,0.00276287,0.002362
 01,-0.00383051,0.00407862,0.00932396,0.08507242,-0.11157136,-0.1353376
 0,0.01533610,-0.01532694,-0.01821439,-0.00180515,-0.00085441,0.0014537
 5,-0.00004108,-0.00008464,0.00006962,0.00009501,0.00004548,-0.00006647
 ,-0.00000156,0.00001343,0.00004269,-0.00007092,0.00004163,-0.00002258,
 0.00007276,-0.00000237,0.00004625,-0.00002728,0.00004891,0.00000662,0.
 00035275,-0.00004546,0.00037885,-0.09610831,0.11899899,0.14267033,0.00
 015418,0.00006153,-0.00018577,-0.00049357,0.00023935,0.00073594,-0.000
 59086,-0.00014965,-0.00221216,0.00051575,-0.00034230,0.00021206,-0.000
 35405,0.00025852,0.00024813,0.00015602,-0.00019934,-0.00033638,-0.0000
 1661,-0.00009733,0.00004788,-0.00026873,-0.00031093,0.00002999,0.00003
 245,0.00020124,0.00002165,0.00079817,-0.00011570,0.00000247,-0.0020798
 0,0.00070041,0.00283657,0.01634702,-0.00643992,0.01244991,-0.19117811,
 0.06400284,-0.14632758,-0.01187590,-0.00853375,-0.01309211,0.00000189,
 -0.00002363,0.00003899,-0.00000650,-0.00000113,0.00004581,-0.00003787,
 -0.00001107,0.00002347,0.00000197,-0.00000178,0.00000271,0.00005022,0.
 00001672,0.00003647,0.00002195,-0.00000269,-0.00000500,0.00022561,0.00
 021030,0.00011692,-0.00023621,0.00004272,0.00069111,0.20139948,0.00005
 970,0.00001163,0.00001417,-0.00001693,-0.00010035,0.00011879,-0.001105
 82,0.00014153,-0.00111610,0.00061263,-0.00030625,-0.00004012,-0.000423
 22,0.00005565,0.00040359,0.00007636,-0.00006091,-0.00018572,0.00001750
 ,0.00008872,0.00000240,0.00018756,-0.00020499,-0.00015562,-0.00040238,
 0.00001549,0.00040643,0.00060370,0.00037469,0.00024215,-0.00145989,0.0
 0155112,0.00165682,0.00348819,-0.00635983,0.01217511,0.07147657,-0.082
 46463,0.06649899,-0.03138749,-0.00593791,-0.03161353,-0.00000327,0.000
 00785,0.00000560,-0.00000431,-0.00000108,0.00000823,-0.00002114,0.0000
 0175,0.00001635,-0.00000391,-0.00000191,0.00000117,-0.00000664,0.00001
 874,-0.00003401,0.00000580,-0.00002599,-0.00000452,0.00024958,0.000147
 43,-0.00026664,-0.00000635,0.00032747,-0.00009596,-0.05475876,0.093156
 51,0.00003107,0.00003040,-0.00015116,-0.00018136,-0.00014580,0.0001394
 5,0.00188797,0.00088298,0.00066172,-0.00040931,-0.00043429,-0.00027337
 ,0.00000440,-0.00014113,0.00021283,-0.00003060,0.00006696,0.00011367,0
 .00004053,0.00000423,-0.00010363,-0.00003167,-0.00007098,-0.00003472,-
 0.00021651,-0.00015303,-0.00013841,-0.00107492,0.00052351,-0.00016275,
 0.00105305,-0.00163956,-0.00170344,-0.00952632,0.01296745,-0.01909132,
 -0.15744034,0.06035217,-0.23168714,-0.00717983,-0.00421348,-0.00551176
 ,-0.00000178,-0.00001128,0.00002087,-0.00000474,0.00000569,-0.00000376
 ,0.00000640,-0.00001488,0.00000174,0.00001448,-0.00000512,0.00000073,0
 .00002427,0.00000013,0.00001225,0.00003319,-0.00002850,0.00001002,0.00
 009512,0.00013752,0.00022978,0.00002447,-0.00064102,-0.00003638,0.1630
 1859,-0.06625864,0.24216409,-0.00005366,-0.00004126,0.00009587,-0.0000
 0016,0.00012592,-0.00013095,0.00030557,-0.00035301,0.00036200,-0.00018
 304,0.00017445,-0.00002113,0.00012404,-0.00015424,-0.00000215,-0.00011
 199,0.00010370,0.00010763,0.00003416,0.00007424,-0.00004251,-0.0000072
 0,0.00001360,-0.00007156,-0.00003129,0.00000920,-0.00001426,-0.0001840
 3,0.00006062,0.00001144,-0.00016672,-0.00018221,0.00016844,-0.00222214
 ,-0.00398654,-0.00098409,-0.01189290,-0.00604716,0.01825058,-0.0950991
 7,-0.10027453,0.14389924,0.00000177,0.00000112,-0.00000291,0.00000558,
 -0.00000201,0.00000399,0.00000703,0.00001036,-0.00001101,0.00000522,0.
 00000483,0.00000404,0.00000254,0.00000363,-0.00000644,0.00001660,0.000
 02893,0.00002100,0.00008390,0.00001029,-0.00005831,0.00022951,0.000091
 95,-0.00026959,-0.00137130,-0.00113770,0.00067779,0.10795587,-0.000111
 21,-0.00004721,0.00014647,0.00017165,-0.00001764,-0.00026000,0.0005159
 9,0.00007255,0.00037961,-0.00007192,-0.00015926,-0.00013784,-0.0000910
 4,0.00013372,0.00016718,0.00008854,-0.00004703,-0.00011101,-0.00007286
 ,-0.00000025,0.00007891,0.00012895,0.00007906,-0.00016840,-0.00005148,
 -0.00003401,0.00033219,0.00000091,-0.00005152,-0.00015256,-0.00130747,
 0.00085664,0.00075257,-0.00249674,-0.00640469,-0.00169245,-0.01536427,
 -0.01903117,0.02991393,-0.09042285,-0.10141092,0.11238201,-0.00000053,
 0.00001854,-0.00000663,-0.00000012,-0.00000609,-0.00000500,0.00000911,
 0.00001021,-0.00001051,-0.00000384,0.00000124,0.00000209,0.00000505,0.
 00001557,-0.00001480,-0.00000835,-0.00001800,-0.00000859,0.00000234,0.
 00011525,-0.00026454,-0.00004136,0.00029918,-0.00004777,-0.00056994,0.
 00230316,0.00011153,0.11036389,0.12547422,0.00005625,0.00006012,-0.000
 14479,-0.00020579,-0.00002551,0.00030813,0.00087156,0.00011093,-0.0005
 3934,-0.00014941,-0.00044777,0.00017365,-0.00008781,0.00013514,0.00005
 254,0.00007436,-0.00006779,-0.00006776,-0.00002405,-0.00005885,0.00002
 510,-0.00005395,-0.00001215,0.00000909,-0.00002480,-0.00012883,0.00001
 109,-0.00014998,0.00020987,-0.00017101,-0.00087197,-0.00048630,0.00193
 507,0.00026396,-0.00195810,-0.00358180,-0.01884308,-0.02144629,0.01652
 404,0.18317156,0.16861452,-0.36658545,0.00000102,-0.00001100,0.0000171
 6,-0.00000821,-0.00000057,0.00001408,-0.00000574,-0.00001266,0.0000067
 5,0.00000722,-0.00000229,-0.00000064,0.00001377,-0.00000045,0.00001084
 ,0.00001076,-0.00002785,-0.00000173,0.00000069,-0.00001996,0.00014949,
 -0.00041606,0.00004991,0.00019710,-0.00095553,-0.00155125,0.00174815,-
 0.16156557,-0.14285555,0.34892381,0.00000288,-0.00006096,0.00006789,0.
 00010595,0.00012471,-0.00032526,-0.00019052,-0.00041461,0.00127922,-0.
 00019983,0.00075293,-0.00017112,0.00023124,0.00004025,-0.00044391,0.00
 010578,-0.00013647,-0.00010293,-0.00016785,-0.00004391,0.00055194,-0.0
 0065247,0.00077135,-0.00036018,-0.00125039,-0.00062209,0.00021954,-0.0
 0008332,-0.00209776,-0.00043677,0.00201179,-0.00025256,-0.00107708,-0.
 01018658,0.01006257,0.00906750,-0.21089852,0.15441952,0.06904861,0.014
 44995,-0.02594109,-0.01133320,0.00000002,-0.00000316,-0.00001876,0.000
 00945,0.00000877,-0.00001975,0.00000943,0.00000012,-0.00000807,-0.0000
 0266,0.00002567,-0.00000663,0.00008413,0.00002833,0.00005427,-0.000017
 25,0.00007518,0.00002382,0.00178259,0.00041780,0.00040279,-0.00055095,
 -0.00183140,0.00022585,-0.01119517,0.01396021,0.00918603,0.00255181,-0
 .00067245,-0.00110921,0.21405049,0.00004060,-0.00006557,0.00005656,0.0
 0041535,-0.00087167,-0.00036557,-0.00029882,0.00179270,-0.00100716,0.0
 0096943,-0.00166510,-0.00078841,-0.00077150,0.00020137,0.00184511,0.00
 024574,0.00008058,-0.00046250,-0.00024578,0.00042624,-0.00005394,0.001
 93640,-0.00018794,-0.00089652,-0.00045201,-0.00194048,0.00252709,-0.00
 008182,0.00101032,0.00045435,-0.00388101,0.00161715,0.00248898,-0.0060
 5385,0.01511962,0.00175050,0.14702487,-0.20563256,-0.06760898,0.004357
 57,-0.02645181,-0.01299249,-0.00002312,0.00001381,0.00001015,0.0000133
 6,-0.00000106,-0.00001560,-0.00002009,0.00001998,0.00003635,-0.0000316
 7,0.00001119,0.00000627,-0.00012254,0.00008071,-0.00024365,0.00002440,
 0.00001340,0.00003352,-0.00048370,-0.00131268,-0.00427230,-0.00087708,
 -0.00182286,0.00299279,0.00582427,-0.00273791,-0.00132485,0.00110192,-
 0.00215153,-0.00006732,-0.14861092,0.22445412,0.00001976,0.00008671,-0
 .00004847,-0.00026790,0.00010728,0.00039567,0.00000204,-0.00012178,-0.
 00150848,0.00014055,-0.00034503,0.00044117,-0.00024545,0.00049427,-0.0
 0076623,0.00032342,-0.00032397,-0.00033067,-0.00029564,-0.00001968,0.0
 0046873,0.00041528,0.00067941,-0.00099817,-0.00068996,-0.00148231,0.00
 323311,-0.00019682,0.00119687,0.00006428,-0.00049837,-0.00059754,0.001
 40038,0.02063734,-0.01842407,-0.01349212,0.06683434,-0.07211484,-0.094
 92882,0.00390047,-0.00955530,-0.00337534,0.00000304,-0.00000038,0.0000
 0529,-0.00000950,-0.00001048,0.00002730,-0.00000150,0.00000075,-0.0000
 0387,0.00006187,-0.00002692,0.00000062,-0.00001193,0.00006345,-0.00010
 557,0.00007155,-0.00012525,0.00000149,0.00014165,-0.00100622,-0.001780
 65,0.00224602,0.00238594,-0.00175144,-0.01744414,0.01977231,0.01358257
 ,-0.00042154,0.00146917,0.00098644,-0.07471457,0.07789761,0.09848279\\
 0.00000003,0.00000043,-0.00000014,0.00000015,0.00000015,0.00000015,-0.
 00000042,0.00000122,-0.00000072,-0.00000101,-0.00000055,0.00000051,-0.
 00000043,0.,-0.00000112,-0.00000048,-0.00000071,-0.00000111,-0.0000021
 6,-0.00000096,0.00000038,-0.00000077,0.00000105,-0.00000068,0.00000001
 ,-0.00000076,-0.00000041,-0.00000059,0.00000096,0.00000101,0.00000086,
 -0.00000181,-0.00000026,0.00000054,0.00000117,-0.00000009,0.00000003,-
 0.00000149,0.00000161,0.00000290,0.00000129,0.00000106,-0.00000050,0.0
 0000067,-0.00000032,0.00000019,0.00000041,0.00000012,-0.00000040,-0.00
 000025,-0.00000012,-0.00000199,-0.00000027,-0.00000077,-0.00000186,-0.
 00000040,-0.00000103,-0.00000093,-0.00000050,-0.00000034,0.00000022,0.
 ,-0.00000001,0.00000169,0.00000020,0.00000089,0.00000164,0.00000066,0.
 00000013,0.00000215,-0.00000038,0.00000111,0.00000112,-0.00000015,0.00
 000014\\\@


 YOU KNOW YOU'VE SPOKEN TOO LONG WHEN THE AUDIENCE STOPS LOOKING AT
 THEIR WATCHES AND STARTS SHAKING THEM.
 Job cpu time:       0 days  2 hours  9 minutes 22.4 seconds.
 Elapsed time:       0 days  0 hours  5 minutes 24.9 seconds.
 File lengths (MBytes):  RWF=    338 Int=      0 D2E=      0 Chk=     15 Scr=      1
 Normal termination of Gaussian 16 at Mon Oct 14 00:21:17 2019.
real 1783.15
user 41695.88
sys 146.00
Machine:
brown-a121
brown-a121
brown-a121
brown-a121
brown-a121
brown-a121
brown-a121
brown-a121
brown-a121
brown-a121
brown-a121
brown-a121
brown-a121
brown-a121
brown-a121
brown-a121
brown-a121
brown-a121
brown-a121
brown-a121
brown-a121
brown-a121
brown-a121
brown-a121
