 Entering Gaussian System, Link 0=/apps/cent7/gaussian/g16-A.03/g16-haswell/g16/g16
 Initial command:
 /apps/cent7/gaussian/g16-A.03/g16-haswell/g16/l1.exe "/scratch/brown/finej/gaussian/Gau-296302.inp" -scrdir="/scratch/brown/finej/gaussian/"
 Entering Link 1 = /apps/cent7/gaussian/g16-A.03/g16-haswell/g16/l1.exe PID=    296305.
  
 Copyright (c) 1988,1990,1992,1993,1995,1998,2003,2009,2016,
            Gaussian, Inc.  All Rights Reserved.
  
 This is part of the Gaussian(R) 16 program.  It is based on
 the Gaussian(R) 09 system (copyright 2009, Gaussian, Inc.),
 the Gaussian(R) 03 system (copyright 2003, Gaussian, Inc.),
 the Gaussian(R) 98 system (copyright 1998, Gaussian, Inc.),
 the Gaussian(R) 94 system (copyright 1995, Gaussian, Inc.),
 the Gaussian 92(TM) system (copyright 1992, Gaussian, Inc.),
 the Gaussian 90(TM) system (copyright 1990, Gaussian, Inc.),
 the Gaussian 88(TM) system (copyright 1988, Gaussian, Inc.),
 the Gaussian 86(TM) system (copyright 1986, Carnegie Mellon
 University), and the Gaussian 82(TM) system (copyright 1983,
 Carnegie Mellon University). Gaussian is a federally registered
 trademark of Gaussian, Inc.
  
 This software contains proprietary and confidential information,
 including trade secrets, belonging to Gaussian, Inc.
  
 This software is provided under written license and may be
 used, copied, transmitted, or stored only in accord with that
 written license.
  
 The following legend is applicable only to US Government
 contracts under FAR:
  
                    RESTRICTED RIGHTS LEGEND
  
 Use, reproduction and disclosure by the US Government is
 subject to restrictions as set forth in subparagraphs (a)
 and (c) of the Commercial Computer Software - Restricted
 Rights clause in FAR 52.227-19.
  
 Gaussian, Inc.
 340 Quinnipiac St., Bldg. 40, Wallingford CT 06492
  
  
 ---------------------------------------------------------------
 Warning -- This program may not be used in any manner that
 competes with the business of Gaussian, Inc. or will provide
 assistance to any competitor of Gaussian, Inc.  The licensee
 of this program is prohibited from giving any competitor of
 Gaussian, Inc. access to this program.  By using this program,
 the user acknowledges that Gaussian, Inc. is engaged in the
 business of creating and licensing software in the field of
 computational chemistry and represents and warrants to the
 licensee that it is not a competitor of Gaussian, Inc. and that
 it will not use this program in any manner prohibited above.
 ---------------------------------------------------------------
  

 Cite this work as:
 Gaussian 16, Revision A.03,
 M. J. Frisch, G. W. Trucks, H. B. Schlegel, G. E. Scuseria, 
 M. A. Robb, J. R. Cheeseman, G. Scalmani, V. Barone, 
 G. A. Petersson, H. Nakatsuji, X. Li, M. Caricato, A. V. Marenich, 
 J. Bloino, B. G. Janesko, R. Gomperts, B. Mennucci, H. P. Hratchian, 
 J. V. Ortiz, A. F. Izmaylov, J. L. Sonnenberg, D. Williams-Young, 
 F. Ding, F. Lipparini, F. Egidi, J. Goings, B. Peng, A. Petrone, 
 T. Henderson, D. Ranasinghe, V. G. Zakrzewski, J. Gao, N. Rega, 
 G. Zheng, W. Liang, M. Hada, M. Ehara, K. Toyota, R. Fukuda, 
 J. Hasegawa, M. Ishida, T. Nakajima, Y. Honda, O. Kitao, H. Nakai, 
 T. Vreven, K. Throssell, J. A. Montgomery, Jr., J. E. Peralta, 
 F. Ogliaro, M. J. Bearpark, J. J. Heyd, E. N. Brothers, K. N. Kudin, 
 V. N. Staroverov, T. A. Keith, R. Kobayashi, J. Normand, 
 K. Raghavachari, A. P. Rendell, J. C. Burant, S. S. Iyengar, 
 J. Tomasi, M. Cossi, J. M. Millam, M. Klene, C. Adamo, R. Cammi, 
 J. W. Ochterski, R. L. Martin, K. Morokuma, O. Farkas, 
 J. B. Foresman, and D. J. Fox, Gaussian, Inc., Wallingford CT, 2016.
 
 ******************************************
 Gaussian 16:  ES64L-G16RevA.03 25-Dec-2016
                 2-Jan-2020 
 ******************************************
 %chk=7_p_c.chk
 %nprocshared=24
 Will use up to   24 processors via shared memory.
 %mem=80GB
 -------------------------------------------------------------------
 #p opt freq m062x/6-311++g(d,p) geom=connectivity temperature=0.001
 -------------------------------------------------------------------
 1/18=20,19=15,26=3,38=1,57=2,112=-1000/1,3;
 2/9=110,12=2,17=6,18=5,40=1/2;
 3/5=4,6=6,7=1111,11=2,25=1,30=1,71=1,74=-55/1,2,3;
 4//1;
 5/5=2,38=5/2;
 6/7=2,8=2,9=2,10=2,28=1/1;
 7//1,2,3,16;
 1/18=20,19=15,26=3/3(2);
 2/9=110/2;
 99//99;
 2/9=110/2;
 3/5=4,6=6,7=1111,11=2,25=1,30=1,71=1,74=-55/1,2,3;
 4/5=5,16=3,69=1/1;
 5/5=2,38=5/2;
 7//1,2,3,16;
 1/18=20,19=15,26=3/3(-5);
 2/9=110/2;
 6/7=2,8=2,9=2,10=2,19=2,28=1/1;
 99/9=1/99;
 Leave Link    1 at Thu Jan  2 19:16:44 2020, MaxMem= 10737418240 cpu:               1.9 elap:               0.1
 (Enter /apps/cent7/gaussian/g16-A.03/g16-haswell/g16/l101.exe)
 -------------------
 Title Card Required
 -------------------
 Symbolic Z-matrix:
 Charge =  1 Multiplicity = 1
 C                    -2.2088   -2.67373   0.79673 
 O                    -1.75015  -2.0992   -0.44153 
 C                    -0.65152  -1.34199  -0.30294 
 N                     0.52776  -1.84442  -0.35572 
 C                     1.39074  -0.8801   -0.18898 
 C                     2.79465  -0.9511   -0.15234 
 C                     3.5199    0.2324    0.09592 
 C                     2.84122   1.45162   0.30963 
 C                     1.43225   1.50667   0.26181 
 C                     0.70875   0.32222  -0.00941 
 C                    -0.62756   0.00835  -0.14047 
 C                    -1.71611   0.80141  -0.15536 
 N                    -1.67264   2.12048  -0.07632 
 O                    -2.76014   2.84052  -0.08694 
 H                    -1.97314  -1.999     1.6197 
 H                    -3.28703  -2.82604   0.74922 
 H                    -1.71337  -3.63105   0.95858 
 H                     3.30775  -1.89936  -0.31237 
 H                     4.60919   0.20474   0.12275 
 H                     3.41035   2.35861   0.5135 
 H                     0.91117   2.44895   0.4315 
 H                    -2.70176   0.34339  -0.23709 
 H                    -0.78232   2.59205  -0.00572 
 H                    -2.58549   3.69016   0.3243 
 H                     0.74774  -2.80921  -0.49986 
 
 ITRead=  0  0  0  0  0  0  0  0  0  0  0  0  0  0  0  0  0  0  0  0
 ITRead=  0  0  0  0  0
 MicOpt= -1 -1 -1 -1 -1 -1 -1 -1 -1 -1 -1 -1 -1 -1 -1 -1 -1 -1 -1 -1
 MicOpt= -1 -1 -1 -1 -1
 NAtoms=     25 NQM=       25 NQMF=       0 NMMI=      0 NMMIF=      0
                NMic=       0 NMicF=      0.
                    Isotopes and Nuclear Properties:
 (Nuclear quadrupole moments (NQMom) in fm**2, nuclear magnetic moments (NMagM)
  in nuclear magnetons)

  Atom         1           2           3           4           5           6           7           8           9          10
 IAtWgt=          12          16          12          14          12          12          12          12          12          12
 AtmWgt=  12.0000000  15.9949146  12.0000000  14.0030740  12.0000000  12.0000000  12.0000000  12.0000000  12.0000000  12.0000000
 NucSpn=           0           0           0           2           0           0           0           0           0           0
 AtZEff=  -0.0000000  -0.0000000  -0.0000000  -0.0000000  -0.0000000  -0.0000000  -0.0000000  -0.0000000  -0.0000000  -0.0000000
 NQMom=    0.0000000   0.0000000   0.0000000   2.0440000   0.0000000   0.0000000   0.0000000   0.0000000   0.0000000   0.0000000
 NMagM=    0.0000000   0.0000000   0.0000000   0.4037610   0.0000000   0.0000000   0.0000000   0.0000000   0.0000000   0.0000000
 AtZNuc=   6.0000000   8.0000000   6.0000000   7.0000000   6.0000000   6.0000000   6.0000000   6.0000000   6.0000000   6.0000000

  Atom        11          12          13          14          15          16          17          18          19          20
 IAtWgt=          12          12          14          16           1           1           1           1           1           1
 AtmWgt=  12.0000000  12.0000000  14.0030740  15.9949146   1.0078250   1.0078250   1.0078250   1.0078250   1.0078250   1.0078250
 NucSpn=           0           0           2           0           1           1           1           1           1           1
 AtZEff=  -0.0000000  -0.0000000  -0.0000000  -0.0000000  -0.0000000  -0.0000000  -0.0000000  -0.0000000  -0.0000000  -0.0000000
 NQMom=    0.0000000   0.0000000   2.0440000   0.0000000   0.0000000   0.0000000   0.0000000   0.0000000   0.0000000   0.0000000
 NMagM=    0.0000000   0.0000000   0.4037610   0.0000000   2.7928460   2.7928460   2.7928460   2.7928460   2.7928460   2.7928460
 AtZNuc=   6.0000000   6.0000000   7.0000000   8.0000000   1.0000000   1.0000000   1.0000000   1.0000000   1.0000000   1.0000000

  Atom        21          22          23          24          25
 IAtWgt=           1           1           1           1           1
 AtmWgt=   1.0078250   1.0078250   1.0078250   1.0078250   1.0078250
 NucSpn=           1           1           1           1           1
 AtZEff=  -0.0000000  -0.0000000  -0.0000000  -0.0000000  -0.0000000
 NQMom=    0.0000000   0.0000000   0.0000000   0.0000000   0.0000000
 NMagM=    2.7928460   2.7928460   2.7928460   2.7928460   2.7928460
 AtZNuc=   1.0000000   1.0000000   1.0000000   1.0000000   1.0000000
 Leave Link  101 at Thu Jan  2 19:16:44 2020, MaxMem= 10737418240 cpu:               8.4 elap:               0.4
 (Enter /apps/cent7/gaussian/g16-A.03/g16-haswell/g16/l103.exe)

 GradGradGradGradGradGradGradGradGradGradGradGradGradGradGradGradGradGrad
 Berny optimization.
 Initialization pass.
                           ----------------------------
                           !    Initial Parameters    !
                           ! (Angstroms and Degrees)  !
 --------------------------                            --------------------------
 ! Name  Definition              Value          Derivative Info.                !
 --------------------------------------------------------------------------------
 ! R1    R(1,2)                  1.44           estimate D2E/DX2                !
 ! R2    R(1,15)                 1.09           estimate D2E/DX2                !
 ! R3    R(1,16)                 1.09           estimate D2E/DX2                !
 ! R4    R(1,17)                 1.09           estimate D2E/DX2                !
 ! R5    R(2,3)                  1.3415         estimate D2E/DX2                !
 ! R6    R(3,4)                  1.2829         estimate D2E/DX2                !
 ! R7    R(3,11)                 1.3603         estimate D2E/DX2                !
 ! R8    R(4,5)                  1.3048         estimate D2E/DX2                !
 ! R9    R(4,25)                 1.0            estimate D2E/DX2                !
 ! R10   R(5,6)                  1.4062         estimate D2E/DX2                !
 ! R11   R(5,10)                 1.3939         estimate D2E/DX2                !
 ! R12   R(6,7)                  1.4101         estimate D2E/DX2                !
 ! R13   R(6,18)                 1.09           estimate D2E/DX2                !
 ! R14   R(7,8)                  1.4117         estimate D2E/DX2                !
 ! R15   R(7,19)                 1.09           estimate D2E/DX2                !
 ! R16   R(8,9)                  1.4109         estimate D2E/DX2                !
 ! R17   R(8,20)                 1.09           estimate D2E/DX2                !
 ! R18   R(9,10)                 1.4142         estimate D2E/DX2                !
 ! R19   R(9,21)                 1.0901         estimate D2E/DX2                !
 ! R20   R(10,11)                1.3789         estimate D2E/DX2                !
 ! R21   R(11,12)                1.3469         estimate D2E/DX2                !
 ! R22   R(12,13)                1.3221         estimate D2E/DX2                !
 ! R23   R(12,22)                1.0899         estimate D2E/DX2                !
 ! R24   R(13,14)                1.3043         estimate D2E/DX2                !
 ! R25   R(13,23)                1.01           estimate D2E/DX2                !
 ! R26   R(14,24)                0.9599         estimate D2E/DX2                !
 ! A1    A(2,1,15)             109.475          estimate D2E/DX2                !
 ! A2    A(2,1,16)             109.4719         estimate D2E/DX2                !
 ! A3    A(2,1,17)             109.47           estimate D2E/DX2                !
 ! A4    A(15,1,16)            109.4683         estimate D2E/DX2                !
 ! A5    A(15,1,17)            109.469          estimate D2E/DX2                !
 ! A6    A(16,1,17)            109.4731         estimate D2E/DX2                !
 ! A7    A(1,2,3)              113.4037         estimate D2E/DX2                !
 ! A8    A(2,3,4)              121.8365         estimate D2E/DX2                !
 ! A9    A(2,3,11)             125.951          estimate D2E/DX2                !
 ! A10   A(4,3,11)             112.1778         estimate D2E/DX2                !
 ! A11   A(3,4,5)              108.2564         estimate D2E/DX2                !
 ! A12   A(3,4,25)             125.8718         estimate D2E/DX2                !
 ! A13   A(5,4,25)             125.8718         estimate D2E/DX2                !
 ! A14   A(4,5,6)              128.7811         estimate D2E/DX2                !
 ! A15   A(4,5,10)             109.2899         estimate D2E/DX2                !
 ! A16   A(6,5,10)             121.9161         estimate D2E/DX2                !
 ! A17   A(5,6,7)              118.4062         estimate D2E/DX2                !
 ! A18   A(5,6,18)             120.6687         estimate D2E/DX2                !
 ! A19   A(7,6,18)             120.9251         estimate D2E/DX2                !
 ! A20   A(6,7,8)              120.2836         estimate D2E/DX2                !
 ! A21   A(6,7,19)             119.805          estimate D2E/DX2                !
 ! A22   A(8,7,19)             119.9114         estimate D2E/DX2                !
 ! A23   A(7,8,9)              120.5765         estimate D2E/DX2                !
 ! A24   A(7,8,20)             119.7329         estimate D2E/DX2                !
 ! A25   A(9,8,20)             119.6905         estimate D2E/DX2                !
 ! A26   A(8,9,10)             118.9958         estimate D2E/DX2                !
 ! A27   A(8,9,21)             120.3872         estimate D2E/DX2                !
 ! A28   A(10,9,21)            120.617          estimate D2E/DX2                !
 ! A29   A(5,10,9)             119.7903         estimate D2E/DX2                !
 ! A30   A(5,10,11)            105.4008         estimate D2E/DX2                !
 ! A31   A(9,10,11)            134.8028         estimate D2E/DX2                !
 ! A32   A(3,11,10)            104.7369         estimate D2E/DX2                !
 ! A33   A(3,11,12)            124.677          estimate D2E/DX2                !
 ! A34   A(10,11,12)           130.5599         estimate D2E/DX2                !
 ! A35   A(11,12,13)           124.0704         estimate D2E/DX2                !
 ! A36   A(11,12,22)           118.9638         estimate D2E/DX2                !
 ! A37   A(13,12,22)           116.9659         estimate D2E/DX2                !
 ! A38   A(12,13,14)           121.5246         estimate D2E/DX2                !
 ! A39   A(12,13,23)           119.9329         estimate D2E/DX2                !
 ! A40   A(14,13,23)           118.5425         estimate D2E/DX2                !
 ! A41   A(13,14,24)           109.4768         estimate D2E/DX2                !
 ! D1    D(15,1,2,3)            31.6032         estimate D2E/DX2                !
 ! D2    D(16,1,2,3)           151.6024         estimate D2E/DX2                !
 ! D3    D(17,1,2,3)           -88.3956         estimate D2E/DX2                !
 ! D4    D(1,2,3,4)             87.2338         estimate D2E/DX2                !
 ! D5    D(1,2,3,11)           -95.0783         estimate D2E/DX2                !
 ! D6    D(2,3,4,5)           -179.943          estimate D2E/DX2                !
 ! D7    D(2,3,4,25)             0.057          estimate D2E/DX2                !
 ! D8    D(11,3,4,5)             2.0781         estimate D2E/DX2                !
 ! D9    D(11,3,4,25)         -177.9219         estimate D2E/DX2                !
 ! D10   D(2,3,11,10)          178.5056         estimate D2E/DX2                !
 ! D11   D(2,3,11,12)           -3.186          estimate D2E/DX2                !
 ! D12   D(4,3,11,10)           -3.6155         estimate D2E/DX2                !
 ! D13   D(4,3,11,12)          174.693          estimate D2E/DX2                !
 ! D14   D(3,4,5,6)            179.0598         estimate D2E/DX2                !
 ! D15   D(3,4,5,10)             0.3643         estimate D2E/DX2                !
 ! D16   D(25,4,5,6)            -0.9402         estimate D2E/DX2                !
 ! D17   D(25,4,5,10)         -179.6357         estimate D2E/DX2                !
 ! D18   D(4,5,6,7)           -177.497          estimate D2E/DX2                !
 ! D19   D(4,5,6,18)             2.5079         estimate D2E/DX2                !
 ! D20   D(10,5,6,7)             1.0524         estimate D2E/DX2                !
 ! D21   D(10,5,6,18)         -178.9427         estimate D2E/DX2                !
 ! D22   D(4,5,10,9)           176.6861         estimate D2E/DX2                !
 ! D23   D(4,5,10,11)           -2.545          estimate D2E/DX2                !
 ! D24   D(6,5,10,9)            -2.1159         estimate D2E/DX2                !
 ! D25   D(6,5,10,11)          178.653          estimate D2E/DX2                !
 ! D26   D(5,6,7,8)              0.403          estimate D2E/DX2                !
 ! D27   D(5,6,7,19)          -179.5984         estimate D2E/DX2                !
 ! D28   D(18,6,7,8)          -179.6019         estimate D2E/DX2                !
 ! D29   D(18,6,7,19)            0.3966         estimate D2E/DX2                !
 ! D30   D(6,7,8,9)             -0.7797         estimate D2E/DX2                !
 ! D31   D(6,7,8,20)           179.2141         estimate D2E/DX2                !
 ! D32   D(19,7,8,9)           179.2218         estimate D2E/DX2                !
 ! D33   D(19,7,8,20)           -0.7845         estimate D2E/DX2                !
 ! D34   D(7,8,9,10)            -0.2699         estimate D2E/DX2                !
 ! D35   D(7,8,9,21)           179.7385         estimate D2E/DX2                !
 ! D36   D(20,8,9,10)          179.7364         estimate D2E/DX2                !
 ! D37   D(20,8,9,21)           -0.2553         estimate D2E/DX2                !
 ! D38   D(8,9,10,5)             1.6891         estimate D2E/DX2                !
 ! D39   D(8,9,10,11)         -179.3556         estimate D2E/DX2                !
 ! D40   D(21,9,10,5)         -178.3192         estimate D2E/DX2                !
 ! D41   D(21,9,10,11)           0.6361         estimate D2E/DX2                !
 ! D42   D(5,10,11,3)            3.5589         estimate D2E/DX2                !
 ! D43   D(5,10,11,12)        -174.61           estimate D2E/DX2                !
 ! D44   D(9,10,11,3)         -175.5006         estimate D2E/DX2                !
 ! D45   D(9,10,11,12)           6.3304         estimate D2E/DX2                !
 ! D46   D(3,11,12,13)        -175.774          estimate D2E/DX2                !
 ! D47   D(3,11,12,22)           4.2293         estimate D2E/DX2                !
 ! D48   D(10,11,12,13)          2.0726         estimate D2E/DX2                !
 ! D49   D(10,11,12,22)       -177.9242         estimate D2E/DX2                !
 ! D50   D(11,12,13,14)       -179.5661         estimate D2E/DX2                !
 ! D51   D(11,12,13,23)          0.4331         estimate D2E/DX2                !
 ! D52   D(22,12,13,14)          0.4307         estimate D2E/DX2                !
 ! D53   D(22,12,13,23)       -179.57           estimate D2E/DX2                !
 ! D54   D(12,13,14,24)        157.096          estimate D2E/DX2                !
 ! D55   D(23,13,14,24)        -22.9033         estimate D2E/DX2                !
 --------------------------------------------------------------------------------
 Trust Radius=3.00D-01 FncErr=1.00D-07 GrdErr=1.00D-06 EigMax=2.50D+02 EigMin=1.00D-04
 Number of steps in this run=    132 maximum allowed number of steps=    150.
 GradGradGradGradGradGradGradGradGradGradGradGradGradGradGradGradGradGrad

 Leave Link  103 at Thu Jan  2 19:16:44 2020, MaxMem= 10737418240 cpu:               0.3 elap:               0.0
 (Enter /apps/cent7/gaussian/g16-A.03/g16-haswell/g16/l202.exe)
                          Input orientation:                          
 ---------------------------------------------------------------------
 Center     Atomic      Atomic             Coordinates (Angstroms)
 Number     Number       Type             X           Y           Z
 ---------------------------------------------------------------------
      1          6           0       -2.208801   -2.673728    0.796729
      2          8           0       -1.750146   -2.099200   -0.441526
      3          6           0       -0.651515   -1.341993   -0.302935
      4          7           0        0.527759   -1.844418   -0.355715
      5          6           0        1.390742   -0.880098   -0.188976
      6          6           0        2.794650   -0.951095   -0.152335
      7          6           0        3.519901    0.232402    0.095918
      8          6           0        2.841221    1.451623    0.309629
      9          6           0        1.432248    1.506665    0.261805
     10          6           0        0.708747    0.322224   -0.009413
     11          6           0       -0.627556    0.008349   -0.140468
     12          6           0       -1.716106    0.801414   -0.155356
     13          7           0       -1.672642    2.120478   -0.076317
     14          8           0       -2.760144    2.840521   -0.086940
     15          1           0       -1.973144   -1.998999    1.619696
     16          1           0       -3.287032   -2.826043    0.749221
     17          1           0       -1.713372   -3.631049    0.958577
     18          1           0        3.307751   -1.899364   -0.312370
     19          1           0        4.609192    0.204739    0.122753
     20          1           0        3.410347    2.358609    0.513498
     21          1           0        0.911168    2.448947    0.431496
     22          1           0       -2.701764    0.343387   -0.237087
     23          1           0       -0.782319    2.592048   -0.005721
     24          1           0       -2.585493    3.690157    0.324299
     25          1           0        0.747739   -2.809214   -0.499861
 ---------------------------------------------------------------------
                    Distance matrix (angstroms):
                    1          2          3          4          5
     1  C    0.000000
     2  O    1.440042   0.000000
     3  C    2.325493   1.341477   0.000000
     4  N    3.082960   2.293715   1.282928   0.000000
     5  C    4.140704   3.378634   2.096938   1.304781   0.000000
     6  C    5.376124   4.696482   3.471532   2.445033   1.406180
     7  C    6.461792   5.787798   4.476440   3.670159   2.419119
     8  C    6.538999   5.852626   4.514281   4.081504   2.790953
     9  C    5.569476   4.860511   3.574332   3.525505   2.429313
    10  C    4.258835   3.477955   2.169352   2.201595   1.393893
    11  C    3.251494   2.406784   1.360292   2.194044   2.205724
    12  C    3.636733   2.914895   2.397775   3.474982   3.532862
    13  N    4.902457   4.236162   3.617010   4.543152   4.289577
    14  O    5.611755   5.054371   4.688965   5.729852   5.575237
    15  H    1.089985   2.075670   2.423813   3.190715   3.979819
    16  H    1.089972   2.075620   3.202403   4.091100   5.152522
    17  H    1.090004   2.075621   2.821122   3.153107   4.303502
    18  H    5.679972   5.063491   3.998317   2.780873   2.174639
    19  H    7.431342   6.787321   5.499875   4.591957   3.410640
    20  H    7.548474   6.885842   5.555154   5.170134   3.880914
    21  H    6.009110   5.341386   4.165644   4.381745   3.420163
    22  H    3.227192   2.629373   2.654875   3.902612   4.271749
    23  H    5.514270   4.809826   3.947420   4.639076   4.100192
    24  H    6.392505   5.899233   5.427359   6.386414   6.079566
    25  H    3.231196   2.597489   2.037014   1.000000   2.057083
                    6          7          8          9         10
     6  C    0.000000
     7  C    1.410065   0.000000
     8  C    2.447168   1.411658   0.000000
     9  C    2.840464   2.451440   1.410858   0.000000
    10  C    2.448011   2.814560   2.434086   1.414183   0.000000
    11  C    3.554176   4.160226   3.783919   2.578675   1.378912
    12  C    4.839237   5.272825   4.626901   3.253235   2.476052
    13  N    5.421903   5.527839   4.579441   3.182991   2.984830
    14  O    6.725798   6.802550   5.784600   4.413269   4.287311
    15  H    5.193270   6.121650   6.066397   5.072499   3.903154
    16  H    6.427681   7.491010   7.486465   6.425071   5.143283
    17  H    5.360834   6.561828   6.855582   6.064365   4.736247
    18  H    1.089999   2.180856   3.440007   3.930423   3.432500
    19  H    2.168914   1.089973   2.171489   3.436178   3.904452
    20  H    3.431699   2.169592   1.089996   2.168417   3.423294
    21  H    3.930477   3.439647   2.175916   1.090053   2.181359
    22  H    5.647427   6.231559   5.679064   4.323444   3.418167
    23  H    5.036871   4.907887   3.811831   2.480712   2.715767
    24  H    7.121400   7.020261   5.870304   4.573159   4.722960
    25  H    2.786256   4.158276   4.815877   4.435707   3.169852
                   11         12         13         14         15
    11  C    0.000000
    12  C    1.346891   0.000000
    13  N    2.357416   1.322145   0.000000
    14  O    3.545701   2.291867   1.304314   0.000000
    15  H    2.989687   3.325536   4.465070   5.191621   0.000000
    16  H    3.987247   4.055183   5.268381   5.752106   1.779896
    17  H    3.953747   4.570293   5.844033   6.638528   1.779929
    18  H    4.376707   5.705961   6.404621   7.703030   5.624114
    19  H    5.247036   6.359462   6.570474   7.829331   7.101017
    20  H    4.717632   5.399328   5.122633   6.218338   7.013872
    21  H    2.941315   3.156157   2.653647   3.728356   5.432798
    22  H    2.103313   1.089950   2.059852   2.502325   3.076573
    23  H    2.591835   2.025023   1.009969   1.995026   5.013757
    24  H    4.195859   3.054626   1.859484   0.959949   5.866815
    25  H    3.155829   4.384729   5.508130   6.662976   3.542904
                   16         17         18         19         20
    16  H    0.000000
    17  H    1.779964   0.000000
    18  H    6.743654   5.461292   0.000000
    19  H    8.481065   7.442223   2.512037   0.000000
    20  H    8.472961   7.894719   4.338539   2.495810   0.000000
    21  H    6.749174   6.643220   5.020434   4.336724   2.502155
    22  H    3.370553   4.266459   6.414816   7.321119   6.479383
    23  H    6.016580   6.365820   6.082392   5.897808   4.231138
    24  H    6.567616   7.400200   8.147295   7.997015   6.144828
    25  H    4.223726   2.976495   2.723351   4.937852   5.901082
                   21         22         23         24         25
    21  H    0.000000
    22  H    4.234816   0.000000
    23  H    1.754860   2.965514   0.000000
    24  H    3.711971   3.395518   2.136865   0.000000
    25  H    5.342508   4.680493   5.635502   7.350612   0.000000
 Stoichiometry    C10H11N2O2(1+)
 Framework group  C1[X(C10H11N2O2)]
 Deg. of freedom    69
 Full point group                 C1      NOp   1
 Largest Abelian subgroup         C1      NOp   1
 Largest concise Abelian subgroup C1      NOp   1
                         Standard orientation:                         
 ---------------------------------------------------------------------
 Center     Atomic      Atomic             Coordinates (Angstroms)
 Number     Number       Type             X           Y           Z
 ---------------------------------------------------------------------
      1          6           0       -2.168423   -2.682166    0.811811
      2          8           0       -1.719136   -2.105006   -0.428652
      3          6           0       -0.634603   -1.327298   -0.292565
      4          7           0        0.553671   -1.808400   -0.342043
      5          6           0        1.398798   -0.827779   -0.178954
      6          6           0        2.803731   -0.873033   -0.140783
      7          6           0        3.507081    0.324588    0.102703
      8          6           0        2.806116    1.532206    0.310276
      9          6           0        1.396421    1.561365    0.260990
     10          6           0        0.694859    0.362727   -0.005454
     11          6           0       -0.635385    0.023980   -0.136228
     12          6           0       -1.738178    0.797016   -0.155664
     13          7           0       -1.718809    2.116997   -0.082594
     14          8           0       -2.819229    2.817063   -0.097431
     15          1           0       -1.945865   -1.999531    1.631900
     16          1           0       -3.243657   -2.854304    0.764070
     17          1           0       -1.655800   -3.629563    0.978443
     18          1           0        3.334161   -1.812518   -0.296057
     19          1           0        4.596670    0.316887    0.130600
     20          1           0        3.358444    2.450320    0.510502
     21          1           0        0.858113    2.494762    0.425940
     22          1           0       -2.715256    0.320750   -0.236156
     23          1           0       -0.837286    2.605017   -0.013380
     24          1           0       -2.660463    3.671595    0.310085
     25          1           0        0.791315   -2.769674   -0.481604
 ---------------------------------------------------------------------
 Rotational constants (GHZ):           0.8562608           0.6226096           0.3721828
 Leave Link  202 at Thu Jan  2 19:16:44 2020, MaxMem= 10737418240 cpu:               0.8 elap:               0.1
 (Enter /apps/cent7/gaussian/g16-A.03/g16-haswell/g16/l301.exe)
 Standard basis: 6-311++G(d,p) (5D, 7F)
 Ernie: Thresh=  0.10000D-02 Tol=  0.10000D-05 Strict=F.
 There are   399 symmetry adapted cartesian basis functions of A   symmetry.
 There are   385 symmetry adapted basis functions of A   symmetry.
   385 basis functions,   603 primitive gaussians,   399 cartesian basis functions
    50 alpha electrons       50 beta electrons
       nuclear repulsion energy       879.1150837515 Hartrees.
 IExCor= 4336 DFT=T Ex+Corr=M062X ExCW=0 ScaHFX=  0.540000
 ScaDFX=  1.000000  1.000000  1.000000  1.000000 ScalE2=  1.000000  1.000000
 IRadAn=      5 IRanWt=     -1 IRanGd=            0 ICorTp=0 IEmpDi=  4
 NAtoms=   25 NActive=   25 NUniq=   25 SFac= 1.00D+00 NAtFMM=   60 NAOKFM=F Big=F
 Integral buffers will be    131072 words long.
 Raffenetti 2 integral format.
 Two-electron integral symmetry is turned on.
 Leave Link  301 at Thu Jan  2 19:16:44 2020, MaxMem= 10737418240 cpu:               1.3 elap:               0.1
 (Enter /apps/cent7/gaussian/g16-A.03/g16-haswell/g16/l302.exe)
 NPDir=0 NMtPBC=     1 NCelOv=     1 NCel=       1 NClECP=     1 NCelD=      1
         NCelK=      1 NCelE2=     1 NClLst=     1 CellRange=     0.0.
 One-electron integrals computed using PRISM.
 One-electron integral symmetry used in STVInt
 NBasis=   385 RedAO= T EigKep=  1.42D-06  NBF=   385
 NBsUse=   382 1.00D-06 EigRej=  8.39D-07 NBFU=   382
 Precomputing XC quadrature grid using
 IXCGrd= 4 IRadAn=           5 IRanWt=          -1 IRanGd=           0 AccXCQ= 0.00D+00.
 Generated NRdTot=       0 NPtTot=           0 NUsed=           0 NTot=          32
 NSgBfM=   399   399   399   399   399 MxSgAt=    25 MxSgA2=    25.
 Leave Link  302 at Thu Jan  2 19:16:45 2020, MaxMem= 10737418240 cpu:               7.6 elap:               0.3
 (Enter /apps/cent7/gaussian/g16-A.03/g16-haswell/g16/l303.exe)
 DipDrv:  MaxL=1.
 Leave Link  303 at Thu Jan  2 19:16:45 2020, MaxMem= 10737418240 cpu:               1.2 elap:               0.1
 (Enter /apps/cent7/gaussian/g16-A.03/g16-haswell/g16/l401.exe)
 ExpMin= 3.60D-02 ExpMax= 8.59D+03 ExpMxC= 1.30D+03 IAcc=3 IRadAn=         5 AccDes= 0.00D+00
 Harris functional with IExCor= 1009 and IRadAn=       5 diagonalized for initial guess.
 HarFok:  IExCor= 1009 AccDes= 0.00D+00 IRadAn=         5 IDoV= 1 UseB2=F ITyADJ=14
 ICtDFT=  3500011 ScaDFX=  1.000000  1.000000  1.000000  1.000000
 FoFCou: FMM=F IPFlag=           0 FMFlag=      100000 FMFlg1=           0
         NFxFlg=           0 DoJE=T BraDBF=F KetDBF=T FulRan=T
         wScrn=  0.000000 ICntrl=       500 IOpCl=  0 I1Cent=   200000004 NGrid=           0
         NMat0=    1 NMatS0=      1 NMatT0=    0 NMatD0=    1 NMtDS0=    0 NMtDT0=    0
 Petite list used in FoFCou.
 Harris En= -646.923601465506    
 JPrj=0 DoOrth=F DoCkMO=F.
 Leave Link  401 at Thu Jan  2 19:16:45 2020, MaxMem= 10737418240 cpu:              17.3 elap:               0.8
 (Enter /apps/cent7/gaussian/g16-A.03/g16-haswell/g16/l502.exe)
 Integral symmetry usage will be decided dynamically.
 Closed shell SCF:
 Using DIIS extrapolation, IDIIS=  1040.
 NGot= 10737418240 LenX= 10737086397 LenY= 10736926755
 Requested convergence on RMS density matrix=1.00D-08 within 128 cycles.
 Requested convergence on MAX density matrix=1.00D-06.
 Requested convergence on             energy=1.00D-06.
 No special actions if energy rises.
 Fock matrices will be formed incrementally for  20 cycles.

 Cycle   1  Pass 1  IDiag  1:
 FoFJK:  IHMeth= 1 ICntrl=       0 DoSepK=F KAlg= 0 I1Cent=           0 FoldK=F
 IRaf= 890000000 NMat=       1 IRICut=       1 DoRegI=T DoRafI=F ISym2E= 0 IDoP0=0 IntGTp=1.
 FoFCou: FMM=F IPFlag=           0 FMFlag=      100000 FMFlg1=           0
         NFxFlg=           0 DoJE=F BraDBF=F KetDBF=F FulRan=T
         wScrn=  0.000000 ICntrl=         0 IOpCl=  0 I1Cent=           0 NGrid=           0
         NMat0=    1 NMatS0=      1 NMatT0=    0 NMatD0=    1 NMtDS0=    0 NMtDT0=    0
 Symmetry not used in FoFCou.
 E= -646.897221689535    
 DIIS: error= 2.10D-02 at cycle   1 NSaved=   1.
 NSaved= 1 IEnMin= 1 EnMin= -646.897221689535     IErMin= 1 ErrMin= 2.10D-02
 ErrMax= 2.10D-02  0.00D+00 EMaxC= 1.00D-01 BMatC= 4.11D-01 BMatP= 4.11D-01
 IDIUse=3 WtCom= 7.90D-01 WtEn= 2.10D-01
 Coeff-Com:  0.100D+01
 Coeff-En:   0.100D+01
 Coeff:      0.100D+01
 Gap=     0.311 Goal=   None    Shift=    0.000
 GapD=    0.311 DampG=1.000 DampE=0.500 DampFc=0.5000 IDamp=-1.
 Damping current iteration by 5.00D-01
 RMSDP=2.37D-02 MaxDP=2.32D+00              OVMax= 2.44D-01

 Cycle   2  Pass 1  IDiag  1:
 RMSU=  1.09D-02    CP:  1.07D+00
 E= -647.052797487064     Delta-E=       -0.155575797529 Rises=F Damp=T
 DIIS: error= 6.35D-03 at cycle   2 NSaved=   2.
 NSaved= 2 IEnMin= 2 EnMin= -647.052797487064     IErMin= 2 ErrMin= 6.35D-03
 ErrMax= 6.35D-03  0.00D+00 EMaxC= 1.00D-01 BMatC= 4.36D-02 BMatP= 4.11D-01
 IDIUse=3 WtCom= 9.36D-01 WtEn= 6.35D-02
 Coeff-Com: -0.138D+00 0.114D+01
 Coeff-En:   0.000D+00 0.100D+01
 Coeff:     -0.129D+00 0.113D+01
 Gap=     0.255 Goal=   None    Shift=    0.000
 RMSDP=9.89D-03 MaxDP=9.82D-01 DE=-1.56D-01 OVMax= 1.81D-01

 Cycle   3  Pass 1  IDiag  1:
 RMSU=  7.34D-03    CP:  9.78D-01  7.51D-01
 E= -647.199278608087     Delta-E=       -0.146481121023 Rises=F Damp=F
 DIIS: error= 5.07D-03 at cycle   3 NSaved=   3.
 NSaved= 3 IEnMin= 3 EnMin= -647.199278608087     IErMin= 3 ErrMin= 5.07D-03
 ErrMax= 5.07D-03  0.00D+00 EMaxC= 1.00D-01 BMatC= 1.58D-02 BMatP= 4.36D-02
 IDIUse=3 WtCom= 9.49D-01 WtEn= 5.07D-02
 Coeff-Com: -0.135D+00 0.458D+00 0.677D+00
 Coeff-En:   0.000D+00 0.000D+00 0.100D+01
 Coeff:     -0.128D+00 0.435D+00 0.693D+00
 Gap=     0.221 Goal=   None    Shift=    0.000
 RMSDP=3.32D-03 MaxDP=3.21D-01 DE=-1.46D-01 OVMax= 4.34D-02

 Cycle   4  Pass 1  IDiag  1:
 RMSU=  1.66D-03    CP:  9.49D-01  8.88D-01  7.95D-01
 E= -647.211935055726     Delta-E=       -0.012656447639 Rises=F Damp=F
 DIIS: error= 1.84D-03 at cycle   4 NSaved=   4.
 NSaved= 4 IEnMin= 4 EnMin= -647.211935055726     IErMin= 4 ErrMin= 1.84D-03
 ErrMax= 1.84D-03  0.00D+00 EMaxC= 1.00D-01 BMatC= 1.93D-03 BMatP= 1.58D-02
 IDIUse=3 WtCom= 9.82D-01 WtEn= 1.84D-02
 Coeff-Com: -0.479D-01 0.116D+00 0.326D+00 0.606D+00
 Coeff-En:   0.000D+00 0.000D+00 0.000D+00 0.100D+01
 Coeff:     -0.471D-01 0.114D+00 0.320D+00 0.613D+00
 Gap=     0.220 Goal=   None    Shift=    0.000
 RMSDP=5.58D-04 MaxDP=3.18D-02 DE=-1.27D-02 OVMax= 1.06D-02

 Cycle   5  Pass 1  IDiag  1:
 RMSU=  5.08D-04    CP:  9.47D-01  9.03D-01  7.85D-01  9.53D-01
 E= -647.213378729114     Delta-E=       -0.001443673388 Rises=F Damp=F
 DIIS: error= 5.02D-04 at cycle   5 NSaved=   5.
 NSaved= 5 IEnMin= 5 EnMin= -647.213378729114     IErMin= 5 ErrMin= 5.02D-04
 ErrMax= 5.02D-04  0.00D+00 EMaxC= 1.00D-01 BMatC= 8.86D-05 BMatP= 1.93D-03
 IDIUse=3 WtCom= 9.95D-01 WtEn= 5.02D-03
 Coeff-Com: -0.121D-01 0.232D-01 0.990D-01 0.244D+00 0.645D+00
 Coeff-En:   0.000D+00 0.000D+00 0.000D+00 0.000D+00 0.100D+01
 Coeff:     -0.120D-01 0.231D-01 0.985D-01 0.243D+00 0.647D+00
 Gap=     0.222 Goal=   None    Shift=    0.000
 RMSDP=2.32D-04 MaxDP=1.37D-02 DE=-1.44D-03 OVMax= 5.90D-03

 Cycle   6  Pass 1  IDiag  1:
 RMSU=  1.52D-04    CP:  9.47D-01  8.92D-01  7.97D-01  9.28D-01  8.28D-01
 E= -647.213463834740     Delta-E=       -0.000085105625 Rises=F Damp=F
 DIIS: error= 3.20D-04 at cycle   6 NSaved=   6.
 NSaved= 6 IEnMin= 6 EnMin= -647.213463834740     IErMin= 6 ErrMin= 3.20D-04
 ErrMax= 3.20D-04  0.00D+00 EMaxC= 1.00D-01 BMatC= 2.46D-05 BMatP= 8.86D-05
 IDIUse=3 WtCom= 9.97D-01 WtEn= 3.20D-03
 Coeff-Com:  0.184D-02-0.649D-02 0.339D-03 0.110D-01 0.339D+00 0.654D+00
 Coeff-En:   0.000D+00 0.000D+00 0.000D+00 0.000D+00 0.711D-01 0.929D+00
 Coeff:      0.184D-02-0.647D-02 0.338D-03 0.110D-01 0.339D+00 0.655D+00
 Gap=     0.222 Goal=   None    Shift=    0.000
 RMSDP=1.00D-04 MaxDP=6.33D-03 DE=-8.51D-05 OVMax= 2.01D-03

 Cycle   7  Pass 1  IDiag  1:
 RMSU=  6.75D-05    CP:  9.47D-01  8.90D-01  7.99D-01  9.19D-01  9.24D-01
                    CP:  7.41D-01
 E= -647.213489698682     Delta-E=       -0.000025863942 Rises=F Damp=F
 DIIS: error= 6.23D-05 at cycle   7 NSaved=   7.
 NSaved= 7 IEnMin= 7 EnMin= -647.213489698682     IErMin= 7 ErrMin= 6.23D-05
 ErrMax= 6.23D-05  0.00D+00 EMaxC= 1.00D-01 BMatC= 1.65D-06 BMatP= 2.46D-05
 IDIUse=1 WtCom= 1.00D+00 WtEn= 0.00D+00
 Coeff-Com:  0.295D-02-0.678D-02-0.158D-01-0.434D-01 0.201D-01 0.170D+00
 Coeff-Com:  0.873D+00
 Coeff:      0.295D-02-0.678D-02-0.158D-01-0.434D-01 0.201D-01 0.170D+00
 Coeff:      0.873D+00
 Gap=     0.222 Goal=   None    Shift=    0.000
 RMSDP=5.64D-05 MaxDP=3.79D-03 DE=-2.59D-05 OVMax= 1.20D-03

 Cycle   8  Pass 1  IDiag  1:
 RMSU=  2.72D-05    CP:  9.47D-01  8.90D-01  7.98D-01  9.30D-01  9.76D-01
                    CP:  7.20D-01  1.22D+00
 E= -647.213491874650     Delta-E=       -0.000002175968 Rises=F Damp=F
 DIIS: error= 4.29D-05 at cycle   8 NSaved=   8.
 NSaved= 8 IEnMin= 8 EnMin= -647.213491874650     IErMin= 8 ErrMin= 4.29D-05
 ErrMax= 4.29D-05  0.00D+00 EMaxC= 1.00D-01 BMatC= 5.65D-07 BMatP= 1.65D-06
 IDIUse=1 WtCom= 1.00D+00 WtEn= 0.00D+00
 Coeff-Com:  0.125D-02-0.250D-02-0.741D-02-0.242D-01-0.270D-01-0.229D-02
 Coeff-Com:  0.480D+00 0.582D+00
 Coeff:      0.125D-02-0.250D-02-0.741D-02-0.242D-01-0.270D-01-0.229D-02
 Coeff:      0.480D+00 0.582D+00
 Gap=     0.222 Goal=   None    Shift=    0.000
 RMSDP=1.75D-05 MaxDP=1.93D-03 DE=-2.18D-06 OVMax= 2.88D-04

 Cycle   9  Pass 1  IDiag  1:
 RMSU=  9.10D-06    CP:  9.47D-01  8.89D-01  7.98D-01  9.28D-01  9.84D-01
                    CP:  7.25D-01  1.24D+00  7.81D-01
 E= -647.213492505478     Delta-E=       -0.000000630829 Rises=F Damp=F
 DIIS: error= 6.06D-06 at cycle   9 NSaved=   9.
 NSaved= 9 IEnMin= 9 EnMin= -647.213492505478     IErMin= 9 ErrMin= 6.06D-06
 ErrMax= 6.06D-06  0.00D+00 EMaxC= 1.00D-01 BMatC= 2.03D-08 BMatP= 5.65D-07
 IDIUse=1 WtCom= 1.00D+00 WtEn= 0.00D+00
 Coeff-Com:  0.774D-05 0.561D-04 0.639D-04-0.142D-02-0.541D-02-0.213D-01
 Coeff-Com:  0.241D-01 0.131D+00 0.873D+00
 Coeff:      0.774D-05 0.561D-04 0.639D-04-0.142D-02-0.541D-02-0.213D-01
 Coeff:      0.241D-01 0.131D+00 0.873D+00
 Gap=     0.222 Goal=   None    Shift=    0.000
 RMSDP=4.13D-06 MaxDP=2.60D-04 DE=-6.31D-07 OVMax= 7.16D-05

 Cycle  10  Pass 1  IDiag  1:
 RMSU=  2.40D-06    CP:  9.47D-01  8.89D-01  7.98D-01  9.27D-01  9.87D-01
                    CP:  7.15D-01  1.27D+00  8.09D-01  1.10D+00
 E= -647.213492531171     Delta-E=       -0.000000025693 Rises=F Damp=F
 DIIS: error= 2.47D-06 at cycle  10 NSaved=  10.
 NSaved=10 IEnMin=10 EnMin= -647.213492531171     IErMin=10 ErrMin= 2.47D-06
 ErrMax= 2.47D-06  0.00D+00 EMaxC= 1.00D-01 BMatC= 4.59D-09 BMatP= 2.03D-08
 IDIUse=1 WtCom= 1.00D+00 WtEn= 0.00D+00
 Coeff-Com: -0.115D-03 0.262D-03 0.795D-03 0.169D-02 0.604D-03-0.109D-01
 Coeff-Com: -0.362D-01-0.184D-02 0.388D+00 0.658D+00
 Coeff:     -0.115D-03 0.262D-03 0.795D-03 0.169D-02 0.604D-03-0.109D-01
 Coeff:     -0.362D-01-0.184D-02 0.388D+00 0.658D+00
 Gap=     0.222 Goal=   None    Shift=    0.000
 RMSDP=1.81D-06 MaxDP=1.14D-04 DE=-2.57D-08 OVMax= 3.02D-05

 Cycle  11  Pass 1  IDiag  1:
 RMSU=  9.99D-07    CP:  9.47D-01  8.89D-01  7.98D-01  9.27D-01  9.87D-01
                    CP:  7.14D-01  1.27D+00  8.20D-01  1.14D+00  9.46D-01
 E= -647.213492535700     Delta-E=       -0.000000004529 Rises=F Damp=F
 DIIS: error= 1.09D-06 at cycle  11 NSaved=  11.
 NSaved=11 IEnMin=11 EnMin= -647.213492535700     IErMin=11 ErrMin= 1.09D-06
 ErrMax= 1.09D-06  0.00D+00 EMaxC= 1.00D-01 BMatC= 4.85D-10 BMatP= 4.59D-09
 IDIUse=1 WtCom= 1.00D+00 WtEn= 0.00D+00
 Coeff-Com: -0.365D-04 0.758D-04 0.274D-03 0.711D-03 0.100D-02-0.181D-02
 Coeff-Com: -0.153D-01-0.198D-01 0.173D-01 0.243D+00 0.775D+00
 Coeff:     -0.365D-04 0.758D-04 0.274D-03 0.711D-03 0.100D-02-0.181D-02
 Coeff:     -0.153D-01-0.198D-01 0.173D-01 0.243D+00 0.775D+00
 Gap=     0.222 Goal=   None    Shift=    0.000
 RMSDP=1.08D-06 MaxDP=1.19D-04 DE=-4.53D-09 OVMax= 1.11D-05

 Cycle  12  Pass 1  IDiag  1:
 RMSU=  3.24D-07    CP:  9.47D-01  8.89D-01  7.98D-01  9.27D-01  9.88D-01
                    CP:  7.13D-01  1.28D+00  8.16D-01  1.20D+00  1.03D+00
                    CP:  7.34D-01
 E= -647.213492536259     Delta-E=       -0.000000000559 Rises=F Damp=F
 DIIS: error= 4.44D-07 at cycle  12 NSaved=  12.
 NSaved=12 IEnMin=12 EnMin= -647.213492536259     IErMin=12 ErrMin= 4.44D-07
 ErrMax= 4.44D-07  0.00D+00 EMaxC= 1.00D-01 BMatC= 4.81D-11 BMatP= 4.85D-10
 IDIUse=1 WtCom= 1.00D+00 WtEn= 0.00D+00
 Coeff-Com: -0.369D-05 0.609D-05 0.422D-04 0.122D-03 0.402D-03 0.196D-03
 Coeff-Com: -0.198D-02-0.749D-02-0.305D-01 0.311D-01 0.297D+00 0.711D+00
 Coeff:     -0.369D-05 0.609D-05 0.422D-04 0.122D-03 0.402D-03 0.196D-03
 Coeff:     -0.198D-02-0.749D-02-0.305D-01 0.311D-01 0.297D+00 0.711D+00
 Gap=     0.222 Goal=   None    Shift=    0.000
 RMSDP=1.78D-07 MaxDP=1.56D-05 DE=-5.59D-10 OVMax= 3.96D-06

 Cycle  13  Pass 1  IDiag  1:
 RMSU=  9.15D-08    CP:  9.47D-01  8.89D-01  7.98D-01  9.27D-01  9.88D-01
                    CP:  7.12D-01  1.28D+00  8.16D-01  1.20D+00  1.05D+00
                    CP:  7.76D-01  1.03D+00
 E= -647.213492536325     Delta-E=       -0.000000000066 Rises=F Damp=F
 DIIS: error= 1.89D-07 at cycle  13 NSaved=  13.
 NSaved=13 IEnMin=13 EnMin= -647.213492536325     IErMin=13 ErrMin= 1.89D-07
 ErrMax= 1.89D-07  0.00D+00 EMaxC= 1.00D-01 BMatC= 6.26D-12 BMatP= 4.81D-11
 IDIUse=1 WtCom= 1.00D+00 WtEn= 0.00D+00
 Coeff-Com:  0.470D-05-0.104D-04-0.284D-04-0.705D-04 0.949D-06 0.320D-03
 Coeff-Com:  0.167D-02-0.305D-04-0.148D-01-0.263D-01-0.323D-02 0.277D+00
 Coeff-Com:  0.765D+00
 Coeff:      0.470D-05-0.104D-04-0.284D-04-0.705D-04 0.949D-06 0.320D-03
 Coeff:      0.167D-02-0.305D-04-0.148D-01-0.263D-01-0.323D-02 0.277D+00
 Coeff:      0.765D+00
 Gap=     0.222 Goal=   None    Shift=    0.000
 RMSDP=8.00D-08 MaxDP=6.82D-06 DE=-6.62D-11 OVMax= 2.27D-06

 Cycle  14  Pass 1  IDiag  1:
 RMSU=  3.58D-08    CP:  9.47D-01  8.89D-01  7.98D-01  9.27D-01  9.88D-01
                    CP:  7.12D-01  1.28D+00  8.15D-01  1.20D+00  1.05D+00
                    CP:  7.78D-01  1.09D+00  9.96D-01
 E= -647.213492536336     Delta-E=       -0.000000000011 Rises=F Damp=F
 DIIS: error= 9.79D-08 at cycle  14 NSaved=  14.
 NSaved=14 IEnMin=14 EnMin= -647.213492536336     IErMin=14 ErrMin= 9.79D-08
 ErrMax= 9.79D-08  0.00D+00 EMaxC= 1.00D-01 BMatC= 1.13D-12 BMatP= 6.26D-12
 IDIUse=1 WtCom= 1.00D+00 WtEn= 0.00D+00
 Coeff-Com:  0.197D-05-0.426D-05-0.146D-04-0.366D-04-0.366D-04 0.122D-03
 Coeff-Com:  0.811D-03 0.612D-03-0.342D-02-0.140D-01-0.284D-01 0.319D-01
 Coeff-Com:  0.342D+00 0.670D+00
 Coeff:      0.197D-05-0.426D-05-0.146D-04-0.366D-04-0.366D-04 0.122D-03
 Coeff:      0.811D-03 0.612D-03-0.342D-02-0.140D-01-0.284D-01 0.319D-01
 Coeff:      0.342D+00 0.670D+00
 Gap=     0.222 Goal=   None    Shift=    0.000
 RMSDP=3.29D-08 MaxDP=2.45D-06 DE=-1.07D-11 OVMax= 7.79D-07

 Cycle  15  Pass 1  IDiag  1:
 RMSU=  1.72D-08    CP:  9.47D-01  8.89D-01  7.98D-01  9.27D-01  9.88D-01
                    CP:  7.12D-01  1.28D+00  8.15D-01  1.20D+00  1.05D+00
                    CP:  7.76D-01  1.12D+00  1.03D+00  8.71D-01
 E= -647.213492536334     Delta-E=        0.000000000002 Rises=F Damp=F
 DIIS: error= 2.31D-08 at cycle  15 NSaved=  15.
 NSaved=15 IEnMin=14 EnMin= -647.213492536336     IErMin=15 ErrMin= 2.31D-08
 ErrMax= 2.31D-08  0.00D+00 EMaxC= 1.00D-01 BMatC= 1.42D-13 BMatP= 1.13D-12
 IDIUse=1 WtCom= 1.00D+00 WtEn= 0.00D+00
 Coeff-Com:  0.459D-07-0.111D-06-0.174D-05-0.391D-05-0.159D-04 0.116D-04
 Coeff-Com:  0.709D-04 0.262D-03 0.878D-03-0.171D-02-0.107D-01-0.355D-01
 Coeff-Com:  0.316D-01 0.286D+00 0.729D+00
 Coeff:      0.459D-07-0.111D-06-0.174D-05-0.391D-05-0.159D-04 0.116D-04
 Coeff:      0.709D-04 0.262D-03 0.878D-03-0.171D-02-0.107D-01-0.355D-01
 Coeff:      0.316D-01 0.286D+00 0.729D+00
 Gap=     0.222 Goal=   None    Shift=    0.000
 RMSDP=8.83D-09 MaxDP=4.89D-07 DE= 2.27D-12 OVMax= 3.19D-07

 SCF Done:  E(RM062X) =  -647.213492536     A.U. after   15 cycles
            NFock= 15  Conv=0.88D-08     -V/T= 2.0025
 KE= 6.456265800390D+02 PE=-3.252005115836D+03 EE= 1.080049959509D+03
 Leave Link  502 at Thu Jan  2 19:17:21 2020, MaxMem= 10737418240 cpu:             853.9 elap:              35.8
 (Enter /apps/cent7/gaussian/g16-A.03/g16-haswell/g16/l601.exe)
 Copying SCF densities to generalized density rwf, IOpCl= 0 IROHF=0.

 **********************************************************************

            Population analysis using the SCF density.

 **********************************************************************

 Orbital symmetries:
       Occupied  (A) (A) (A) (A) (A) (A) (A) (A) (A) (A) (A) (A)
                 (A) (A) (A) (A) (A) (A) (A) (A) (A) (A) (A) (A)
                 (A) (A) (A) (A) (A) (A) (A) (A) (A) (A) (A) (A)
                 (A) (A) (A) (A) (A) (A) (A) (A) (A) (A) (A) (A)
                 (A) (A)
       Virtual   (A) (A) (A) (A) (A) (A) (A) (A) (A) (A) (A) (A)
                 (A) (A) (A) (A) (A) (A) (A) (A) (A) (A) (A) (A)
                 (A) (A) (A) (A) (A) (A) (A) (A) (A) (A) (A) (A)
                 (A) (A) (A) (A) (A) (A) (A) (A) (A) (A) (A) (A)
                 (A) (A) (A) (A) (A) (A) (A) (A) (A) (A) (A) (A)
                 (A) (A) (A) (A) (A) (A) (A) (A) (A) (A) (A) (A)
                 (A) (A) (A) (A) (A) (A) (A) (A) (A) (A) (A) (A)
                 (A) (A) (A) (A) (A) (A) (A) (A) (A) (A) (A) (A)
                 (A) (A) (A) (A) (A) (A) (A) (A) (A) (A) (A) (A)
                 (A) (A) (A) (A) (A) (A) (A) (A) (A) (A) (A) (A)
                 (A) (A) (A) (A) (A) (A) (A) (A) (A) (A) (A) (A)
                 (A) (A) (A) (A) (A) (A) (A) (A) (A) (A) (A) (A)
                 (A) (A) (A) (A) (A) (A) (A) (A) (A) (A) (A) (A)
                 (A) (A) (A) (A) (A) (A) (A) (A) (A) (A) (A) (A)
                 (A) (A) (A) (A) (A) (A) (A) (A) (A) (A) (A) (A)
                 (A) (A) (A) (A) (A) (A) (A) (A) (A) (A) (A) (A)
                 (A) (A) (A) (A) (A) (A) (A) (A) (A) (A) (A) (A)
                 (A) (A) (A) (A) (A) (A) (A) (A) (A) (A) (A) (A)
                 (A) (A) (A) (A) (A) (A) (A) (A) (A) (A) (A) (A)
                 (A) (A) (A) (A) (A) (A) (A) (A) (A) (A) (A) (A)
                 (A) (A) (A) (A) (A) (A) (A) (A) (A) (A) (A) (A)
                 (A) (A) (A) (A) (A) (A) (A) (A) (A) (A) (A) (A)
                 (A) (A) (A) (A) (A) (A) (A) (A) (A) (A) (A) (A)
                 (A) (A) (A) (A) (A) (A) (A) (A) (A) (A) (A) (A)
                 (A) (A) (A) (A) (A) (A) (A) (A) (A) (A) (A) (A)
                 (A) (A) (A) (A) (A) (A) (A) (A) (A) (A) (A) (A)
                 (A) (A) (A) (A) (A) (A) (A) (A) (A) (A) (A) (A)
                 (A) (A) (A) (A) (A) (A) (A) (A)
 The electronic state is 1-A.
 Alpha  occ. eigenvalues --  -19.85609 -19.80902 -15.04028 -14.97006 -10.80968
 Alpha  occ. eigenvalues --  -10.79031 -10.73090 -10.72381 -10.69979 -10.69638
 Alpha  occ. eigenvalues --  -10.69410 -10.68857 -10.68094 -10.67943  -1.45683
 Alpha  occ. eigenvalues --   -1.37605  -1.30214  -1.19686  -1.10216  -1.07373
 Alpha  occ. eigenvalues --   -0.99656  -0.98435  -0.95701  -0.93093  -0.90971
 Alpha  occ. eigenvalues --   -0.86417  -0.84909  -0.83033  -0.77892  -0.76004
 Alpha  occ. eigenvalues --   -0.74478  -0.73722  -0.72688  -0.71826  -0.69254
 Alpha  occ. eigenvalues --   -0.66334  -0.65929  -0.65688  -0.64204  -0.63763
 Alpha  occ. eigenvalues --   -0.62542  -0.57801  -0.57440  -0.56343  -0.54749
 Alpha  occ. eigenvalues --   -0.54615  -0.51952  -0.48294  -0.42572  -0.41437
 Alpha virt. eigenvalues --   -0.19230  -0.13661  -0.13181  -0.11442  -0.09814
 Alpha virt. eigenvalues --   -0.09074  -0.08940  -0.08289  -0.07582  -0.07464
 Alpha virt. eigenvalues --   -0.06406  -0.06026  -0.05349  -0.04992  -0.04459
 Alpha virt. eigenvalues --   -0.04061  -0.02957  -0.02611  -0.02483  -0.01499
 Alpha virt. eigenvalues --   -0.01160  -0.00517  -0.00244   0.00123   0.00443
 Alpha virt. eigenvalues --    0.01047   0.01396   0.01940   0.02133   0.02544
 Alpha virt. eigenvalues --    0.03544   0.03693   0.03877   0.04254   0.04569
 Alpha virt. eigenvalues --    0.04884   0.05006   0.05161   0.05602   0.06664
 Alpha virt. eigenvalues --    0.06948   0.07051   0.07680   0.07990   0.08534
 Alpha virt. eigenvalues --    0.08794   0.09570   0.10061   0.10096   0.10395
 Alpha virt. eigenvalues --    0.10735   0.11250   0.11580   0.11733   0.12398
 Alpha virt. eigenvalues --    0.12545   0.13272   0.13691   0.13951   0.14298
 Alpha virt. eigenvalues --    0.14837   0.15863   0.16192   0.16466   0.16866
 Alpha virt. eigenvalues --    0.17012   0.17868   0.18168   0.18842   0.19490
 Alpha virt. eigenvalues --    0.20195   0.20506   0.21050   0.21452   0.22045
 Alpha virt. eigenvalues --    0.23249   0.23617   0.23975   0.24523   0.24962
 Alpha virt. eigenvalues --    0.25656   0.26063   0.26908   0.27338   0.29087
 Alpha virt. eigenvalues --    0.30185   0.31538   0.31971   0.34733   0.35971
 Alpha virt. eigenvalues --    0.36343   0.37939   0.38762   0.40369   0.41012
 Alpha virt. eigenvalues --    0.43440   0.44228   0.45287   0.46622   0.46778
 Alpha virt. eigenvalues --    0.47826   0.48312   0.48687   0.49126   0.49468
 Alpha virt. eigenvalues --    0.51102   0.52060   0.52505   0.53323   0.54310
 Alpha virt. eigenvalues --    0.54885   0.55752   0.56664   0.58364   0.59259
 Alpha virt. eigenvalues --    0.59398   0.60136   0.61157   0.63355   0.63993
 Alpha virt. eigenvalues --    0.64296   0.65072   0.66429   0.67087   0.69512
 Alpha virt. eigenvalues --    0.70573   0.71099   0.72744   0.72920   0.73646
 Alpha virt. eigenvalues --    0.74858   0.75612   0.76751   0.77891   0.78842
 Alpha virt. eigenvalues --    0.79552   0.80894   0.81409   0.82947   0.83744
 Alpha virt. eigenvalues --    0.85171   0.85402   0.87845   0.88713   0.90079
 Alpha virt. eigenvalues --    0.90158   0.92060   0.93105   0.93994   0.95801
 Alpha virt. eigenvalues --    0.97095   0.97620   0.98512   1.00387   1.01674
 Alpha virt. eigenvalues --    1.03427   1.04680   1.04900   1.05561   1.06283
 Alpha virt. eigenvalues --    1.07910   1.08013   1.09664   1.12293   1.16138
 Alpha virt. eigenvalues --    1.18216   1.19587   1.22263   1.23121   1.24140
 Alpha virt. eigenvalues --    1.26067   1.31353   1.32882   1.36472   1.38313
 Alpha virt. eigenvalues --    1.39449   1.40195   1.41384   1.42793   1.44676
 Alpha virt. eigenvalues --    1.45579   1.46813   1.48156   1.48708   1.49171
 Alpha virt. eigenvalues --    1.49870   1.50682   1.54404   1.55409   1.57763
 Alpha virt. eigenvalues --    1.59313   1.59951   1.61949   1.62884   1.63365
 Alpha virt. eigenvalues --    1.64080   1.65584   1.67002   1.67484   1.70432
 Alpha virt. eigenvalues --    1.72117   1.73686   1.75269   1.75875   1.76865
 Alpha virt. eigenvalues --    1.77940   1.79603   1.80347   1.81070   1.82074
 Alpha virt. eigenvalues --    1.83723   1.84219   1.86876   1.89099   1.92490
 Alpha virt. eigenvalues --    1.93020   1.95157   1.96402   1.97645   1.97784
 Alpha virt. eigenvalues --    2.00017   2.02441   2.05373   2.06132   2.08710
 Alpha virt. eigenvalues --    2.10568   2.12632   2.15036   2.18103   2.19989
 Alpha virt. eigenvalues --    2.22743   2.26534   2.29640   2.33333   2.34973
 Alpha virt. eigenvalues --    2.36099   2.39759   2.40757   2.41842   2.42992
 Alpha virt. eigenvalues --    2.43637   2.45469   2.46748   2.48319   2.49127
 Alpha virt. eigenvalues --    2.50232   2.53162   2.54832   2.55735   2.59799
 Alpha virt. eigenvalues --    2.60760   2.62663   2.63076   2.64617   2.65880
 Alpha virt. eigenvalues --    2.67060   2.67912   2.70821   2.71520   2.73968
 Alpha virt. eigenvalues --    2.75765   2.76791   2.76844   2.79897   2.80175
 Alpha virt. eigenvalues --    2.85288   2.85898   2.86570   2.90284   2.91940
 Alpha virt. eigenvalues --    2.94303   2.97066   2.99730   3.01947   3.03201
 Alpha virt. eigenvalues --    3.04938   3.07049   3.12165   3.13605   3.20382
 Alpha virt. eigenvalues --    3.25683   3.28809   3.29205   3.32199   3.34372
 Alpha virt. eigenvalues --    3.35618   3.40399   3.42481   3.46585   3.48068
 Alpha virt. eigenvalues --    3.52619   3.58607   3.59487   3.68663   3.71154
 Alpha virt. eigenvalues --    3.73030   3.76939   3.80100   3.82207   3.85135
 Alpha virt. eigenvalues --    3.91909   3.94405   3.95097   4.06192   4.08922
 Alpha virt. eigenvalues --    4.24424   4.35765   4.44623   4.70452   4.86021
 Alpha virt. eigenvalues --    4.89993   4.93451   5.11489   5.19669   5.34536
 Alpha virt. eigenvalues --    5.39162   5.74635   5.88546  23.59700  23.77656
 Alpha virt. eigenvalues --   23.86709  23.89848  23.94409  23.97166  23.99894
 Alpha virt. eigenvalues --   24.02113  24.09354  24.24703  35.47173  35.70054
 Alpha virt. eigenvalues --   49.86663  49.95147
          Condensed to atoms (all electrons):
               1          2          3          4          5          6
     1  C    5.219509   0.134122  -0.287733   0.027155   0.077762  -0.025014
     2  O    0.134122   7.991896   0.624916  -0.076439  -0.067314  -0.014716
     3  C   -0.287733   0.624916  17.183732   0.387451   1.844791  -1.496146
     4  N    0.027155  -0.076439   0.387451   6.979693  -0.420728  -0.390218
     5  C    0.077762  -0.067314   1.844791  -0.420728  19.398767  -0.870198
     6  C   -0.025014  -0.014716  -1.496146  -0.390218  -0.870198  12.456737
     7  C    0.002153  -0.000699  -0.175660  -0.075920  -0.410484   0.743336
     8  C    0.001101   0.007294   0.412080   0.058001   0.825850  -1.603226
     9  C   -0.011730  -0.006156  -3.888584  -0.070767  -3.089210   3.046542
    10  C    0.074239  -0.034578  -4.302383  -0.180315   0.711243  -3.194750
    11  C    0.246654  -0.337241  -5.106538   0.077126  -4.703010  -2.703898
    12  C   -0.296469   0.068271   1.743203   0.322945  -6.452888   0.418041
    13  N    0.005429  -0.007431  -0.262632  -0.020053   0.040041   0.003077
    14  O    0.001719   0.000128  -0.041017  -0.002507  -0.003826   0.002979
    15  H    0.373126  -0.059612  -0.023111   0.002044  -0.031947  -0.028630
    16  H    0.395107  -0.050172   0.040261   0.002189   0.004139  -0.000127
    17  H    0.423943  -0.038875  -0.039896   0.007745   0.021247   0.020043
    18  H   -0.000807   0.000135  -0.038425   0.004320  -0.171329   0.493378
    19  H    0.000028  -0.000120   0.002287  -0.003547   0.037510  -0.073120
    20  H    0.000128   0.000144   0.010562   0.000596   0.078265  -0.025526
    21  H   -0.000377  -0.000719  -0.074962  -0.005042   0.006384   0.107491
    22  H   -0.006678   0.014083   0.065239  -0.005689  -0.119876  -0.005088
    23  H    0.003225   0.000391   0.037540  -0.003687   0.077305  -0.017959
    24  H   -0.000742   0.000045   0.001739   0.000256  -0.008849   0.001564
    25  H    0.003400  -0.007754   0.111641   0.405963   0.012108  -0.035866
               7          8          9         10         11         12
     1  C    0.002153   0.001101  -0.011730   0.074239   0.246654  -0.296469
     2  O   -0.000699   0.007294  -0.006156  -0.034578  -0.337241   0.068271
     3  C   -0.175660   0.412080  -3.888584  -4.302383  -5.106538   1.743203
     4  N   -0.075920   0.058001  -0.070767  -0.180315   0.077126   0.322945
     5  C   -0.410484   0.825850  -3.089210   0.711243  -4.703010  -6.452888
     6  C    0.743336  -1.603226   3.046542  -3.194750  -2.703898   0.418041
     7  C    6.537444   0.300720  -0.596361  -0.022128  -0.279185  -0.194179
     8  C    0.300720   9.160515  -1.470244  -1.623550   0.460282  -0.324358
     9  C   -0.596361  -1.470244  12.400785  -1.346939  -1.213534   2.045432
    10  C   -0.022128  -1.623550  -1.346939  13.990625   5.995227  -5.564457
    11  C   -0.279185   0.460282  -1.213534   5.995227  18.823956  -6.894871
    12  C   -0.194179  -0.324358   2.045432  -5.564457  -6.894871  22.040189
    13  N    0.000250   0.010810   0.190874   0.243238   0.461297  -0.892325
    14  O    0.000142  -0.011618   0.010529   0.066254   0.072772  -0.187430
    15  H   -0.000828   0.009056   0.000425   0.017480   0.168483  -0.078080
    16  H   -0.000075   0.000382  -0.001980   0.002143  -0.019287  -0.006367
    17  H    0.002216  -0.002922  -0.000405  -0.003557  -0.018769   0.003041
    18  H   -0.007626  -0.003769   0.065055  -0.023130  -0.000236   0.013666
    19  H    0.389346  -0.049731  -0.075793   0.089905   0.019288   0.001174
    20  H   -0.063594   0.444750  -0.096169   0.014118  -0.004247  -0.023315
    21  H    0.010581  -0.049591   0.510867  -0.195118  -0.158890   0.101733
    22  H    0.002275  -0.001525   0.040976  -0.132560  -0.302407   0.814408
    23  H   -0.007119  -0.056279  -0.028314   0.131537   0.103818  -0.300508
    24  H    0.000279  -0.005275   0.000888  -0.036187  -0.061457   0.123060
    25  H   -0.020635   0.003255  -0.040134  -0.068069  -0.090449   0.015274
              13         14         15         16         17         18
     1  C    0.005429   0.001719   0.373126   0.395107   0.423943  -0.000807
     2  O   -0.007431   0.000128  -0.059612  -0.050172  -0.038875   0.000135
     3  C   -0.262632  -0.041017  -0.023111   0.040261  -0.039896  -0.038425
     4  N   -0.020053  -0.002507   0.002044   0.002189   0.007745   0.004320
     5  C    0.040041  -0.003826  -0.031947   0.004139   0.021247  -0.171329
     6  C    0.003077   0.002979  -0.028630  -0.000127   0.020043   0.493378
     7  C    0.000250   0.000142  -0.000828  -0.000075   0.002216  -0.007626
     8  C    0.010810  -0.011618   0.009056   0.000382  -0.002922  -0.003769
     9  C    0.190874   0.010529   0.000425  -0.001980  -0.000405   0.065055
    10  C    0.243238   0.066254   0.017480   0.002143  -0.003557  -0.023130
    11  C    0.461297   0.072772   0.168483  -0.019287  -0.018769  -0.000236
    12  C   -0.892325  -0.187430  -0.078080  -0.006367   0.003041   0.013666
    13  N    7.242183   0.112617   0.002634  -0.000038   0.000007   0.000107
    14  O    0.112617   7.587266  -0.001517  -0.000286   0.000317   0.000009
    15  H    0.002634  -0.001517   0.546108  -0.027671  -0.047482  -0.000097
    16  H   -0.000038  -0.000286  -0.027671   0.459315  -0.016400  -0.000029
    17  H    0.000007   0.000317  -0.047482  -0.016400   0.505946   0.000125
    18  H    0.000107   0.000009  -0.000097  -0.000029   0.000125   0.469095
    19  H    0.000090   0.000007  -0.000031  -0.000005   0.000026  -0.008745
    20  H   -0.000556  -0.000032   0.000077   0.000010  -0.000025   0.001374
    21  H    0.017926  -0.005832  -0.000057  -0.000049   0.000013   0.000305
    22  H   -0.088794  -0.001764   0.001056  -0.008029  -0.000065  -0.000120
    23  H    0.300719   0.024885   0.000066   0.000131   0.000148   0.000124
    24  H    0.020047   0.213000  -0.000251  -0.000106   0.000015   0.000009
    25  H   -0.000102  -0.000093   0.000405   0.000096  -0.002944  -0.000366
              19         20         21         22         23         24
     1  C    0.000028   0.000128  -0.000377  -0.006678   0.003225  -0.000742
     2  O   -0.000120   0.000144  -0.000719   0.014083   0.000391   0.000045
     3  C    0.002287   0.010562  -0.074962   0.065239   0.037540   0.001739
     4  N   -0.003547   0.000596  -0.005042  -0.005689  -0.003687   0.000256
     5  C    0.037510   0.078265   0.006384  -0.119876   0.077305  -0.008849
     6  C   -0.073120  -0.025526   0.107491  -0.005088  -0.017959   0.001564
     7  C    0.389346  -0.063594   0.010581   0.002275  -0.007119   0.000279
     8  C   -0.049731   0.444750  -0.049591  -0.001525  -0.056279  -0.005275
     9  C   -0.075793  -0.096169   0.510867   0.040976  -0.028314   0.000888
    10  C    0.089905   0.014118  -0.195118  -0.132560   0.131537  -0.036187
    11  C    0.019288  -0.004247  -0.158890  -0.302407   0.103818  -0.061457
    12  C    0.001174  -0.023315   0.101733   0.814408  -0.300508   0.123060
    13  N    0.000090  -0.000556   0.017926  -0.088794   0.300719   0.020047
    14  O    0.000007  -0.000032  -0.005832  -0.001764   0.024885   0.213000
    15  H   -0.000031   0.000077  -0.000057   0.001056   0.000066  -0.000251
    16  H   -0.000005   0.000010  -0.000049  -0.008029   0.000131  -0.000106
    17  H    0.000026  -0.000025   0.000013  -0.000065   0.000148   0.000015
    18  H   -0.008745   0.001374   0.000305  -0.000120   0.000124   0.000009
    19  H    0.435174  -0.010554  -0.000058   0.000055  -0.000346   0.000015
    20  H   -0.010554   0.457647  -0.020624  -0.000557   0.002843  -0.000285
    21  H   -0.000058  -0.020624   0.647737   0.002669  -0.010935   0.002454
    22  H    0.000055  -0.000557   0.002669   0.418692  -0.005438   0.011312
    23  H   -0.000346   0.002843  -0.010935  -0.005438   0.477863  -0.031606
    24  H    0.000015  -0.000285   0.002454   0.011312  -0.031606   0.462042
    25  H    0.000590   0.000013  -0.000261  -0.000164   0.000290  -0.000025
              25
     1  C    0.003400
     2  O   -0.007754
     3  C    0.111641
     4  N    0.405963
     5  C    0.012108
     6  C   -0.035866
     7  C   -0.020635
     8  C    0.003255
     9  C   -0.040134
    10  C   -0.068069
    11  C   -0.090449
    12  C    0.015274
    13  N   -0.000102
    14  O   -0.000093
    15  H    0.000405
    16  H    0.000096
    17  H   -0.002944
    18  H   -0.000366
    19  H    0.000590
    20  H    0.000013
    21  H   -0.000261
    22  H   -0.000164
    23  H    0.000290
    24  H   -0.000025
    25  H    0.326695
 Mulliken charges:
               1
     1  C   -0.359247
     2  O   -0.139598
     3  C   -0.728358
     4  N   -0.020573
     5  C   -0.785755
     6  C   -0.808706
     7  C   -0.134250
     8  C   -0.492008
     9  C   -0.376054
    10  C    1.391712
    11  C    1.465116
    12  C   -0.495190
    13  N   -0.379417
    14  O    0.163298
    15  H    0.178353
    16  H    0.226845
    17  H    0.186509
    18  H    0.206977
    19  H    0.246553
    20  H    0.234955
    21  H    0.114352
    22  H    0.307990
    23  H    0.301306
    24  H    0.308057
    25  H    0.387132
 Sum of Mulliken charges =   1.00000
 Mulliken charges with hydrogens summed into heavy atoms:
               1
     1  C    0.232461
     2  O   -0.139598
     3  C   -0.728358
     4  N    0.366560
     5  C   -0.785755
     6  C   -0.601730
     7  C    0.112303
     8  C   -0.257052
     9  C   -0.261702
    10  C    1.391712
    11  C    1.465116
    12  C   -0.187201
    13  N   -0.078111
    14  O    0.471355
 Electronic spatial extent (au):  <R**2>=           2859.6511
 Charge=              1.0000 electrons
 Dipole moment (field-independent basis, Debye):
    X=             -1.7312    Y=              1.1840    Z=              1.7516  Tot=              2.7326
 Quadrupole moment (field-independent basis, Debye-Ang):
   XX=            -53.5876   YY=            -35.3165   ZZ=            -82.7794
   XY=             -6.8493   XZ=             -5.5140   YZ=              1.6382
 Traceless Quadrupole moment (field-independent basis, Debye-Ang):
   XX=              3.6402   YY=             21.9114   ZZ=            -25.5516
   XY=             -6.8493   XZ=             -5.5140   YZ=              1.6382
 Octapole moment (field-independent basis, Debye-Ang**2):
  XXX=              5.6345  YYY=             45.3942  ZZZ=             -1.0917  XYY=            -44.0674
  XXY=              5.1220  XXZ=             14.6326  XZZ=            -17.9348  YZZ=             -3.2595
  YYZ=             20.7747  XYZ=              8.9052
 Hexadecapole moment (field-independent basis, Debye-Ang**3):
 XXXX=          -1733.8212 YYYY=           -908.7045 ZZZZ=           -148.5822 XXXY=              5.8311
 XXXZ=            -22.5904 YYYX=           -176.9049 YYYZ=             35.5844 ZZZX=             -6.5692
 ZZZY=             -1.3603 XXYY=           -405.4715 XXZZ=           -395.8213 YYZZ=           -266.0790
 XXYZ=             14.9180 YYXZ=            -58.8301 ZZXY=             -9.7912
 N-N= 8.791150837515D+02 E-N=-3.252005114255D+03  KE= 6.456265800390D+02
 No NMR shielding tensors so no spin-rotation constants.
 Leave Link  601 at Thu Jan  2 19:17:21 2020, MaxMem= 10737418240 cpu:               3.6 elap:               0.2
 (Enter /apps/cent7/gaussian/g16-A.03/g16-haswell/g16/l701.exe)
 ... and contract with generalized density number  0.
 Compute integral first derivatives.
 Leave Link  701 at Thu Jan  2 19:17:22 2020, MaxMem= 10737418240 cpu:               3.8 elap:               0.2
 (Enter /apps/cent7/gaussian/g16-A.03/g16-haswell/g16/l702.exe)
 L702 exits ... SP integral derivatives will be done elsewhere.
 Leave Link  702 at Thu Jan  2 19:17:22 2020, MaxMem= 10737418240 cpu:               0.6 elap:               0.0
 (Enter /apps/cent7/gaussian/g16-A.03/g16-haswell/g16/l703.exe)
 Integral derivatives from FoFJK, PRISM(SPDF).
 Compute integral first derivatives, UseDBF=F ICtDFT=           0.
 Calling FoFJK, ICntrl=      2127 FMM=F ISym2X=0 I1Cent= 0 IOpClX= 0 NMat=1 NMatS=1 NMatT=0.
 FoFJK:  IHMeth= 1 ICntrl=    2127 DoSepK=F KAlg= 0 I1Cent=           0 FoldK=F
 IRaf=         0 NMat=       1 IRICut=       1 DoRegI=T DoRafI=F ISym2E= 0 IDoP0=0 IntGTp=1.
 FoFCou: FMM=F IPFlag=           0 FMFlag=      100000 FMFlg1=         800
         NFxFlg=           0 DoJE=F BraDBF=F KetDBF=F FulRan=T
         wScrn=  0.000000 ICntrl=      2127 IOpCl=  0 I1Cent=           0 NGrid=           0
         NMat0=    1 NMatS0=      1 NMatT0=    0 NMatD0=    1 NMtDS0=    0 NMtDT0=    0
 Symmetry not used in FoFCou.
 Leave Link  703 at Thu Jan  2 19:17:28 2020, MaxMem= 10737418240 cpu:             146.4 elap:               6.1
 (Enter /apps/cent7/gaussian/g16-A.03/g16-haswell/g16/l716.exe)
 Dipole        =-6.81111518D-01 4.65823796D-01 6.89151644D-01
 ***** Axes restored to original set *****
 -------------------------------------------------------------------
 Center     Atomic                   Forces (Hartrees/Bohr)
 Number     Number              X              Y              Z
 -------------------------------------------------------------------
      1        6          -0.000089659   -0.004902027    0.006817831
      2        8           0.000780862    0.005270449   -0.001486560
      3        6          -0.093716269   -0.037965500   -0.012693600
      4        7          -0.002429997   -0.065766717   -0.009074923
      5        6           0.103105498    0.057437013    0.013799091
      6        6           0.003586226    0.011900023    0.002379801
      7        6          -0.014987488   -0.008612195   -0.002673730
      8        6          -0.014848694   -0.003280697   -0.001157223
      9        6           0.012655428   -0.009595562   -0.004256786
     10        6           0.060132352    0.038631323    0.007158036
     11        6          -0.003941187    0.008639632    0.004634356
     12        6          -0.047395488    0.036466397    0.002710411
     13        7           0.046447245   -0.050621365    0.006133059
     14        8          -0.049826151    0.023520843   -0.009002526
     15        1          -0.001102605    0.000691187    0.001834778
     16        1           0.002280217    0.001357108   -0.004973370
     17        1          -0.000156701   -0.000892579    0.000359342
     18        1          -0.001334040    0.003933213    0.001083240
     19        1          -0.005651697   -0.000243620    0.000081761
     20        1          -0.002961438   -0.004373064   -0.000863597
     21        1           0.009066035   -0.002173093    0.001402087
     22        1          -0.000861569    0.005924239   -0.000888763
     23        1           0.001298330    0.002756778   -0.003818385
     24        1           0.000178427    0.003774398    0.004619716
     25        1          -0.000227637   -0.011876184   -0.002124047
 -------------------------------------------------------------------
 Cartesian Forces:  Max     0.103105498 RMS     0.025077369
 Leave Link  716 at Thu Jan  2 19:17:28 2020, MaxMem= 10737418240 cpu:               1.2 elap:               0.1
 (Enter /apps/cent7/gaussian/g16-A.03/g16-haswell/g16/l103.exe)

 GradGradGradGradGradGradGradGradGradGradGradGradGradGradGradGradGradGrad
 Berny optimization.
 FormGI is forming the generalized inverse of G from B-inverse, IUseBI=4.
 Internal  Forces:  Max     0.096556068 RMS     0.016660297
 Search for a local minimum.
 Step number   1 out of a maximum of  132
 All quantities printed in internal units (Hartrees-Bohrs-Radians)
 RMS Force = .16660D-01 SwitMx=.10000D-02 MixMth= 1
 Mixed Optimization -- RFO/linear search
 Second derivative matrix not updated -- first step.
 ITU=  0
     Eigenvalues ---    0.01162   0.01921   0.01935   0.01940   0.01946
     Eigenvalues ---    0.01961   0.01983   0.02144   0.02319   0.02362
     Eigenvalues ---    0.02466   0.02561   0.02575   0.02669   0.02722
     Eigenvalues ---    0.02757   0.02791   0.02802   0.02890   0.03102
     Eigenvalues ---    0.10293   0.10293   0.16000   0.16000   0.16000
     Eigenvalues ---    0.16000   0.16000   0.16000   0.16000   0.16000
     Eigenvalues ---    0.16000   0.16000   0.16000   0.22000   0.22000
     Eigenvalues ---    0.22000   0.22593   0.23715   0.24559   0.24964
     Eigenvalues ---    0.24977   0.24986   0.25000   0.34807   0.34812
     Eigenvalues ---    0.34813   0.34813   0.34814   0.34816   0.34816
     Eigenvalues ---    0.34818   0.38881   0.39580   0.40174   0.43373
     Eigenvalues ---    0.43598   0.43889   0.44371   0.45872   0.45978
     Eigenvalues ---    0.47688   0.50645   0.55484   0.55688   0.56875
     Eigenvalues ---    0.61400   0.62503   0.66009   0.68355
 RFO step:  Lambda=-5.78512837D-02 EMin= 1.16209545D-02
 Linear search not attempted -- first point.
 Maximum step size (   0.300) exceeded in Quadratic search.
    -- Step size scaled by   0.920
 Iteration  1 RMS(Cart)=  0.10565294 RMS(Int)=  0.00185508
 Iteration  2 RMS(Cart)=  0.00386310 RMS(Int)=  0.00011112
 Iteration  3 RMS(Cart)=  0.00000673 RMS(Int)=  0.00011107
 Iteration  4 RMS(Cart)=  0.00000000 RMS(Int)=  0.00011107
 ITry= 1 IFail=0 DXMaxC= 5.60D-01 DCOld= 1.00D+10 DXMaxT= 3.00D-01 DXLimC= 3.00D+00 Rises=F
 Variable       Old X    -DE/DX   Delta X   Delta X   Delta X     New X
                                 (Linear)    (Quad)   (Total)
    R1        2.72129   0.00466   0.00000   0.00946   0.00946   2.73074
    R2        2.05977   0.00157   0.00000   0.00356   0.00356   2.06334
    R3        2.05975  -0.00223   0.00000  -0.00505  -0.00505   2.05470
    R4        2.05981   0.00076   0.00000   0.00173   0.00173   2.06154
    R5        2.53502  -0.00252   0.00000  -0.00370  -0.00370   2.53132
    R6        2.42438   0.06596   0.00000   0.08148   0.08155   2.50593
    R7        2.57058   0.04906   0.00000   0.07673   0.07680   2.64738
    R8        2.46568   0.09656   0.00000   0.12681   0.12678   2.59246
    R9        1.88973   0.01171   0.00000   0.02015   0.02015   1.90988
   R10        2.65729  -0.01389   0.00000  -0.02425  -0.02432   2.63297
   R11        2.63408   0.01894   0.00000   0.03191   0.03176   2.66584
   R12        2.66464  -0.02426   0.00000  -0.04537  -0.04539   2.61925
   R13        2.05980  -0.00421   0.00000  -0.00953  -0.00953   2.05027
   R14        2.66765  -0.01030   0.00000  -0.02076  -0.02071   2.64694
   R15        2.05975  -0.00564   0.00000  -0.01278  -0.01278   2.04697
   R16        2.66614  -0.02223   0.00000  -0.04229  -0.04221   2.62392
   R17        2.05979  -0.00535   0.00000  -0.01211  -0.01211   2.04768
   R18        2.67242  -0.00942   0.00000  -0.01708  -0.01706   2.65536
   R19        2.05990  -0.00599   0.00000  -0.01358  -0.01358   2.04632
   R20        2.60577   0.08108   0.00000   0.12996   0.12994   2.73571
   R21        2.54525   0.05339   0.00000   0.07988   0.07988   2.62514
   R22        2.49849  -0.02070   0.00000  -0.02835  -0.02835   2.47015
   R23        2.05971  -0.00164   0.00000  -0.00373  -0.00373   2.05598
   R24        2.46480   0.05650   0.00000   0.07238   0.07238   2.53718
   R25        1.90856   0.00217   0.00000   0.00385   0.00385   1.91241
   R26        1.81404   0.00535   0.00000   0.00804   0.00804   1.82208
    A1        1.91070   0.00358   0.00000   0.01648   0.01639   1.92709
    A2        1.91064  -0.00904   0.00000  -0.04021  -0.04024   1.87040
    A3        1.91061   0.00195   0.00000   0.00890   0.00876   1.91938
    A4        1.91058   0.00162   0.00000   0.00550   0.00553   1.91611
    A5        1.91059   0.00061   0.00000   0.00665   0.00647   1.91706
    A6        1.91067   0.00128   0.00000   0.00269   0.00260   1.91327
    A7        1.97927   0.00958   0.00000   0.02863   0.02863   2.00790
    A8        2.12645   0.00766   0.00000   0.01911   0.01907   2.14552
    A9        2.19826   0.00982   0.00000   0.02566   0.02563   2.22389
   A10        1.95787  -0.01747   0.00000  -0.04473  -0.04467   1.91321
   A11        1.88943   0.00740   0.00000   0.04011   0.04007   1.92950
   A12        2.19688  -0.00642   0.00000  -0.03155  -0.03155   2.16533
   A13        2.19688  -0.00098   0.00000  -0.00855  -0.00855   2.18833
   A14        2.24765   0.00310   0.00000   0.00675   0.00690   2.25455
   A15        1.90747  -0.00749   0.00000  -0.02224  -0.02234   1.88512
   A16        2.12784   0.00440   0.00000   0.01564   0.01556   2.14340
   A17        2.06658  -0.00379   0.00000  -0.01282  -0.01294   2.05364
   A18        2.10607   0.00266   0.00000   0.00967   0.00972   2.11579
   A19        2.11054   0.00112   0.00000   0.00316   0.00321   2.11376
   A20        2.09934   0.00435   0.00000   0.00911   0.00913   2.10847
   A21        2.09099  -0.00252   0.00000  -0.00603  -0.00604   2.08495
   A22        2.09285  -0.00182   0.00000  -0.00308  -0.00309   2.08976
   A23        2.10446   0.00541   0.00000   0.01162   0.01173   2.11618
   A24        2.08973  -0.00251   0.00000  -0.00497  -0.00503   2.08470
   A25        2.08899  -0.00290   0.00000  -0.00664  -0.00670   2.08229
   A26        2.07687   0.00196   0.00000   0.00414   0.00420   2.08107
   A27        2.10115  -0.00833   0.00000  -0.03310  -0.03315   2.06800
   A28        2.10516   0.00637   0.00000   0.02896   0.02890   2.13406
   A29        2.09074  -0.01231   0.00000  -0.02764  -0.02763   2.06310
   A30        1.83959   0.00683   0.00000   0.00556   0.00543   1.84502
   A31        2.35275   0.00548   0.00000   0.02198   0.02209   2.37484
   A32        1.82800   0.01085   0.00000   0.02275   0.02274   1.85074
   A33        2.17602  -0.02433   0.00000  -0.06811  -0.06812   2.10790
   A34        2.27870   0.01345   0.00000   0.04498   0.04494   2.32364
   A35        2.16544   0.00903   0.00000   0.02989   0.02983   2.19527
   A36        2.07631   0.00136   0.00000   0.00986   0.00980   2.08611
   A37        2.04144  -0.01039   0.00000  -0.03975  -0.03981   2.00163
   A38        2.12100  -0.00973   0.00000  -0.03222  -0.03245   2.08855
   A39        2.09322   0.00650   0.00000   0.02301   0.02279   2.11601
   A40        2.06896   0.00323   0.00000   0.00921   0.00899   2.07794
   A41        1.91073   0.00021   0.00000   0.00091   0.00091   1.91164
    D1        0.55158   0.00290   0.00000   0.02465   0.02481   0.57640
    D2        2.64596   0.00154   0.00000   0.01685   0.01675   2.66271
    D3       -1.54279  -0.00124   0.00000   0.00096   0.00089  -1.54191
    D4        1.52252  -0.00078   0.00000  -0.00893  -0.00894   1.51358
    D5       -1.65943  -0.00081   0.00000  -0.00877  -0.00877  -1.66820
    D6       -3.14060  -0.00064   0.00000  -0.00952  -0.00949   3.13309
    D7        0.00100   0.00006   0.00000  -0.00248  -0.00256  -0.00156
    D8        0.03627  -0.00111   0.00000  -0.01095  -0.01089   0.02538
    D9       -3.10532  -0.00041   0.00000  -0.00392  -0.00396  -3.10928
   D10        3.11551   0.00177   0.00000   0.01864   0.01839   3.13390
   D11       -0.05561   0.00122   0.00000   0.00767   0.00788  -0.04773
   D12       -0.06310   0.00218   0.00000   0.01990   0.01961  -0.04349
   D13        3.04897   0.00162   0.00000   0.00893   0.00909   3.05806
   D14        3.12518   0.00072   0.00000   0.00506   0.00495   3.13013
   D15        0.00636  -0.00012   0.00000  -0.00221  -0.00220   0.00416
   D16       -0.01641   0.00003   0.00000  -0.00197  -0.00209  -0.01850
   D17       -3.13523  -0.00082   0.00000  -0.00925  -0.00924   3.13871
   D18       -3.09791  -0.00100   0.00000  -0.00892  -0.00892  -3.10683
   D19        0.04377  -0.00092   0.00000  -0.00881  -0.00881   0.03496
   D20        0.01837  -0.00019   0.00000  -0.00127  -0.00128   0.01709
   D21       -3.12314  -0.00011   0.00000  -0.00116  -0.00117  -3.12431
   D22        3.08375   0.00126   0.00000   0.00861   0.00852   3.09227
   D23       -0.04442   0.00147   0.00000   0.01415   0.01398  -0.03044
   D24       -0.03693   0.00049   0.00000   0.00202   0.00202  -0.03491
   D25        3.11808   0.00070   0.00000   0.00756   0.00748   3.12556
   D26        0.00703   0.00002   0.00000   0.00069   0.00065   0.00769
   D27       -3.13458  -0.00022   0.00000  -0.00241  -0.00239  -3.13698
   D28       -3.13465  -0.00005   0.00000   0.00058   0.00055  -3.13410
   D29        0.00692  -0.00030   0.00000  -0.00252  -0.00250   0.00442
   D30       -0.01361  -0.00005   0.00000  -0.00051  -0.00048  -0.01408
   D31        3.12788  -0.00042   0.00000  -0.00442  -0.00434   3.12354
   D32        3.12801   0.00019   0.00000   0.00259   0.00258   3.13059
   D33       -0.01369  -0.00018   0.00000  -0.00132  -0.00128  -0.01497
   D34       -0.00471  -0.00003   0.00000   0.00044   0.00043  -0.00428
   D35        3.13703  -0.00108   0.00000  -0.01125  -0.01103   3.12600
   D36        3.13699   0.00034   0.00000   0.00434   0.00429   3.14128
   D37       -0.00446  -0.00071   0.00000  -0.00735  -0.00718  -0.01163
   D38        0.02948  -0.00049   0.00000  -0.00188  -0.00186   0.02762
   D39       -3.13035  -0.00084   0.00000  -0.00978  -0.00982  -3.14017
   D40       -3.11226   0.00055   0.00000   0.00983   0.01005  -3.10220
   D41        0.01110   0.00020   0.00000   0.00193   0.00209   0.01319
[...]
 -0.00017662,0.00036149,-0.00031046,0.00013160,-0.00016548,0.00002225,0
 .00005606,0.00018092,0.00001313,-0.00004278,0.00003318,0.00000533,0.01
 254957,-0.00976027,-0.01752019,-0.00082863,0.00097537,0.00073424,-0.10
 153250,0.09387461,0.24519119,-0.00002115,0.00005483,-0.00000459,0.0001
 4818,-0.00022225,0.00001694,-0.00085045,0.00112371,-0.00008232,0.00323
 903,-0.00049194,-0.00008763,-0.00641494,0.02920310,-0.00199545,-0.1040
 5797,0.10483717,-0.00655330,0.01278906,-0.01768892,0.00116266,-0.00185
 885,-0.00360310,0.00041942,-0.00102145,-0.00079617,0.00006965,-0.00455
 505,-0.00076406,0.00024376,-0.00033923,0.00111148,-0.00008796,-0.00055
 054,-0.00022181,0.00005255,0.00001052,-0.00014079,-0.00000616,0.000010
 87,0.00002383,0.00000558,-0.00002275,-0.00000909,0.00002308,0.00000793
 ,-0.00002433,0.00000137,-0.00002512,-0.00001265,-0.00002062,0.10338807
 ,0.00000212,-0.00002591,0.00000463,0.00007535,0.00006656,0.00000293,0.
 00040030,-0.00024183,-0.00001790,0.00015305,0.00102696,-0.00034013,-0.
 00130691,0.00074577,0.00019595,0.10405533,-0.30226820,0.01799128,0.011
 94202,-0.01626373,0.00127244,-0.00378122,-0.00188233,0.00077473,-0.000
 68811,0.00025559,-0.00008410,-0.00037419,0.00164074,0.00038742,-0.0002
 4585,0.00021075,0.00001428,0.00001676,0.00003648,-0.00000065,-0.000000
 87,0.00001429,0.00001091,0.00000503,0.00000323,-0.00000455,0.00000213,
 0.00000776,0.00000212,-0.00000075,0.00000297,-0.00000044,0.00000202,0.
 00000781,-0.00000426,-0.11172355,0.31687190,-0.00000062,0.00000016,0.0
 0002181,0.00000353,0.00000904,0.00013411,-0.00003833,-0.00002820,-0.00
 037593,-0.00013820,-0.00036722,-0.00346386,0.00004934,-0.00018703,0.00
 326557,-0.00630210,0.01802635,-0.03722650,-0.00111290,0.00168694,0.003
 62939,0.00042944,0.00078553,0.00749477,0.00015417,-0.00005085,-0.00097
 670,0.00021315,0.00020161,0.00652503,0.00004741,0.00000248,0.00039388,
 0.00001396,-0.00000802,0.00004996,0.00000848,0.00001768,0.00004895,0.0
 0000016,0.00000442,-0.00001493,-0.00000060,-0.00000439,-0.00000834,-0.
 00000031,0.00000037,-0.00000360,0.00000078,0.00000347,-0.00000646,0.00
 689855,-0.01978391,0.02566652,0.00000472,0.00005311,-0.00000254,-0.000
 15000,0.00002309,-0.00000270,0.00026563,-0.00053634,0.00003350,-0.0008
 6798,0.00043963,-0.00000240,0.00033934,-0.00281098,0.00033789,-0.01230
 662,0.00372970,0.00001139,-0.34705408,0.03268130,0.00329965,-0.0063739
 1,-0.00119019,0.00025815,0.00100069,0.00181489,-0.00001470,0.00046386,
 -0.00005484,-0.00000776,0.00008586,0.00011118,-0.00003311,0.00002065,0
 .00012024,-0.00000014,-0.00001986,-0.00005104,-0.00001873,-0.00001206,
 0.00000279,0.00000861,0.00000532,-0.00000086,-0.00000456,-0.00000072,-
 0.00000006,0.,0.00000518,-0.00000014,0.00000458,0.00061348,0.00003318,
 -0.00009283,0.36377687,0.00001369,0.00009901,-0.00000570,-0.00033235,0
 .00003387,-0.00001645,0.00024153,-0.00080029,0.00005815,-0.00179396,0.
 00070371,0.00003598,-0.00286506,-0.00370208,0.00085024,-0.02628196,0.0
 0621529,0.00027261,0.03298589,-0.06268460,0.00106301,0.02918930,0.0014
 4051,-0.00031626,0.00215100,-0.00487693,0.00074893,-0.00049237,-0.0013
 4476,0.00000765,-0.00003618,0.00036944,-0.00006173,0.00008789,-0.00023
 046,0.00001414,0.00002331,0.00013311,0.00002948,0.00003537,0.00003982,
 -0.00001556,0.00000909,-0.00000095,-0.00000464,-0.00000268,0.00000070,
 0.00000011,0.00000843,-0.00000084,0.00000477,0.00046415,0.00087120,-0.
 00038436,-0.03436935,0.06305640,-0.00000047,-0.00000488,0.00003080,0.0
 0001589,-0.00002887,-0.00030013,-0.00002806,0.00007635,0.00000592,0.00
 015995,0.00001392,0.00077909,0.00029507,0.00085049,0.00696137,0.002205
 31,-0.00020303,0.00374441,0.00322602,0.00105957,-0.03913382,-0.0018470
 1,0.00014293,0.00399133,-0.00005256,0.00074908,0.00674602,0.00003683,0
 .00002497,-0.00107625,-0.00004203,-0.00006605,-0.00054403,-0.00000700,
 -0.00000926,0.00007541,0.00009175,-0.00002422,-0.00017245,0.00002201,0
 .00003504,0.00007970,0.00000631,0.00000493,0.00000263,0.00000043,-0.00
 000030,-0.00000181,-0.00000762,-0.00000470,0.00000303,-0.00011598,-0.0
 0038351,-0.00424394,-0.00370120,-0.00191791,0.02696256,-0.00002414,0.0
 0005782,-0.00000442,-0.00002287,-0.00030577,0.00002218,-0.00060412,0.0
 0051958,-0.00003256,0.00049894,-0.00018210,-0.00000410,-0.00088178,0.0
 0085711,-0.00004062,-0.00012031,0.00325463,-0.00012360,0.01165753,0.01
 194413,-0.00090857,-0.16644088,-0.14026086,0.01130143,-0.01390007,-0.0
 2475956,0.00187928,-0.00530385,0.00164367,0.00011544,0.00003963,-0.001
 22558,0.00006990,0.00003773,-0.00032722,0.00003834,0.00006294,0.000159
 32,0.00003329,-0.00001785,0.00007658,-0.00002024,-0.00000069,-0.000010
 41,0.00000132,0.00000109,-0.00001627,0.00000114,-0.00000123,-0.0000109
 3,0.00000009,0.00045727,0.00064648,-0.00006767,0.00057268,-0.00033485,
 -0.00004364,0.17329010,0.00000998,-0.00003435,-0.00000162,0.00007331,0
 .00012279,-0.00002090,0.00005833,-0.00001729,-0.00001247,-0.00006765,0
 .00011375,-0.00004296,0.00133946,-0.00019363,-0.00005045,0.00283020,-0
 .00387729,0.00064741,-0.01858994,-0.01684442,0.00165855,-0.14054435,-0
 .24161501,0.01549352,0.00546914,0.00776114,-0.00036443,0.00209968,0.00
 127589,0.00034816,0.00004427,0.00045893,0.00001376,-0.00003224,-0.0000
 2605,0.00000290,0.00001998,0.00002462,0.00000266,-0.00001074,-0.000015
 88,-0.00000090,-0.00000107,0.00000348,-0.00000429,-0.00000097,0.000007
 48,-0.00000024,-0.00000085,0.00000228,0.00000394,-0.00090884,-0.000822
 17,0.00009002,0.00006642,0.00080053,-0.00031127,0.14830156,0.25224689,
 -0.00000414,-0.00000646,-0.00006397,0.00000626,-0.00000758,-0.00014578
 ,-0.00000140,-0.00002197,-0.00014411,-0.00001531,-0.00004975,-0.000550
 85,0.00004246,-0.00012186,-0.00059410,-0.00014859,0.00061453,0.0066939
 4,0.00105901,0.00136554,0.00367478,0.01150394,0.01529075,-0.03967946,-
 0.00033193,0.00000466,0.00340626,0.00016512,0.00051604,0.00702261,-0.0
 0004291,0.00005024,0.00057610,0.00001136,-0.00000048,0.00010093,-0.000
 02235,-0.00000773,-0.00002522,-0.00000391,-0.00000206,-0.00002486,-0.0
 0000008,0.00001391,-0.00000127,0.00000006,0.00000023,0.00000468,-0.000
 00066,-0.00001356,0.00000050,0.00003848,0.00003235,-0.00001573,-0.0000
 9177,-0.00031264,-0.00398874,-0.01208843,-0.01714239,0.02794020,-0.000
 02193,-0.00012823,0.00001239,0.00024684,0.00032577,-0.00003266,0.00036
 943,-0.00072454,0.00007575,0.00004853,-0.00128528,0.00010971,-0.001503
 90,-0.00271846,0.00040232,-0.00118774,-0.00081770,0.00003668,-0.005874
 79,0.00007155,0.00028952,-0.00604753,0.03097011,-0.00154253,-0.0937532
 1,0.09232326,-0.00386942,0.01129235,-0.01790533,0.00082042,0.00050130,
 0.00169004,-0.00026542,0.00029887,-0.00097397,0.00002880,-0.00079903,0
 .00126807,-0.00000361,-0.00003829,-0.00009054,-0.00003240,-0.00000214,
 0.00001796,-0.00001161,-0.00000472,0.00001427,-0.00000160,0.00000035,0
 .00002037,0.00000772,0.00011263,0.00007683,-0.00003323,-0.00038279,0.0
 0147654,-0.00010923,0.00087974,-0.00027302,-0.00011742,0.09917093,-0.0
 0003537,-0.00002571,0.00000258,-0.00003926,0.00013253,-0.00001304,0.00
 066972,-0.00175112,0.00014543,-0.00062041,-0.00109358,0.00011635,-0.00
 320118,-0.00028653,0.00038686,-0.00075769,0.00013504,-0.00003855,0.000
 70195,0.00206465,0.00016480,-0.00008936,-0.00129453,0.00033860,0.09544
 095,-0.30814019,0.01209166,0.01168655,-0.01580642,0.00075172,-0.000486
 49,0.00228225,-0.00035492,0.00015073,-0.00265581,0.00016753,0.00073112
 ,0.00086118,0.00043727,0.00057585,0.00029591,-0.00020172,0.00001536,0.
 00001385,-0.00001926,-0.00000659,0.00000721,0.00000010,0.00001687,0.00
 001649,0.00001594,0.00007100,-0.00005178,-0.00004558,-0.00009449,-0.00
 022091,0.00000282,0.00004263,0.00061477,-0.00021237,-0.10340187,0.3235
 5105,0.00000531,0.00000535,0.00006491,-0.00000104,-0.00000977,-0.00000
 777,-0.00006256,0.00010478,-0.00034865,0.00001847,0.00011937,0.0002516
 9,0.00043977,0.00069308,0.00725343,0.00005831,-0.00006900,-0.00105554,
 0.00009092,0.00030420,0.00749616,-0.00002466,-0.00001990,0.00403949,-0
 .00351261,0.01111430,-0.03518088,-0.00073118,0.00179016,0.00191482,-0.
 00026674,-0.00032586,-0.00305126,0.00005653,-0.00007932,-0.00002140,0.
 00028265,-0.00013204,-0.00098353,0.00015581,0.00014875,0.00030185,-0.0
 0001651,-0.00000947,-0.00000670,0.00000030,-0.00000109,0.00000088,0.00
 001509,0.00000718,-0.00001026,-0.00002707,-0.00008205,-0.00115537,0.00
 000630,-0.00000500,-0.00003940,-0.00010858,-0.00030938,-0.00426850,0.0
 0485218,-0.01333075,0.02298255,0.00043882,0.00048336,-0.00003354,0.000
 09982,-0.00069975,0.00006726,-0.00116225,0.00107560,-0.00020583,0.0009
 2774,-0.00010203,0.00001105,-0.00139137,-0.00089834,0.00009532,0.00032
 460,0.00055259,-0.00005924,0.00005198,-0.00028303,0.00002922,-0.000221
 44,0.00001624,-0.00001943,0.00018796,0.00003622,-0.00000271,0.00068926
 ,0.00244160,-0.00008393,-0.01496864,-0.00940869,0.00132117,-0.30747345
 ,-0.09784578,0.01535760,0.00088365,-0.00135622,0.00022769,0.00081335,0
 .00167109,-0.00021322,-0.00000890,-0.00012350,-0.00000294,0.00000613,-
 0.00004113,0.00000710,-0.00000398,-0.00011450,0.00001934,-0.00008732,-
 0.00000477,-0.00000125,-0.00000752,0.00000161,0.00000031,-0.00003000,0
 .00001179,0.00000175,-0.00004945,0.00000491,0.00000773,0.31994859,-0.0
 0046925,-0.00066747,0.00005279,-0.00105583,-0.00082174,0.00010144,0.00
 295035,0.00067291,-0.00072672,-0.00100461,-0.00003514,0.00011635,0.001
 10012,0.00099996,-0.00014172,0.00003206,-0.00045079,-0.00003128,-0.000
 05173,-0.00002938,0.00003531,0.00003699,0.00014130,-0.00008938,-0.0001
 1069,-0.00038917,-0.00001385,0.00117729,-0.00303384,0.00111380,0.01772
 610,0.01270627,-0.00078301,-0.08802169,-0.09325392,0.00559581,-0.03600
 003,-0.01768152,0.00530759,-0.00114350,0.00347527,-0.00149668,-0.00002
 491,0.00016374,-0.00002105,-0.00000639,-0.00009373,0.00001579,-0.00001
 581,0.00015433,0.00000092,0.00011716,-0.00001012,-0.00001557,0.0000002
 9,0.00000039,0.00000533,0.00004648,-0.00000894,0.00000298,0.00001414,0
 .00013333,0.00005070,0.10299601,0.10306922,0.00004108,0.00001413,-0.00
 012600,0.00024388,0.00018789,0.00001961,-0.00032502,-0.00073240,-0.004
 56066,-0.00008844,0.00005494,0.00060713,-0.00007098,-0.00004727,-0.000
 35134,-0.00007049,-0.00001221,-0.00042974,0.00000736,0.00008858,0.0001
 7278,0.00006812,-0.00008304,-0.00052506,-0.00006613,0.00000292,-0.0003
 6162,0.00001627,0.00100582,0.00658667,-0.00213442,-0.00010551,0.006844
 93,0.01393483,0.00597089,-0.04760820,0.00178767,0.00367249,0.00768343,
 0.00099127,-0.00163193,-0.00500310,-0.00002680,0.00005496,0.00000558,0
 .00000141,0.00001825,0.00007089,0.00003264,-0.00007335,0.00001092,-0.0
 0001529,-0.00000966,-0.00012140,0.00000025,0.00000393,0.00004476,-0.00
 000283,0.00000146,0.00003282,0.00001012,0.00000208,0.00037296,-0.01598
 887,-0.00934117,0.03004658,-0.00014806,-0.00055029,0.00010695,0.001387
 15,0.00131314,-0.00015008,-0.00021396,-0.00621108,-0.00001608,-0.00333
 565,0.00061741,0.00011206,0.00089441,0.00205687,-0.00015970,-0.0001391
 1,-0.00059254,0.00006960,0.00009622,0.00027423,-0.00013093,-0.00010310
 ,-0.00122329,0.00062534,-0.00137575,0.00211160,0.00011201,0.00370121,-
 0.00021431,0.00023864,-0.00420003,0.00671778,-0.00164969,0.01279256,-0
 .00892496,0.00180695,-0.32069357,-0.15068265,0.08364230,-0.02742770,0.
 00037488,0.00449716,0.00000640,0.00007808,0.00000111,-0.00000189,0.000
 02975,-0.00000191,0.00001087,0.00009786,-0.00001759,0.00000231,-0.0000
 1507,-0.00000118,0.00003527,-0.00015844,-0.00008764,-0.00008003,0.0000
 1807,0.00003639,-0.00293700,-0.00100920,-0.00120680,0.00071311,0.00178
 125,0.00121289,0.34360959,0.00003675,-0.00026829,0.00005387,0.00131515
 ,0.00080662,-0.00010561,-0.00095518,-0.00270543,-0.00019874,-0.0009900
 1,0.00051015,0.00010031,0.00040940,0.00022981,-0.00011328,-0.00034945,
 -0.00012540,0.00004264,-0.00014965,0.00035919,-0.00000858,0.00039478,-
 0.00002164,-0.00003773,-0.00058859,-0.00036423,0.00000747,0.00167253,-
 0.00043897,0.00014337,-0.00237087,0.00356692,-0.00114885,-0.02955054,-
 0.01516588,0.00759656,-0.15606527,-0.15288886,0.06272451,0.02695151,0.
 00675705,-0.00611511,-0.00001082,0.00001622,0.00000911,-0.00000003,0.0
 0003680,0.00000040,-0.00000706,0.00002196,-0.00001301,-0.00001574,-0.0
 0000113,0.00000597,-0.00000712,0.00002109,-0.00001044,-0.00008163,0.00
 001749,0.00000657,0.00019733,0.00128570,-0.00000046,0.00120908,-0.0042
 8257,0.00184917,0.15585437,0.16152185,-0.00004188,-0.00024409,0.000273
 45,0.00103623,0.00066846,-0.00031234,-0.00042322,-0.00326289,0.0000228
 3,-0.00146577,0.00017728,0.00011250,0.00068379,0.00071320,-0.00007534,
 -0.00045280,-0.00037193,0.00006670,0.00010440,0.00050398,0.00002547,0.
 00037765,-0.00068187,-0.00005891,-0.00025367,0.00100484,-0.00054923,0.
 00060973,0.00023594,-0.00063306,-0.00248964,0.00416414,-0.00248526,0.0
 0159294,-0.01080574,-0.00073494,0.10279478,0.07856552,-0.04577097,-0.0
 1465897,-0.00528878,0.00109144,-0.00001723,-0.00000374,-0.00000466,-0.
 00000166,0.00002340,0.00000768,0.00001777,0.00007430,-0.00002667,0.000
 00768,-0.00000661,0.00002467,0.00001781,-0.00004982,0.00001274,-0.0000
 0993,0.00000194,0.00002205,-0.00069579,-0.00048973,0.00127177,-0.00066
 131,0.00004390,0.00602447,-0.08847806,-0.06459788,0.04234999,0.0000419
 2,0.00014773,0.00003662,-0.00040789,-0.00031235,0.00004718,0.00019885,
 0.00061176,-0.00078916,0.00016253,-0.00004751,0.00013167,-0.00008345,-
 0.00002685,-0.00004254,0.00010445,0.00002739,0.00001552,0.00000432,-0.
 00009105,-0.00001603,-0.00009339,-0.00001706,0.00012967,0.00008000,0.0
 0010802,-0.00012750,0.00005473,-0.00005524,0.00022341,0.00056184,-0.00
 013022,-0.00082183,-0.00291937,0.00147888,0.00121725,-0.02160230,0.029
 16876,0.02645796,-0.04049829,0.03991068,0.02535912,0.00000567,-0.00002
 770,-0.00000598,0.00000271,-0.00001307,-0.00000711,0.00000431,-0.00000
 438,0.00000671,-0.00000073,-0.00000199,-0.00000136,0.00000126,-0.00001
 080,-0.00001940,-0.00001537,0.00000864,0.00000641,-0.00002560,-0.00003
 504,-0.00006376,0.00028726,-0.00011823,0.00043034,-0.00250091,0.003126
 90,0.00243313,0.06663439,-0.00007397,-0.00046095,-0.00000205,0.0008736
 4,0.00086239,-0.00002492,-0.00010436,-0.00289186,0.00076718,-0.0014962
 2,0.00039975,-0.00014187,0.00046013,0.00071424,-0.00006854,-0.00022497
 ,-0.00020130,-0.00001337,-0.00007491,0.00022729,0.00000306,0.00016004,
 -0.00013563,-0.00002613,-0.00033566,-0.00000486,0.00005490,0.00100862,
 0.00018062,0.00000782,-0.00233122,0.00261069,0.00100827,0.00512291,-0.
 00706818,-0.00243888,0.00734857,-0.01268288,-0.01095320,0.06465694,-0.
 16288357,-0.21093831,-0.00000876,0.00005595,0.00000597,0.00000273,0.00
 000676,-0.00000408,-0.00001202,0.00005237,-0.00000929,0.00000176,-0.00
 000056,-0.00000273,-0.00000029,-0.00000554,0.00000156,-0.00003053,0.00
 000587,0.00000092,0.00001890,0.00001521,0.00001580,0.00028708,-0.00073
 995,-0.00090702,-0.00149118,0.00124523,-0.00024905,-0.07374381,0.18086
 551,-0.00004128,-0.00025584,0.00004123,0.00066977,0.00057409,-0.000092
 60,-0.00062600,-0.00153015,-0.00011027,-0.00064564,0.00042622,0.000046
 79,0.00019460,0.00031060,-0.00002090,-0.00010628,-0.00006226,-0.000003
 88,-0.00005299,0.00010592,-0.00001013,0.00007877,-0.00002029,-0.000031
 38,-0.00018090,-0.00014312,-0.00004364,0.00051874,0.00005568,0.0000659
 8,-0.00060543,0.00246814,-0.00092473,-0.00346204,-0.00059086,0.0012169
 4,-0.00907868,0.02025379,0.01605697,0.06852599,-0.24558608,-0.36115560
 ,-0.00001462,0.00003948,0.00000847,0.00000038,0.00002323,0.00001056,-0
 .00000241,0.00003198,-0.00001593,-0.00000378,0.00000269,0.00000486,-0.
 00000340,0.00000437,0.00000918,-0.00000917,-0.00000251,0.00001519,0.00
 003646,0.00006143,0.00009012,0.00012657,0.00016831,0.00021259,-0.00059
 910,-0.00024055,-0.00075354,-0.05467311,0.22397945,0.34532396,-0.00076
 793,0.00184125,-0.00010534,-0.00069428,-0.00319754,0.00020908,0.008946
 19,0.03126311,-0.00272727,-0.08075600,0.05216336,-0.00224118,0.0150304
 6,-0.02075814,0.00121862,0.00174672,0.00018226,-0.00006150,-0.00034580
 ,-0.00003063,0.00000066,-0.00013228,0.00013682,-0.00000465,0.00131514,
 -0.00075849,0.00003538,-0.00482438,-0.00411551,0.00044381,-0.00575731,
 0.00119905,0.00011037,0.00107013,0.00089596,-0.00002508,-0.00032815,0.
 00030826,0.00001106,-0.00010216,0.00020379,-0.00001966,-0.00079322,-0.
 00078649,0.00114004,0.00031896,-0.00056542,0.00002303,-0.00085738,-0.0
 0095007,-0.00099561,-0.00097379,0.00073266,-0.00002837,-0.00001528,-0.
 00000980,0.00000194,-0.00005447,0.00007883,-0.00000234,-0.00029282,-0.
 00033067,0.00003216,0.00003205,0.00004441,0.00001114,-0.00009234,-0.00
 002584,-0.00002597,0.00000309,-0.00001343,-0.00004646,0.06832484,-0.00
 042330,0.00261668,-0.00008931,-0.00375865,-0.00323962,0.00013005,0.006
 25124,-0.00745730,0.00018794,0.05401814,-0.44941593,0.03320115,0.00434
 138,-0.01000181,0.00039525,0.00024288,0.00172847,-0.00020109,0.0002151
 3,-0.00058378,0.00003556,-0.00013025,0.00034220,-0.00003971,0.00087224
 ,-0.00036868,0.00010383,-0.00244226,-0.00015619,0.00009955,-0.00087469
 ,0.00363474,0.00003884,0.00127425,-0.00215665,0.00025912,0.00050121,0.
 00153758,0.00024991,-0.00035026,0.00030759,-0.00016747,-0.00069686,-0.
 00030342,0.00047898,-0.00005383,0.00004478,-0.00005555,-0.00084785,-0.
 00048038,-0.00046488,-0.00038497,-0.00019427,0.00004380,0.00003988,0.0
 0008228,-0.00000255,-0.00000430,-0.00000089,0.00000013,-0.00016621,-0.
 00008261,0.00002040,0.00009053,-0.00001842,0.00001607,-0.00025227,-0.0
 0013368,-0.00012479,0.00004655,-0.00016659,-0.00007375,-0.05750773,0.4
 6446591,0.00007939,-0.00011737,0.00146374,0.00025411,0.00012449,-0.002
 40316,-0.00079499,-0.00055723,-0.00364856,-0.00239742,0.03331811,-0.00
 994200,-0.00077200,0.00090455,-0.00384297,-0.00008570,-0.00019542,-0.0
 0085184,-0.00000560,0.00003691,-0.00018385,0.00000400,-0.00004862,-0.0
 0011241,-0.00010170,0.00014471,0.00105051,0.00033286,0.00017730,0.0008
 5967,0.00027614,0.00018976,0.00406465,-0.00006056,0.00008526,0.0021499
 2,-0.00003734,-0.00005269,-0.00038871,-0.00004375,-0.00001869,-0.00052
 831,0.00100331,0.00075842,-0.00066850,-0.00001479,-0.00005534,-0.00081
 502,-0.00088536,-0.00072987,-0.00043590,0.00006043,0.00002603,0.000353
 25,-0.00000227,-0.00000329,0.00005161,0.00000193,-0.00000051,0.0000125
 3,0.00003283,0.00002073,0.00008860,0.00000019,0.00004940,0.00035100,0.
 00003737,0.00005032,0.00009916,0.00007276,-0.00006551,0.00005974,0.003
 04612,-0.03404147,0.01321688\\0.00000695,0.00001175,-0.00000092,0.0000
 0079,-0.00001602,0.00001573,-0.00005530,-0.00001048,-0.00002621,0.0000
 5092,0.00001278,0.00001489,-0.00000697,-0.00003079,0.00001059,0.000011
 19,0.00001517,-0.00000132,-0.00000380,-0.00001447,-0.00000198,-0.00000
 987,0.00000596,0.00000149,0.00000456,-0.00001040,-0.00000959,0.0000289
 6,0.00002897,0.00000558,0.00001648,0.00001219,-0.00001117,-0.00003117,
 0.00000774,0.00000231,-0.00002784,0.00002087,0.00000435,0.00002100,-0.
 00002190,0.00001228,-0.00000460,-0.00000360,0.00000662,-0.00000102,-0.
 00000201,0.00000317,0.00000449,0.00000346,-0.00000639,-0.00000311,-0.0
 0000057,0.00000040,-0.00000182,0.00000227,0.00000078,-0.00000088,-0.00
 000160,0.00000109,0.00000377,0.00000153,0.00000148,-0.00000021,0.00000
 243,-0.00000426,0.00001213,-0.00000791,-0.00000585,-0.00000527,0.00000
 703,-0.00000495,-0.00000938,-0.00001240,-0.00000812\\\@


 A CHEMICAL PHYSICIST MAKES PRECISE MEASUREMENTS ON IMPURE COMPOUNDS.
 A THEORETICAL PHYSICAL CHEMIST MAKES IMPRECISE
     MEASUREMENTS ON PURE COMPOUNDS.
 AN EXPERIMENTAL PHYSICAL CHEMIST MAKES IMPRECISE
     MEASUREMENTS ON IMPURE COMPOUNDS.
 Job cpu time:       0 days  2 hours  7 minutes 11.1 seconds.
 Elapsed time:       0 days  0 hours  5 minutes 19.5 seconds.
 File lengths (MBytes):  RWF=    338 Int=      0 D2E=      0 Chk=     13 Scr=      1
 Normal termination of Gaussian 16 at Thu Jan  2 19:32:26 2020.
real 942.31
user 22214.70
sys 92.79
Machine:
brown-a359
brown-a359
brown-a359
brown-a359
brown-a359
brown-a359
brown-a359
brown-a359
brown-a359
brown-a359
brown-a359
brown-a359
brown-a359
brown-a359
brown-a359
brown-a359
brown-a359
brown-a359
brown-a359
brown-a359
brown-a359
brown-a359
brown-a359
brown-a359
