Title Card Required                                                     
Freq      RM062X                                                      6-311++G(d,p)       
Number of atoms                            I                9
Info1-9                                    I   N=           9
          28          28        1002           0           0         100
           6          18        -502
Full Title                                 C   N=           2
Title Card Required     
Route                                      C   N=           6
#P opt freq m062x/6-311++g(d,p) geom=connectivity temperatur
e=0.001     
Charge                                     I                1
Multiplicity                               I                1
Number of electrons                        I               26
Number of alpha electrons                  I               13
Number of beta electrons                   I               13
Number of basis functions                  I              108
Number of independent functions            I              108
Number of point charges in /Mol/           I                0
Number of translation vectors              I                0
Atomic numbers                             I   N=           9
           6           7           8           1           1           1
           1           1           1
Nuclear charges                            R   N=           9
  6.00000000E+00  7.00000000E+00  8.00000000E+00  1.00000000E+00  1.00000000E+00
  1.00000000E+00  1.00000000E+00  1.00000000E+00  1.00000000E+00
Current cartesian coordinates              R   N=          27
  2.28009639E+00 -4.64159969E-01  3.31181731E-04 -1.46154916E-01  9.88059200E-01
 -1.33373123E-04 -2.10999240E+00 -7.68254202E-01 -5.22641856E-04  2.29698403E+00
 -1.62473631E+00 -1.69478484E+00  3.82459996E+00  8.96055340E-01  1.81384589E-04
  2.29593518E+00 -1.62554144E+00  1.69482583E+00 -2.45995512E-01  2.11278768E+00
  1.58050829E+00 -3.70326822E+00  1.43421602E-01  3.32397741E-03 -2.45810148E-01
  2.11259215E+00 -1.58092699E+00
Number of symbols in /Mol/                 I                0
Force Field                                I                0
Atom Types                                 C   N=           9
                                                            
                                                
Int Atom Types                             I   N=           9
           0           0           0           0           0           0
           0           0           0
MM charges                                 R   N=           9
  0.00000000E+00  0.00000000E+00  0.00000000E+00  0.00000000E+00  0.00000000E+00
  0.00000000E+00  0.00000000E+00  0.00000000E+00  0.00000000E+00
Integer atomic weights                     I   N=           9
          12          14          16           1           1           1
           1           1           1
Real atomic weights                        R   N=           9
  1.20000000E+01  1.40030740E+01  1.59949146E+01  1.00782504E+00  1.00782504E+00
  1.00782504E+00  1.00782504E+00  1.00782504E+00  1.00782504E+00
Atom fragment info                         I   N=           9
           0           0           0           0           0           0
           0           0           0
Atom residue num                           I   N=           9
           0           0           0           0           0           0
           0           0           0
Nuclear spins                              I   N=           9
           0           2           0           1           1           1
           1           1           1
Nuclear ZEff                               R   N=           9
 -3.60000000E+00 -4.55000000E+00 -5.60000000E+00 -1.00000000E+00 -1.00000000E+00
 -1.00000000E+00 -1.00000000E+00 -1.00000000E+00 -1.00000000E+00
Nuclear ZNuc                               R   N=           9
  6.00000000E+00  7.00000000E+00  8.00000000E+00  1.00000000E+00  1.00000000E+00
  1.00000000E+00  1.00000000E+00  1.00000000E+00  1.00000000E+00
Nuclear QMom                               R   N=           9
  0.00000000E+00  2.04400000E+00  0.00000000E+00  0.00000000E+00  0.00000000E+00
  0.00000000E+00  0.00000000E+00  0.00000000E+00  0.00000000E+00
Nuclear GFac                               R   N=           9
  0.00000000E+00  4.03761000E-01  0.00000000E+00  2.79284600E+00  2.79284600E+00
  2.79284600E+00  2.79284600E+00  2.79284600E+00  2.79284600E+00
MicOpt                                     I   N=           9
          -1          -1          -1          -1          -1          -1
          -1          -1          -1
Number of residues                         I                0
Number of secondary structures             I                0
Redundant internal dimensions              I   N=           4
          33           8          13          12
Redundant internal coordinate indices      I   N=         132
           1           2           0           0           1           4
           0           0           1           5           0           0
           1           6           0           0           2           3
           0           0           2           7           0           0
           2           9           0           0           3           8
           0           0           2           1           4           0
           2           1           5           0           2           1
           6           0           4           1           5           0
           4           1           6           0           5           1
           6           0           1           2           3           0
           1           2           7           0           1           2
           9           0           3           2           7           0
           3           2           9           0           7           2
           9           0           2           3           8           0
           4           1           2           3           4           1
           2           7           4           1           2           9
           5           1           2           3           5           1
           2           7           5           1           2           9
           6           1           2           3           6           1
           2           7           6           1           2           9
           1           2           3           8           7           2
           3           8           9           2           3           8
Redundant internal coordinates             R   N=          33
  2.82765559E+00  2.05441986E+00  2.05807604E+00  2.05435389E+00  2.63463367E+00
  1.94252680E+00  1.94252773E+00  1.83567301E+00  1.87239388E+00  1.88020546E+00
  1.87243977E+00  1.94672187E+00  1.94029466E+00  1.94755417E+00  1.87257200E+00
  1.91912784E+00  1.91927003E+00  1.92600601E+00  1.92575366E+00  1.90112590E+00
  1.89219040E+00  1.04337755E+00  3.13841852E+00 -1.05143987E+00  3.14136012E+00
 -1.04678422E+00  1.04654269E+00 -1.04283227E+00  1.05220870E+00 -3.13764969E+00
  3.13920882E+00  1.04855616E+00 -1.05329589E+00
ZRed-IntVec                                I   N=          33
           0           0           0           0           0           0
           0           0           0           0           0           0
           0           0           0           0           0           0
           0           0           0           0           0           0
           0           0           0           0           0           0
           0           0           0
ZRed-FPVec                                 R   N=          33
  0.00000000E+00  0.00000000E+00  0.00000000E+00  0.00000000E+00  0.00000000E+00
  0.00000000E+00  0.00000000E+00  0.00000000E+00  0.00000000E+00  0.00000000E+00
  0.00000000E+00  0.00000000E+00  0.00000000E+00  0.00000000E+00  0.00000000E+00
  0.00000000E+00  0.00000000E+00  0.00000000E+00  0.00000000E+00  0.00000000E+00
  0.00000000E+00  0.00000000E+00  0.00000000E+00  0.00000000E+00  0.00000000E+00
  0.00000000E+00  0.00000000E+00  0.00000000E+00  0.00000000E+00  0.00000000E+00
  0.00000000E+00  0.00000000E+00  0.00000000E+00
ZRed-Constraint1                           R   N=          33
  2.82765559E+00  2.05441986E+00  2.05807604E+00  2.05435389E+00  2.63463367E+00
  1.94252680E+00  1.94252773E+00  1.83567301E+00  1.87239388E+00  1.88020546E+00
  1.87243977E+00  1.94672187E+00  1.94029466E+00  1.94755417E+00  1.87257200E+00
  1.91912784E+00  1.91927003E+00  1.92600601E+00  1.92575366E+00  1.90112590E+00
  1.89219040E+00  1.04337755E+00  3.13841852E+00 -1.05143987E+00  3.14136012E+00
 -1.04678422E+00  1.04654269E+00 -1.04283227E+00  1.05220870E+00 -3.13764969E+00
  3.13920882E+00  1.04855616E+00 -1.05329589E+00
ZRed-Constraint2                           R   N=          33
  2.77609642E+00  2.05986182E+00  2.05985755E+00  2.05975096E+00  2.56129018E+00
  1.88972613E+00  1.88972613E+00  1.81419902E+00  1.91057441E+00  1.91060385E+00
  1.91063877E+00  1.91056917E+00  1.91064504E+00  1.91076817E+00  1.90590666E+00
  1.91157647E+00  1.91157647E+00  1.91157646E+00  1.91157647E+00  1.91158025E+00
  1.91055981E+00  6.61145749E-01  2.75438119E+00 -1.43208969E+00  2.75540838E+00
 -1.43454149E+00  6.62172935E-01 -1.43323117E+00  6.60004268E-01  2.75671869E+00
 -2.00901421E+00  2.18093565E+00  8.42212319E-02
SymInf integers                            I   N=          26
           1           1           1           1           1           0
           0           0           0           0           0           0
           0           0           0           0           0           0
           0           0           0           0           0           0
           0           0
RotTr to input orientation                 R   N=          12
  5.55930683E-01 -2.00161853E-01 -8.06769055E-01 -6.46572346E-01 -7.14086198E-01
 -2.68374930E-01 -5.22384224E-01  6.70832419E-01 -5.26401547E-01  1.22064144E+00
  2.23063663E-01  8.32288921E-01
Number of contracted shells                I               48
Number of primitive shells                 I               81
Pure/Cartesian d shells                    I                0
Pure/Cartesian f shells                    I                0
Highest angular momentum                   I                2
Largest degree of contraction              I                6
Shell types                                I   N=          48
           0          -1          -1          -1          -1          -2
           0          -1          -1          -1          -1          -2
           0          -1          -1          -1          -1          -2
           0           0           0           0           1           0
           0           0           0           1           0           0
           0           0           1           0           0           0
           0           1           0           0           0           0
           1           0           0           0           0           1
Number of primitives per shell             I   N=          48
           6           3           1           1           1           1
           6           3           1           1           1           1
           6           3           1           1           1           1
           3           1           1           1           1           3
           1           1           1           1           3           1
           1           1           1           3           1           1
           1           1           3           1           1           1
           1           3           1           1           1           1
Shell to atom map                          I   N=          48
           1           1           1           1           1           1
           2           2           2           2           2           2
           3           3           3           3           3           3
           4           4           4           4           4           5
           5           5           5           5           6           6
           6           6           6           7           7           7
           7           7           8           8           8           8
           8           9           9           9           9           9
Primitive exponents                        R   N=          81
  4.56324000E+03  6.82024000E+02  1.54973000E+02  4.44553000E+01  1.30290000E+01
  1.82773000E+00  2.09642000E+01  4.80331000E+00  1.45933000E+00  4.83456000E-01
  1.45585000E-01  4.38000000E-02  6.26000000E-01  6.29348000E+03  9.49044000E+02
  2.18776000E+02  6.36916000E+01  1.88282000E+01  2.72023000E+00  3.06331000E+01
  7.02614000E+00  2.11205000E+00  6.84009000E-01  2.00878000E-01  6.39000000E-02
  9.13000000E-01  8.58850000E+03  1.29723000E+03  2.99296000E+02  8.73771000E+01
  2.56789000E+01  3.74004000E+00  4.21175000E+01  9.62837000E+00  2.85332000E+00
  9.05661000E-01  2.55611000E-01  8.45000000E-02  1.29200000E+00  3.38650000E+01
  5.09479000E+00  1.15879000E+00  3.25840000E-01  1.02741000E-01  3.60000000E-02
  7.50000000E-01  3.38650000E+01  5.09479000E+00  1.15879000E+00  3.25840000E-01
  1.02741000E-01  3.60000000E-02  7.50000000E-01  3.38650000E+01  5.09479000E+00
  1.15879000E+00  3.25840000E-01  1.02741000E-01  3.60000000E-02  7.50000000E-01
  3.38650000E+01  5.09479000E+00  1.15879000E+00  3.25840000E-01  1.02741000E-01
  3.60000000E-02  7.50000000E-01  3.38650000E+01  5.09479000E+00  1.15879000E+00
  3.25840000E-01  1.02741000E-01  3.60000000E-02  7.50000000E-01  3.38650000E+01
  5.09479000E+00  1.15879000E+00  3.25840000E-01  1.02741000E-01  3.60000000E-02
  7.50000000E-01
Contraction coefficients                   R   N=          81
  1.96665025E-03  1.52306019E-02  7.61269097E-02  2.60801033E-01  6.16462078E-01
  2.21006028E-01  1.14660081E-01  9.19999648E-01 -3.03068213E-03  1.00000000E+00
  1.00000000E+00  1.00000000E+00  1.00000000E+00  1.96978815E-03  1.49612859E-02
  7.35005308E-02  2.48936766E-01  6.02459433E-01  2.56201759E-01  1.11906080E-01
  9.21666655E-01 -2.56919183E-03  1.00000000E+00  1.00000000E+00  1.00000000E+00
  1.00000000E+00  1.89515008E-03  1.43859006E-02  7.07320031E-02  2.40001011E-01
  5.94797026E-01  2.80802012E-01  1.13889012E-01  9.20811101E-01 -3.27447036E-03
  1.00000000E+00  1.00000000E+00  1.00000000E+00  1.00000000E+00  2.54938145E-02
  1.90373109E-01  8.52161486E-01  1.00000000E+00  1.00000000E+00  1.00000000E+00
  1.00000000E+00  2.54938145E-02  1.90373109E-01  8.52161486E-01  1.00000000E+00
  1.00000000E+00  1.00000000E+00  1.00000000E+00  2.54938145E-02  1.90373109E-01
  8.52161486E-01  1.00000000E+00  1.00000000E+00  1.00000000E+00  1.00000000E+00
  2.54938145E-02  1.90373109E-01  8.52161486E-01  1.00000000E+00  1.00000000E+00
  1.00000000E+00  1.00000000E+00  2.54938145E-02  1.90373109E-01  8.52161486E-01
  1.00000000E+00  1.00000000E+00  1.00000000E+00  1.00000000E+00  2.54938145E-02
  1.90373109E-01  8.52161486E-01  1.00000000E+00  1.00000000E+00  1.00000000E+00
  1.00000000E+00
P(S=P) Contraction coefficients            R   N=          81
  0.00000000E+00  0.00000000E+00  0.00000000E+00  0.00000000E+00  0.00000000E+00
  0.00000000E+00  4.02486927E-02  2.37593957E-01  8.15853851E-01  1.00000000E+00
  1.00000000E+00  1.00000000E+00  0.00000000E+00  0.00000000E+00  0.00000000E+00
  0.00000000E+00  0.00000000E+00  0.00000000E+00  0.00000000E+00  3.83119186E-02
  2.37403116E-01  8.17592398E-01  1.00000000E+00  1.00000000E+00  1.00000000E+00
  0.00000000E+00  0.00000000E+00  0.00000000E+00  0.00000000E+00  0.00000000E+00
  0.00000000E+00  0.00000000E+00  3.65113974E-02  2.37152983E-01  8.19701941E-01
  1.00000000E+00  1.00000000E+00  1.00000000E+00  0.00000000E+00  0.00000000E+00
  0.00000000E+00  0.00000000E+00  0.00000000E+00  0.00000000E+00  0.00000000E+00
  0.00000000E+00  0.00000000E+00  0.00000000E+00  0.00000000E+00  0.00000000E+00
  0.00000000E+00  0.00000000E+00  0.00000000E+00  0.00000000E+00  0.00000000E+00
  0.00000000E+00  0.00000000E+00  0.00000000E+00  0.00000000E+00  0.00000000E+00
  0.00000000E+00  0.00000000E+00  0.00000000E+00  0.00000000E+00  0.00000000E+00
  0.00000000E+00  0.00000000E+00  0.00000000E+00  0.00000000E+00  0.00000000E+00
  0.00000000E+00  0.00000000E+00  0.00000000E+00  0.00000000E+00  0.00000000E+00
  0.00000000E+00  0.00000000E+00  0.00000000E+00  0.00000000E+00  0.00000000E+00
  0.00000000E+00
Coordinates of each shell                  R   N=         144
  2.28009639E+00 -4.64159969E-01  3.31181731E-04  2.28009639E+00 -4.64159969E-01
  3.31181731E-04  2.28009639E+00 -4.64159969E-01  3.31181731E-04  2.28009639E+00
 -4.64159969E-01  3.31181731E-04  2.28009639E+00 -4.64159969E-01  3.31181731E-04
  2.28009639E+00 -4.64159969E-01  3.31181731E-04 -1.46154916E-01  9.88059200E-01
 -1.33373123E-04 -1.46154916E-01  9.88059200E-01 -1.33373123E-04 -1.46154916E-01
  9.88059200E-01 -1.33373123E-04 -1.46154916E-01  9.88059200E-01 -1.33373123E-04
 -1.46154916E-01  9.88059200E-01 -1.33373123E-04 -1.46154916E-01  9.88059200E-01
 -1.33373123E-04 -2.10999240E+00 -7.68254202E-01 -5.22641856E-04 -2.10999240E+00
 -7.68254202E-01 -5.22641856E-04 -2.10999240E+00 -7.68254202E-01 -5.22641856E-04
 -2.10999240E+00 -7.68254202E-01 -5.22641856E-04 -2.10999240E+00 -7.68254202E-01
 -5.22641856E-04 -2.10999240E+00 -7.68254202E-01 -5.22641856E-04  2.29698403E+00
 -1.62473631E+00 -1.69478484E+00  2.29698403E+00 -1.62473631E+00 -1.69478484E+00
  2.29698403E+00 -1.62473631E+00 -1.69478484E+00  2.29698403E+00 -1.62473631E+00
 -1.69478484E+00  2.29698403E+00 -1.62473631E+00 -1.69478484E+00  3.82459996E+00
  8.96055340E-01  1.81384589E-04  3.82459996E+00  8.96055340E-01  1.81384589E-04
  3.82459996E+00  8.96055340E-01  1.81384589E-04  3.82459996E+00  8.96055340E-01
  1.81384589E-04  3.82459996E+00  8.96055340E-01  1.81384589E-04  2.29593518E+00
 -1.62554144E+00  1.69482583E+00  2.29593518E+00 -1.62554144E+00  1.69482583E+00
  2.29593518E+00 -1.62554144E+00  1.69482583E+00  2.29593518E+00 -1.62554144E+00
  1.69482583E+00  2.29593518E+00 -1.62554144E+00  1.69482583E+00 -2.45995512E-01
  2.11278768E+00  1.58050829E+00 -2.45995512E-01  2.11278768E+00  1.58050829E+00
 -2.45995512E-01  2.11278768E+00  1.58050829E+00 -2.45995512E-01  2.11278768E+00
  1.58050829E+00 -2.45995512E-01  2.11278768E+00  1.58050829E+00 -3.70326822E+00
  1.43421602E-01  3.32397741E-03 -3.70326822E+00  1.43421602E-01  3.32397741E-03
 -3.70326822E+00  1.43421602E-01  3.32397741E-03 -3.70326822E+00  1.43421602E-01
  3.32397741E-03 -3.70326822E+00  1.43421602E-01  3.32397741E-03 -2.45810148E-01
  2.11259215E+00 -1.58092699E+00 -2.45810148E-01  2.11259215E+00 -1.58092699E+00
 -2.45810148E-01  2.11259215E+00 -1.58092699E+00 -2.45810148E-01  2.11259215E+00
 -1.58092699E+00 -2.45810148E-01  2.11259215E+00 -1.58092699E+00
Num ILSW                                   I              100
ILSW                                       I   N=         100
           0           0           0           0           2           0
           0           0           0           0        4336          -1
           5           0           0           0           2           0
           0           0           0           0           1           0
           1           0           0           0           0           0
           0           0      100000           0          -1           0
           0           0           0           0           0           0
           0           0           0           1           0           0
           0 -2000000000           1           0           0           0
           0           0           4          52           0           0
           0           0          55           0           0           0
           0           0           0           9           0           1
           0           0           0           0           0           0
           0           0           0           0           0           0
           0           0           0           0           0           0
           0           0           0           0           0           0
           0           0           0           0
Num RLSW                                   I               52
RLSW                                       R   N=          52
  1.00000000E+00  1.00000000E+00  1.00000000E+00  1.00000000E+00  5.40000000E-01
  0.00000000E+00  0.00000000E+00  1.00000000E+00  0.00000000E+00  0.00000000E+00
  0.00000000E+00  0.00000000E+00  1.00000000E+00  0.00000000E+00  0.00000000E+00
  0.00000000E+00  0.00000000E+00  1.00000000E+00  0.00000000E+00  0.00000000E+00
  0.00000000E+00  0.00000000E+00  1.00000000E+00  0.00000000E+00  0.00000000E+00
  0.00000000E+00  0.00000000E+00  1.00000000E+00  0.00000000E+00  0.00000000E+00
  0.00000000E+00  0.00000000E+00  1.00000000E+00  0.00000000E+00  0.00000000E+00
  0.00000000E+00  0.00000000E+00  0.00000000E+00  1.00000000E+00  1.00000000E+00
  0.00000000E+00  1.00000000E+00  0.00000000E+00  0.00000000E+00  0.00000000E+00
  0.00000000E+00  0.00000000E+00  0.00000000E+00  0.00000000E+00  0.00000000E+00
  0.00000000E+00  0.00000000E+00
MxBond                                     I                4
NBond                                      I   N=           9
           4           4           2           1           1           1
           1           1           1
IBond                                      I   N=          36
           2           4           5           6           1           3
           7           9           2           8           0           0
           1           0           0           0           1           0
           0           0           1           0           0           0
           2           0           0           0           3           0
           0           0           2           0           0           0
RBond                                      R   N=          36
  1.00000000E+00  1.00000000E+00  1.00000000E+00  1.00000000E+00  1.00000000E+00
  1.00000000E+00  1.00000000E+00  1.00000000E+00  1.00000000E+00  1.00000000E+00
  0.00000000E+00  0.00000000E+00  1.00000000E+00  0.00000000E+00  0.00000000E+00
  0.00000000E+00  1.00000000E+00  0.00000000E+00  0.00000000E+00  0.00000000E+00
  1.00000000E+00  0.00000000E+00  0.00000000E+00  0.00000000E+00  1.00000000E+00
  0.00000000E+00  0.00000000E+00  0.00000000E+00  1.00000000E+00  0.00000000E+00
  0.00000000E+00  0.00000000E+00  1.00000000E+00  0.00000000E+00  0.00000000E+00
  0.00000000E+00
Virial Ratio                               R      2.003333688628058E+00
SCF Energy                                 R     -1.713381127954174E+02
Total Energy                               R     -1.713381127954174E+02
RMS Force                                  R      6.568065060376872E-05
RMS Density                                R      5.551704404006232E-09
NImag                                      I                0
Job Status                                 I                1
Nuclear derivative order                   I                2
External E-field                           R   N=          35
  0.00000000E+00  0.00000000E+00  0.00000000E+00  0.00000000E+00  0.00000000E+00
  0.00000000E+00  0.00000000E+00  0.00000000E+00  0.00000000E+00  0.00000000E+00
  0.00000000E+00  0.00000000E+00  0.00000000E+00  0.00000000E+00  0.00000000E+00
  0.00000000E+00  0.00000000E+00  0.00000000E+00  0.00000000E+00  0.00000000E+00
  0.00000000E+00  0.00000000E+00  0.00000000E+00  0.00000000E+00  0.00000000E+00
  0.00000000E+00  0.00000000E+00  0.00000000E+00  0.00000000E+00  0.00000000E+00
  0.00000000E+00  0.00000000E+00  0.00000000E+00  0.00000000E+00  0.00000000E+00
IOpCl                                      I                0
IROHF                                      I                0
Alpha Orbital Energies                     R   N=         108
 -1.99188703E+01 -1.51519588E+01 -1.07997913E+01 -1.49479253E+00 -1.25253896E+00
 -1.03030211E+00 -9.23371506E-01 -9.20398414E-01 -7.94728555E-01 -7.12001967E-01
 -7.01286503E-01 -6.95580614E-01 -6.46993651E-01 -1.93047854E-01 -1.57306623E-01
 -1.42331212E-01 -1.26530628E-01 -1.01388184E-01 -8.74802703E-02 -7.61341459E-02
 -7.27098696E-02 -5.56501206E-02 -5.22660983E-02 -4.17741179E-02 -1.75825363E-02
 -5.41247107E-03  6.43330174E-04  1.11308059E-02  2.51504531E-02  2.68899656E-02
  4.45157296E-02  5.36214199E-02  5.93433881E-02  8.60903485E-02  8.63773653E-02
  1.13665752E-01  1.34554487E-01  1.62566598E-01  2.13903664E-01  2.79840442E-01
  2.98325169E-01  3.30439874E-01  3.58036418E-01  3.79922981E-01  4.45455233E-01
  4.80028922E-01  4.84437305E-01  5.08592603E-01  5.49361571E-01  5.57590928E-01
  5.69886777E-01  6.94913815E-01  7.80052370E-01  8.12067644E-01  8.86396958E-01
  9.61603241E-01  1.02097639E+00  1.08436242E+00  1.09809407E+00  1.18720665E+00
  1.20504375E+00  1.27642133E+00  1.35033176E+00  1.36802356E+00  1.39343687E+00
  1.45969076E+00  1.46042370E+00  1.54395296E+00  1.55025260E+00  1.60636680E+00
  1.63240305E+00  1.67523080E+00  1.73024696E+00  1.86624757E+00  1.89324745E+00
  1.90546592E+00  1.98444097E+00  2.13050965E+00  2.17548243E+00  2.24421650E+00
  2.26959908E+00  2.29152086E+00  2.32819355E+00  2.39772770E+00  2.42639510E+00
  2.47646547E+00  2.49940108E+00  2.56478576E+00  2.65415861E+00  2.80066062E+00
  2.81228761E+00  2.90877285E+00  3.02685343E+00  3.05483298E+00  3.14268314E+00
  3.27758648E+00  3.60858732E+00  3.62820851E+00  3.67562650E+00  4.19467904E+00
  4.43334743E+00  4.51070338E+00  4.86250363E+00  5.23976699E+00  5.56599696E+00
  2.37723507E+01  3.52520348E+01  4.97455330E+01
Alpha MO coefficients                      R   N=       11664
 -3.81182285E-07  6.36345313E-06 -2.32720026E-05  3.08007098E-05  1.16854449E-09
 -9.00870709E-05  2.11552712E-04 -1.81501206E-04 -8.84603098E-09  3.04197064E-04
 -7.35720188E-05  2.69030379E-04  2.12592818E-08 -3.89159376E-04  4.46925757E-04
  6.44135273E-04  3.05300880E-07  1.82631939E-05 -4.31498159E-08  1.05836311E-08
 -5.12023461E-05  5.61803678E-05  8.08922945E-06 -2.76715190E-05 -3.39239540E-05
 -7.51160444E-05 -2.31610468E-08  3.04359512E-05 -1.99831376E-04  4.10935256E-05
  1.01292674E-08  1.39126357E-03 -4.93190815E-04 -5.44820504E-04 -3.10093819E-07
 -1.09041101E-02  1.95936963E-03  1.88078631E-03  6.54334359E-07  3.41382058E-05
 -7.91957922E-09 -1.45290678E-08  7.93567423E-06  7.48388955E-06  5.52837049E-01
  4.69539516E-01  1.01850593E-04  1.88452789E-03  3.07401609E-06  8.96513158E-03
 -1.06463357E-04 -4.55924907E-04 -5.69867735E-07 -5.87259531E-03 -9.07673825E-04
 -3.82185529E-04  4.89157687E-07  1.05075169E-02  2.04654876E-03  1.66086795E-03
  5.66317192E-07 -2.44914801E-05 -3.68435309E-07  1.25848873E-07  6.95562603E-05
 -1.17937671E-04  5.39177546E-05 -3.16629752E-04  8.17432403E-04  5.79815481E-04
  7.52359188E-05 -4.13769347E-05 -7.10008168E-05 -7.81906165E-06 -6.35087842E-05
  2.15652020E-05 -1.17152576E-03  9.62343570E-06  2.51806139E-05 -2.13853386E-09
  5.38784010E-05 -3.16539167E-04  8.17122576E-04  5.79233195E-04  7.52353277E-05
 -4.13954731E-05  7.10102764E-05  3.34721900E-05 -6.38819394E-04  1.51828154E-03
  2.93580266E-04  7.02684524E-05  1.34997171E-04  7.77808546E-05  1.45246830E-04
 -1.45128228E-04 -5.97338889E-04  4.30568841E-04 -2.82356814E-04  2.48599770E-04
  8.21391202E-07  3.34831066E-05 -6.39103824E-04  1.51849392E-03  2.94244897E-04
  7.02526429E-05  1.34946696E-04 -7.77636460E-05  1.35688452E-05 -3.86067250E-05
 -1.53236186E-04  1.24415242E-04  1.59966598E-08  1.52698718E-04  1.27142433E-04
 -1.72813878E-04 -1.99685085E-07  3.06559640E-03 -1.11735181E-03  6.70915235E-04
 -6.18739010E-07 -2.88153983E-03  4.73425383E-04 -4.25607027E-04  1.21336738E-06
  1.35716605E-04 -1.94744487E-07 -1.03181432E-08 -3.54208322E-05  2.28406387E-04
  5.58881506E-01  4.65870730E-01 -6.37755147E-04 -3.57440098E-04  1.72761316E-07
  9.89492252E-03  3.90172800E-04  7.01347733E-04 -8.12952878E-08 -5.71456819E-03
 -7.21323525E-04  1.39325722E-03  4.37861152E-08 -3.08575487E-03  1.16635186E-03
 -7.95279638E-06 -1.83633726E-06  3.34914713E-04 -2.55786837E-08  5.89711311E-08
 -2.29235141E-04 -6.05992297E-05 -2.85961837E-05 -5.34000541E-05  6.21644693E-05
  7.39808591E-05  1.68776182E-08  2.03136299E-04  9.62594374E-05  3.91760830E-05
  3.09919031E-08  2.40923099E-04  3.32010232E-04  2.63959079E-04  1.02951236E-07
  4.11769609E-03  3.06905268E-04  1.09375501E-03  1.71701699E-06  1.59524727E-05
 -1.53128226E-08  5.48732872E-08  1.54881920E-05 -2.62018599E-05  6.56077185E-06
 -6.79482338E-04  4.52019489E-04  2.67378979E-04  1.33324663E-05 -9.28078863E-05
 -1.29334304E-04  4.43195294E-05 -7.55085827E-04  3.78309862E-04  3.97620091E-04
  1.58171284E-04  9.26431483E-05  1.15987478E-07  6.50757998E-06 -6.78880487E-04
  4.51644630E-04  2.65231078E-04  1.34062437E-05 -9.27577382E-05  1.29302831E-04
  1.29066535E-04 -9.02730276E-04  1.42004347E-03  1.68712268E-04 -4.64232596E-05
  4.10044585E-04  7.77996074E-04 -7.20180714E-06 -9.54320489E-05 -9.07180888E-04
  2.89417927E-04 -1.20887718E-05 -3.37000941E-05  3.56853854E-08  1.28997225E-04
 -9.02151863E-04  1.41722009E-03  1.67992184E-04 -4.62702926E-05  4.09969452E-04
 -7.78079197E-04  5.64140835E-01  4.63722678E-01 -1.16752464E-03  8.31925178E-04
 -2.02622055E-07  1.31120948E-02  1.48013354E-03 -9.90830351E-04 -5.88054090E-07
 -6.06974342E-03  5.74090519E-04 -2.69507680E-04 -1.53088284E-07 -1.55080155E-02
  1.86739567E-03 -1.09931489E-03  2.10237134E-06  4.23513503E-04 -9.63906277E-07
 -5.63850534E-07 -3.56531023E-04  6.45184257E-04 -4.49395042E-05 -1.01325549E-04
  1.62879324E-04 -1.16922293E-04  4.15691516E-08  4.74799886E-04  1.45732051E-04
 -1.39248998E-05 -3.29100965E-08 -1.30887525E-04 -3.54029403E-04  1.86826402E-04
  3.41192178E-07  1.30968768E-02  1.70734400E-03 -2.20656992E-03  1.74154594E-06
  1.01168731E-04 -3.59208385E-08  3.41811672E-08 -7.55500129E-05  1.24903494E-04