Title Card Required                                                     
Freq      RM062X                                                      6-311++G(d,p)       
Number of atoms                            I                9
Info1-9                                    I   N=           9
          28          28        1002           0           0         100
           6          18        -502
Full Title                                 C   N=           2
Title Card Required     
Route                                      C   N=           6
#p opt freq m062x/6-311++g(d,p) geom=connectivity temperatur
e=0.001     
Charge                                     I                1
Multiplicity                               I                1
Number of electrons                        I               26
Number of alpha electrons                  I               13
Number of beta electrons                   I               13
Number of basis functions                  I              108
Number of independent functions            I              108
Number of point charges in /Mol/           I                0
Number of translation vectors              I                0
Atomic numbers                             I   N=           9
           6           7           8           1           1           1
           1           1           1
Nuclear charges                            R   N=           9
  6.00000000E+00  7.00000000E+00  8.00000000E+00  1.00000000E+00  1.00000000E+00
  1.00000000E+00  1.00000000E+00  1.00000000E+00  1.00000000E+00
Current cartesian coordinates              R   N=          27
  2.32718973E+00 -4.97586670E-01 -1.18685977E-02  1.22239163E-01  1.15381621E+00
 -1.84586722E-01 -2.15662967E+00 -5.00973949E-01 -6.04473671E-02  2.39621325E+00
 -1.70391521E+00 -1.67417480E+00  3.92634476E+00  8.09425189E-01 -7.82183790E-02
  2.41723934E+00 -1.59769990E+00  1.73266599E+00 -5.96701136E-02  2.27362005E+00
  1.37975446E+00 -3.49794936E+00  2.08943855E-01 -1.10869725E+00 -2.74795302E+00
 -1.07377587E+00  1.59556756E+00
Number of symbols in /Mol/                 I                0
Force Field                                I                0
Atom Types                                 C   N=           9
                                                            
                                                
Int Atom Types                             I   N=           9
           0           0           0           0           0           0
           0           0           0
MM charges                                 R   N=           9
  0.00000000E+00  0.00000000E+00  0.00000000E+00  0.00000000E+00  0.00000000E+00
  0.00000000E+00  0.00000000E+00  0.00000000E+00  0.00000000E+00
Integer atomic weights                     I   N=           9
          12          14          16           1           1           1
           1           1           1
Real atomic weights                        R   N=           9
  1.20000000E+01  1.40030740E+01  1.59949146E+01  1.00782504E+00  1.00782504E+00
  1.00782504E+00  1.00782504E+00  1.00782504E+00  1.00782504E+00
Atom fragment info                         I   N=           9
           0           0           0           0           0           0
           0           0           0
Atom residue num                           I   N=           9
           0           0           0           0           0           0
           0           0           0
Nuclear spins                              I   N=           9
           0           2           0           1           1           1
           1           1           1
Nuclear ZEff                               R   N=           9
 -3.60000000E+00 -4.55000000E+00 -5.60000000E+00 -1.00000000E+00 -1.00000000E+00
 -1.00000000E+00 -1.00000000E+00 -1.00000000E+00 -1.00000000E+00
Nuclear ZNuc                               R   N=           9
  6.00000000E+00  7.00000000E+00  8.00000000E+00  1.00000000E+00  1.00000000E+00
  1.00000000E+00  1.00000000E+00  1.00000000E+00  1.00000000E+00
Nuclear QMom                               R   N=           9
  0.00000000E+00  2.04400000E+00  0.00000000E+00  0.00000000E+00  0.00000000E+00
  0.00000000E+00  0.00000000E+00  0.00000000E+00  0.00000000E+00
Nuclear GFac                               R   N=           9
  0.00000000E+00  4.03761000E-01  0.00000000E+00  2.79284600E+00  2.79284600E+00
  2.79284600E+00  2.79284600E+00  2.79284600E+00  2.79284600E+00
MicOpt                                     I   N=           9
          -1          -1          -1          -1          -1          -1
          -1          -1          -1
Number of residues                         I                0
Number of secondary structures             I                0
Redundant internal dimensions              I   N=           4
          30           8          12          10
Redundant internal coordinate indices      I   N=         120
           1           2           0           0           1           4
           0           0           1           5           0           0
           1           6           0           0           2           3
           0           0           2           7           0           0
           3           8           0           0           3           9
           0           0           2           1           4           0
           2           1           5           0           2           1
           6           0           4           1           5           0
           4           1           6           0           5           1
           6           0           1           2           3           0
           1           2           7           0           3           2
           7           0           2           3           8           0
           2           3           9           0           8           3
           9           0           4           1           2           3
           4           1           2           7           5           1
           2           3           5           1           2           7
           6           1           2           3           6           1
           2           7           1           2           3           8
           1           2           3           9           7           2
           3           8           7           2           3           9
Redundant internal coordinates             R   N=          30
  2.76021195E+00  2.05505589E+00  2.06639278E+00  2.06440281E+00  2.81903959E+00
  1.93241169E+00  1.84443748E+00  1.84936497E+00  1.90436131E+00  1.81087117E+00
  1.98947085E+00  1.89580905E+00  1.94902548E+00  1.90756459E+00  1.86691637E+00
  1.95114322E+00  1.80124485E+00  1.91443346E+00  2.07113274E+00  1.97751720E+00
  1.14006953E+00  3.09976221E+00 -3.12477666E+00 -1.16508398E+00 -1.05185851E+00
  9.07834162E-01 -2.55189105E+00  1.42020372E+00  1.67091893E+00 -6.40171612E-01
ZRed-IntVec                                I   N=          30
           0           0           0           0           0           0
           0           0           0           0           0           0
           0           0           0           0           0           0
           0           0           0           0           0           0
           0           0           0           0           0           0
ZRed-FPVec                                 R   N=          30
  0.00000000E+00  0.00000000E+00  0.00000000E+00  0.00000000E+00  0.00000000E+00
  0.00000000E+00  0.00000000E+00  0.00000000E+00  0.00000000E+00  0.00000000E+00
  0.00000000E+00  0.00000000E+00  0.00000000E+00  0.00000000E+00  0.00000000E+00
  0.00000000E+00  0.00000000E+00  0.00000000E+00  0.00000000E+00  0.00000000E+00
  0.00000000E+00  0.00000000E+00  0.00000000E+00  0.00000000E+00  0.00000000E+00
  0.00000000E+00  0.00000000E+00  0.00000000E+00  0.00000000E+00  0.00000000E+00
ZRed-Constraint1                           R   N=          30
  2.76021195E+00  2.05505589E+00  2.06639278E+00  2.06440281E+00  2.81903959E+00
  1.93241169E+00  1.84443748E+00  1.84936497E+00  1.90436131E+00  1.81087117E+00
  1.98947085E+00  1.89580905E+00  1.94902548E+00  1.90756459E+00  1.86691637E+00
  1.95114322E+00  1.80124485E+00  1.91443346E+00  2.07113274E+00  1.97751720E+00
  1.14006953E+00  3.09976221E+00 -3.12477666E+00 -1.16508398E+00 -1.05185851E+00
  9.07834162E-01 -2.55189105E+00  1.42020372E+00  1.67091893E+00 -6.40171612E-01
ZRed-Constraint2                           R   N=          30
  2.77609642E+00  2.05986182E+00  2.05985755E+00  2.05975096E+00  2.56129018E+00
  1.90851718E+00  1.81413708E+00  1.81413708E+00  1.91057441E+00  1.91060385E+00
  1.91063877E+00  1.91056917E+00  1.91064504E+00  1.91076817E+00  1.90590666E+00
  2.24506039E+00  2.13221826E+00  1.91063324E+00  1.91063323E+00  1.91063324E+00
  6.61145749E-01 -2.48050124E+00  2.75540838E+00 -3.86238611E-01 -1.43323117E+00
  1.70830715E+00 -2.51822496E+00  1.67056525E+00  6.23417839E-01 -1.47097727E+00
SymInf integers                            I   N=          26
           1           1           1           1           1           0
           0           0           0           0           0           0
           0           0           0           0           0           0
           0           0           0           0           0           0
           0           0
RotTr to input orientation                 R   N=          12
  6.06957047E-01 -2.81178490E-01 -7.43331554E-01 -5.48988222E-01 -8.24636047E-01
 -1.36335328E-01 -5.74643433E-01  4.90829956E-01 -6.54882340E-01  1.03499832E+00
  2.80962621E-01  9.13419348E-01
Number of contracted shells                I               48
Number of primitive shells                 I               81
Pure/Cartesian d shells                    I                0
Pure/Cartesian f shells                    I                0
Highest angular momentum                   I                2
Largest degree of contraction              I                6
Shell types                                I   N=          48
           0          -1          -1          -1          -1          -2
           0          -1          -1          -1          -1          -2
           0          -1          -1          -1          -1          -2
           0           0           0           0           1           0
           0           0           0           1           0           0
           0           0           1           0           0           0
           0           1           0           0           0           0
           1           0           0           0           0           1
Number of primitives per shell             I   N=          48
           6           3           1           1           1           1
           6           3           1           1           1           1
           6           3           1           1           1           1
           3           1           1           1           1           3
           1           1           1           1           3           1
           1           1           1           3           1           1
           1           1           3           1           1           1
           1           3           1           1           1           1
Shell to atom map                          I   N=          48
           1           1           1           1           1           1
           2           2           2           2           2           2
           3           3           3           3           3           3
           4           4           4           4           4           5
           5           5           5           5           6           6
           6           6           6           7           7           7
           7           7           8           8           8           8
           8           9           9           9           9           9
Primitive exponents                        R   N=          81
  4.56324000E+03  6.82024000E+02  1.54973000E+02  4.44553000E+01  1.30290000E+01
  1.82773000E+00  2.09642000E+01  4.80331000E+00  1.45933000E+00  4.83456000E-01
  1.45585000E-01  4.38000000E-02  6.26000000E-01  6.29348000E+03  9.49044000E+02
  2.18776000E+02  6.36916000E+01  1.88282000E+01  2.72023000E+00  3.06331000E+01
  7.02614000E+00  2.11205000E+00  6.84009000E-01  2.00878000E-01  6.39000000E-02
  9.13000000E-01  8.58850000E+03  1.29723000E+03  2.99296000E+02  8.73771000E+01
  2.56789000E+01  3.74004000E+00  4.21175000E+01  9.62837000E+00  2.85332000E+00
  9.05661000E-01  2.55611000E-01  8.45000000E-02  1.29200000E+00  3.38650000E+01
  5.09479000E+00  1.15879000E+00  3.25840000E-01  1.02741000E-01  3.60000000E-02
  7.50000000E-01  3.38650000E+01  5.09479000E+00  1.15879000E+00  3.25840000E-01
  1.02741000E-01  3.60000000E-02  7.50000000E-01  3.38650000E+01  5.09479000E+00
  1.15879000E+00  3.25840000E-01  1.02741000E-01  3.60000000E-02  7.50000000E-01
  3.38650000E+01  5.09479000E+00  1.15879000E+00  3.25840000E-01  1.02741000E-01
  3.60000000E-02  7.50000000E-01  3.38650000E+01  5.09479000E+00  1.15879000E+00
  3.25840000E-01  1.02741000E-01  3.60000000E-02  7.50000000E-01  3.38650000E+01
  5.09479000E+00  1.15879000E+00  3.25840000E-01  1.02741000E-01  3.60000000E-02
  7.50000000E-01
Contraction coefficients                   R   N=          81
  1.96665025E-03  1.52306019E-02  7.61269097E-02  2.60801033E-01  6.16462078E-01
  2.21006028E-01  1.14660081E-01  9.19999648E-01 -3.03068213E-03  1.00000000E+00
  1.00000000E+00  1.00000000E+00  1.00000000E+00  1.96978815E-03  1.49612859E-02
  7.35005308E-02  2.48936766E-01  6.02459433E-01  2.56201759E-01  1.11906080E-01
  9.21666655E-01 -2.56919183E-03  1.00000000E+00  1.00000000E+00  1.00000000E+00
  1.00000000E+00  1.89515008E-03  1.43859006E-02  7.07320031E-02  2.40001011E-01
  5.94797026E-01  2.80802012E-01  1.13889012E-01  9.20811101E-01 -3.27447036E-03
  1.00000000E+00  1.00000000E+00  1.00000000E+00  1.00000000E+00  2.54938145E-02
  1.90373109E-01  8.52161486E-01  1.00000000E+00  1.00000000E+00  1.00000000E+00
  1.00000000E+00  2.54938145E-02  1.90373109E-01  8.52161486E-01  1.00000000E+00
  1.00000000E+00  1.00000000E+00  1.00000000E+00  2.54938145E-02  1.90373109E-01
  8.52161486E-01  1.00000000E+00  1.00000000E+00  1.00000000E+00  1.00000000E+00
  2.54938145E-02  1.90373109E-01  8.52161486E-01  1.00000000E+00  1.00000000E+00
  1.00000000E+00  1.00000000E+00  2.54938145E-02  1.90373109E-01  8.52161486E-01
  1.00000000E+00  1.00000000E+00  1.00000000E+00  1.00000000E+00  2.54938145E-02
  1.90373109E-01  8.52161486E-01  1.00000000E+00  1.00000000E+00  1.00000000E+00
  1.00000000E+00
P(S=P) Contraction coefficients            R   N=          81
  0.00000000E+00  0.00000000E+00  0.00000000E+00  0.00000000E+00  0.00000000E+00
  0.00000000E+00  4.02486927E-02  2.37593957E-01  8.15853851E-01  1.00000000E+00
  1.00000000E+00  1.00000000E+00  0.00000000E+00  0.00000000E+00  0.00000000E+00
  0.00000000E+00  0.00000000E+00  0.00000000E+00  0.00000000E+00  3.83119186E-02
  2.37403116E-01  8.17592398E-01  1.00000000E+00  1.00000000E+00  1.00000000E+00
  0.00000000E+00  0.00000000E+00  0.00000000E+00  0.00000000E+00  0.00000000E+00
  0.00000000E+00  0.00000000E+00  3.65113974E-02  2.37152983E-01  8.19701941E-01
  1.00000000E+00  1.00000000E+00  1.00000000E+00  0.00000000E+00  0.00000000E+00
  0.00000000E+00  0.00000000E+00  0.00000000E+00  0.00000000E+00  0.00000000E+00
  0.00000000E+00  0.00000000E+00  0.00000000E+00  0.00000000E+00  0.00000000E+00
  0.00000000E+00  0.00000000E+00  0.00000000E+00  0.00000000E+00  0.00000000E+00
  0.00000000E+00  0.00000000E+00  0.00000000E+00  0.00000000E+00  0.00000000E+00
  0.00000000E+00  0.00000000E+00  0.00000000E+00  0.00000000E+00  0.00000000E+00
  0.00000000E+00  0.00000000E+00  0.00000000E+00  0.00000000E+00  0.00000000E+00
  0.00000000E+00  0.00000000E+00  0.00000000E+00  0.00000000E+00  0.00000000E+00
  0.00000000E+00  0.00000000E+00  0.00000000E+00  0.00000000E+00  0.00000000E+00
  0.00000000E+00
Coordinates of each shell                  R   N=         144
  2.32718973E+00 -4.97586670E-01 -1.18685977E-02  2.32718973E+00 -4.97586670E-01
 -1.18685977E-02  2.32718973E+00 -4.97586670E-01 -1.18685977E-02  2.32718973E+00
 -4.97586670E-01 -1.18685977E-02  2.32718973E+00 -4.97586670E-01 -1.18685977E-02
  2.32718973E+00 -4.97586670E-01 -1.18685977E-02  1.22239163E-01  1.15381621E+00
 -1.84586722E-01  1.22239163E-01  1.15381621E+00 -1.84586722E-01  1.22239163E-01
  1.15381621E+00 -1.84586722E-01  1.22239163E-01  1.15381621E+00 -1.84586722E-01
  1.22239163E-01  1.15381621E+00 -1.84586722E-01  1.22239163E-01  1.15381621E+00
 -1.84586722E-01 -2.15662967E+00 -5.00973949E-01 -6.04473671E-02 -2.15662967E+00
 -5.00973949E-01 -6.04473671E-02 -2.15662967E+00 -5.00973949E-01 -6.04473671E-02
 -2.15662967E+00 -5.00973949E-01 -6.04473671E-02 -2.15662967E+00 -5.00973949E-01
 -6.04473671E-02 -2.15662967E+00 -5.00973949E-01 -6.04473671E-02  2.39621325E+00
 -1.70391521E+00 -1.67417480E+00  2.39621325E+00 -1.70391521E+00 -1.67417480E+00
  2.39621325E+00 -1.70391521E+00 -1.67417480E+00  2.39621325E+00 -1.70391521E+00
 -1.67417480E+00  2.39621325E+00 -1.70391521E+00 -1.67417480E+00  3.92634476E+00
  8.09425189E-01 -7.82183790E-02  3.92634476E+00  8.09425189E-01 -7.82183790E-02
  3.92634476E+00  8.09425189E-01 -7.82183790E-02  3.92634476E+00  8.09425189E-01
 -7.82183790E-02  3.92634476E+00  8.09425189E-01 -7.82183790E-02  2.41723934E+00
 -1.59769990E+00  1.73266599E+00  2.41723934E+00 -1.59769990E+00  1.73266599E+00
  2.41723934E+00 -1.59769990E+00  1.73266599E+00  2.41723934E+00 -1.59769990E+00
  1.73266599E+00  2.41723934E+00 -1.59769990E+00  1.73266599E+00 -5.96701136E-02
  2.27362005E+00  1.37975446E+00 -5.96701136E-02  2.27362005E+00  1.37975446E+00
 -5.96701136E-02  2.27362005E+00  1.37975446E+00 -5.96701136E-02  2.27362005E+00
  1.37975446E+00 -5.96701136E-02  2.27362005E+00  1.37975446E+00 -3.49794936E+00
  2.08943855E-01 -1.10869725E+00 -3.49794936E+00  2.08943855E-01 -1.10869725E+00
 -3.49794936E+00  2.08943855E-01 -1.10869725E+00 -3.49794936E+00  2.08943855E-01
 -1.10869725E+00 -3.49794936E+00  2.08943855E-01 -1.10869725E+00 -2.74795302E+00
 -1.07377587E+00  1.59556756E+00 -2.74795302E+00 -1.07377587E+00  1.59556756E+00
 -2.74795302E+00 -1.07377587E+00  1.59556756E+00 -2.74795302E+00 -1.07377587E+00
  1.59556756E+00 -2.74795302E+00 -1.07377587E+00  1.59556756E+00
Num ILSW                                   I              100
ILSW                                       I   N=         100
           0           0           0           0           2           0
           0           0           0           0        4336          -1
           5           0           0           0           2           0
           0           0           0           0           1           0
           1           0           0           0           0           0
           0           0      100000           0          -1           0
           0           0           0           0           0           0
           0           0           0           1           0           0
           0 -2000000000           1           0           0           0
           0           0           4          52           0           0
           0           0          55           0           0           0
           0           0           0           9           0           1
           0           0           0           0           0           0
           0           0           0           0           0           0
           0           0           0           0           0           0
           0           0           0           0           0           0
           0           0           0           0
Num RLSW                                   I               52
RLSW                                       R   N=          52
  1.00000000E+00  1.00000000E+00  1.00000000E+00  1.00000000E+00  5.40000000E-01
  0.00000000E+00  0.00000000E+00  1.00000000E+00  0.00000000E+00  0.00000000E+00
  0.00000000E+00  0.00000000E+00  1.00000000E+00  0.00000000E+00  0.00000000E+00
  0.00000000E+00  0.00000000E+00  1.00000000E+00  0.00000000E+00  0.00000000E+00
  0.00000000E+00  0.00000000E+00  1.00000000E+00  0.00000000E+00  0.00000000E+00
  0.00000000E+00  0.00000000E+00  1.00000000E+00  0.00000000E+00  0.00000000E+00
  0.00000000E+00  0.00000000E+00  1.00000000E+00  0.00000000E+00  0.00000000E+00
  0.00000000E+00  0.00000000E+00  0.00000000E+00  1.00000000E+00  1.00000000E+00
  0.00000000E+00  1.00000000E+00  0.00000000E+00  0.00000000E+00  0.00000000E+00
  0.00000000E+00  0.00000000E+00  0.00000000E+00  0.00000000E+00  0.00000000E+00
  0.00000000E+00  0.00000000E+00
MxBond                                     I                4
NBond                                      I   N=           9
           4           3           3           1           1           1
           1           1           1
IBond                                      I   N=          36
           2           4           5           6           1           3
           7           0           2           8           9           0
           1           0           0           0           1           0
           0           0           1           0           0           0
           2           0           0           0           3           0
           0           0           3           0           0           0
RBond                                      R   N=          36
  1.00000000E+00  1.00000000E+00  1.00000000E+00  1.00000000E+00  1.00000000E+00
  1.00000000E+00  1.00000000E+00  0.00000000E+00  1.00000000E+00  1.00000000E+00
  1.00000000E+00  0.00000000E+00  1.00000000E+00  0.00000000E+00  0.00000000E+00
  0.00000000E+00  1.00000000E+00  0.00000000E+00  0.00000000E+00  0.00000000E+00
  1.00000000E+00  0.00000000E+00  0.00000000E+00  0.00000000E+00  1.00000000E+00
  0.00000000E+00  0.00000000E+00  0.00000000E+00  1.00000000E+00  0.00000000E+00
  0.00000000E+00  0.00000000E+00  1.00000000E+00  0.00000000E+00  0.00000000E+00
  0.00000000E+00
Virial Ratio                               R      2.003296831838484E+00
SCF Energy                                 R     -1.712910797975958E+02
Total Energy                               R     -1.712910797975958E+02
RMS Force                                  R      1.551211897600700E-05
RMS Density                                R      9.174768142983679E-10
NImag                                      I                0
Job Status                                 I                1
Nuclear derivative order                   I                2
External E-field                           R   N=          35
  0.00000000E+00  0.00000000E+00  0.00000000E+00  0.00000000E+00  0.00000000E+00
  0.00000000E+00  0.00000000E+00  0.00000000E+00  0.00000000E+00  0.00000000E+00
  0.00000000E+00  0.00000000E+00  0.00000000E+00  0.00000000E+00  0.00000000E+00
  0.00000000E+00  0.00000000E+00  0.00000000E+00  0.00000000E+00  0.00000000E+00
  0.00000000E+00  0.00000000E+00  0.00000000E+00  0.00000000E+00  0.00000000E+00
  0.00000000E+00  0.00000000E+00  0.00000000E+00  0.00000000E+00  0.00000000E+00
  0.00000000E+00  0.00000000E+00  0.00000000E+00  0.00000000E+00  0.00000000E+00
IOpCl                                      I                0
IROHF                                      I                0
Alpha Orbital Energies                     R   N=         108
 -2.00159591E+01 -1.50603510E+01 -1.07646024E+01 -1.53479925E+00 -1.23155532E+00
 -9.94621789E-01 -9.74892402E-01 -8.99061954E-01 -7.94188269E-01 -7.34614840E-01
 -6.91509532E-01 -6.66898204E-01 -5.77824980E-01 -2.14544992E-01 -1.68955951E-01
 -1.42638175E-01 -1.20545208E-01 -1.12240499E-01 -8.19236394E-02 -7.86413741E-02
 -7.02779972E-02 -5.23928893E-02 -5.05452810E-02 -3.43504866E-02 -5.87627886E-03
  1.03640520E-04  9.40422020E-03  2.15516794E-02  2.36320352E-02  3.17282876E-02
  3.65679225E-02  5.44972616E-02  6.16646443E-02  7.09816304E-02  8.87012887E-02
  1.15085832E-01  1.42353752E-01  1.58329541E-01  1.79931393E-01  2.82491564E-01
  2.95361049E-01  3.25287584E-01  3.53365322E-01  3.83363777E-01  4.51869229E-01
  5.06921050E-01  5.20231501E-01  5.31521029E-01  6.06907087E-01  6.23909092E-01
  6.45177647E-01  7.04658396E-01  7.57700713E-01  7.73495303E-01  8.04439604E-01
  9.33429730E-01  9.58160666E-01  1.01673630E+00  1.12495361E+00  1.22351890E+00
  1.25579285E+00  1.30046173E+00  1.33070526E+00  1.36581817E+00  1.39135803E+00
  1.41225433E+00  1.46059575E+00  1.52913024E+00  1.58478959E+00  1.59903904E+00
  1.60669318E+00  1.72115120E+00  1.76424080E+00  1.84491658E+00  1.87042024E+00
  1.91734453E+00  1.97709216E+00  2.10869286E+00  2.17006342E+00  2.22847578E+00
  2.28056773E+00  2.29218889E+00  2.32254721E+00  2.36481022E+00  2.40887214E+00
  2.44733140E+00  2.45597255E+00  2.53066269E+00  2.56882353E+00  2.78630118E+00
  2.83982835E+00  2.93679132E+00  3.00538297E+00  3.05299146E+00  3.30769395E+00
  3.45430385E+00  3.55966705E+00  3.62790520E+00  3.66550090E+00  3.90757634E+00
  4.17730984E+00  4.56544516E+00  4.87274371E+00  5.32513794E+00  5.39552319E+00
  2.38061925E+01  3.52795933E+01  4.96613566E+01
Alpha MO coefficients                      R   N=       11664
 -3.92454910E-07  6.01245030E-06 -2.13218247E-05  2.45532099E-05  1.06670529E-05
 -5.09693150E-05  1.81588620E-04 -1.59279954E-04 -3.76142241E-05 -1.33545935E-04
  1.22558484E-04  9.65020034E-05 -6.97443819E-05 -1.17892493E-03  6.44146621E-04
  4.79683784E-04  4.37593398E-04  2.99770901E-05  2.45307872E-05 -4.66876461E-06
 -5.26487281E-05  4.26644967E-05  6.25343329E-06 -1.27185869E-05 -1.77658005E-05
 -2.73955331E-05 -1.35594850E-05 -8.14305002E-05 -1.75433972E-04 -4.88486835E-05
  7.75057950E-05  1.21244132E-03 -4.30785396E-04 -5.32417602E-04  3.40251804E-04
 -5.85419301E-03  1.93688296E-03  1.26395568E-03 -1.01397242E-03 -5.04531327E-05
 -2.66056041E-05  4.43527198E-05  2.52082235E-05  5.40060071E-05  5.52893306E-01
  4.69456207E-01 -3.94729754E-04  8.03296152E-04  5.09993051E-04  8.98149059E-03
  2.01647879E-06 -1.94068063E-04 -9.35607967E-05 -4.92201693E-03 -1.15035303E-03
 -4.36882273E-04  4.94149044E-05  8.46195507E-03  1.76943486E-03  9.88105609E-04
  4.10371538E-04  1.21441833E-04  1.59660365E-05 -1.21395053E-04  4.09898846E-05
 -1.06479317E-04  4.30420795E-05 -2.68587862E-04  5.40896313E-04  9.63793380E-04
  6.42697522E-05 -4.66136286E-05 -5.94196674E-05 -1.63698470E-05  2.80160644E-05
 -1.86988779E-04 -1.02061994E-03 -8.59286164E-06  1.60410996E-05  4.57444265E-06
  4.80832078E-05 -2.07549376E-04  6.02114887E-04  1.65944031E-04  5.17160158E-05
 -2.34744910E-05  5.78127982E-05  2.62143635E-05 -6.59316308E-04  1.13333415E-03
  3.86541699E-04  4.65718838E-05  1.23658257E-04  5.24369966E-05  9.77751818E-05
 -2.63570083E-04 -3.87854461E-04  1.81305833E-04 -2.54268477E-04  2.40456530E-04
 -2.65076830E-04  1.03265337E-04 -2.11177390E-04 -9.72130485E-04  2.17315989E-04
 -6.56331872E-05 -8.82754521E-05  4.17862081E-04  1.59729817E-05 -4.89198174E-05
 -1.48847036E-04  1.68346795E-04 -3.81384887E-05  3.12969189E-04  5.50737377E-05
 -2.82743717E-04  1.23454871E-04  2.70633244E-03 -7.23602293E-04  7.33045169E-04
  1.16167628E-05 -5.38144556E-03  1.00153824E-03 -9.87238144E-04  3.73143409E-04
  2.59968266E-04 -7.26765353E-05  2.94639471E-06 -8.89313112E-06  2.58633678E-04
  5.58772821E-01  4.66016455E-01 -8.12858808E-04 -1.47774593E-03  1.65442996E-03
  9.82781030E-03  5.72062636E-04  6.69526370E-04 -4.17081545E-05 -6.70019562E-03
 -8.66428751E-04  9.59382984E-04  9.95269554E-05  4.39682448E-03  1.18346757E-03
 -5.97545696E-04 -4.13078171E-04  1.02427431E-04 -3.77357438E-05  3.22145924E-04
 -6.63432192E-05 -5.60694866E-05 -2.12008268E-05 -3.67981510E-05  2.71357248E-05
  3.76226184E-05  3.68384506E-06  7.58999500E-05  1.60433973E-04  5.85824595E-05
 -1.88241554E-05  4.94135132E-04  3.45125944E-04  1.73794401E-04  2.25737490E-04
  8.05645309E-04  8.99241708E-06  4.02670355E-04 -3.36863271E-04  1.44269945E-05
 -6.07635106E-06  3.53284377E-06  3.31918040E-05  2.94842668E-05 -1.40683634E-05
 -6.25674289E-04  2.00465702E-04  5.88107176E-04  1.16550538E-05 -1.15590217E-04
 -1.18185014E-04  3.43737898E-05 -6.45642357E-04 -1.06093161E-05  8.49936500E-04
  4.85387474E-05  9.96788092E-05 -1.97609637E-05  1.61090170E-05 -8.93656634E-04
  4.00798149E-04 -3.91449256E-05  7.68439228E-05 -2.04353550E-04  1.88143603E-04
  9.59102210E-05 -5.15294789E-04  4.33877601E-04  1.11777387E-04 -8.67100536E-05
  3.87964181E-04  7.77775093E-04 -2.91492537E-05  8.44213520E-05 -5.41296112E-04
 -5.12710353E-05  3.80869716E-05 -4.89931850E-05  8.48214660E-06 -2.07734529E-05
 -2.20913260E-04  2.98312688E-04  3.51075873E-04 -4.68941564E-05 -3.73469547E-05
  1.50963454E-06  5.64149869E-01  4.63716290E-01 -9.41207512E-04  6.59426559E-04
  6.75912377E-05  1.29862699E-02  1.44119630E-03 -8.38489304E-04 -1.00620758E-04
 -5.54678736E-03  5.60133488E-04 -1.86611176E-04  8.80646693E-05 -1.43011961E-02
  1.04877342E-03 -9.11372824E-04  6.86994411E-05  3.95245449E-04 -3.47934820E-06
  5.76636657E-06 -2.82400228E-04  5.06098185E-04 -5.23941171E-05 -1.12323509E-04
  1.99443322E-04 -1.62519704E-04  2.13088183E-05  6.44878116E-04 -1.95534868E-05
  1.79842215E-05 -1.63737592E-05 -1.05034662E-03 -8.85965001E-05  1.49925480E-04
  5.28686835E-05  9.44005293E-03  1.26010357E-03 -1.81769741E-03  1.94677455E-04
  1.32311960E-04 -4.56583963E-06  2.02813429E-05 -9.72464191E-05  1.98766574E-04
  3.01548099E-06  9.17099075E-06  1.35156607E-05  1.22623332E-05 -5.18232119E-06
 -6.14012173E-05 -9.50977326E-05 -4.97037830E-05  2.89431542E-05  1.13912227E-04
  3.65471807E-04  1.14249085E-04  8.72782586E-05 -8.97699980E-04 -3.71823283E-04
 -6.38545630E-04  5.02066827E-04  1.23301659E-05 -5.74158643E-06 -9.77905225E-06
  1.00066735E-05  2.06869006E-06  3.52070775E-04 -2.75163309E-03  3.24165152E-03