 Entering Gaussian System, Link 0=/apps/cent7/gaussian/g16-A.03/g16-haswell/g16/g16
 Initial command:
 /apps/cent7/gaussian/g16-A.03/g16-haswell/g16/l1.exe "/scratch/brown/finej/gaussian/Gau-146222.inp" -scrdir="/scratch/brown/finej/gaussian/"
 Entering Link 1 = /apps/cent7/gaussian/g16-A.03/g16-haswell/g16/l1.exe PID=    146225.
  
 Copyright (c) 1988,1990,1992,1993,1995,1998,2003,2009,2016,
            Gaussian, Inc.  All Rights Reserved.
  
 This is part of the Gaussian(R) 16 program.  It is based on
 the Gaussian(R) 09 system (copyright 2009, Gaussian, Inc.),
 the Gaussian(R) 03 system (copyright 2003, Gaussian, Inc.),
 the Gaussian(R) 98 system (copyright 1998, Gaussian, Inc.),
 the Gaussian(R) 94 system (copyright 1995, Gaussian, Inc.),
 the Gaussian 92(TM) system (copyright 1992, Gaussian, Inc.),
 the Gaussian 90(TM) system (copyright 1990, Gaussian, Inc.),
 the Gaussian 88(TM) system (copyright 1988, Gaussian, Inc.),
 the Gaussian 86(TM) system (copyright 1986, Carnegie Mellon
 University), and the Gaussian 82(TM) system (copyright 1983,
 Carnegie Mellon University). Gaussian is a federally registered
 trademark of Gaussian, Inc.
  
 This software contains proprietary and confidential information,
 including trade secrets, belonging to Gaussian, Inc.
  
 This software is provided under written license and may be
 used, copied, transmitted, or stored only in accord with that
 written license.
  
 The following legend is applicable only to US Government
 contracts under FAR:
  
                    RESTRICTED RIGHTS LEGEND
  
 Use, reproduction and disclosure by the US Government is
 subject to restrictions as set forth in subparagraphs (a)
 and (c) of the Commercial Computer Software - Restricted
 Rights clause in FAR 52.227-19.
  
 Gaussian, Inc.
 340 Quinnipiac St., Bldg. 40, Wallingford CT 06492
  
  
 ---------------------------------------------------------------
 Warning -- This program may not be used in any manner that
 competes with the business of Gaussian, Inc. or will provide
 assistance to any competitor of Gaussian, Inc.  The licensee
 of this program is prohibited from giving any competitor of
 Gaussian, Inc. access to this program.  By using this program,
 the user acknowledges that Gaussian, Inc. is engaged in the
 business of creating and licensing software in the field of
 computational chemistry and represents and warrants to the
 licensee that it is not a competitor of Gaussian, Inc. and that
 it will not use this program in any manner prohibited above.
 ---------------------------------------------------------------
  

 Cite this work as:
 Gaussian 16, Revision A.03,
 M. J. Frisch, G. W. Trucks, H. B. Schlegel, G. E. Scuseria, 
 M. A. Robb, J. R. Cheeseman, G. Scalmani, V. Barone, 
 G. A. Petersson, H. Nakatsuji, X. Li, M. Caricato, A. V. Marenich, 
 J. Bloino, B. G. Janesko, R. Gomperts, B. Mennucci, H. P. Hratchian, 
 J. V. Ortiz, A. F. Izmaylov, J. L. Sonnenberg, D. Williams-Young, 
 F. Ding, F. Lipparini, F. Egidi, J. Goings, B. Peng, A. Petrone, 
 T. Henderson, D. Ranasinghe, V. G. Zakrzewski, J. Gao, N. Rega, 
 G. Zheng, W. Liang, M. Hada, M. Ehara, K. Toyota, R. Fukuda, 
 J. Hasegawa, M. Ishida, T. Nakajima, Y. Honda, O. Kitao, H. Nakai, 
 T. Vreven, K. Throssell, J. A. Montgomery, Jr., J. E. Peralta, 
 F. Ogliaro, M. J. Bearpark, J. J. Heyd, E. N. Brothers, K. N. Kudin, 
 V. N. Staroverov, T. A. Keith, R. Kobayashi, J. Normand, 
 K. Raghavachari, A. P. Rendell, J. C. Burant, S. S. Iyengar, 
 J. Tomasi, M. Cossi, J. M. Millam, M. Klene, C. Adamo, R. Cammi, 
 J. W. Ochterski, R. L. Martin, K. Morokuma, O. Farkas, 
 J. B. Foresman, and D. J. Fox, Gaussian, Inc., Wallingford CT, 2016.
 
 ******************************************
 Gaussian 16:  ES64L-G16RevA.03 25-Dec-2016
                30-Dec-2019 
 ******************************************
 %chk=8_p_b.chk
 %nprocshared=24
 Will use up to   24 processors via shared memory.
 %mem=80GB
 -------------------------------------------------------------------
 #p opt freq m062x/6-311++g(d,p) geom=connectivity temperature=0.001
 -------------------------------------------------------------------
 1/18=20,19=15,26=3,38=1,57=2,112=-1000/1,3;
 2/9=110,12=2,17=6,18=5,40=1/2;
 3/5=4,6=6,7=1111,11=2,25=1,30=1,71=1,74=-55/1,2,3;
 4//1;
 5/5=2,38=5/2;
 6/7=2,8=2,9=2,10=2,28=1/1;
 7//1,2,3,16;
 1/18=20,19=15,26=3/3(2);
 2/9=110/2;
 99//99;
 2/9=110/2;
 3/5=4,6=6,7=1111,11=2,25=1,30=1,71=1,74=-55/1,2,3;
 4/5=5,16=3,69=1/1;
 5/5=2,38=5/2;
 7//1,2,3,16;
 1/18=20,19=15,26=3/3(-5);
 2/9=110/2;
 6/7=2,8=2,9=2,10=2,19=2,28=1/1;
 99/9=1/99;
 Leave Link    1 at Mon Dec 30 16:44:24 2019, MaxMem= 10737418240 cpu:               1.3 elap:               0.1
 (Enter /apps/cent7/gaussian/g16-A.03/g16-haswell/g16/l101.exe)
 -------------------
 Title Card Required
 -------------------
 Symbolic Z-matrix:
 Charge =  1 Multiplicity = 1
 C                     1.4322    0.0528   -0.406 
 N                     0.1469   -0.1452    0.2773 
 O                     0.1017    0.643     1.379 
 H                     2.2225    0.1745    0.3348 
 H                     1.6494   -0.8143   -1.0298 
 H                     1.3784    0.945    -1.0298 
 H                    -0.6173   -0.753     0.0193 
 H                    -0.36862   0.18617   2.08022 
 H                    -0.35387   1.46138   1.16849 
 
 ITRead=  0  0  0  0  0  0  0  0  0
 MicOpt= -1 -1 -1 -1 -1 -1 -1 -1 -1
 NAtoms=      9 NQM=        9 NQMF=       0 NMMI=      0 NMMIF=      0
                NMic=       0 NMicF=      0.
                    Isotopes and Nuclear Properties:
 (Nuclear quadrupole moments (NQMom) in fm**2, nuclear magnetic moments (NMagM)
  in nuclear magnetons)

  Atom         1           2           3           4           5           6           7           8           9
 IAtWgt=          12          14          16           1           1           1           1           1           1
 AtmWgt=  12.0000000  14.0030740  15.9949146   1.0078250   1.0078250   1.0078250   1.0078250   1.0078250   1.0078250
 NucSpn=           0           2           0           1           1           1           1           1           1
 AtZEff=  -0.0000000  -0.0000000  -0.0000000  -0.0000000  -0.0000000  -0.0000000  -0.0000000  -0.0000000  -0.0000000
 NQMom=    0.0000000   2.0440000   0.0000000   0.0000000   0.0000000   0.0000000   0.0000000   0.0000000   0.0000000
 NMagM=    0.0000000   0.4037610   0.0000000   2.7928460   2.7928460   2.7928460   2.7928460   2.7928460   2.7928460
 AtZNuc=   6.0000000   7.0000000   8.0000000   1.0000000   1.0000000   1.0000000   1.0000000   1.0000000   1.0000000
 Leave Link  101 at Mon Dec 30 16:44:24 2019, MaxMem= 10737418240 cpu:              10.2 elap:               0.4
 (Enter /apps/cent7/gaussian/g16-A.03/g16-haswell/g16/l103.exe)

 GradGradGradGradGradGradGradGradGradGradGradGradGradGradGradGradGradGrad
 Berny optimization.
 Initialization pass.
                           ----------------------------
                           !    Initial Parameters    !
                           ! (Angstroms and Degrees)  !
 --------------------------                            --------------------------
 ! Name  Definition              Value          Derivative Info.                !
 --------------------------------------------------------------------------------
 ! R1    R(1,2)                  1.469          estimate D2E/DX2                !
 ! R2    R(1,4)                  1.09           estimate D2E/DX2                !
 ! R3    R(1,5)                  1.09           estimate D2E/DX2                !
 ! R4    R(1,6)                  1.09           estimate D2E/DX2                !
 ! R5    R(2,3)                  1.3554         estimate D2E/DX2                !
 ! R6    R(2,7)                  1.0099         estimate D2E/DX2                !
 ! R7    R(3,8)                  0.96           estimate D2E/DX2                !
 ! R8    R(3,9)                  0.96           estimate D2E/DX2                !
 ! A1    A(2,1,4)              109.4678         estimate D2E/DX2                !
 ! A2    A(2,1,5)              109.4695         estimate D2E/DX2                !
 ! A3    A(2,1,6)              109.4715         estimate D2E/DX2                !
 ! A4    A(4,1,5)              109.4675         estimate D2E/DX2                !
 ! A5    A(4,1,6)              109.4719         estimate D2E/DX2                !
 ! A6    A(5,1,6)              109.479          estimate D2E/DX2                !
 ! A7    A(1,2,3)              109.2004         estimate D2E/DX2                !
 ! A8    A(1,2,7)              128.6325         estimate D2E/DX2                !
 ! A9    A(3,2,7)              122.1671         estimate D2E/DX2                !
 ! A10   A(2,3,8)              109.4712         estimate D2E/DX2                !
 ! A11   A(2,3,9)              109.4712         estimate D2E/DX2                !
 ! A12   A(8,3,9)              109.4712         estimate D2E/DX2                !
 ! D1    D(4,1,2,3)             37.8809         estimate D2E/DX2                !
 ! D2    D(4,1,2,7)           -142.1223         estimate D2E/DX2                !
 ! D3    D(5,1,2,3)            157.8733         estimate D2E/DX2                !
 ! D4    D(5,1,2,7)            -22.1298         estimate D2E/DX2                !
 ! D5    D(6,1,2,3)            -82.1181         estimate D2E/DX2                !
 ! D6    D(6,1,2,7)             97.8788         estimate D2E/DX2                !
 ! D7    D(1,2,3,8)           -144.2837         estimate D2E/DX2                !
 ! D8    D(1,2,3,9)             95.7163         estimate D2E/DX2                !
 ! D9    D(7,2,3,8)             35.7192         estimate D2E/DX2                !
 ! D10   D(7,2,3,9)            -84.2808         estimate D2E/DX2                !
 --------------------------------------------------------------------------------
 Trust Radius=3.00D-01 FncErr=1.00D-07 GrdErr=1.00D-06 EigMax=2.50D+02 EigMin=1.00D-04
 Number of steps in this run=     40 maximum allowed number of steps=    100.
 GradGradGradGradGradGradGradGradGradGradGradGradGradGradGradGradGradGrad

 Leave Link  103 at Mon Dec 30 16:44:24 2019, MaxMem= 10737418240 cpu:               1.0 elap:               0.1
 (Enter /apps/cent7/gaussian/g16-A.03/g16-haswell/g16/l202.exe)
                          Input orientation:                          
 ---------------------------------------------------------------------
 Center     Atomic      Atomic             Coordinates (Angstroms)
 Number     Number       Type             X           Y           Z
 ---------------------------------------------------------------------
      1          6           0        1.432200    0.052800   -0.406000
      2          7           0        0.146900   -0.145200    0.277300
      3          8           0        0.101700    0.643000    1.379000
      4          1           0        2.222500    0.174500    0.334800
      5          1           0        1.649400   -0.814300   -1.029800
      6          1           0        1.378400    0.945000   -1.029800
      7          1           0       -0.617300   -0.753000    0.019300
      8          1           0       -0.368623    0.186174    2.080218
      9          1           0       -0.353873    1.461376    1.168493
 ---------------------------------------------------------------------
                    Distance matrix (angstroms):
                    1          2          3          4          5
     1  C    0.000000
     2  N    1.469047   0.000000
     3  O    2.303213   1.355376   0.000000
     4  H    1.090032   2.100864   2.409904   0.000000
     5  H    1.090030   2.100883   3.212696   1.779973   0.000000
     6  H    1.089973   2.100866   2.742897   1.779974   1.780050
     7  H    2.242910   1.009944   2.077152   3.004041   2.498459
     8  H    3.072789   1.904228   0.960000   3.124186   3.839997
     9  H    2.766437   1.904228   0.960000   2.998132   3.744903
                    6          7          8          9
     6  H    0.000000
     7  H    2.822523   0.000000
     8  H    3.646933   2.278436   0.000000
     9  H    2.846034   2.508685   1.567673   0.000000
 Stoichiometry    CH6NO(1+)
 Framework group  C1[X(CH6NO)]
 Deg. of freedom    21
 Full point group                 C1      NOp   1
 Largest Abelian subgroup         C1      NOp   1
 Largest concise Abelian subgroup C1      NOp   1
                         Standard orientation:                         
 ---------------------------------------------------------------------
 Center     Atomic      Atomic             Coordinates (Angstroms)
 Number     Number       Type             X           Y           Z
 ---------------------------------------------------------------------
      1          6           0        1.230997   -0.220341   -0.020486
      2          7           0       -0.019711    0.548271    0.034873
      3          8           0       -1.070501   -0.303375   -0.052215
      4          1           0        1.121510   -1.041847   -0.728519
      5          1           0        2.043674    0.430860   -0.342447
      6          1           0        1.455706   -0.620332    0.968227
      7          1           0       -0.142768    1.546834    0.122708
      8          1           0       -1.777120    0.110439   -0.553261
      9          1           0       -1.385001   -0.514804    0.829821
 ---------------------------------------------------------------------
 Rotational constants (GHZ):          38.0535018           9.7331555           8.4414733
 Leave Link  202 at Mon Dec 30 16:44:24 2019, MaxMem= 10737418240 cpu:               0.6 elap:               0.0
 (Enter /apps/cent7/gaussian/g16-A.03/g16-haswell/g16/l301.exe)
 Standard basis: 6-311++G(d,p) (5D, 7F)
 Ernie: Thresh=  0.10000D-02 Tol=  0.10000D-05 Strict=F.
 There are   111 symmetry adapted cartesian basis functions of A   symmetry.
 There are   108 symmetry adapted basis functions of A   symmetry.
   108 basis functions,   162 primitive gaussians,   111 cartesian basis functions
    13 alpha electrons       13 beta electrons
       nuclear repulsion energy        91.8841258680 Hartrees.
 IExCor= 4336 DFT=T Ex+Corr=M062X ExCW=0 ScaHFX=  0.540000
 ScaDFX=  1.000000  1.000000  1.000000  1.000000 ScalE2=  1.000000  1.000000
 IRadAn=      5 IRanWt=     -1 IRanGd=            0 ICorTp=0 IEmpDi=  4
 NAtoms=    9 NActive=    9 NUniq=    9 SFac= 1.00D+00 NAtFMM=   60 NAOKFM=F Big=F
 Integral buffers will be    131072 words long.
 Raffenetti 2 integral format.
 Two-electron integral symmetry is turned on.
 Leave Link  301 at Mon Dec 30 16:44:24 2019, MaxMem= 10737418240 cpu:               1.5 elap:               0.1
 (Enter /apps/cent7/gaussian/g16-A.03/g16-haswell/g16/l302.exe)
 NPDir=0 NMtPBC=     1 NCelOv=     1 NCel=       1 NClECP=     1 NCelD=      1
         NCelK=      1 NCelE2=     1 NClLst=     1 CellRange=     0.0.
 One-electron integrals computed using PRISM.
 One-electron integral symmetry used in STVInt
 NBasis=   108 RedAO= T EigKep=  4.83D-04  NBF=   108
 NBsUse=   108 1.00D-06 EigRej= -1.00D+00 NBFU=   108
 Precomputing XC quadrature grid using
 IXCGrd= 4 IRadAn=           5 IRanWt=          -1 IRanGd=           0 AccXCQ= 0.00D+00.
 Generated NRdTot=       0 NPtTot=           0 NUsed=           0 NTot=          32
 NSgBfM=   111   111   111   111   111 MxSgAt=     9 MxSgA2=     9.
 Leave Link  302 at Mon Dec 30 16:44:25 2019, MaxMem= 10737418240 cpu:               2.9 elap:               0.1
 (Enter /apps/cent7/gaussian/g16-A.03/g16-haswell/g16/l303.exe)
 DipDrv:  MaxL=1.
 Leave Link  303 at Mon Dec 30 16:44:25 2019, MaxMem= 10737418240 cpu:               0.6 elap:               0.1
 (Enter /apps/cent7/gaussian/g16-A.03/g16-haswell/g16/l401.exe)
 ExpMin= 3.60D-02 ExpMax= 8.59D+03 ExpMxC= 1.30D+03 IAcc=3 IRadAn=         5 AccDes= 0.00D+00
 Harris functional with IExCor= 1009 and IRadAn=       5 diagonalized for initial guess.
 HarFok:  IExCor= 1009 AccDes= 0.00D+00 IRadAn=         5 IDoV= 1 UseB2=F ITyADJ=14
 ICtDFT=  3500011 ScaDFX=  1.000000  1.000000  1.000000  1.000000
 FoFCou: FMM=F IPFlag=           0 FMFlag=      100000 FMFlg1=           0
         NFxFlg=           0 DoJE=T BraDBF=F KetDBF=T FulRan=T
         wScrn=  0.000000 ICntrl=       500 IOpCl=  0 I1Cent=   200000004 NGrid=           0
         NMat0=    1 NMatS0=      1 NMatT0=    0 NMatD0=    1 NMtDS0=    0 NMtDT0=    0
 Petite list used in FoFCou.
 Harris En= -171.273614520439    
 JPrj=0 DoOrth=F DoCkMO=F.
 Leave Link  401 at Mon Dec 30 16:44:25 2019, MaxMem= 10737418240 cpu:               4.5 elap:               0.2
 (Enter /apps/cent7/gaussian/g16-A.03/g16-haswell/g16/l502.exe)
 Keep R1 ints in memory in canonical form, NReq=39756064.
 FoFCou: FMM=F IPFlag=           0 FMFlag=           0 FMFlg1=           0
         NFxFlg=           0 DoJE=F BraDBF=F KetDBF=F FulRan=T
         wScrn=  0.000000 ICntrl=       600 IOpCl=  0 I1Cent=           0 NGrid=           0
         NMat0=    1 NMatS0=   5886 NMatT0=    0 NMatD0=    1 NMtDS0=    0 NMtDT0=    0
 Symmetry not used in FoFCou.
 Two-electron integral symmetry not used.
 Closed shell SCF:
 Using DIIS extrapolation, IDIIS=  1040.
 NGot= 10737418240 LenX= 10720064220 LenY= 10720051458
 Requested convergence on RMS density matrix=1.00D-08 within 128 cycles.
 Requested convergence on MAX density matrix=1.00D-06.
 Requested convergence on             energy=1.00D-06.
 No special actions if energy rises.

 Cycle   1  Pass 1  IDiag  1:
 E= -171.192274863077    
 DIIS: error= 1.97D-02 at cycle   1 NSaved=   1.
 NSaved= 1 IEnMin= 1 EnMin= -171.192274863077     IErMin= 1 ErrMin= 1.97D-02
 ErrMax= 1.97D-02  0.00D+00 EMaxC= 1.00D-01 BMatC= 9.95D-02 BMatP= 9.95D-02
 IDIUse=3 WtCom= 8.03D-01 WtEn= 1.97D-01
 Coeff-Com:  0.100D+01
 Coeff-En:   0.100D+01
 Coeff:      0.100D+01
 Gap=     0.292 Goal=   None    Shift=    0.000
 GapD=    0.292 DampG=1.000 DampE=0.500 DampFc=0.5000 IDamp=-1.
 Damping current iteration by 5.00D-01
 RMSDP=4.80D-03 MaxDP=1.02D-01              OVMax= 1.15D-01

 Cycle   2  Pass 1  IDiag  1:
 E= -171.229677039030     Delta-E=       -0.037402175953 Rises=F Damp=T
 DIIS: error= 8.60D-03 at cycle   2 NSaved=   2.
 NSaved= 2 IEnMin= 2 EnMin= -171.229677039030     IErMin= 2 ErrMin= 8.60D-03
 ErrMax= 8.60D-03  0.00D+00 EMaxC= 1.00D-01 BMatC= 1.16D-02 BMatP= 9.95D-02
 IDIUse=3 WtCom= 9.14D-01 WtEn= 8.60D-02
 Coeff-Com: -0.288D+00 0.129D+01
 Coeff-En:   0.000D+00 0.100D+01
 Coeff:     -0.263D+00 0.126D+01
 Gap=     0.330 Goal=   None    Shift=    0.000
 RMSDP=1.16D-03 MaxDP=1.53D-02 DE=-3.74D-02 OVMax= 5.99D-02

 Cycle   3  Pass 1  IDiag  1:
 E= -171.261921536560     Delta-E=       -0.032244497530 Rises=F Damp=F
 DIIS: error= 3.16D-03 at cycle   3 NSaved=   3.
 NSaved= 3 IEnMin= 3 EnMin= -171.261921536560     IErMin= 3 ErrMin= 3.16D-03
 ErrMax= 3.16D-03  0.00D+00 EMaxC= 1.00D-01 BMatC= 1.25D-03 BMatP= 1.16D-02
 IDIUse=3 WtCom= 9.68D-01 WtEn= 3.16D-02
 Coeff-Com: -0.137D+00 0.353D+00 0.784D+00
 Coeff-En:   0.000D+00 0.000D+00 0.100D+01
 Coeff:     -0.133D+00 0.342D+00 0.791D+00
 Gap=     0.319 Goal=   None    Shift=    0.000
 RMSDP=2.50D-04 MaxDP=7.03D-03 DE=-3.22D-02 OVMax= 8.09D-03

 Cycle   4  Pass 1  IDiag  1:
 E= -171.262888284519     Delta-E=       -0.000966747959 Rises=F Damp=F
 DIIS: error= 8.97D-04 at cycle   4 NSaved=   4.
 NSaved= 4 IEnMin= 4 EnMin= -171.262888284519     IErMin= 4 ErrMin= 8.97D-04
 ErrMax= 8.97D-04  0.00D+00 EMaxC= 1.00D-01 BMatC= 1.07D-04 BMatP= 1.25D-03
 IDIUse=3 WtCom= 9.91D-01 WtEn= 8.97D-03
 Coeff-Com: -0.442D-01 0.946D-01 0.313D+00 0.636D+00
 Coeff-En:   0.000D+00 0.000D+00 0.000D+00 0.100D+01
 Coeff:     -0.438D-01 0.938D-01 0.310D+00 0.640D+00
 Gap=     0.321 Goal=   None    Shift=    0.000
 RMSDP=6.50D-05 MaxDP=2.01D-03 DE=-9.67D-04 OVMax= 1.98D-03

 Cycle   5  Pass 1  IDiag  1:
 E= -171.262949151402     Delta-E=       -0.000060866883 Rises=F Damp=F
 DIIS: error= 3.72D-04 at cycle   5 NSaved=   5.
 NSaved= 5 IEnMin= 5 EnMin= -171.262949151402     IErMin= 5 ErrMin= 3.72D-04
 ErrMax= 3.72D-04  0.00D+00 EMaxC= 1.00D-01 BMatC= 8.89D-06 BMatP= 1.07D-04
 IDIUse=3 WtCom= 9.96D-01 WtEn= 3.72D-03
 Coeff-Com: -0.588D-02 0.902D-02 0.563D-01 0.263D+00 0.678D+00
 Coeff-En:   0.000D+00 0.000D+00 0.000D+00 0.000D+00 0.100D+01
 Coeff:     -0.585D-02 0.899D-02 0.561D-01 0.262D+00 0.679D+00
 Gap=     0.321 Goal=   None    Shift=    0.000
 RMSDP=2.01D-05 MaxDP=4.14D-04 DE=-6.09D-05 OVMax= 6.27D-04

 Cycle   6  Pass 1  IDiag  1:
 E= -171.262955361000     Delta-E=       -0.000006209598 Rises=F Damp=F
 DIIS: error= 2.36D-05 at cycle   6 NSaved=   6.
 NSaved= 6 IEnMin= 6 EnMin= -171.262955361000     IErMin= 6 ErrMin= 2.36D-05
 ErrMax= 2.36D-05  0.00D+00 EMaxC= 1.00D-01 BMatC= 1.00D-07 BMatP= 8.89D-06
 IDIUse=1 WtCom= 1.00D+00 WtEn= 0.00D+00
 Coeff-Com:  0.248D-02-0.521D-02-0.183D-01-0.374D-01 0.846D-02 0.105D+01
 Coeff:      0.248D-02-0.521D-02-0.183D-01-0.374D-01 0.846D-02 0.105D+01
 Gap=     0.321 Goal=   None    Shift=    0.000
 RMSDP=7.43D-06 MaxDP=1.68D-04 DE=-6.21D-06 OVMax= 1.66D-04

 Cycle   7  Pass 1  IDiag  1:
 E= -171.262955507035     Delta-E=       -0.000000146035 Rises=F Damp=F
 DIIS: error= 5.29D-06 at cycle   7 NSaved=   7.
 NSaved= 7 IEnMin= 7 EnMin= -171.262955507035     IErMin= 7 ErrMin= 5.29D-06
 ErrMax= 5.29D-06  0.00D+00 EMaxC= 1.00D-01 BMatC= 5.68D-09 BMatP= 1.00D-07
 IDIUse=1 WtCom= 1.00D+00 WtEn= 0.00D+00
 Coeff-Com:  0.706D-03-0.145D-02-0.552D-02-0.154D-01-0.146D-01 0.234D+00
 Coeff-Com:  0.803D+00
 Coeff:      0.706D-03-0.145D-02-0.552D-02-0.154D-01-0.146D-01 0.234D+00
 Coeff:      0.803D+00
 Gap=     0.321 Goal=   None    Shift=    0.000
 RMSDP=1.40D-06 MaxDP=3.18D-05 DE=-1.46D-07 OVMax= 2.88D-05

 Cycle   8  Pass 1  IDiag  1:
 E= -171.262955512352     Delta-E=       -0.000000005318 Rises=F Damp=F
 DIIS: error= 2.20D-06 at cycle   8 NSaved=   8.
 NSaved= 8 IEnMin= 8 EnMin= -171.262955512352     IErMin= 8 ErrMin= 2.20D-06
 ErrMax= 2.20D-06  0.00D+00 EMaxC= 1.00D-01 BMatC= 8.60D-10 BMatP= 5.68D-09
 IDIUse=1 WtCom= 1.00D+00 WtEn= 0.00D+00
 Coeff-Com:  0.128D-03-0.246D-03-0.104D-02-0.350D-02-0.431D-02 0.253D-01
 Coeff-Com:  0.271D+00 0.713D+00
 Coeff:      0.128D-03-0.246D-03-0.104D-02-0.350D-02-0.431D-02 0.253D-01
 Coeff:      0.271D+00 0.713D+00
 Gap=     0.321 Goal=   None    Shift=    0.000
 RMSDP=3.28D-07 MaxDP=7.37D-06 DE=-5.32D-09 OVMax= 1.13D-05

 Cycle   9  Pass 1  IDiag  1:
 E= -171.262955513088     Delta-E=       -0.000000000735 Rises=F Damp=F
 DIIS: error= 7.72D-07 at cycle   9 NSaved=   9.
 NSaved= 9 IEnMin= 9 EnMin= -171.262955513088     IErMin= 9 ErrMin= 7.72D-07
 ErrMax= 7.72D-07  0.00D+00 EMaxC= 1.00D-01 BMatC= 9.11D-11 BMatP= 8.60D-10
 IDIUse=1 WtCom= 1.00D+00 WtEn= 0.00D+00
 Coeff-Com: -0.520D-04 0.105D-03 0.413D-03 0.989D-03 0.977D-03-0.248D-01
 Coeff-Com: -0.259D-01 0.222D+00 0.826D+00
 Coeff:     -0.520D-04 0.105D-03 0.413D-03 0.989D-03 0.977D-03-0.248D-01
 Coeff:     -0.259D-01 0.222D+00 0.826D+00
 Gap=     0.321 Goal=   None    Shift=    0.000
 RMSDP=1.31D-07 MaxDP=2.13D-06 DE=-7.35D-10 OVMax= 5.76D-06

 Cycle  10  Pass 1  IDiag  1:
 E= -171.262955513194     Delta-E=       -0.000000000107 Rises=F Damp=F
 DIIS: error= 1.37D-07 at cycle  10 NSaved=  10.
 NSaved=10 IEnMin=10 EnMin= -171.262955513194     IErMin=10 ErrMin= 1.37D-07
 ErrMax= 1.37D-07  0.00D+00 EMaxC= 1.00D-01 BMatC= 1.82D-12 BMatP= 9.11D-11
 IDIUse=1 WtCom= 1.00D+00 WtEn= 0.00D+00
 Coeff-Com:  0.585D-06-0.926D-06 0.189D-05 0.588D-04 0.575D-04 0.136D-02
 Coeff-Com: -0.830D-02-0.595D-01-0.681D-01 0.113D+01
 Coeff:      0.585D-06-0.926D-06 0.189D-05 0.588D-04 0.575D-04 0.136D-02
 Coeff:     -0.830D-02-0.595D-01-0.681D-01 0.113D+01
 Gap=     0.321 Goal=   None    Shift=    0.000
 RMSDP=4.42D-08 MaxDP=1.10D-06 DE=-1.07D-10 OVMax= 2.61D-06

 Cycle  11  Pass 1  IDiag  1:
 E= -171.262955513201     Delta-E=       -0.000000000007 Rises=F Damp=F
 DIIS: error= 3.49D-08 at cycle  11 NSaved=  11.
 NSaved=11 IEnMin=11 EnMin= -171.262955513201     IErMin=11 ErrMin= 3.49D-08
 ErrMax= 3.49D-08  0.00D+00 EMaxC= 1.00D-01 BMatC= 1.57D-13 BMatP= 1.82D-12
 IDIUse=1 WtCom= 1.00D+00 WtEn= 0.00D+00
 Coeff-Com:  0.315D-05-0.643D-05-0.229D-04-0.587D-04-0.504D-04 0.152D-02
 Coeff-Com:  0.164D-02-0.155D-01-0.640D-01-0.276D-01 0.110D+01
 Coeff:      0.315D-05-0.643D-05-0.229D-04-0.587D-04-0.504D-04 0.152D-02
 Coeff:      0.164D-02-0.155D-01-0.640D-01-0.276D-01 0.110D+01
 Gap=     0.321 Goal=   None    Shift=    0.000
 RMSDP=1.35D-08 MaxDP=2.89D-07 DE=-6.71D-12 OVMax= 7.74D-07

 Cycle  12  Pass 1  IDiag  1:
 E= -171.262955513202     Delta-E=       -0.000000000001 Rises=F Damp=F
 DIIS: error= 5.21D-09 at cycle  12 NSaved=  12.
 NSaved=12 IEnMin=12 EnMin= -171.262955513202     IErMin=12 ErrMin= 5.21D-09
 ErrMax= 5.21D-09  0.00D+00 EMaxC= 1.00D-01 BMatC= 5.93D-15 BMatP= 1.57D-13
 IDIUse=1 WtCom= 1.00D+00 WtEn= 0.00D+00
 Coeff-Com:  0.272D-06-0.588D-06-0.274D-05-0.988D-05-0.716D-05 0.768D-04
 Coeff-Com:  0.853D-03 0.235D-02-0.258D-02-0.568D-01 0.134D+00 0.923D+00
 Coeff:      0.272D-06-0.588D-06-0.274D-05-0.988D-05-0.716D-05 0.768D-04
 Coeff:      0.853D-03 0.235D-02-0.258D-02-0.568D-01 0.134D+00 0.923D+00
 Gap=     0.321 Goal=   None    Shift=    0.000
 RMSDP=1.86D-09 MaxDP=3.11D-08 DE=-5.12D-13 OVMax= 8.03D-08

 SCF Done:  E(RM062X) =  -171.262955513     A.U. after   12 cycles
            NFock= 12  Conv=0.19D-08     -V/T= 2.0021
 KE= 1.708965309328D+02 PE=-5.780529165576D+02 EE= 1.440093042436D+02
 Leave Link  502 at Mon Dec 30 16:44:27 2019, MaxMem= 10737418240 cpu:              39.5 elap:               1.9
 (Enter /apps/cent7/gaussian/g16-A.03/g16-haswell/g16/l601.exe)
 Copying SCF densities to generalized density rwf, IOpCl= 0 IROHF=0.

 **********************************************************************

            Population analysis using the SCF density.

 **********************************************************************

 Orbital symmetries:
       Occupied  (A) (A) (A) (A) (A) (A) (A) (A) (A) (A) (A) (A)
                 (A)
       Virtual   (A) (A) (A) (A) (A) (A) (A) (A) (A) (A) (A) (A)
                 (A) (A) (A) (A) (A) (A) (A) (A) (A) (A) (A) (A)
                 (A) (A) (A) (A) (A) (A) (A) (A) (A) (A) (A) (A)
                 (A) (A) (A) (A) (A) (A) (A) (A) (A) (A) (A) (A)
                 (A) (A) (A) (A) (A) (A) (A) (A) (A) (A) (A) (A)
                 (A) (A) (A) (A) (A) (A) (A) (A) (A) (A) (A) (A)
                 (A) (A) (A) (A) (A) (A) (A) (A) (A) (A) (A) (A)
                 (A) (A) (A) (A) (A) (A) (A) (A) (A) (A) (A)
 The electronic state is 1-A.
 Alpha  occ. eigenvalues --  -20.05069 -15.02453 -10.75597  -1.60045  -1.21679
 Alpha  occ. eigenvalues --   -1.02420  -0.98757  -0.94398  -0.82334  -0.72179
 Alpha  occ. eigenvalues --   -0.69031  -0.66022  -0.53103
 Alpha virt. eigenvalues --   -0.21041  -0.15276  -0.14110  -0.11655  -0.08412
 Alpha virt. eigenvalues --   -0.07864  -0.07395  -0.06372  -0.05590  -0.04311
 Alpha virt. eigenvalues --   -0.03338  -0.01459   0.00060   0.01190   0.01637
 Alpha virt. eigenvalues --    0.02555   0.03850   0.04361   0.06332   0.07094
 Alpha virt. eigenvalues --    0.09311   0.09797   0.10562   0.15087   0.16750
 Alpha virt. eigenvalues --    0.17637   0.28754   0.30556   0.33028   0.35108
 Alpha virt. eigenvalues --    0.43075   0.44045   0.51034   0.52306   0.55344
 Alpha virt. eigenvalues --    0.60761   0.60941   0.65264   0.71027   0.75308
 Alpha virt. eigenvalues --    0.77828   0.83744   0.89916   0.96087   0.99660
 Alpha virt. eigenvalues --    1.12861   1.22257   1.26696   1.32780   1.33135
 Alpha virt. eigenvalues --    1.38465   1.41572   1.43723   1.49636   1.51966
 Alpha virt. eigenvalues --    1.56464   1.65002   1.68153   1.73335   1.76421
 Alpha virt. eigenvalues --    1.84191   1.88978   1.96382   2.00226   2.03043
 Alpha virt. eigenvalues --    2.22822   2.26543   2.27801   2.32589   2.35933
 Alpha virt. eigenvalues --    2.38443   2.41091   2.45793   2.47236   2.53955
 Alpha virt. eigenvalues --    2.58893   2.74911   2.81155   3.00626   3.06179
 Alpha virt. eigenvalues --    3.20694   3.37143   3.41123   3.58944   3.60844
 Alpha virt. eigenvalues --    3.68732   3.82283   4.25475   4.66346   4.98173
 Alpha virt. eigenvalues --    5.40558   5.60677  23.81934  35.34530  49.64377
          Condensed to atoms (all electrons):
               1          2          3          4          5          6
     1  C    5.123392   0.120236  -0.025234   0.426202   0.400813   0.413440
     2  N    0.120236   7.143384   0.019304  -0.074344  -0.040292  -0.046610
     3  O   -0.025234   0.019304   7.323697   0.015169   0.016030  -0.020659
     4  H    0.426202  -0.074344   0.015169   0.477755  -0.018542  -0.036213
     5  H    0.400813  -0.040292   0.016030  -0.018542   0.452181  -0.028246
     6  H    0.413440  -0.046610  -0.020659  -0.036213  -0.028246   0.492986
     7  H   -0.018455   0.360774  -0.048159  -0.000956  -0.003328   0.003199
     8  H    0.001884  -0.012900   0.346106   0.000251  -0.000438  -0.000002
     9  H    0.001780  -0.042343   0.328449  -0.001612  -0.000921   0.004061
               7          8          9
     1  C   -0.018455   0.001884   0.001780
     2  N    0.360774  -0.012900  -0.042343
     3  O   -0.048159   0.346106   0.328449
     4  H   -0.000956   0.000251  -0.001612
     5  H   -0.003328  -0.000438  -0.000921
     6  H    0.003199  -0.000002   0.004061
     7  H    0.311113  -0.001517   0.002037
     8  H   -0.001517   0.305127  -0.030049
     9  H    0.002037  -0.030049   0.352536
 Mulliken charges:
               1
     1  C   -0.444057
     2  N   -0.427209
     3  O    0.045296
     4  H    0.212289
     5  H    0.222745
     6  H    0.218044
     7  H    0.395293
     8  H    0.391538
     9  H    0.386061
 Sum of Mulliken charges =   1.00000
 Mulliken charges with hydrogens summed into heavy atoms:
               1
     1  C    0.209022
     2  N   -0.031916
     3  O    0.822895
 Electronic spatial extent (au):  <R**2>=            173.2506
 Charge=              1.0000 electrons
 Dipole moment (field-independent basis, Debye):
    X=             -3.9646    Y=              0.6045    Z=              0.6223  Tot=              4.0585
 Quadrupole moment (field-independent basis, Debye-Ang):
   XX=             -5.1655   YY=            -14.3937   ZZ=            -16.5444
   XY=              0.0830   XZ=             -0.5910   YZ=             -0.9491
 Traceless Quadrupole moment (field-independent basis, Debye-Ang):
   XX=              6.8690   YY=             -2.3592   ZZ=             -4.5099
   XY=              0.0830   XZ=             -0.5910   YZ=             -0.9491
 Octapole moment (field-independent basis, Debye-Ang**2):
  XXX=            -19.4759  YYY=              5.7508  ZZZ=              1.5834  XYY=             -2.7333
  XXY=             -0.2590  XXZ=             -1.2405  XZZ=             -5.8841  YZZ=             -2.4677
  YYZ=              0.7618  XYZ=              1.7048
 Hexadecapole moment (field-independent basis, Debye-Ang**3):
 XXXX=            -93.6240 YYYY=            -32.2035 ZZZZ=            -23.5566 XXXY=              4.6499
 XXXZ=              1.1301 YYYX=              0.8905 YYYZ=              1.0629 ZZZX=             -0.4877
 ZZZY=             -1.6327 XXYY=            -27.0346 XXZZ=            -19.9671 YYZZ=            -11.1204
 XXYZ=             -3.8991 YYXZ=             -1.5812 ZZXY=              0.7417
 N-N= 9.188412586795D+01 E-N=-5.780529164544D+02  KE= 1.708965309328D+02
 No NMR shielding tensors so no spin-rotation constants.
 Leave Link  601 at Mon Dec 30 16:44:27 2019, MaxMem= 10737418240 cpu:               3.1 elap:               0.2
 (Enter /apps/cent7/gaussian/g16-A.03/g16-haswell/g16/l701.exe)
 ... and contract with generalized density number  0.
 Compute integral first derivatives.
 Leave Link  701 at Mon Dec 30 16:44:27 2019, MaxMem= 10737418240 cpu:               2.7 elap:               0.1
 (Enter /apps/cent7/gaussian/g16-A.03/g16-haswell/g16/l702.exe)
 L702 exits ... SP integral derivatives will be done elsewhere.
 Leave Link  702 at Mon Dec 30 16:44:27 2019, MaxMem= 10737418240 cpu:               0.4 elap:               0.0
 (Enter /apps/cent7/gaussian/g16-A.03/g16-haswell/g16/l703.exe)
 Integral derivatives from FoFJK, PRISM(SPDF).
 Compute integral first derivatives, UseDBF=F ICtDFT=           0.
 Calling FoFJK, ICntrl=      2127 FMM=F ISym2X=0 I1Cent= 0 IOpClX= 0 NMat=1 NMatS=1 NMatT=0.
 FoFJK:  IHMeth= 1 ICntrl=    2127 DoSepK=F KAlg= 0 I1Cent=           0 FoldK=F
 IRaf=         0 NMat=       1 IRICut=       1 DoRegI=T DoRafI=F ISym2E= 0 IDoP0=0 IntGTp=1.
 FoFCou: FMM=F IPFlag=           0 FMFlag=      100000 FMFlg1=         800
         NFxFlg=           0 DoJE=F BraDBF=F KetDBF=F FulRan=T
         wScrn=  0.000000 ICntrl=      2127 IOpCl=  0 I1Cent=           0 NGrid=           0
         NMat0=    1 NMatS0=      1 NMatT0=    0 NMatD0=    1 NMtDS0=    0 NMtDT0=    0
 Symmetry not used in FoFCou.
 Leave Link  703 at Mon Dec 30 16:44:28 2019, MaxMem= 10737418240 cpu:               9.7 elap:               0.4
 (Enter /apps/cent7/gaussian/g16-A.03/g16-haswell/g16/l716.exe)
 Dipole        =-1.55981159D+00 2.37816538D-01 2.44824172D-01
 ***** Axes restored to original set *****
 -------------------------------------------------------------------
 Center     Atomic                   Forces (Hartrees/Bohr)
 Number     Number              X              Y              Z
 -------------------------------------------------------------------
      1        6          -0.008336370    0.000598788   -0.004838451
      2        7           0.043772094   -0.029953106   -0.050317275
      3        8          -0.017901739    0.008708509    0.021365839
      4        1          -0.000490244   -0.003814333    0.000651062
      5        1          -0.002258451   -0.000262919    0.001817889
      6        1           0.002960038    0.000143301   -0.002634059
      7        1          -0.006440693    0.006764699    0.008761975
      8        1          -0.002867945   -0.006299582    0.023244858
      9        1          -0.008436689    0.024114644    0.001948161
 -------------------------------------------------------------------
 Cartesian Forces:  Max     0.050317275 RMS     0.016930395
 Leave Link  716 at Mon Dec 30 16:44:28 2019, MaxMem= 10737418240 cpu:               1.1 elap:               0.1
 (Enter /apps/cent7/gaussian/g16-A.03/g16-haswell/g16/l103.exe)

 GradGradGradGradGradGradGradGradGradGradGradGradGradGradGradGradGradGrad
 Berny optimization.
 FormGI is forming the generalized inverse of G from B-inverse, IUseBI=4.
 Internal  Forces:  Max     0.054243895 RMS     0.014142671
 Search for a local minimum.
 Step number   1 out of a maximum of   40
 All quantities printed in internal units (Hartrees-Bohrs-Radians)
 RMS Force = .14143D-01 SwitMx=.10000D-02 MixMth= 1
 Mixed Optimization -- RFO/linear search
 Second derivative matrix not updated -- first step.
 ITU=  0
     Eigenvalues ---    0.00778   0.01179   0.01885   0.06228   0.07543
     Eigenvalues ---    0.07544   0.16000   0.16000   0.16000   0.16000
     Eigenvalues ---    0.16000   0.16000   0.22000   0.34809   0.34809
     Eigenvalues ---    0.34816   0.35855   0.45982   0.53893   0.55473
     Eigenvalues ---    0.55473
 RFO step:  Lambda=-1.88652082D-02 EMin= 7.78421437D-03
 Linear search not attempted -- first point.
 Iteration  1 RMS(Cart)=  0.08432475 RMS(Int)=  0.00492956
 Iteration  2 RMS(Cart)=  0.00465409 RMS(Int)=  0.00294162
 Iteration  3 RMS(Cart)=  0.00001792 RMS(Int)=  0.00294160
 Iteration  4 RMS(Cart)=  0.00000009 RMS(Int)=  0.00294160
 ITry= 1 IFail=0 DXMaxC= 2.19D-01 DCOld= 1.00D+10 DXMaxT= 3.00D-01 DXLimC= 3.00D+00 Rises=F
 Variable       Old X    -DE/DX   Delta X   Delta X   Delta X     New X
                                 (Linear)    (Quad)   (Total)
    R1        2.77610  -0.00523   0.00000  -0.01386  -0.01386   2.76223
    R2        2.05986  -0.00034   0.00000  -0.00092  -0.00092   2.05894
    R3        2.05986  -0.00128   0.00000  -0.00349  -0.00349   2.05637
    R4        2.05975   0.00148   0.00000   0.00403   0.00403   2.06378
    R5        2.56129   0.05424   0.00000   0.09725   0.09725   2.65854
    R6        1.90852  -0.00144   0.00000  -0.00300  -0.00300   1.90552
    R7        1.81414   0.02138   0.00000   0.03728   0.03728   1.85141
    R8        1.81414   0.02413   0.00000   0.04207   0.04207   1.85621
    A1        1.91057  -0.00204   0.00000  -0.01196  -0.01252   1.89805
    A2        1.91060  -0.00548   0.00000  -0.03708  -0.03726   1.87334
    A3        1.91064   0.00728   0.00000   0.04769   0.04767   1.95831
    A4        1.91057   0.00028   0.00000  -0.01237  -0.01318   1.89739
    A5        1.91065   0.00059   0.00000   0.01614   0.01577   1.92642
    A6        1.91077  -0.00063   0.00000  -0.00242  -0.00205   1.90872
    A7        1.90591   0.02657   0.00000   0.11121   0.11109   2.01699
    A8        2.24506  -0.00144   0.00000   0.01061   0.01045   2.25551
    A9        2.13222  -0.02513   0.00000  -0.12183  -0.12194   2.01028
   A10        1.91063   0.01377   0.00000   0.09810   0.09128   2.00191
   A11        1.91063   0.01309   0.00000   0.09429   0.08744   1.99808
   A12        1.91063  -0.00402   0.00000   0.01980   0.00934   1.91997
    D1        0.66115   0.00395   0.00000   0.07230   0.07250   0.73365
    D2       -2.48050   0.00298   0.00000   0.04085   0.04025  -2.44025
    D3        2.75541  -0.00031   0.00000   0.02712   0.02802   2.78342
    D4       -0.38624  -0.00128   0.00000  -0.00433  -0.00424  -0.39048
    D5       -1.43323   0.00002   0.00000   0.03065   0.03076  -1.40247
    D6        1.70831  -0.00094   0.00000  -0.00080  -0.00149   1.70681
    D7       -2.51822   0.00756   0.00000   0.11596   0.12027  -2.39796
    D8        1.67057  -0.00397   0.00000  -0.02610  -0.02899   1.64158
    D9        0.62342   0.00845   0.00000   0.14498   0.14787   0.77129
   D10       -1.47098  -0.00308   0.00000   0.00292  -0.00138  -1.47236
         Item               Value     Threshold  Converged?
 Maximum Force            0.054244     0.000450     NO 
 RMS     Force            0.014143     0.000300     NO 
 Maximum Displacement     0.218904     0.001800     NO 
 RMS     Displacement     0.084422     0.001200     NO 
 Predicted change in Energy=-1.058977D-02
 Lowest energy point so far.  Saving SCF results.
 GradGradGradGradGradGradGradGradGradGradGradGradGradGradGradGradGradGrad

 Leave Link  103 at Mon Dec 30 16:44:28 2019, MaxMem= 10737418240 cpu:               0.7 elap:               0.1
 (Enter /apps/cent7/gaussian/g16-A.03/g16-haswell/g16/l202.exe)
                          Input orientation:                          
 ---------------------------------------------------------------------
 Center     Atomic      Atomic             Coordinates (Angstroms)
 Number     Number       Type             X           Y           Z
 ---------------------------------------------------------------------
      1          6           0        1.464107    0.051474   -0.445278
      2          7           0        0.195339   -0.136481    0.255792
      3          8           0        0.011651    0.658052    1.402163
      4          1           0        2.263056    0.129699    0.291381
      5          1           0        1.634031   -0.835967   -1.051674
      6          1           0        1.453041    0.933394   -1.089318
      7          1           0       -0.579887   -0.737215    0.021427
      8          1           0       -0.380321    0.188291    2.167372
      9          1           0       -0.469712    1.499104    1.241646
 ---------------------------------------------------------------------
                    Distance matrix (angstroms):
                    1          2          3          4          5
     1  C    0.000000
     2  N    1.461712   0.000000
     3  O    2.427058   1.406837   0.000000
     4  H    1.089543   2.085083   2.565506   0.000000
     5  H    1.088183   2.066056   3.299323   1.769740   0.000000
     6  H    1.092104   2.129734   2.891522   1.791195   1.778992
     7  H    2.240035   1.008356   2.050151   2.984415   2.462261
     8  H    3.201028   2.022622   0.979726   3.241947   3.933063
     9  H    2.946354   2.022211   0.982265   3.200983   3.890708
                    6          7          8          9
     6  H    0.000000
     7  H    2.856131   0.000000
     8  H    3.810830   2.345521   0.000000
     9  H    3.074150   2.549940   1.607231   0.000000
 Stoichiometry    CH6NO(1+)
 Framework group  C1[X(CH6NO)]
 Deg. of freedom    21
 Full point group                 C1      NOp   1
 RotChk:  IX=0 Diff= 5.14D-02
 Largest Abelian subgroup         C1      NOp   1
 Largest concise Abelian subgroup C1      NOp   1
                         Standard orientation:                         
 ---------------------------------------------------------------------
 Center     Atomic      Atomic             Coordinates (Angstroms)
 Number     Number       Type             X           Y           Z
 ---------------------------------------------------------------------
      1          6           0        1.282585   -0.223499   -0.019537
      2          7           0        0.021905    0.513972    0.038976
      3          8           0       -1.143916   -0.269009   -0.044642
      4          1           0        1.202774   -0.993255   -0.786486
      5          1           0        2.057624    0.482002   -0.312324
      6          1           0        1.544279   -0.670412    0.941960
      7          1           0       -0.133290    1.503416    0.156011
      8          1           0       -1.844674    0.100339   -0.621168
      9          1           0       -1.524232   -0.526826    0.823536
 ---------------------------------------------------------------------
 Rotational constants (GHZ):          40.5645233           8.8145028           7.8626838
 Leave Link  202 at Mon Dec 30 16:44:28 2019, MaxMem= 10737418240 cpu:               0.2 elap:               0.0
 (Enter /apps/cent7/gaussian/g16-A.03/g16-haswell/g16/l301.exe)
 Standard basis: 6-311++G(d,p) (5D, 7F)
 Ernie: Thresh=  0.10000D-02 Tol=  0.10000D-05 Strict=F.
 There are   111 symmetry adapted cartesian basis functions of A   symmetry.
 There are   108 symmetry adapted basis functions of A   symmetry.
   108 basis functions,   162 primitive gaussians,   111 cartesian basis functions
    13 alpha electrons       13 beta electrons
       nuclear repulsion energy        89.8414635998 Hartrees.
 IExCor= 4336 DFT=T Ex+Corr=M062X ExCW=0 ScaHFX=  0.540000
 ScaDFX=  1.000000  1.000000  1.000000  1.000000 ScalE2=  1.000000  1.000000
 IRadAn=      5 IRanWt=     -1 IRanGd=            0 ICorTp=0 IEmpDi=  4
 NAtoms=    9 NActive=    9 NUniq=    9 SFac= 1.00D+00 NAtFMM=   60 NAOKFM=F Big=F
 Integral buffers will be    131072 words long.
 Raffenetti 2 integral format.
 Two-electron integral symmetry is turned on.
 Leave Link  301 at Mon Dec 30 16:44:28 2019, MaxMem= 10737418240 cpu:               1.2 elap:               0.1
 (Enter /apps/cent7/gaussian/g16-A.03/g16-haswell/g16/l302.exe)
 NPDir=0 NMtPBC=     1 NCelOv=     1 NCel=       1 NClECP=     1 NCelD=      1
         NCelK=      1 NCelE2=     1 NClLst=     1 CellRange=     0.0.
 One-electron integrals computed using PRISM.
 One-electron integral symmetry used in STVInt
 NBasis=   108 RedAO= T EigKep=  5.18D-04  NBF=   108
 NBsUse=   108 1.00D-06 EigRej= -1.00D+00 NBFU=   108
 Precomputing XC quadrature grid using
 IXCGrd= 4 IRadAn=           5 IRanWt=          -1 IRanGd=           0 AccXCQ= 0.00D+00.
 Generated NRdTot=       0 NPtTot=           0 NUsed=           0 NTot=          32
 NSgBfM=   111   111   111   111   111 MxSgAt=     9 MxSgA2=     9.
 Leave Link  302 at Mon Dec 30 16:44:28 2019, MaxMem= 10737418240 cpu:               2.6 elap:               0.1
 (Enter /apps/cent7/gaussian/g16-A.03/g16-haswell/g16/l303.exe)
 DipDrv:  MaxL=1.
 Leave Link  303 at Mon Dec 30 16:44:28 2019, MaxMem= 10737418240 cpu:               0.5 elap:               0.0
 (Enter /apps/cent7/gaussian/g16-A.03/g16-haswell/g16/l401.exe)
 Initial guess from the checkpoint file:  "8_p_b.chk"
 B after Tr=     0.000000   -0.000000   -0.000000
         Rot=    0.999896   -0.013512    0.000638    0.005053 Ang=  -1.65 deg.
 Guess basis will be translated and rotated to current coordinates.
 JPrj=2 DoOrth=T DoCkMO=T.
 Generating alternative initial guess.
 ExpMin= 3.60D-02 ExpMax= 8.59D+03 ExpMxC= 1.30D+03 IAcc=3 IRadAn=         5 AccDes= 0.00D+00
 Harris functional with IExCor= 1009 and IRadAn=       5 diagonalized for initial guess.
 HarFok:  IExCor= 1009 AccDes= 0.00D+00 IRadAn=         5 IDoV= 1 UseB2=F ITyADJ=14
 ICtDFT=  3500011 ScaDFX=  1.000000  1.000000  1.000000  1.000000
 FoFCou: FMM=F IPFlag=           0 FMFlag=      100000 FMFlg1=           0
         NFxFlg=           0 DoJE=T BraDBF=F KetDBF=T FulRan=T
         wScrn=  0.000000 ICntrl=       500 IOpCl=  0 I1Cent=   200000004 NGrid=           0
         NMat0=    1 NMatS0=      1 NMatT0=    0 NMatD0=    1 NMtDS0=    0 NMtDT0=    0
 Petite list used in FoFCou.
 Harris En= -171.280951271044    
 Leave Link  401 at Mon Dec 30 16:44:28 2019, MaxMem= 10737418240 cpu:               5.7 elap:               0.3
 (Enter /apps/cent7/gaussian/g16-A.03/g16-haswell/g16/l502.exe)
 Keep R1 ints in memory in canonical form, NReq=39756064.
 FoFCou: FMM=F IPFlag=           0 FMFlag=           0 FMFlg1=           0
         NFxFlg=           0 DoJE=F BraDBF=F KetDBF=F FulRan=T
         wScrn=  0.000000 ICntrl=       600 IOpCl=  0 I1Cent=           0 NGrid=           0
         NMat0=    1 NMatS0=   5886 NMatT0=    0 NMatD0=    1 NMtDS0=    0 NMtDT0=    0
 Symmetry not used in FoFCou.
 Two-electron integral symmetry not used.
 Closed shell SCF:
 Using DIIS extrapolation, IDIIS=  1040.
 NGot= 10737418240 LenX= 10720064220 LenY= 10720051458
 Requested convergence on RMS density matrix=1.00D-08 within 128 cycles.
 Requested convergence on MAX density matrix=1.00D-06.
 Requested convergence on             energy=1.00D-06.
 No special actions if energy rises.

 Cycle   1  Pass 1  IDiag  1:
 E= -171.266460473072    
 DIIS: error= 5.07D-03 at cycle   1 NSaved=   1.
 NSaved= 1 IEnMin= 1 EnMin= -171.266460473072     IErMin= 1 ErrMin= 5.07D-03
 ErrMax= 5.07D-03  0.00D+00 EMaxC= 1.00D-01 BMatC= 5.25D-03 BMatP= 5.25D-03
 IDIUse=3 WtCom= 9.49D-01 WtEn= 5.07D-02
 Coeff-Com:  0.100D+01
 Coeff-En:   0.100D+01
 Coeff:      0.100D+01
 Gap=     0.452 Goal=   None    Shift=    0.000
 GapD=    0.452 DampG=2.000 DampE=1.000 DampFc=2.0000 IDamp=-1.
 RMSDP=1.13D-03 MaxDP=3.04D-02              OVMax= 2.37D-02

 Cycle   2  Pass 1  IDiag  1:
 E= -171.272561784967     Delta-E=       -0.006101311895 Rises=F Damp=F
 DIIS: error= 1.10D-03 at cycle   2 NSaved=   2.
 NSaved= 2 IEnMin= 2 EnMin= -171.272561784967     IErMin= 2 ErrMin= 1.10D-03
 ErrMax= 1.10D-03  0.00D+00 EMaxC= 1.00D-01 BMatC= 1.71D-04 BMatP= 5.25D-03
 IDIUse=3 WtCom= 9.89D-01 WtEn= 1.10D-02
 Coeff-Com: -0.612D-01 0.106D+01
 Coeff-En:   0.000D+00 0.100D+01
 Coeff:     -0.605D-01 0.106D+01
 Gap=     0.319 Goal=   None    Shift=    0.000
 RMSDP=2.67D-04 MaxDP=6.04D-03 DE=-6.10D-03 OVMax= 7.89D-03

 Cycle   3  Pass 1  IDiag  1:
 E= -171.272805230258     Delta-E=       -0.000243445290 Rises=F Damp=F
 DIIS: error= 7.30D-04 at cycle   3 NSaved=   3.
 NSaved= 3 IEnMin= 3 EnMin= -171.272805230258     IErMin= 3 ErrMin= 7.30D-04
 ErrMax= 7.30D-04  0.00D+00 EMaxC= 1.00D-01 BMatC= 8.15D-05 BMatP= 1.71D-04
 IDIUse=3 WtCom= 9.93D-01 WtEn= 7.30D-03
 Coeff-Com: -0.590D-01 0.435D+00 0.624D+00
 Coeff-En:   0.000D+00 0.000D+00 0.100D+01
 Coeff:     -0.586D-01 0.432D+00 0.627D+00
 Gap=     0.317 Goal=   None    Shift=    0.000
 RMSDP=6.70D-05 MaxDP=1.43D-03 DE=-2.43D-04 OVMax= 1.88D-03

 Cycle   4  Pass 1  IDiag  1:
 E= -171.272866538763     Delta-E=       -0.000061308505 Rises=F Damp=F
 DIIS: error= 1.65D-04 at cycle   4 NSaved=   4.
 NSaved= 4 IEnMin= 4 EnMin= -171.272866538763     IErMin= 4 ErrMin= 1.65D-04
 ErrMax= 1.65D-04  0.00D+00 EMaxC= 1.00D-01 BMatC= 4.31D-06 BMatP= 8.15D-05
 IDIUse=3 WtCom= 9.98D-01 WtEn= 1.65D-03
 Coeff-Com: -0.893D-02-0.287D-02 0.164D+00 0.848D+00
 Coeff-En:   0.000D+00 0.000D+00 0.000D+00 0.100D+01
 Coeff:     -0.891D-02-0.286D-02 0.163D+00 0.848D+00
 Gap=     0.318 Goal=   None    Shift=    0.000
 RMSDP=2.32D-05 MaxDP=3.34D-04 DE=-6.13D-05 OVMax= 7.84D-04

 Cycle   5  Pass 1  IDiag  1:
 E= -171.272870965518     Delta-E=       -0.000004426755 Rises=F Damp=F
 DIIS: error= 5.01D-05 at cycle   5 NSaved=   5.
 NSaved= 5 IEnMin= 5 EnMin= -171.272870965518     IErMin= 5 ErrMin= 5.01D-05
 ErrMax= 5.01D-05  0.00D+00 EMaxC= 1.00D-01 BMatC= 2.87D-07 BMatP= 4.31D-06
 IDIUse=1 WtCom= 1.00D+00 WtEn= 0.00D+00
 Coeff-Com:  0.250D-02-0.362D-01-0.182D-01 0.193D+00 0.859D+00
 Coeff:      0.250D-02-0.362D-01-0.182D-01 0.193D+00 0.859D+00
 Gap=     0.318 Goal=   None    Shift=    0.000
 RMSDP=7.45D-06 MaxDP=1.22D-04 DE=-4.43D-06 OVMax= 2.07D-04

 Cycle   6  Pass 1  IDiag  1:
 E= -171.272871249109     Delta-E=       -0.000000283591 Rises=F Damp=F
 DIIS: error= 2.27D-05 at cycle   6 NSaved=   6.
 NSaved= 6 IEnMin= 6 EnMin= -171.272871249109     IErMin= 6 ErrMin= 2.27D-05
 ErrMax= 2.27D-05  0.00D+00 EMaxC= 1.00D-01 BMatC= 3.99D-08 BMatP= 2.87D-07
 IDIUse=1 WtCom= 1.00D+00 WtEn= 0.00D+00
 Coeff-Com:  0.141D-02-0.128D-01-0.149D-01 0.351D-01 0.329D+00 0.662D+00
 Coeff:      0.141D-02-0.128D-01-0.149D-01 0.351D-01 0.329D+00 0.662D+00
 Gap=     0.318 Goal=   None    Shift=    0.000
 RMSDP=1.90D-06 MaxDP=3.20D-05 DE=-2.84D-07 OVMax= 7.08D-05

 Cycle   7  Pass 1  IDiag  1:
 E= -171.272871283172     Delta-E=       -0.000000034063 Rises=F Damp=F
 DIIS: error= 6.66D-06 at cycle   7 NSaved=   7.
 NSaved= 7 IEnMin= 7 EnMin= -171.272871283172     IErMin= 7 ErrMin= 6.66D-06
 ErrMax= 6.66D-06  0.00D+00 EMaxC= 1.00D-01 BMatC= 4.66D-09 BMatP= 3.99D-08
 IDIUse=1 WtCom= 1.00D+00 WtEn= 0.00D+00
 Coeff-Com:  0.632D-04 0.858D-03-0.193D-02-0.118D-01-0.243D-01 0.226D+00
 Coeff-Com:  0.811D+00
 Coeff:      0.632D-04 0.858D-03-0.193D-02-0.118D-01-0.243D-01 0.226D+00
 Coeff:      0.811D+00
 Gap=     0.318 Goal=   None    Shift=    0.000
 RMSDP=9.81D-07 MaxDP=1.50D-05 DE=-3.41D-08 OVMax= 4.36D-05

 Cycle   8  Pass 1  IDiag  1:
 E= -171.272871288494     Delta-E=       -0.000000005322 Rises=F Damp=F
 DIIS: error= 1.36D-06 at cycle   8 NSaved=   8.
 NSaved= 8 IEnMin= 8 EnMin= -171.272871288494     IErMin= 8 ErrMin= 1.36D-06
 ErrMax= 1.36D-06  0.00D+00 EMaxC= 1.00D-01 BMatC= 3.06D-10 BMatP= 4.66D-09
 IDIUse=1 WtCom= 1.00D+00 WtEn= 0.00D+00
 Coeff-Com: -0.105D-03 0.126D-02 0.106D-02-0.600D-02-0.399D-01-0.114D-01
 Coeff-Com:  0.188D+00 0.867D+00
 Coeff:     -0.105D-03 0.126D-02 0.106D-02-0.600D-02-0.399D-01-0.114D-01
 Coeff:      0.188D+00 0.867D+00
 Gap=     0.318 Goal=   None    Shift=    0.000
 RMSDP=3.45D-07 MaxDP=5.09D-06 DE=-5.32D-09 OVMax= 1.87D-05

 Cycle   9  Pass 1  IDiag  1:
 E= -171.272871289065     Delta-E=       -0.000000000571 Rises=F Damp=F
 DIIS: error= 4.83D-07 at cycle   9 NSaved=   9.
 NSaved= 9 IEnMin= 9 EnMin= -171.272871289065     IErMin= 9 ErrMin= 4.83D-07
 ErrMax= 4.83D-07  0.00D+00 EMaxC= 1.00D-01 BMatC= 4.47D-11 BMatP= 3.06D-10
 IDIUse=1 WtCom= 1.00D+00 WtEn= 0.00D+00
 Coeff-Com: -0.379D-04 0.204D-03 0.730D-03 0.115D-03-0.964D-02-0.406D-01
 Coeff-Com: -0.529D-01 0.239D+00 0.863D+00
 Coeff:     -0.379D-04 0.204D-03 0.730D-03 0.115D-03-0.964D-02-0.406D-01
 Coeff:     -0.529D-01 0.239D+00 0.863D+00
 Gap=     0.318 Goal=   None    Shift=    0.000
 RMSDP=1.46D-07 MaxDP=2.35D-06 DE=-5.71D-10 OVMax= 8.22D-06

 Cycle  10  Pass 1  IDiag  1:
 E= -171.272871289155     Delta-E=       -0.000000000090 Rises=F Damp=F
 DIIS: error= 1.30D-07 at cycle  10 NSaved=  10.
 NSaved=10 IEnMin=10 EnMin= -171.272871289155     IErMin=10 ErrMin= 1.30D-07
 ErrMax= 1.30D-07  0.00D+00 EMaxC= 1.00D-01 BMatC= 2.34D-12 BMatP= 4.47D-11
 IDIUse=1 WtCom= 1.00D+00 WtEn= 0.00D+00
 Coeff-Com:  0.822D-05-0.120D-03-0.627D-05 0.883D-03 0.361D-02-0.209D-02
 Coeff-Com: -0.191D-01-0.813D-01 0.636D-01 0.103D+01
 Coeff:      0.822D-05-0.120D-03-0.627D-05 0.883D-03 0.361D-02-0.209D-02
 Coeff:     -0.191D-01-0.813D-01 0.636D-01 0.103D+01
 Gap=     0.318 Goal=   None    Shift=    0.000
 RMSDP=3.97D-08 MaxDP=8.46D-07 DE=-9.02D-11 OVMax= 2.40D-06

 Cycle  11  Pass 1  IDiag  1:
 E= -171.272871289162     Delta-E=       -0.000000000006 Rises=F Damp=F
 DIIS: error= 2.38D-08 at cycle  11 NSaved=  11.
 NSaved=11 IEnMin=11 EnMin= -171.272871289162     IErMin=11 ErrMin= 2.38D-08
 ErrMax= 2.38D-08  0.00D+00 EMaxC= 1.00D-01 BMatC= 5.97D-14 BMatP= 2.34D-12
 IDIUse=1 WtCom= 1.00D+00 WtEn= 0.00D+00
 Coeff-Com:  0.823D-06-0.272D-05-0.298D-04-0.253D-04 0.140D-03 0.128D-02
 Coeff-Com:  0.161D-02-0.607D-02-0.340D-01-0.385D-01 0.108D+01
 Coeff:      0.823D-06-0.272D-05-0.298D-04-0.253D-04 0.140D-03 0.128D-02
 Coeff:      0.161D-02-0.607D-02-0.340D-01-0.385D-01 0.108D+01
 Gap=     0.318 Goal=   None    Shift=    0.000
 RMSDP=7.24D-09 MaxDP=1.61D-07 DE=-6.42D-12 OVMax= 4.37D-07

 SCF Done:  E(RM062X) =  -171.272871289     A.U. after   11 cycles
            NFock= 11  Conv=0.72D-08     -V/T= 2.0034
 KE= 1.706899175078D+02 PE=-5.740263011843D+02 EE= 1.422220487876D+02
 Leave Link  502 at Mon Dec 30 16:44:30 2019, MaxMem= 10737418240 cpu:              34.5 elap:               1.7
 (Enter /apps/cent7/gaussian/g16-A.03/g16-haswell/g16/l701.exe)
 ... and contract with generalized density number  0.
 Compute integral first derivatives.
 Leave Link  701 at Mon Dec 30 16:44:30 2019, MaxMem= 10737418240 cpu:               2.3 elap:               0.1
 (Enter /apps/cent7/gaussian/g16-A.03/g16-haswell/g16/l702.exe)
 L702 exits ... SP integral derivatives will be done elsewhere.
 Leave Link  702 at Mon Dec 30 16:44:30 2019, MaxMem= 10737418240 cpu:               0.6 elap:               0.0
 (Enter /apps/cent7/gaussian/g16-A.03/g16-haswell/g16/l703.exe)
 Integral derivatives from FoFJK, PRISM(SPDF).
 Compute integral first derivatives, UseDBF=F ICtDFT=           0.
 Calling FoFJK, ICntrl=      2127 FMM=F ISym2X=0 I1Cent= 0 IOpClX= 0 NMat=1 NMatS=1 NMatT=0.
 FoFJK:  IHMeth= 1 ICntrl=    2127 DoSepK=F KAlg= 0 I1Cent=           0 FoldK=F
 IRaf=         0 NMat=       1 IRICut=       1 DoRegI=T DoRafI=F ISym2E= 0 IDoP0=0 IntGTp=1.
 FoFCou: FMM=F IPFlag=           0 FMFlag=      100000 FMFlg1=         800
         NFxFlg=           0 DoJE=F BraDBF=F KetDBF=F FulRan=T
         wScrn=  0.000000 ICntrl=      2127 IOpCl=  0 I1Cent=           0 NGrid=           0
         NMat0=    1 NMatS0=      1 NMatT0=    0 NMatD0=    1 NMtDS0=    0 NMtDT0=    0
 Symmetry not used in FoFCou.
 Leave Link  703 at Mon Dec 30 16:44:31 2019, MaxMem= 10737418240 cpu:               9.2 elap:               0.4
 (Enter /apps/cent7/gaussian/g16-A.03/g16-haswell/g16/l716.exe)
 Dipole        =-1.57149370D+00 2.12153973D-01 2.06587243D-01
 ***** Axes restored to original set *****
 -------------------------------------------------------------------
 Center     Atomic                   Forces (Hartrees/Bohr)
 Number     Number              X              Y              Z
 -------------------------------------------------------------------
      1        6          -0.003667472    0.007882112    0.007180869
      2        7           0.011708022   -0.011886324   -0.010927568
      3        8          -0.009438460    0.007527411    0.003017604
      4        1           0.001544539   -0.001672016   -0.000738152
      5        1          -0.002563381   -0.002285573    0.001012827
      6        1          -0.000392311   -0.000689882    0.000538933
      7        1          -0.004065271    0.004980989    0.002051421
      8        1           0.006021039   -0.003449732   -0.000071019
      9        1           0.000853294   -0.000406985   -0.002064914
 -------------------------------------------------------------------
 Cartesian Forces:  Max     0.011886324 RMS     0.005436835
 Leave Link  716 at Mon Dec 30 16:44:31 2019, MaxMem= 10737418240 cpu:               0.5 elap:               0.0
 (Enter /apps/cent7/gaussian/g16-A.03/g16-haswell/g16/l103.exe)

 GradGradGradGradGradGradGradGradGradGradGradGradGradGradGradGradGradGrad
 Berny optimization.
 Using GEDIIS/GDIIS optimizer.
 FormGI is forming the generalized inverse of G from B-inverse, IUseBI=4.
 Internal  Forces:  Max     0.007826872 RMS     0.002873759
 Search for a local minimum.
 Step number   2 out of a maximum of   40
 All quantities printed in internal units (Hartrees-Bohrs-Radians)
 RMS Force = .28738D-02 SwitMx=.10000D-02 MixMth= 1
 Mixed Optimization -- RFO/linear search
 Update second derivatives using D2CorX and points    1    2
 DE= -9.92D-03 DEPred=-1.06D-02 R= 9.36D-01
 TightC=F SS=  1.41D+00  RLast= 3.26D-01 DXNew= 5.0454D-01 9.7800D-01
 Trust test= 9.36D-01 RLast= 3.26D-01 DXMaxT set to 5.05D-01
 ITU=  1  0
 Use linear search instead of GDIIS.
     Eigenvalues ---    0.00780   0.01133   0.01820   0.04919   0.07154
     Eigenvalues ---    0.07786   0.14573   0.15998   0.16000   0.16000
     Eigenvalues ---    0.16000   0.17100   0.24195   0.34809   0.34812
     Eigenvalues ---    0.34847   0.35519   0.45978   0.53348   0.55471
     Eigenvalues ---    0.56495
 RFO step:  Lambda=-3.40713941D-03 EMin= 7.79834181D-03
 Quartic linear search produced a step of  0.14681.
 Iteration  1 RMS(Cart)=  0.06070940 RMS(Int)=  0.00542398
 Iteration  2 RMS(Cart)=  0.00556551 RMS(Int)=  0.00133926
 Iteration  3 RMS(Cart)=  0.00005429 RMS(Int)=  0.00133807
 Iteration  4 RMS(Cart)=  0.00000009 RMS(Int)=  0.00133807
 ITry= 1 IFail=0 DXMaxC= 1.73D-01 DCOld= 1.00D+10 DXMaxT= 5.05D-01 DXLimC= 3.00D+00 Rises=F
 Variable       Old X    -DE/DX   Delta X   Delta X   Delta X     New X
                                 (Linear)    (Quad)   (Total)
    R1        2.76223  -0.00783  -0.00203  -0.02417  -0.02621   2.73603
    R2        2.05894   0.00051  -0.00014   0.00169   0.00155   2.06049
    R3        2.05637   0.00090  -0.00051   0.00302   0.00251   2.05887
    R4        2.06378  -0.00087   0.00059  -0.00294  -0.00235   2.06143
    R5        2.65854   0.00313   0.01428   0.00338   0.01766   2.67620
    R6        1.90552  -0.00032  -0.00044  -0.00069  -0.00113   1.90439
    R7        1.85141  -0.00081   0.00547  -0.00287   0.00260   1.85401
    R8        1.85621  -0.00043   0.00618  -0.00225   0.00392   1.86013
    A1        1.89805   0.00303  -0.00184   0.02474   0.02252   1.92057
    A2        1.87334  -0.00591  -0.00547  -0.04722  -0.05273   1.82061
    A3        1.95831   0.00032   0.00700   0.00491   0.01154   1.96985
    A4        1.89739   0.00010  -0.00194  -0.00702  -0.00900   1.88839
    A5        1.92642   0.00023   0.00232   0.01418   0.01587   1.94229
    A6        1.90872   0.00206  -0.00030   0.00842   0.00808   1.91680
    A7        2.01699  -0.00180   0.01631  -0.01293   0.00146   2.01845
    A8        2.25551   0.00600   0.00153   0.03904   0.03816   2.29367
    A9        2.01028  -0.00423  -0.01790  -0.02914  -0.04875   1.96153
   A10        2.00191  -0.00222   0.01340  -0.00663   0.00502   2.00693
   A11        1.99808  -0.00097   0.01284   0.00216   0.01326   2.01133
   A12        1.91997   0.00427   0.00137   0.04784   0.04673   1.96671
    D1        0.73365   0.00260   0.01064   0.12670   0.13865   0.87230
    D2       -2.44025   0.00097   0.00591   0.00438   0.00942  -2.43083
    D3        2.78342   0.00110   0.00411   0.10575   0.11096   2.89438
    D4       -0.39048  -0.00052  -0.00062  -0.01656  -0.01827  -0.40875
    D5       -1.40247  -0.00003   0.00452   0.08822   0.09361  -1.30886
    D6        1.70681  -0.00166  -0.00022  -0.03409  -0.03562   1.67120
    D7       -2.39796   0.00326   0.01766   0.10026   0.12087  -2.27709
    D8        1.64158   0.00008  -0.00426   0.03498   0.03209   1.67366
    D9        0.77129   0.00446   0.02171   0.20368   0.22403   0.99532
   D10       -1.47236   0.00129  -0.00020   0.13840   0.13524  -1.33712
         Item               Value     Threshold  Converged?
 Maximum Force            0.007827     0.000450     NO 
 RMS     Force            0.002874     0.000300     NO 
 Maximum Displacement     0.172858     0.001800     NO 
 RMS     Displacement     0.063789     0.001200     NO 
 Predicted change in Energy=-1.757429D-03
 Lowest energy point so far.  Saving SCF results.
 GradGradGradGradGradGradGradGradGradGradGradGradGradGradGradGradGradGrad

 Leave Link  103 at Mon Dec 30 16:44:31 2019, MaxMem= 10737418240 cpu:               0.4 elap:               0.0
 (Enter /apps/cent7/gaussian/g16-A.03/g16-haswell/g16/l202.exe)
                          Input orientation:                          
 ---------------------------------------------------------------------
 Center     Atomic      Atomic             Coordinates (Angstroms)
 Number     Number       Type             X           Y           Z
 ---------------------------------------------------------------------
      1          6           0        1.474495    0.057352   -0.429869
      2          7           0        0.219752   -0.159152    0.259330
      3          8           0       -0.017996    0.677379    1.377034
      4          1           0        2.297130    0.066508    0.285733
      5          1           0        1.587000   -0.819692   -1.066395
      6          1           0        1.471717    0.960543   -1.041601
      7          1           0       -0.583307   -0.719707    0.021728
      8          1           0       -0.296303    0.209429    2.193201
      9          1           0       -0.561185    1.477690    1.194349
 ---------------------------------------------------------------------
                    Distance matrix (angstroms):
                    1          2          3          4          5
     1  C    0.000000
     2  N    1.447843   0.000000
     3  O    2.424224   1.416182   0.000000
     4  H    1.090366   2.089765   2.631333   0.000000
     5  H    1.089509   2.015745   3.284445   1.765753   0.000000
     6  H    1.090860   2.124513   2.854684   1.800672   1.784136
     7  H    2.245509   1.007760   2.026889   2.997458   2.429865
     8  H    3.168494   2.035196   0.981102   3.222539   3.902677
     9  H    2.966385   2.040435   0.984340   3.314662   3.873452
                    6          7          8          9
     6  H    0.000000
     7  H    2.859551   0.000000
     8  H    3.762181   2.379277   0.000000
     9  H    3.065878   2.490799   1.635956   0.000000
 Stoichiometry    CH6NO(1+)
 Framework group  C1[X(CH6NO)]
 Deg. of freedom    21
 Full point group                 C1      NOp   1
 RotChk:  IX=0 Diff= 3.28D-02
 Largest Abelian subgroup         C1      NOp   1
 Largest concise Abelian subgroup C1      NOp   1
                         Standard orientation:                         
 ---------------------------------------------------------------------
 Center     Atomic      Atomic             Coordinates (Angstroms)
 Number     Number       Type             X           Y           Z
 ---------------------------------------------------------------------
      1          6           0        1.276043   -0.231429   -0.011921
      2          7           0        0.034971    0.513720    0.015385
      3          8           0       -1.147898   -0.263655   -0.030224
      4          1           0        1.262527   -0.949898   -0.831993
      5          1           0        2.035818    0.518615   -0.229189
      6          1           0        1.498621   -0.719078    0.938149
      7          1           0       -0.153229    1.489499    0.182763
      8          1           0       -1.806732    0.023002   -0.698301
      9          1           0       -1.554876   -0.460368    0.844189
 ---------------------------------------------------------------------
 Rotational constants (GHZ):          40.4713894           8.8188868           7.8964331
 Leave Link  202 at Mon Dec 30 16:44:31 2019, MaxMem= 10737418240 cpu:               0.2 elap:               0.0
 (Enter /apps/cent7/gaussian/g16-A.03/g16-haswell/g16/l301.exe)
 Standard basis: 6-311++G(d,p) (5D, 7F)
 Ernie: Thresh=  0.10000D-02 Tol=  0.10000D-05 Strict=F.
 There are   111 symmetry adapted cartesian basis functions of A   symmetry.
 There are   108 symmetry adapted basis functions of A   symmetry.
   108 basis functions,   162 primitive gaussians,   111 cartesian basis functions
    13 alpha electrons       13 beta electrons
       nuclear repulsion energy        89.8641902963 Hartrees.
 IExCor= 4336 DFT=T Ex+Corr=M062X ExCW=0 ScaHFX=  0.540000
 ScaDFX=  1.000000  1.000000  1.000000  1.000000 ScalE2=  1.000000  1.000000
 IRadAn=      5 IRanWt=     -1 IRanGd=            0 ICorTp=0 IEmpDi=  4
 NAtoms=    9 NActive=    9 NUniq=    9 SFac= 1.00D+00 NAtFMM=   60 NAOKFM=F Big=F
 Integral buffers will be    131072 words long.
 Raffenetti 2 integral format.
 Two-electron integral symmetry is turned on.
 Leave Link  301 at Mon Dec 30 16:44:31 2019, MaxMem= 10737418240 cpu:               1.6 elap:               0.1
 (Enter /apps/cent7/gaussian/g16-A.03/g16-haswell/g16/l302.exe)
 NPDir=0 NMtPBC=     1 NCelOv=     1 NCel=       1 NClECP=     1 NCelD=      1
         NCelK=      1 NCelE2=     1 NClLst=     1 CellRange=     0.0.
 One-electron integrals computed using PRISM.
 One-electron integral symmetry used in STVInt
 NBasis=   108 RedAO= T EigKep=  5.16D-04  NBF=   108
 NBsUse=   108 1.00D-06 EigRej= -1.00D+00 NBFU=   108
 Precomputing XC quadrature grid using
 IXCGrd= 4 IRadAn=           5 IRanWt=          -1 IRanGd=           0 AccXCQ= 0.00D+00.
 Generated NRdTot=       0 NPtTot=           0 NUsed=           0 NTot=          32
 NSgBfM=   111   111   111   111   111 MxSgAt=     9 MxSgA2=     9.
 Leave Link  302 at Mon Dec 30 16:44:31 2019, MaxMem= 10737418240 cpu:               2.7 elap:               0.1
 (Enter /apps/cent7/gaussian/g16-A.03/g16-haswell/g16/l303.exe)
 DipDrv:  MaxL=1.
 Leave Link  303 at Mon Dec 30 16:44:31 2019, MaxMem= 10737418240 cpu:               0.6 elap:               0.0
 (Enter /apps/cent7/gaussian/g16-A.03/g16-haswell/g16/l401.exe)
 Initial guess from the checkpoint file:  "8_p_b.chk"
 B after Tr=    -0.000000    0.000000    0.000000
         Rot=    0.999992    0.001286    0.003664    0.000361 Ang=   0.45 deg.
 Guess basis will be translated and rotated to current coordinates.
 JPrj=2 DoOrth=T DoCkMO=T.
 Generating alternative initial guess.
 ExpMin= 3.60D-02 ExpMax= 8.59D+03 ExpMxC= 1.30D+03 IAcc=3 IRadAn=         5 AccDes= 0.00D+00
 Harris functional with IExCor= 1009 and IRadAn=       5 diagonalized for initial guess.
 HarFok:  IExCor= 1009 AccDes= 0.00D+00 IRadAn=         5 IDoV= 1 UseB2=F ITyADJ=14
 ICtDFT=  3500011 ScaDFX=  1.000000  1.000000  1.000000  1.000000
 FoFCou: FMM=F IPFlag=           0 FMFlag=      100000 FMFlg1=           0
         NFxFlg=           0 DoJE=T BraDBF=F KetDBF=T FulRan=T
         wScrn=  0.000000 ICntrl=       500 IOpCl=  0 I1Cent=   200000004 NGrid=           0
         NMat0=    1 NMatS0=      1 NMatT0=    0 NMatD0=    1 NMtDS0=    0 NMtDT0=    0
 Petite list used in FoFCou.
 Harris En= -171.282263440066    
 Leave Link  401 at Mon Dec 30 16:44:31 2019, MaxMem= 10737418240 cpu:               6.5 elap:               0.3
 (Enter /apps/cent7/gaussian/g16-A.03/g16-haswell/g16/l502.exe)
 Keep R1 ints in memory in canonical form, NReq=39756064.
 FoFCou: FMM=F IPFlag=           0 FMFlag=           0 FMFlg1=           0
         NFxFlg=           0 DoJE=F BraDBF=F KetDBF=F FulRan=T
         wScrn=  0.000000 ICntrl=       600 IOpCl=  0 I1Cent=           0 NGrid=           0
         NMat0=    1 NMatS0=   5886 NMatT0=    0 NMatD0=    1 NMtDS0=    0 NMtDT0=    0
 Symmetry not used in FoFCou.
 Two-electron integral symmetry not used.
 Closed shell SCF:
 Using DIIS extrapolation, IDIIS=  1040.
 NGot= 10737418240 LenX= 10720064220 LenY= 10720051458
 Requested convergence on RMS density matrix=1.00D-08 within 128 cycles.
 Requested convergence on MAX density matrix=1.00D-06.
 Requested convergence on             energy=1.00D-06.
 No special actions if energy rises.

 Cycle   1  Pass 1  IDiag  1:
 E= -171.270897845786    
 DIIS: error= 4.38D-03 at cycle   1 NSaved=   1.
 NSaved= 1 IEnMin= 1 EnMin= -171.270897845786     IErMin= 1 ErrMin= 4.38D-03
 ErrMax= 4.38D-03  0.00D+00 EMaxC= 1.00D-01 BMatC= 3.38D-03 BMatP= 3.38D-03
 IDIUse=3 WtCom= 9.56D-01 WtEn= 4.38D-02
 Coeff-Com:  0.100D+01
 Coeff-En:   0.100D+01
 Coeff:      0.100D+01
 Gap=     0.456 Goal=   None    Shift=    0.000
 GapD=    0.456 DampG=2.000 DampE=1.000 DampFc=2.0000 IDamp=-1.
 RMSDP=8.15D-04 MaxDP=1.66D-02              OVMax= 1.93D-02

 Cycle   2  Pass 1  IDiag  1:
 E= -171.275356902436     Delta-E=       -0.004459056650 Rises=F Damp=F
 DIIS: error= 7.01D-04 at cycle   2 NSaved=   2.
 NSaved= 2 IEnMin= 2 EnMin= -171.275356902436     IErMin= 2 ErrMin= 7.01D-04
 ErrMax= 7.01D-04  0.00D+00 EMaxC= 1.00D-01 BMatC= 9.42D-05 BMatP= 3.38D-03
 IDIUse=3 WtCom= 9.93D-01 WtEn= 7.01D-03
 Coeff-Com: -0.153D+00 0.115D+01
 Coeff-En:   0.000D+00 0.100D+01
 Coeff:     -0.152D+00 0.115D+01
 Gap=     0.320 Goal=   None    Shift=    0.000
 RMSDP=1.93D-04 MaxDP=3.12D-03 DE=-4.46D-03 OVMax= 6.52D-03

 Cycle   3  Pass 1  IDiag  1:
 E= -171.275560107691     Delta-E=       -0.000203205255 Rises=F Damp=F
 DIIS: error= 1.49D-04 at cycle   3 NSaved=   3.
 NSaved= 3 IEnMin= 3 EnMin= -171.275560107691     IErMin= 3 ErrMin= 1.49D-04
 ErrMax= 1.49D-04  0.00D+00 EMaxC= 1.00D-01 BMatC= 3.16D-06 BMatP= 9.42D-05
 IDIUse=3 WtCom= 9.99D-01 WtEn= 1.49D-03
 Coeff-Com: -0.265D-02-0.546D-01 0.106D+01
 Coeff-En:   0.000D+00 0.000D+00 0.100D+01
 Coeff:     -0.265D-02-0.546D-01 0.106D+01
 Gap=     0.321 Goal=   None    Shift=    0.000
 RMSDP=3.75D-05 MaxDP=5.50D-04 DE=-2.03D-04 OVMax= 1.86D-03

 Cycle   4  Pass 1  IDiag  1:
 E= -171.275566168239     Delta-E=       -0.000006060548 Rises=F Damp=F
 DIIS: error= 1.17D-04 at cycle   4 NSaved=   4.
 NSaved= 4 IEnMin= 4 EnMin= -171.275566168239     IErMin= 4 ErrMin= 1.17D-04
 ErrMax= 1.17D-04  0.00D+00 EMaxC= 1.00D-01 BMatC= 1.79D-06 BMatP= 3.16D-06
 IDIUse=3 WtCom= 9.99D-01 WtEn= 1.17D-03
 Coeff-Com:  0.115D-01-0.122D+00 0.490D+00 0.620D+00
 Coeff-En:   0.000D+00 0.000D+00 0.000D+00 0.100D+01
 Coeff:      0.115D-01-0.121D+00 0.489D+00 0.621D+00
 Gap=     0.320 Goal=   None    Shift=    0.000
 RMSDP=1.17D-05 MaxDP=2.42D-04 DE=-6.06D-06 OVMax= 5.91D-04

 Cycle   5  Pass 1  IDiag  1:
 E= -171.275567935470     Delta-E=       -0.000001767231 Rises=F Damp=F
 DIIS: error= 2.36D-05 at cycle   5 NSaved=   5.
 NSaved= 5 IEnMin= 5 EnMin= -171.275567935470     IErMin= 5 ErrMin= 2.36D-05
 ErrMax= 2.36D-05  0.00D+00 EMaxC= 1.00D-01 BMatC= 7.23D-08 BMatP= 1.79D-06
 IDIUse=1 WtCom= 1.00D+00 WtEn= 0.00D+00
 Coeff-Com:  0.354D-02-0.279D-01 0.138D-01 0.125D+00 0.885D+00
 Coeff:      0.354D-02-0.279D-01 0.138D-01 0.125D+00 0.885D+00
 Gap=     0.321 Goal=   None    Shift=    0.000
 RMSDP=4.82D-06 MaxDP=7.21D-05 DE=-1.77D-06 OVMax= 2.85D-04

 Cycle   6  Pass 1  IDiag  1:
 E= -171.275568070935     Delta-E=       -0.000000135465 Rises=F Damp=F
 DIIS: error= 9.93D-06 at cycle   6 NSaved=   6.
 NSaved= 6 IEnMin= 6 EnMin= -171.275568070935     IErMin= 6 ErrMin= 9.93D-06
 ErrMax= 9.93D-06  0.00D+00 EMaxC= 1.00D-01 BMatC= 1.23D-08 BMatP= 7.23D-08
 IDIUse=1 WtCom= 1.00D+00 WtEn= 0.00D+00
 Coeff-Com: -0.106D-03 0.498D-02-0.506D-01-0.364D-01 0.243D+00 0.839D+00
 Coeff:     -0.106D-03 0.498D-02-0.506D-01-0.364D-01 0.243D+00 0.839D+00
 Gap=     0.321 Goal=   None    Shift=    0.000
 RMSDP=2.28D-06 MaxDP=3.75D-05 DE=-1.35D-07 OVMax= 1.25D-04

 Cycle   7  Pass 1  IDiag  1:
 E= -171.275568093257     Delta-E=       -0.000000022322 Rises=F Damp=F
 DIIS: error= 4.80D-06 at cycle   7 NSaved=   7.
 NSaved= 7 IEnMin= 7 EnMin= -171.275568093257     IErMin= 7 ErrMin= 4.80D-06
 ErrMax= 4.80D-06  0.00D+00 EMaxC= 1.00D-01 BMatC= 2.83D-09 BMatP= 1.23D-08
 IDIUse=1 WtCom= 1.00D+00 WtEn= 0.00D+00
 Coeff-Com: -0.598D-03 0.608D-02-0.178D-01-0.341D-01-0.771D-01 0.326D+00
 Coeff-Com:  0.798D+00
 Coeff:     -0.598D-03 0.608D-02-0.178D-01-0.341D-01-0.771D-01 0.326D+00
 Coeff:      0.798D+00
 Gap=     0.321 Goal=   None    Shift=    0.000
 RMSDP=9.11D-07 MaxDP=1.60D-05 DE=-2.23D-08 OVMax= 5.06D-05

 Cycle   8  Pass 1  IDiag  1:
 E= -171.275568097132     Delta-E=       -0.000000003875 Rises=F Damp=F
 DIIS: error= 1.04D-06 at cycle   8 NSaved=   8.
 NSaved= 8 IEnMin= 8 EnMin= -171.275568097132     IErMin= 8 ErrMin= 1.04D-06
 ErrMax= 1.04D-06  0.00D+00 EMaxC= 1.00D-01 BMatC= 1.71D-10 BMatP= 2.83D-09
 IDIUse=1 WtCom= 1.00D+00 WtEn= 0.00D+00
 Coeff-Com: -0.942D-04 0.723D-03 0.128D-02-0.511D-02-0.447D-01 0.835D-02
 Coeff-Com:  0.218D+00 0.821D+00
 Coeff:     -0.942D-04 0.723D-03 0.128D-02-0.511D-02-0.447D-01 0.835D-02
 Coeff:      0.218D+00 0.821D+00
 Gap=     0.321 Goal=   None    Shift=    0.000
 RMSDP=2.29D-07 MaxDP=3.55D-06 DE=-3.87D-09 OVMax= 1.15D-05

 Cycle   9  Pass 1  IDiag  1:
 E= -171.275568097369     Delta-E=       -0.000000000237 Rises=F Damp=F
 DIIS: error= 3.89D-07 at cycle   9 NSaved=   9.
 NSaved= 9 IEnMin= 9 EnMin= -171.275568097369     IErMin= 9 ErrMin= 3.89D-07
 ErrMax= 3.89D-07  0.00D+00 EMaxC= 1.00D-01 BMatC= 2.04D-11 BMatP= 1.71D-10
 IDIUse=1 WtCom= 1.00D+00 WtEn= 0.00D+00
 Coeff-Com:  0.395D-04-0.503D-03 0.275D-02 0.221D-02-0.714D-02-0.400D-01
 Coeff-Com: -0.252D-01 0.285D+00 0.782D+00
 Coeff:      0.395D-04-0.503D-03 0.275D-02 0.221D-02-0.714D-02-0.400D-01
 Coeff:     -0.252D-01 0.285D+00 0.782D+00
 Gap=     0.321 Goal=   None    Shift=    0.000
 RMSDP=7.31D-08 MaxDP=1.20D-06 DE=-2.37D-10 OVMax= 3.78D-06

 Cycle  10  Pass 1  IDiag  1:
 E= -171.275568097398     Delta-E=       -0.000000000029 Rises=F Damp=F
 DIIS: error= 5.83D-08 at cycle  10 NSaved=  10.
 NSaved=10 IEnMin=10 EnMin= -171.275568097398     IErMin=10 ErrMin= 5.83D-08
 ErrMax= 5.83D-08  0.00D+00 EMaxC= 1.00D-01 BMatC= 6.13D-13 BMatP= 2.04D-11
 IDIUse=1 WtCom= 1.00D+00 WtEn= 0.00D+00
 Coeff-Com:  0.134D-04-0.139D-03 0.426D-03 0.748D-03 0.198D-02-0.627D-02
 Coeff-Com: -0.193D-01-0.462D-02 0.129D+00 0.898D+00
 Coeff:      0.134D-04-0.139D-03 0.426D-03 0.748D-03 0.198D-02-0.627D-02
 Coeff:     -0.193D-01-0.462D-02 0.129D+00 0.898D+00
 Gap=     0.321 Goal=   None    Shift=    0.000
 RMSDP=1.00D-08 MaxDP=2.05D-07 DE=-2.90D-11 OVMax= 5.55D-07

 Cycle  11  Pass 1  IDiag  1:
 E= -171.275568097399     Delta-E=       -0.000000000001 Rises=F Damp=F
 DIIS: error= 1.18D-08 at cycle  11 NSaved=  11.
 NSaved=11 IEnMin=11 EnMin= -171.275568097399     IErMin=11 ErrMin= 1.18D-08
 ErrMax= 1.18D-08  0.00D+00 EMaxC= 1.00D-01 BMatC= 2.21D-14 BMatP= 6.13D-13
 IDIUse=1 WtCom= 1.00D+00 WtEn= 0.00D+00
 Coeff-Com: -0.128D-05 0.172D-04-0.116D-03-0.625D-04 0.426D-03 0.147D-02
 Coeff-Com: -0.432D-03-0.154D-01-0.311D-01 0.665D-01 0.979D+00
 Coeff:     -0.128D-05 0.172D-04-0.116D-03-0.625D-04 0.426D-03 0.147D-02
 Coeff:     -0.432D-03-0.154D-01-0.311D-01 0.665D-01 0.979D+00
 Gap=     0.321 Goal=   None    Shift=    0.000
 RMSDP=3.51D-09 MaxDP=5.29D-08 DE=-9.66D-13 OVMax= 1.89D-07

 SCF Done:  E(RM062X) =  -171.275568097     A.U. after   11 cycles
            NFock= 11  Conv=0.35D-08     -V/T= 2.0034
 KE= 1.706958557098D+02 PE=-5.741062630127D+02 EE= 1.422706489091D+02
 Leave Link  502 at Mon Dec 30 16:44:33 2019, MaxMem= 10737418240 cpu:              34.9 elap:               1.7
 (Enter /apps/cent7/gaussian/g16-A.03/g16-haswell/g16/l701.exe)
 ... and contract with generalized density number  0.
 Compute integral first derivatives.
 Leave Link  701 at Mon Dec 30 16:44:33 2019, MaxMem= 10737418240 cpu:               2.3 elap:               0.1
 (Enter /apps/cent7/gaussian/g16-A.03/g16-haswell/g16/l702.exe)
 L702 exits ... SP integral derivatives will be done elsewhere.
 Leave Link  702 at Mon Dec 30 16:44:33 2019, MaxMem= 10737418240 cpu:               1.1 elap:               0.1
 (Enter /apps/cent7/gaussian/g16-A.03/g16-haswell/g16/l703.exe)
 Integral derivatives from FoFJK, PRISM(SPDF).
 Compute integral first derivatives, UseDBF=F ICtDFT=           0.
 Calling FoFJK, ICntrl=      2127 FMM=F ISym2X=0 I1Cent= 0 IOpClX= 0 NMat=1 NMatS=1 NMatT=0.
 FoFJK:  IHMeth= 1 ICntrl=    2127 DoSepK=F KAlg= 0 I1Cent=           0 FoldK=F
 IRaf=         0 NMat=       1 IRICut=       1 DoRegI=T DoRafI=F ISym2E= 0 IDoP0=0 IntGTp=1.
 FoFCou: FMM=F IPFlag=           0 FMFlag=      100000 FMFlg1=         800
         NFxFlg=           0 DoJE=F BraDBF=F KetDBF=F FulRan=T
         wScrn=  0.000000 ICntrl=      2127 IOpCl=  0 I1Cent=           0 NGrid=           0
         NMat0=    1 NMatS0=      1 NMatT0=    0 NMatD0=    1 NMtDS0=    0 NMtDT0=    0
 Symmetry not used in FoFCou.
 Leave Link  703 at Mon Dec 30 16:44:34 2019, MaxMem= 10737418240 cpu:               8.5 elap:               0.4
 (Enter /apps/cent7/gaussian/g16-A.03/g16-haswell/g16/l716.exe)
 Dipole        =-1.55191189D+00 2.03705109D-01 2.11117134D-01
 ***** Axes restored to original set *****
 -------------------------------------------------------------------
 Center     Atomic                   Forces (Hartrees/Bohr)
 Number     Number              X              Y              Z
 -------------------------------------------------------------------
      1        6          -0.001634551    0.003183219    0.001688694
      2        7           0.003829801   -0.010297517    0.006197087
      3        8          -0.006810653    0.008001889   -0.000679318
      4        1          -0.000169435   -0.000604120   -0.000432399
      5        1           0.000306305   -0.000394898   -0.001344214
      6        1           0.000394489   -0.000148275   -0.000155314
      7        1          -0.001915893    0.003886895   -0.003485866
      8        1           0.004197609   -0.000407804   -0.002592094
      9        1           0.001802328   -0.003219390    0.000803424
 -------------------------------------------------------------------
 Cartesian Forces:  Max     0.010297517 RMS     0.003642219
 Leave Link  716 at Mon Dec 30 16:44:34 2019, MaxMem= 10737418240 cpu:               0.4 elap:               0.0
 (Enter /apps/cent7/gaussian/g16-A.03/g16-haswell/g16/l103.exe)

 GradGradGradGradGradGradGradGradGradGradGradGradGradGradGradGradGradGrad
 Berny optimization.
 Using GEDIIS/GDIIS optimizer.
 FormGI is forming the generalized inverse of G from B-inverse, IUseBI=4.
 Internal  Forces:  Max     0.003761524 RMS     0.001611382
 Search for a local minimum.
 Step number   3 out of a maximum of   40
 All quantities printed in internal units (Hartrees-Bohrs-Radians)
 RMS Force = .16114D-02 SwitMx=.10000D-02 MixMth= 1
 Mixed Optimization -- RFO/linear search
 Update second derivatives using D2CorX and points    2    3
 DE= -2.70D-03 DEPred=-1.76D-03 R= 1.53D+00
 TightC=F SS=  1.41D+00  RLast= 3.70D-01 DXNew= 8.4853D-01 1.1111D+00
 Trust test= 1.53D+00 RLast= 3.70D-01 DXMaxT set to 8.49D-01
 ITU=  1  1  0
 Use linear search instead of GDIIS.
     Eigenvalues ---    0.00332   0.00826   0.01798   0.04429   0.07201
     Eigenvalues ---    0.08097   0.15465   0.15962   0.15995   0.16000
     Eigenvalues ---    0.16833   0.20572   0.24037   0.34768   0.34812
     Eigenvalues ---    0.34844   0.37918   0.45993   0.53299   0.55494
     Eigenvalues ---    0.57534
 RFO step:  Lambda=-3.25253900D-03 EMin= 3.31773854D-03
 Quartic linear search produced a step of  1.01520.
 Iteration  1 RMS(Cart)=  0.07317291 RMS(Int)=  0.06950750
 Iteration  2 RMS(Cart)=  0.07088647 RMS(Int)=  0.01055849
 Iteration  3 RMS(Cart)=  0.00456899 RMS(Int)=  0.00950420
 Iteration  4 RMS(Cart)=  0.00003747 RMS(Int)=  0.00950414
 Iteration  5 RMS(Cart)=  0.00000028 RMS(Int)=  0.00950414
 ITry= 1 IFail=0 DXMaxC= 3.10D-01 DCOld= 1.00D+10 DXMaxT= 8.49D-01 DXLimC= 3.00D+00 Rises=F
 Variable       Old X    -DE/DX   Delta X   Delta X   Delta X     New X
                                 (Linear)    (Quad)   (Total)
    R1        2.73603  -0.00054  -0.02661  -0.00555  -0.03216   2.70387
    R2        2.06049  -0.00042   0.00158  -0.00189  -0.00031   2.06019
    R3        2.05887   0.00113   0.00254   0.00530   0.00785   2.06672
    R4        2.06143  -0.00004  -0.00239  -0.00011  -0.00249   2.05893
    R5        2.67620   0.00077   0.01793   0.00996   0.02789   2.70409
[...]
     26 -0.128172D-02 -0.338094D-03 -0.569095D-02  0.912505D-02  0.133314D-01
     27 -0.199020D-02 -0.838675D-03 -0.845564D-03 -0.223380D-03  0.309221D-02
     28 -0.192063D-02 -0.896870D-03 -0.985394D-03 -0.485011D-03  0.593314D-02
     29  0.185922D-02  0.103932D-02  0.131934D-02 -0.816800D-04 -0.657357D-02
     30  0.192878D-02  0.981126D-03  0.117951D-02 -0.343311D-03 -0.373264D-02
               16            17            18            19            20 
     16  0.585936D-01
     17 -0.174120D-01  0.703667D-01
     18 -0.779081D-02  0.266924D-03  0.986482D-01
     19  0.375546D-02  0.192942D-02 -0.315198D-01  0.101425D+00
     20  0.184365D-02  0.119340D-02 -0.444122D-01 -0.422047D-01  0.628311D-01
     21  0.122663D-01 -0.134356D-01 -0.396070D-02  0.707027D-03  0.149189D-02
     22 -0.917420D-02  0.156516D-01  0.150783D-02  0.183901D-05 -0.447439D-03
     23  0.121438D-01 -0.155989D-01 -0.300879D-02  0.585629D-03  0.848041D-03
     24 -0.929671D-02  0.134883D-01  0.245975D-02 -0.119559D-03 -0.109129D-02
     25  0.874105D-02 -0.155644D-01 -0.234882D-02  0.109562D-02  0.372991D-03
     26 -0.126994D-01  0.135228D-01  0.311972D-02  0.390434D-03 -0.156633D-02
     27  0.166968D-01 -0.873337D-02  0.436954D-02  0.998423D-03  0.267669D-02
     28  0.185410D-01 -0.127143D-01 -0.303676D-02 -0.162391D-02 -0.298964D-02
     29 -0.184468D-01  0.129461D-01  0.612744D-02 -0.427599D-03  0.331015D-02
     30 -0.166026D-01  0.896510D-02 -0.127887D-02 -0.304994D-02 -0.235617D-02
               21            22            23            24            25 
     21  0.221991D-01
     22  0.402091D-02  0.195764D-01
     23  0.485626D-02 -0.125366D-01  0.195372D-01
     24 -0.133220D-01  0.301882D-02  0.214430D-02  0.184851D-01
     25  0.397750D-02 -0.125770D-01  0.346235D-02 -0.130921D-01  0.210744D-01
     26 -0.142007D-01  0.297848D-02 -0.139305D-01  0.324866D-02  0.451996D-02
     27 -0.123451D-03 -0.506395D-03  0.710495D-03  0.327550D-03 -0.177078D-03
     28  0.116216D-02 -0.144403D-02  0.206896D-02 -0.537234D-03  0.690282D-03
     29 -0.126386D-02  0.130655D-02 -0.189443D-02  0.675992D-03 -0.858383D-03
     30  0.217490D-04  0.368915D-03 -0.535959D-03 -0.188793D-03  0.897772D-05
               26            27            28            29            30 
     26  0.216991D-01
     27 -0.560023D-03  0.143398D-01
     28 -0.191591D-02  0.466199D-02  0.140039D-01
     29  0.171203D-02 -0.173925D-02 -0.128440D-01  0.158256D-01
     30  0.356144D-03 -0.114171D-01 -0.350206D-02  0.472087D-02  0.126359D-01
 Leave Link  716 at Mon Dec 30 16:45:16 2019, MaxMem= 10737418240 cpu:               1.3 elap:               0.1
 (Enter /apps/cent7/gaussian/g16-A.03/g16-haswell/g16/l103.exe)

 GradGradGradGradGradGradGradGradGradGradGradGradGradGradGradGradGradGrad
 Berny optimization.
 Red2BG is reusing G-inverse.
 Internal  Forces:  Max     0.000028923 RMS     0.000011488
 Search for a local minimum.
 Step number   1 out of a maximum of    2
 All quantities printed in internal units (Hartrees-Bohrs-Radians)
 Second derivative matrix not updated -- analytic derivatives used.
 ITU=  0
     Eigenvalues ---    0.00371   0.00438   0.02119   0.03934   0.05520
     Eigenvalues ---    0.05971   0.10269   0.12080   0.12940   0.13530
     Eigenvalues ---    0.14281   0.18486   0.21892   0.30458   0.34133
     Eigenvalues ---    0.34477   0.35672   0.36852   0.43399   0.48464
     Eigenvalues ---    0.49773
 Angle between quadratic step and forces=  69.03 degrees.
 Linear search not attempted -- first point.
 Iteration  1 RMS(Cart)=  0.00036105 RMS(Int)=  0.00000008
 Iteration  2 RMS(Cart)=  0.00000008 RMS(Int)=  0.00000001
 ITry= 1 IFail=0 DXMaxC= 6.66D-04 DCOld= 1.00D+10 DXMaxT= 3.00D-01 DXLimC= 3.00D+00 Rises=F
 Variable       Old X    -DE/DX   Delta X   Delta X   Delta X     New X
                                 (Linear)    (Quad)   (Total)
    R1        2.76021   0.00001   0.00000   0.00003   0.00003   2.76024
    R2        2.05506  -0.00001   0.00000  -0.00003  -0.00003   2.05502
    R3        2.06639   0.00001   0.00000   0.00002   0.00002   2.06641
    R4        2.06440  -0.00000   0.00000   0.00001   0.00001   2.06441
    R5        2.81904  -0.00002   0.00000  -0.00011  -0.00011   2.81893
    R6        1.93241   0.00000   0.00000  -0.00001  -0.00001   1.93240
    R7        1.84444   0.00001   0.00000   0.00003   0.00003   1.84447
    R8        1.84936   0.00001   0.00000   0.00004   0.00004   1.84941
    A1        1.90436  -0.00000   0.00000  -0.00000  -0.00000   1.90436
    A2        1.81087   0.00000   0.00000   0.00001   0.00001   1.81089
    A3        1.98947  -0.00002   0.00000  -0.00014  -0.00014   1.98933
    A4        1.89581   0.00001   0.00000   0.00019   0.00019   1.89600
    A5        1.94903   0.00001   0.00000   0.00002   0.00002   1.94905
    A6        1.90756   0.00000   0.00000  -0.00007  -0.00007   1.90750
    A7        1.86692   0.00003   0.00000   0.00010   0.00010   1.86701
    A8        1.95114   0.00001   0.00000   0.00015   0.00015   1.95129
    A9        1.80124  -0.00003   0.00000  -0.00008  -0.00008   1.80116
   A10        1.91443   0.00001   0.00000   0.00002   0.00002   1.91446
   A11        2.07113  -0.00001   0.00000  -0.00015  -0.00015   2.07098
   A12        1.97752  -0.00001   0.00000  -0.00021  -0.00021   1.97731
    D1        1.14007   0.00000   0.00000   0.00051   0.00051   1.14058
    D2        3.09976  -0.00001   0.00000   0.00054   0.00054   3.10030
    D3       -3.12478   0.00001   0.00000   0.00074   0.00074  -3.12404
    D4       -1.16508   0.00000   0.00000   0.00077   0.00077  -1.16432
    D5       -1.05186   0.00001   0.00000   0.00059   0.00059  -1.05127
    D6        0.90783  -0.00000   0.00000   0.00062   0.00062   0.90845
    D7       -2.55189  -0.00000   0.00000  -0.00048  -0.00048  -2.55237
    D8        1.42020   0.00001   0.00000  -0.00004  -0.00004   1.42016
    D9        1.67092  -0.00002   0.00000  -0.00065  -0.00065   1.67026
   D10       -0.64017  -0.00000   0.00000  -0.00021  -0.00021  -0.64039
         Item               Value     Threshold  Converged?
 Maximum Force            0.000029     0.000450     YES
 RMS     Force            0.000011     0.000300     YES
 Maximum Displacement     0.000666     0.001800     YES
 RMS     Displacement     0.000361     0.001200     YES
 Predicted change in Energy=-2.048519D-08
 Optimization completed.
    -- Stationary point found.
                           ----------------------------
                           !   Optimized Parameters   !
                           ! (Angstroms and Degrees)  !
 --------------------------                            --------------------------
 ! Name  Definition              Value          Derivative Info.                !
 --------------------------------------------------------------------------------
 ! R1    R(1,2)                  1.4606         -DE/DX =    0.0                 !
 ! R2    R(1,4)                  1.0875         -DE/DX =    0.0                 !
 ! R3    R(1,5)                  1.0935         -DE/DX =    0.0                 !
 ! R4    R(1,6)                  1.0924         -DE/DX =    0.0                 !
 ! R5    R(2,3)                  1.4918         -DE/DX =    0.0                 !
 ! R6    R(2,7)                  1.0226         -DE/DX =    0.0                 !
 ! R7    R(3,8)                  0.976          -DE/DX =    0.0                 !
 ! R8    R(3,9)                  0.9786         -DE/DX =    0.0                 !
 ! A1    A(2,1,4)              109.1119         -DE/DX =    0.0                 !
 ! A2    A(2,1,5)              103.7553         -DE/DX =    0.0                 !
 ! A3    A(2,1,6)              113.9883         -DE/DX =    0.0                 !
 ! A4    A(4,1,5)              108.6219         -DE/DX =    0.0                 !
 ! A5    A(4,1,6)              111.6709         -DE/DX =    0.0                 !
 ! A6    A(5,1,6)              109.2954         -DE/DX =    0.0                 !
 ! A7    A(1,2,3)              106.9664         -DE/DX =    0.0                 !
 ! A8    A(1,2,7)              111.7923         -DE/DX =    0.0                 !
 ! A9    A(3,2,7)              103.2037         -DE/DX =    0.0                 !
 ! A10   A(2,3,8)              109.689          -DE/DX =    0.0                 !
 ! A11   A(2,3,9)              118.6672         -DE/DX =    0.0                 !
 ! A12   A(8,3,9)              113.3034         -DE/DX =    0.0                 !
 ! D1    D(4,1,2,3)             65.3212         -DE/DX =    0.0                 !
 ! D2    D(4,1,2,7)            177.6033         -DE/DX =    0.0                 !
 ! D3    D(5,1,2,3)           -179.0365         -DE/DX =    0.0                 !
 ! D4    D(5,1,2,7)            -66.7544         -DE/DX =    0.0                 !
 ! D5    D(6,1,2,3)            -60.2671         -DE/DX =    0.0                 !
 ! D6    D(6,1,2,7)             52.0151         -DE/DX =    0.0                 !
 ! D7    D(1,2,3,8)           -146.2126         -DE/DX =    0.0                 !
 ! D8    D(1,2,3,9)             81.3717         -DE/DX =    0.0                 !
 ! D9    D(7,2,3,8)             95.7366         -DE/DX =    0.0                 !
 ! D10   D(7,2,3,9)            -36.6791         -DE/DX =    0.0                 !
 --------------------------------------------------------------------------------
 GradGradGradGradGradGradGradGradGradGradGradGradGradGradGradGradGradGrad

 Leave Link  103 at Mon Dec 30 16:45:16 2019, MaxMem= 10737418240 cpu:               0.7 elap:               0.1
 (Enter /apps/cent7/gaussian/g16-A.03/g16-haswell/g16/l9999.exe)

 ----------------------------------------------------------------------

 Electric dipole moment (input orientation):
 (Debye = 10**-18 statcoulomb cm , SI units = C m)
                  (au)            (Debye)         (10**-30 SI)
   Tot        0.149151D+01      0.379104D+01      0.126455D+02
   x         -0.117977D+01     -0.299867D+01     -0.100025D+02
   y          0.780012D+00      0.198259D+01      0.661322D+01
   z          0.473634D+00      0.120386D+01      0.401564D+01

 Dipole polarizability, Alpha (input orientation).
 (esu units = cm**3 , SI units = C**2 m**2 J**-1)
 Alpha(0;0):
               (au)            (10**-24 esu)      (10**-40 SI)
   iso        0.254189D+02      0.376670D+01      0.419102D+01
   aniso      0.804440D+01      0.119206D+01      0.132634D+01
   xx         0.252513D+02      0.374185D+01      0.416337D+01
   yx        -0.146746D+01     -0.217456D+00     -0.241952D+00
   yy         0.242224D+02      0.358939D+01      0.399373D+01
   zx        -0.353161D+01     -0.523331D+00     -0.582284D+00
   zy         0.229883D+01      0.340652D+00      0.379027D+00
   zz         0.267831D+02      0.396885D+01      0.441594D+01

 ----------------------------------------------------------------------

 Dipole orientation:
     6          0.85606303          1.26841952         -2.37640413
     7          0.67760732         -0.85880996         -0.62659891
     8          2.49364591         -0.35422453          1.46967912
     1          2.72811623          1.28727850         -3.22393932
     1         -0.52762983          0.81577251         -3.84285695
     1          0.38320481          3.09183741         -1.53182658
     1         -1.03219885         -0.90660647          0.27256365
     1          3.20594905         -1.94563537          2.07133133
     1          1.97790451          0.77964830          2.83660779

 Electric dipole moment (dipole orientation):
 (Debye = 10**-18 statcoulomb cm , SI units = C m)
                  (au)            (Debye)         (10**-30 SI)
   Tot        0.149151D+01      0.379104D+01      0.126455D+02
   x          0.000000D+00      0.000000D+00      0.000000D+00
   y          0.000000D+00      0.000000D+00      0.000000D+00
   z          0.149151D+01      0.379104D+01      0.126455D+02

 Dipole polarizability, Alpha (dipole orientation).
 (esu units = cm**3 , SI units = C**2 m**2 J**-1)
 Alpha(0;0):
               (au)            (10**-24 esu)      (10**-40 SI)
   iso        0.254189D+02      0.376670D+01      0.419102D+01
   aniso      0.804440D+01      0.119206D+01      0.132634D+01
   xx         0.238323D+02      0.353158D+01      0.392942D+01
   yx        -0.488661D+00     -0.724121D-01     -0.805693D-01
   yy         0.235484D+02      0.348951D+01      0.388260D+01
   zx         0.297808D+01      0.441305D+00      0.491018D+00
   zy        -0.186517D+01     -0.276389D+00     -0.307524D+00
   zz         0.288761D+02      0.427900D+01      0.476103D+01

 ----------------------------------------------------------------------
 1\1\GINC-BROWN-A311\Freq\RM062X\6-311++G(d,p)\C1H6N1O1(1+)\FINEJ\30-De
 c-2019\0\\#P Geom=AllCheck Guess=TCheck SCRF=Check GenChk RM062X/6-311
 ++G(d,p) Freq\\Title Card Required\\1,1\C,1.4433265899,0.0164623685,-0
 .3920372495\N,0.3078923843,-0.4209538765,0.4160030297\O,0.0189346099,0
 .6724849055,1.3887708692\H,2.3214368048,0.1008472921,0.2439135347\H,1.
 5974292201,-0.8090665437,-1.0923731176\H,1.2613531869,0.9362479499,-0.
 9526567477\H,-0.5515488868,-0.4762296771,-0.1353516439\H,-0.2993602122
 ,0.2900030207,2.2284368337\H,-0.5081600069,1.4405550705,1.0888054514\\
 Version=ES64L-G16RevA.03\State=1-A\HF=-171.2910798\RMSD=9.175e-10\RMSF
 =1.551e-05\ZeroPoint=0.0811572\Thermal=0.0811572\Dipole=-1.1797664,0.7
 80012,0.4736338\DipoleDeriv=0.2265532,0.090234,-0.0524535,0.0465,0.127
 7346,-0.137635,0.0083035,-0.178029,0.0467028,0.056213,-0.2985902,-0.27
 75674,-0.3190027,0.2038369,0.6498417,-0.2051768,0.4209603,0.290509,-0.
 4201551,0.1209221,0.2568547,0.1972477,-0.5336859,-0.4576468,0.1959944,
 -0.1186255,-0.6011133,0.0725561,-0.0144001,-0.0011061,-0.0334259,0.107
 0667,0.0420696,-0.0454059,0.0024822,0.0373824,0.0978012,-0.0324905,0.0
 163035,-0.0650377,0.0847298,0.011411,0.0028485,-0.0011163,0.1295855,-0
 .0009684,0.0672481,0.0147003,0.0012047,-0.0097641,0.0803018,0.0114607,
 0.0517019,0.0839444,0.1537303,0.0627667,0.0391141,0.1315046,0.2559465,
 -0.0325278,0.0165766,-0.042595,0.1835503,0.3912347,0.0432543,-0.004735
 9,0.0685798,0.3192411,-0.1146473,-0.0457041,-0.0419115,0.5938547,0.423
 035,-0.0389443,0.0088903,-0.0275708,0.4448945,-0.0411672,0.0611031,-0.
 0928671,0.2355842\Polar=25.2512772,-1.4674649,24.2224025,-3.5316098,2.
 2988342,26.7831292\Quadrupole=0.6297298,-2.4932697,1.8635399,-2.050681
 5,-3.3233255,2.0921427\PG=C01 [X(C1H6N1O1)]\NImag=0\\0.53396227,-0.006
 15319,0.60620093,0.08171014,0.01542715,0.55484194,-0.16502100,-0.09252
 667,0.04977943,0.58492174,-0.04170156,-0.09848114,0.02062846,0.0828284
 7,0.22191788,0.03055003,0.05693333,-0.10723163,0.09568782,0.01155704,0
 .37610306,-0.00334675,0.03450139,0.02587047,-0.05293788,0.00948183,0.0
 1094555,0.27848953,0.00584645,-0.00329355,-0.00227466,-0.02594714,-0.0
 8855892,-0.04647140,-0.16629752,0.51612026,0.01513284,-0.04063442,-0.0
 3585401,-0.02989891,0.00630147,-0.09603020,-0.09357789,-0.21515372,0.6
 3134723,-0.22538336,-0.01493933,-0.13337097,-0.02887685,-0.00756007,-0
 .01065291,0.00144248,0.00096477,-0.00183740,0.25050689,-0.01664487,-0.
 05216218,-0.00517428,-0.00786398,-0.00267323,-0.01178692,0.00055166,0.
 00078257,0.00201518,0.02231597,0.05021551,-0.14535388,-0.01242724,-0.1
 5516568,0.02542830,0.00501945,0.01266060,-0.00072743,-0.00023574,0.001
 91284,0.14161634,0.00970915,0.16051671,-0.05095300,0.02250366,0.021793
 57,-0.00293397,0.01898985,0.01632712,-0.00630235,0.00168440,0.00838097
 ,0.00636502,-0.01944891,-0.01623853,0.05563377,0.02587672,-0.20635311,
 -0.13468853,0.00596390,0.00197093,-0.00129727,-0.00523861,0.00632822,0
 .00809507,0.00039362,-0.00138238,0.00026284,-0.03003755,0.21514648,0.0
 2618799,-0.13009638,-0.15450048,0.00293000,-0.01597284,-0.01646280,0.0
 0314157,0.00245115,-0.00173089,0.00327573,-0.01215687,-0.01052709,-0.0
 3279959,0.14373869,0.17101369,-0.06637761,0.04944078,-0.02961960,-0.00
 240116,-0.03148173,0.02330819,0.00159806,0.00001867,-0.00310907,-0.001
 28973,0.02223376,-0.00999732,-0.00104532,0.00341419,-0.00370580,0.0671
 6941,0.04272563,-0.24138056,0.11419576,-0.00122579,-0.00583828,0.00155
 896,-0.00178097,0.00467825,0.00014219,-0.00009577,0.00415662,-0.003252
 14,0.00459961,-0.01724549,0.01272900,-0.04373821,0.25628837,-0.0301097
 3,0.11178787,-0.11688025,0.00857408,0.01616219,-0.01462646,-0.00196299
 ,0.00216719,0.00250675,-0.00227544,0.01506701,-0.00692917,0.00287372,-
 0.01707481,0.01243741,0.02286154,-0.12703050,0.12407648,-0.02127717,0.
 00320239,-0.01855001,-0.32454092,-0.02472745,-0.16863793,0.00930129,0.
 01354058,0.01952324,-0.00237542,-0.00127270,0.00500219,-0.00011611,0.0
 0032105,0.00037805,0.00233997,-0.00049694,-0.00038293,0.33322653,-0.01
 123855,-0.00088947,-0.00166882,0.02493374,-0.02743792,0.01148774,-0.01
 898339,-0.01935007,-0.03498817,-0.00104229,0.00105380,0.00066892,0.000
 26252,0.00071496,-0.00054247,-0.00027386,-0.00025020,-0.00174815,0.009
 12990,0.04653283,0.02182838,0.00607939,0.01516432,-0.17040497,-0.03498
 832,-0.15681523,-0.01238168,0.00176315,-0.02111456,0.00331412,0.002113
 61,-0.00247445,-0.00146352,-0.00063115,0.00033756,0.00062814,0.0001879
 4,0.00006165,0.16171415,0.02875731,0.16516500,-0.00019281,0.00213598,0
 .00232538,-0.00521807,-0.00387365,0.00029100,-0.07393555,-0.04647625,0
 .15913656,-0.00014695,-0.00004926,0.00032710,-0.00050583,-0.00023104,0
 .00033197,0.00000957,0.00003163,-0.00021208,0.00114283,0.00013737,-0.0
 0261307,0.07052119,-0.00028526,-0.00657420,-0.00427843,0.00634887,0.01
 640331,-0.01765501,-0.03530457,-0.13355679,0.16053795,-0.00024731,0.00
 035744,0.00033014,0.00171456,0.00120431,-0.00088154,-0.00040049,0.0000
 3393,0.00015148,0.00166197,-0.00120115,-0.00364355,0.04224147,0.128089
 78,0.00135948,-0.00301606,-0.00210292,0.00821656,0.00022035,-0.0130001
 9,0.12415466,0.15508615,-0.35810083,-0.00015387,-0.00009916,0.00029762
 ,0.00038197,0.00031060,-0.00004783,-0.00056897,-0.00027984,-0.00000843
 ,-0.00018469,0.00018375,-0.00214193,-0.13554721,-0.15546788,0.37595114
 ,-0.00141057,0.00183498,0.00006158,-0.00299188,-0.00195568,0.00218114,
 -0.15430884,0.21666603,-0.07375034,-0.00024207,0.00017832,-0.00005677,
 -0.00014219,-0.00046228,0.00026009,-0.00000319,-0.00001919,0.00063383,
 0.00229899,-0.00292544,-0.00062156,0.00832563,-0.01572922,0.00234208,0
 .14847412,0.00157463,0.00293327,-0.00216666,0.00748860,-0.01730263,-0.
 00432647,0.18307019,-0.28314999,0.11368445,0.00021042,-0.00034815,-0.0
 0007538,-0.00026815,-0.00038393,0.00073127,0.00078689,-0.00044265,0.00
 051772,-0.00135881,0.00082721,0.00036162,0.00608374,-0.00475664,0.0030
 6209,-0.19758751,0.30262352,-0.00130525,-0.00405363,0.00172873,0.00968
 769,-0.00892781,0.01540285,-0.05546227,0.10266787,-0.12293634,0.000084
 41,0.00031228,-0.00029138,0.00074429,0.00128456,-0.00051957,0.00020290
 ,0.00174865,-0.00063799,0.00113793,-0.00215011,0.00181764,-0.02403964,
 0.02090683,-0.00084662,0.06894995,-0.11178864,0.10628268\\-0.00004313,
 0.00001642,-0.00000764,-0.00000986,-0.00002987,0.00000513,-0.00002052,
 0.00003059,0.00001627,0.00001013,0.00000041,-0.00000082,0.00000844,0.0
 0000218,0.00001396,0.00000734,-0.00000023,-0.00000543,0.00001463,-0.00
 000707,-0.00001699,0.00001797,-0.00000453,-0.00000533,0.00001501,-0.00
 000791,0.00000086\\\@


 IT IS A QUALITY OF REVOLUTIONS NOT TO GO BY OLD LINES OR OLD LAWS,
 BUT TO BREAK UP BOTH, AND MAKE NEW ONES.
                                              -- A. LINCOLN (1848)
 Job cpu time:       0 days  0 hours  4 minutes 16.4 seconds.
 Elapsed time:       0 days  0 hours  0 minutes 11.2 seconds.
 File lengths (MBytes):  RWF=     14 Int=      0 D2E=      0 Chk=      2 Scr=      1
 Normal termination of Gaussian 16 at Mon Dec 30 16:45:16 2019.
real 52.31
user 1034.05
sys 15.71
Machine:
brown-a311
brown-a311
brown-a311
brown-a311
brown-a311
brown-a311
brown-a311
brown-a311
brown-a311
brown-a311
brown-a311
brown-a311
brown-a311
brown-a311
brown-a311
brown-a311
brown-a311
brown-a311
brown-a311
brown-a311
