Title Card Required                                                     
Freq      RM062X                                                      6-311++G(d,p)       
Number of atoms                            I               17
Info1-9                                    I   N=           9
          44          44        1002           0           0         100
           6          18        -502
Full Title                                 C   N=           2
Title Card Required     
Route                                      C   N=           6
#P opt freq m062x/6-311++g(d,p) geom=connectivity temperatur
e=0.001     
Charge                                     I                0
Multiplicity                               I                1
Number of electrons                        I               50
Number of alpha electrons                  I               25
Number of beta electrons                   I               25
Number of basis functions                  I              209
Number of independent functions            I              209
Number of point charges in /Mol/           I                0
Number of translation vectors              I                0
Atomic numbers                             I   N=          17
           6           6           7           8           6           6
           1           1           1           1           1           1
           1           1           1           1           1
Nuclear charges                            R   N=          17
  6.00000000E+00  6.00000000E+00  7.00000000E+00  8.00000000E+00  6.00000000E+00
  6.00000000E+00  1.00000000E+00  1.00000000E+00  1.00000000E+00  1.00000000E+00
  1.00000000E+00  1.00000000E+00  1.00000000E+00  1.00000000E+00  1.00000000E+00
  1.00000000E+00  1.00000000E+00
Current cartesian coordinates              R   N=          51
 -7.54531146E-01  2.87164199E+00  5.15403213E-01 -7.34511561E-01  2.92199341E-02
  2.24430376E-02  1.50685872E+00 -5.68400612E-01 -1.53015712E+00  3.73371113E+00
 -1.98070527E-01 -6.36147434E-02 -7.38159918E-01 -1.43233247E+00  2.52093278E+00
 -3.00002940E+00 -7.26277614E-01 -1.59884523E+00 -2.46112143E+00  3.40670222E+00
  1.54614261E+00  8.81328063E-01  3.41936442E+00  1.64613032E+00 -7.07276814E-01
  3.90618968E+00 -1.27028974E+00  1.49296161E+00 -2.46564778E+00 -1.86150022E+00
  4.68810400E+00  9.98791960E-01 -1.03773364E+00 -7.64917156E-01 -3.47053962E+00
  2.17366463E+00  9.45207104E-01 -9.80203469E-01  3.62122875E+00 -2.40694303E+00
 -9.50020601E-01  3.63773231E+00 -4.75531850E+00 -3.12700794E-01 -5.96070363E-01
 -2.99316724E+00  3.09504737E-01 -3.38295937E+00 -2.97316457E+00 -2.75158329E+00
 -2.01593030E+00
Number of symbols in /Mol/                 I                0
Force Field                                I                0
Atom Types                                 C   N=          17
                                                            
                                                            
                                                            
                        
Int Atom Types                             I   N=          17
           0           0           0           0           0           0
           0           0           0           0           0           0
           0           0           0           0           0
MM charges                                 R   N=          17
  0.00000000E+00  0.00000000E+00  0.00000000E+00  0.00000000E+00  0.00000000E+00
  0.00000000E+00  0.00000000E+00  0.00000000E+00  0.00000000E+00  0.00000000E+00
  0.00000000E+00  0.00000000E+00  0.00000000E+00  0.00000000E+00  0.00000000E+00
  0.00000000E+00  0.00000000E+00
Integer atomic weights                     I   N=          17
          12          12          14          16          12          12
           1           1           1           1           1           1
           1           1           1           1           1
Real atomic weights                        R   N=          17
  1.20000000E+01  1.20000000E+01  1.40030740E+01  1.59949146E+01  1.20000000E+01
  1.20000000E+01  1.00782504E+00  1.00782504E+00  1.00782504E+00  1.00782504E+00
  1.00782504E+00  1.00782504E+00  1.00782504E+00  1.00782504E+00  1.00782504E+00
  1.00782504E+00  1.00782504E+00
Atom fragment info                         I   N=          17
           0           0           0           0           0           0
           0           0           0           0           0           0
           0           0           0           0           0
Atom residue num                           I   N=          17
           0           0           0           0           0           0
           0           0           0           0           0           0
           0           0           0           0           0
Nuclear spins                              I   N=          17
           0           0           2           0           0           0
           1           1           1           1           1           1
           1           1           1           1           1
Nuclear ZEff                               R   N=          17
 -3.60000000E+00 -3.60000000E+00 -4.55000000E+00 -5.60000000E+00 -3.60000000E+00
 -3.60000000E+00 -1.00000000E+00 -1.00000000E+00 -1.00000000E+00 -1.00000000E+00
 -1.00000000E+00 -1.00000000E+00 -1.00000000E+00 -1.00000000E+00 -1.00000000E+00
 -1.00000000E+00 -1.00000000E+00
Nuclear ZNuc                               R   N=          17
  6.00000000E+00  6.00000000E+00  7.00000000E+00  8.00000000E+00  6.00000000E+00
  6.00000000E+00  1.00000000E+00  1.00000000E+00  1.00000000E+00  1.00000000E+00
  1.00000000E+00  1.00000000E+00  1.00000000E+00  1.00000000E+00  1.00000000E+00
  1.00000000E+00  1.00000000E+00
Nuclear QMom                               R   N=          17
  0.00000000E+00  0.00000000E+00  2.04400000E+00  0.00000000E+00  0.00000000E+00
  0.00000000E+00  0.00000000E+00  0.00000000E+00  0.00000000E+00  0.00000000E+00
  0.00000000E+00  0.00000000E+00  0.00000000E+00  0.00000000E+00  0.00000000E+00
  0.00000000E+00  0.00000000E+00
Nuclear GFac                               R   N=          17
  0.00000000E+00  0.00000000E+00  4.03761000E-01  0.00000000E+00  0.00000000E+00
  0.00000000E+00  2.79284600E+00  2.79284600E+00  2.79284600E+00  2.79284600E+00
  2.79284600E+00  2.79284600E+00  2.79284600E+00  2.79284600E+00  2.79284600E+00
  2.79284600E+00  2.79284600E+00
MicOpt                                     I   N=          17
          -1          -1          -1          -1          -1          -1
          -1          -1          -1          -1          -1          -1
          -1          -1          -1          -1          -1
Number of residues                         I                0
Number of secondary structures             I                0
Redundant internal dimensions              I   N=           4
          79          16          28          35
Redundant internal coordinate indices      I   N=         316
           1           2           0           0           1           7
           0           0           1           8           0           0
           1           9           0           0           2           3
           0           0           2           5           0           0
           2           6           0           0           3           4
           0           0           3          10           0           0
           4          11           0           0           5          12
           0           0           5          13           0           0
           5          14           0           0           6          15
           0           0           6          16           0           0
           6          17           0           0           2           1
           7           0           2           1           8           0
           2           1           9           0           7           1
           8           0           7           1           9           0
           8           1           9           0           1           2
           3           0           1           2           5           0
           1           2           6           0           3           2
           5           0           3           2           6           0
           5           2           6           0           2           3
           4           0           2           3          10           0
           4           3          10           0           3           4
          11           0           2           5          12           0
           2           5          13           0           2           5
          14           0          12           5          13           0
          12           5          14           0          13           5
          14           0           2           6          15           0
           2           6          16           0           2           6
          17           0          15           6          16           0
          15           6          17           0          16           6
          17           0           7           1           2           3
           7           1           2           5           7           1
           2           6           8           1           2           3
           8           1           2           5           8           1
           2           6           9           1           2           3
           9           1           2           5           9           1
           2           6           1           2           3           4
           1           2           3          10           5           2
           3           4           5           2           3          10
           6           2           3           4           6           2
           3          10           1           2           5          12
           1           2           5          13           1           2
           5          14           3           2           5          12
           3           2           5          13           3           2
           5          14           6           2           5          12
           6           2           5          13           6           2
           5          14           1           2           6          15
           1           2           6          16           1           2
           6          17           3           2           6          15
           3           2           6          16           3           2
           6          17           5           2           6          15
           5           2           6          16           5           2
           6          17           2           3           4          11
          10           3           4          11
Redundant internal coordinates             R   N=          79
  2.88492178E+00  2.06425860E+00  2.06266308E+00  2.06427256E+00  2.79131838E+00
  2.89458109E+00  2.88650710E+00  2.69198116E+00  1.92601355E+00  1.81445672E+00
  2.06775228E+00  2.06126087E+00  2.06511574E+00  2.06340569E+00  2.06299671E+00
  2.06798084E+00  1.92457291E+00  1.92815126E+00  1.92389994E+00  1.88926480E+00
  1.89754180E+00  1.89966515E+00  1.88763338E+00  1.92835411E+00  1.92666903E+00
  1.95305688E+00  1.83565565E+00  1.93015386E+00  1.90896874E+00  1.87632629E+00
  1.80822465E+00  1.80634832E+00  1.93132115E+00  1.92726839E+00  1.92824254E+00
  1.89275807E+00  1.88660092E+00  1.89656046E+00  1.92009649E+00  1.93021218E+00
  1.93844281E+00  1.89914504E+00  1.88111792E+00  1.89362466E+00  3.07075163E+00
 -1.06934017E+00  1.07116160E+00 -1.12473603E+00  1.01835748E+00 -3.12432606E+00
  9.75479309E-01  3.11857282E+00 -1.02411072E+00  1.19828150E+00 -3.13256219E+00
 -9.29692876E-01  1.02264874E+00 -3.02613219E+00 -1.07379058E+00  3.12035921E+00
 -1.06699620E+00  1.03158822E+00 -1.05838034E+00  1.03744956E+00  3.13603397E+00
  9.81894973E-01  3.07772487E+00 -1.10687602E+00 -1.09212864E+00  1.00630010E+00
  3.10983216E+00 -3.12433914E+00 -1.02591040E+00  1.07762167E+00  1.04731927E+00
 -3.13743730E+00 -1.03390523E+00 -2.15029859E+00  2.13616265E+00
ZRed-IntVec                                I   N=          79
           0           0           0           0           0           0
           0           0           0           0           0           0
           0           0           0           0           0           0
           0           0           0           0           0           0
           0           0           0           0           0           0
           0           0           0           0           0           0
           0           0           0           0           0           0
           0           0           0           0           0           0
           0           0           0           0           0           0
           0           0           0           0           0           0
           0           0           0           0           0           0
           0           0           0           0           0           0
           0           0           0           0           0           0
           0
ZRed-FPVec                                 R   N=          79
  0.00000000E+00  0.00000000E+00  0.00000000E+00  0.00000000E+00  0.00000000E+00
  0.00000000E+00  0.00000000E+00  0.00000000E+00  0.00000000E+00  0.00000000E+00
  0.00000000E+00  0.00000000E+00  0.00000000E+00  0.00000000E+00  0.00000000E+00
  0.00000000E+00  0.00000000E+00  0.00000000E+00  0.00000000E+00  0.00000000E+00
  0.00000000E+00  0.00000000E+00  0.00000000E+00  0.00000000E+00  0.00000000E+00
  0.00000000E+00  0.00000000E+00  0.00000000E+00  0.00000000E+00  0.00000000E+00
  0.00000000E+00  0.00000000E+00  0.00000000E+00  0.00000000E+00  0.00000000E+00
  0.00000000E+00  0.00000000E+00  0.00000000E+00  0.00000000E+00  0.00000000E+00
  0.00000000E+00  0.00000000E+00  0.00000000E+00  0.00000000E+00  0.00000000E+00
  0.00000000E+00  0.00000000E+00  0.00000000E+00  0.00000000E+00  0.00000000E+00
  0.00000000E+00  0.00000000E+00  0.00000000E+00  0.00000000E+00  0.00000000E+00
  0.00000000E+00  0.00000000E+00  0.00000000E+00  0.00000000E+00  0.00000000E+00
  0.00000000E+00  0.00000000E+00  0.00000000E+00  0.00000000E+00  0.00000000E+00
  0.00000000E+00  0.00000000E+00  0.00000000E+00  0.00000000E+00  0.00000000E+00
  0.00000000E+00  0.00000000E+00  0.00000000E+00  0.00000000E+00  0.00000000E+00
  0.00000000E+00  0.00000000E+00  0.00000000E+00  0.00000000E+00
ZRed-Constraint1                           R   N=          79
  2.88492178E+00  2.06425860E+00  2.06266308E+00  2.06427256E+00  2.79131838E+00
  2.89458109E+00  2.88650710E+00  2.69198116E+00  1.92601355E+00  1.81445672E+00
  2.06775228E+00  2.06126087E+00  2.06511574E+00  2.06340569E+00  2.06299671E+00
  2.06798084E+00  1.92457291E+00  1.92815126E+00  1.92389994E+00  1.88926480E+00
  1.89754180E+00  1.89966515E+00  1.88763338E+00  1.92835411E+00  1.92666903E+00
  1.95305688E+00  1.83565565E+00  1.93015386E+00  1.90896874E+00  1.87632629E+00
  1.80822465E+00  1.80634832E+00  1.93132115E+00  1.92726839E+00  1.92824254E+00
  1.89275807E+00  1.88660092E+00  1.89656046E+00  1.92009649E+00  1.93021218E+00
  1.93844281E+00  1.89914504E+00  1.88111792E+00  1.89362466E+00  3.07075163E+00
 -1.06934017E+00  1.07116160E+00 -1.12473603E+00  1.01835748E+00 -3.12432606E+00
  9.75479309E-01  3.11857282E+00 -1.02411072E+00  1.19828150E+00 -3.13256219E+00
 -9.29692876E-01  1.02264874E+00 -3.02613219E+00 -1.07379058E+00  3.12035921E+00
 -1.06699620E+00  1.03158822E+00 -1.05838034E+00  1.03744956E+00  3.13603397E+00
  9.81894973E-01  3.07772487E+00 -1.10687602E+00 -1.09212864E+00  1.00630010E+00
  3.10983216E+00 -3.12433914E+00 -1.02591040E+00  1.07762167E+00  1.04731927E+00
 -3.13743730E+00 -1.03390523E+00 -2.15029859E+00  2.13616265E+00
ZRed-Constraint2                           R   N=          79
  2.94728635E+00  2.05984163E+00  2.05971189E+00  2.05994375E+00  2.81129172E+00
  2.95066584E+00  2.94514608E+00  2.56842506E+00  1.90852368E+00  1.81408859E+00
  2.05977665E+00  2.05994981E+00  2.05972125E+00  2.05983714E+00  2.05985433E+00
  2.05979442E+00  1.91064131E+00  1.91068305E+00  1.91063285E+00  1.91066076E+00
  1.91057469E+00  1.91060675E+00  1.91595427E+00  1.94069382E+00  1.90658568E+00
  1.93138208E+00  1.86074333E+00  1.90660355E+00  1.97907048E+00  2.22077304E+00
  2.08334179E+00  1.91064331E+00  1.91057152E+00  1.91062989E+00  1.91059010E+00
  1.91058532E+00  1.91072454E+00  1.91069805E+00  1.91064127E+00  1.91061098E+00
  1.91066268E+00  1.91061150E+00  1.91067264E+00  1.91060034E+00  2.79342571E+00
 -1.34668585E+00  7.58910188E-01 -1.39529533E+00  7.47778426E-01  2.85337446E+00
  6.99097603E-01  2.84217136E+00 -1.33541792E+00  1.09797905E+00 -2.04369190E+00
 -1.05058910E+00  2.09092526E+00 -3.12206515E+00  1.94492116E-02  2.59230472E+00
 -1.59658401E+00  4.97862008E-01 -1.55671404E+00  5.37582535E-01  2.63202855E+00
  4.86719213E-01  2.58101579E+00 -1.60772350E+00 -7.34279233E-01  1.36008054E+00
 -2.82874555E+00 -2.80356252E+00 -7.09202748E-01  1.38515647E+00  1.39201914E+00
 -2.79680639E+00 -7.02447173E-01 -3.57861270E-01  2.78380291E+00
SymInf integers                            I   N=          26
           1           1           1           1           1           0
           0           0           0           0           0           0
           0           0           0           0           0           0
           0           0           0           0           0           0
           0           0
RotTr to input orientation                 R   N=          12
 -4.92087283E-02  8.62093000E-01 -5.04355193E-01  4.66238770E-01 -4.26745873E-01
 -7.74925396E-01 -8.83289256E-01 -2.73283038E-01 -3.80941558E-01  2.83895786E+00
  5.16341201E-01 -4.29799197E-01
Number of contracted shells                I               91
Number of primitive shells                 I              155
Pure/Cartesian d shells                    I                0
Pure/Cartesian f shells                    I                0
Highest angular momentum                   I                2
Largest degree of contraction              I                6
Shell types                                I   N=          91
           0          -1          -1          -1          -1          -2
           0          -1          -1          -1          -1          -2
           0          -1          -1          -1          -1          -2
           0          -1          -1          -1          -1          -2
           0          -1          -1          -1          -1          -2
           0          -1          -1          -1          -1          -2
           0           0           0           0           1           0
           0           0           0           1           0           0
           0           0           1           0           0           0
           0           1           0           0           0           0
           1           0           0           0           0           1
           0           0           0           0           1           0
           0           0           0           1           0           0
           0           0           1           0           0           0
           0           1           0           0           0           0
           1
Number of primitives per shell             I   N=          91
           6           3           1           1           1           1
           6           3           1           1           1           1
           6           3           1           1           1           1
           6           3           1           1           1           1
           6           3           1           1           1           1
           6           3           1           1           1           1
           3           1           1           1           1           3
           1           1           1           1           3           1
           1           1           1           3           1           1
           1           1           3           1           1           1
           1           3           1           1           1           1
           3           1           1           1           1           3
           1           1           1           1           3           1
           1           1           1           3           1           1
           1           1           3           1           1           1
           1
Shell to atom map                          I   N=          91
           1           1           1           1           1           1
           2           2           2           2           2           2
           3           3           3           3           3           3
           4           4           4           4           4           4
           5           5           5           5           5           5
           6           6           6           6           6           6
           7           7           7           7           7           8
           8           8           8           8           9           9
           9           9           9          10          10          10
          10          10          11          11          11          11
          11          12          12          12          12          12
          13          13          13          13          13          14
          14          14          14          14          15          15
          15          15          15          16          16          16
          16          16          17          17          17          17
          17
Primitive exponents                        R   N=         155
  4.56324000E+03  6.82024000E+02  1.54973000E+02  4.44553000E+01  1.30290000E+01
  1.82773000E+00  2.09642000E+01  4.80331000E+00  1.45933000E+00  4.83456000E-01
  1.45585000E-01  4.38000000E-02  6.26000000E-01  4.56324000E+03  6.82024000E+02
  1.54973000E+02  4.44553000E+01  1.30290000E+01  1.82773000E+00  2.09642000E+01
  4.80331000E+00  1.45933000E+00  4.83456000E-01  1.45585000E-01  4.38000000E-02
  6.26000000E-01  6.29348000E+03  9.49044000E+02  2.18776000E+02  6.36916000E+01
  1.88282000E+01  2.72023000E+00  3.06331000E+01  7.02614000E+00  2.11205000E+00
  6.84009000E-01  2.00878000E-01  6.39000000E-02  9.13000000E-01  8.58850000E+03
  1.29723000E+03  2.99296000E+02  8.73771000E+01  2.56789000E+01  3.74004000E+00
  4.21175000E+01  9.62837000E+00  2.85332000E+00  9.05661000E-01  2.55611000E-01
  8.45000000E-02  1.29200000E+00  4.56324000E+03  6.82024000E+02  1.54973000E+02
  4.44553000E+01  1.30290000E+01  1.82773000E+00  2.09642000E+01  4.80331000E+00
  1.45933000E+00  4.83456000E-01  1.45585000E-01  4.38000000E-02  6.26000000E-01
  4.56324000E+03  6.82024000E+02  1.54973000E+02  4.44553000E+01  1.30290000E+01
  1.82773000E+00  2.09642000E+01  4.80331000E+00  1.45933000E+00  4.83456000E-01
  1.45585000E-01  4.38000000E-02  6.26000000E-01  3.38650000E+01  5.09479000E+00
  1.15879000E+00  3.25840000E-01  1.02741000E-01  3.60000000E-02  7.50000000E-01
  3.38650000E+01  5.09479000E+00  1.15879000E+00  3.25840000E-01  1.02741000E-01
  3.60000000E-02  7.50000000E-01  3.38650000E+01  5.09479000E+00  1.15879000E+00
  3.25840000E-01  1.02741000E-01  3.60000000E-02  7.50000000E-01  3.38650000E+01
  5.09479000E+00  1.15879000E+00  3.25840000E-01  1.02741000E-01  3.60000000E-02
  7.50000000E-01  3.38650000E+01  5.09479000E+00  1.15879000E+00  3.25840000E-01
  1.02741000E-01  3.60000000E-02  7.50000000E-01  3.38650000E+01  5.09479000E+00
  1.15879000E+00  3.25840000E-01  1.02741000E-01  3.60000000E-02  7.50000000E-01
  3.38650000E+01  5.09479000E+00  1.15879000E+00  3.25840000E-01  1.02741000E-01
  3.60000000E-02  7.50000000E-01  3.38650000E+01  5.09479000E+00  1.15879000E+00
  3.25840000E-01  1.02741000E-01  3.60000000E-02  7.50000000E-01  3.38650000E+01
  5.09479000E+00  1.15879000E+00  3.25840000E-01  1.02741000E-01  3.60000000E-02
  7.50000000E-01  3.38650000E+01  5.09479000E+00  1.15879000E+00  3.25840000E-01
  1.02741000E-01  3.60000000E-02  7.50000000E-01  3.38650000E+01  5.09479000E+00
  1.15879000E+00  3.25840000E-01  1.02741000E-01  3.60000000E-02  7.50000000E-01
Contraction coefficients                   R   N=         155
  1.96665025E-03  1.52306019E-02  7.61269097E-02  2.60801033E-01  6.16462078E-01
  2.21006028E-01  1.14660081E-01  9.19999648E-01 -3.03068213E-03  1.00000000E+00
  1.00000000E+00  1.00000000E+00  1.00000000E+00  1.96665025E-03  1.52306019E-02
  7.61269097E-02  2.60801033E-01  6.16462078E-01  2.21006028E-01  1.14660081E-01
  9.19999648E-01 -3.03068213E-03  1.00000000E+00  1.00000000E+00  1.00000000E+00
  1.00000000E+00  1.96978815E-03  1.49612859E-02  7.35005308E-02  2.48936766E-01
  6.02459433E-01  2.56201759E-01  1.11906080E-01  9.21666655E-01 -2.56919183E-03
  1.00000000E+00  1.00000000E+00  1.00000000E+00  1.00000000E+00  1.89515008E-03
  1.43859006E-02  7.07320031E-02  2.40001011E-01  5.94797026E-01  2.80802012E-01
  1.13889012E-01  9.20811101E-01 -3.27447036E-03  1.00000000E+00  1.00000000E+00
  1.00000000E+00  1.00000000E+00  1.96665025E-03  1.52306019E-02  7.61269097E-02
  2.60801033E-01  6.16462078E-01  2.21006028E-01  1.14660081E-01  9.19999648E-01
 -3.03068213E-03  1.00000000E+00  1.00000000E+00  1.00000000E+00  1.00000000E+00
  1.96665025E-03  1.52306019E-02  7.61269097E-02  2.60801033E-01  6.16462078E-01
  2.21006028E-01  1.14660081E-01  9.19999648E-01 -3.03068213E-03  1.00000000E+00
  1.00000000E+00  1.00000000E+00  1.00000000E+00  2.54938145E-02  1.90373109E-01
  8.52161486E-01  1.00000000E+00  1.00000000E+00  1.00000000E+00  1.00000000E+00
  2.54938145E-02  1.90373109E-01  8.52161486E-01  1.00000000E+00  1.00000000E+00
  1.00000000E+00  1.00000000E+00  2.54938145E-02  1.90373109E-01  8.52161486E-01
  1.00000000E+00  1.00000000E+00  1.00000000E+00  1.00000000E+00  2.54938145E-02
  1.90373109E-01  8.52161486E-01  1.00000000E+00  1.00000000E+00  1.00000000E+00
  1.00000000E+00  2.54938145E-02  1.90373109E-01  8.52161486E-01  1.00000000E+00
  1.00000000E+00  1.00000000E+00  1.00000000E+00  2.54938145E-02  1.90373109E-01
  8.52161486E-01  1.00000000E+00  1.00000000E+00  1.00000000E+00  1.00000000E+00
  2.54938145E-02  1.90373109E-01  8.52161486E-01  1.00000000E+00  1.00000000E+00
  1.00000000E+00  1.00000000E+00  2.54938145E-02  1.90373109E-01  8.52161486E-01
  1.00000000E+00  1.00000000E+00  1.00000000E+00  1.00000000E+00  2.54938145E-02
  1.90373109E-01  8.52161486E-01  1.00000000E+00  1.00000000E+00  1.00000000E+00
  1.00000000E+00  2.54938145E-02  1.90373109E-01  8.52161486E-01  1.00000000E+00
  1.00000000E+00  1.00000000E+00  1.00000000E+00  2.54938145E-02  1.90373109E-01
  8.52161486E-01  1.00000000E+00  1.00000000E+00  1.00000000E+00  1.00000000E+00
P(S=P) Contraction coefficients            R   N=         155
  0.00000000E+00  0.00000000E+00  0.00000000E+00  0.00000000E+00  0.00000000E+00
  0.00000000E+00  4.02486927E-02  2.37593957E-01  8.15853851E-01  1.00000000E+00
  1.00000000E+00  1.00000000E+00  0.00000000E+00  0.00000000E+00  0.00000000E+00
  0.00000000E+00  0.00000000E+00  0.00000000E+00  0.00000000E+00  4.02486927E-02
  2.37593957E-01  8.15853851E-01  1.00000000E+00  1.00000000E+00  1.00000000E+00
  0.00000000E+00  0.00000000E+00  0.00000000E+00  0.00000000E+00  0.00000000E+00
  0.00000000E+00  0.00000000E+00  3.83119186E-02  2.37403116E-01  8.17592398E-01
  1.00000000E+00  1.00000000E+00  1.00000000E+00  0.00000000E+00  0.00000000E+00
  0.00000000E+00  0.00000000E+00  0.00000000E+00  0.00000000E+00  0.00000000E+00
  3.65113974E-02  2.37152983E-01  8.19701941E-01  1.00000000E+00  1.00000000E+00
  1.00000000E+00  0.00000000E+00  0.00000000E+00  0.00000000E+00  0.00000000E+00
  0.00000000E+00  0.00000000E+00  0.00000000E+00  4.02486927E-02  2.37593957E-01
  8.15853851E-01  1.00000000E+00  1.00000000E+00  1.00000000E+00  0.00000000E+00
  0.00000000E+00  0.00000000E+00  0.00000000E+00  0.00000000E+00  0.00000000E+00
  0.00000000E+00  4.02486927E-02  2.37593957E-01  8.15853851E-01  1.00000000E+00
  1.00000000E+00  1.00000000E+00  0.00000000E+00  0.00000000E+00  0.00000000E+00
  0.00000000E+00  0.00000000E+00  0.00000000E+00  0.00000000E+00  0.00000000E+00
  0.00000000E+00  0.00000000E+00  0.00000000E+00  0.00000000E+00  0.00000000E+00
  0.00000000E+00  0.00000000E+00  0.00000000E+00  0.00000000E+00  0.00000000E+00
  0.00000000E+00  0.00000000E+00  0.00000000E+00  0.00000000E+00  0.00000000E+00
  0.00000000E+00  0.00000000E+00  0.00000000E+00  0.00000000E+00  0.00000000E+00
  0.00000000E+00  0.00000000E+00  0.00000000E+00  0.00000000E+00  0.00000000E+00
  0.00000000E+00  0.00000000E+00  0.00000000E+00  0.00000000E+00  0.00000000E+00
  0.00000000E+00  0.00000000E+00  0.00000000E+00  0.00000000E+00  0.00000000E+00
  0.00000000E+00  0.00000000E+00  0.00000000E+00  0.00000000E+00  0.00000000E+00
  0.00000000E+00  0.00000000E+00  0.00000000E+00  0.00000000E+00  0.00000000E+00
  0.00000000E+00  0.00000000E+00  0.00000000E+00  0.00000000E+00  0.00000000E+00
  0.00000000E+00  0.00000000E+00  0.00000000E+00  0.00000000E+00  0.00000000E+00
  0.00000000E+00  0.00000000E+00  0.00000000E+00  0.00000000E+00  0.00000000E+00
  0.00000000E+00  0.00000000E+00  0.00000000E+00  0.00000000E+00  0.00000000E+00
  0.00000000E+00  0.00000000E+00  0.00000000E+00  0.00000000E+00  0.00000000E+00
Coordinates of each shell                  R   N=         273
 -7.54531146E-01  2.87164199E+00  5.15403213E-01 -7.54531146E-01  2.87164199E+00
  5.15403213E-01 -7.54531146E-01  2.87164199E+00  5.15403213E-01 -7.54531146E-01
  2.87164199E+00  5.15403213E-01 -7.54531146E-01  2.87164199E+00  5.15403213E-01
 -7.54531146E-01  2.87164199E+00  5.15403213E-01 -7.34511561E-01  2.92199341E-02
  2.24430376E-02 -7.34511561E-01  2.92199341E-02  2.24430376E-02 -7.34511561E-01