 Entering Gaussian System, Link 0=/apps/cent7/gaussian/g16-A.03/g16-haswell/g16/g16
 Initial command:
 /apps/cent7/gaussian/g16-A.03/g16-haswell/g16/l1.exe "/scratch/brown/finej/gaussian/Gau-151690.inp" -scrdir="/scratch/brown/finej/gaussian/"
 Entering Link 1 = /apps/cent7/gaussian/g16-A.03/g16-haswell/g16/l1.exe PID=    151691.
  
 Copyright (c) 1988,1990,1992,1993,1995,1998,2003,2009,2016,
            Gaussian, Inc.  All Rights Reserved.
  
 This is part of the Gaussian(R) 16 program.  It is based on
 the Gaussian(R) 09 system (copyright 2009, Gaussian, Inc.),
 the Gaussian(R) 03 system (copyright 2003, Gaussian, Inc.),
 the Gaussian(R) 98 system (copyright 1998, Gaussian, Inc.),
 the Gaussian(R) 94 system (copyright 1995, Gaussian, Inc.),
 the Gaussian 92(TM) system (copyright 1992, Gaussian, Inc.),
 the Gaussian 90(TM) system (copyright 1990, Gaussian, Inc.),
 the Gaussian 88(TM) system (copyright 1988, Gaussian, Inc.),
 the Gaussian 86(TM) system (copyright 1986, Carnegie Mellon
 University), and the Gaussian 82(TM) system (copyright 1983,
 Carnegie Mellon University). Gaussian is a federally registered
 trademark of Gaussian, Inc.
  
 This software contains proprietary and confidential information,
 including trade secrets, belonging to Gaussian, Inc.
  
 This software is provided under written license and may be
 used, copied, transmitted, or stored only in accord with that
 written license.
  
 The following legend is applicable only to US Government
 contracts under FAR:
  
                    RESTRICTED RIGHTS LEGEND
  
 Use, reproduction and disclosure by the US Government is
 subject to restrictions as set forth in subparagraphs (a)
 and (c) of the Commercial Computer Software - Restricted
 Rights clause in FAR 52.227-19.
  
 Gaussian, Inc.
 340 Quinnipiac St., Bldg. 40, Wallingford CT 06492
  
  
 ---------------------------------------------------------------
 Warning -- This program may not be used in any manner that
 competes with the business of Gaussian, Inc. or will provide
 assistance to any competitor of Gaussian, Inc.  The licensee
 of this program is prohibited from giving any competitor of
 Gaussian, Inc. access to this program.  By using this program,
 the user acknowledges that Gaussian, Inc. is engaged in the
 business of creating and licensing software in the field of
 computational chemistry and represents and warrants to the
 licensee that it is not a competitor of Gaussian, Inc. and that
 it will not use this program in any manner prohibited above.
 ---------------------------------------------------------------
  

 Cite this work as:
 Gaussian 16, Revision A.03,
 M. J. Frisch, G. W. Trucks, H. B. Schlegel, G. E. Scuseria, 
 M. A. Robb, J. R. Cheeseman, G. Scalmani, V. Barone, 
 G. A. Petersson, H. Nakatsuji, X. Li, M. Caricato, A. V. Marenich, 
 J. Bloino, B. G. Janesko, R. Gomperts, B. Mennucci, H. P. Hratchian, 
 J. V. Ortiz, A. F. Izmaylov, J. L. Sonnenberg, D. Williams-Young, 
 F. Ding, F. Lipparini, F. Egidi, J. Goings, B. Peng, A. Petrone, 
 T. Henderson, D. Ranasinghe, V. G. Zakrzewski, J. Gao, N. Rega, 
 G. Zheng, W. Liang, M. Hada, M. Ehara, K. Toyota, R. Fukuda, 
 J. Hasegawa, M. Ishida, T. Nakajima, Y. Honda, O. Kitao, H. Nakai, 
 T. Vreven, K. Throssell, J. A. Montgomery, Jr., J. E. Peralta, 
 F. Ogliaro, M. J. Bearpark, J. J. Heyd, E. N. Brothers, K. N. Kudin, 
 V. N. Staroverov, T. A. Keith, R. Kobayashi, J. Normand, 
 K. Raghavachari, A. P. Rendell, J. C. Burant, S. S. Iyengar, 
 J. Tomasi, M. Cossi, J. M. Millam, M. Klene, C. Adamo, R. Cammi, 
 J. W. Ochterski, R. L. Martin, K. Morokuma, O. Farkas, 
 J. B. Foresman, and D. J. Fox, Gaussian, Inc., Wallingford CT, 2016.
 
 ******************************************
 Gaussian 16:  ES64L-G16RevA.03 25-Dec-2016
                14-Oct-2019 
 ******************************************
 %chk=9.chk
 %nprocshared=24
 Will use up to   24 processors via shared memory.
 %mem=80GB
 -------------------------------------------------------------------
 #P opt freq m062x/6-311++g(d,p) geom=connectivity temperature=0.001
 -------------------------------------------------------------------
 1/18=20,19=15,26=3,38=1,57=2,112=-1000/1,3;
 2/9=110,12=2,17=6,18=5,40=1/2;
 3/5=4,6=6,7=1111,11=2,25=1,30=1,71=1,74=-55/1,2,3;
 4//1;
 5/5=2,38=5/2;
 6/7=2,8=2,9=2,10=2,28=1/1;
 7//1,2,3,16;
 1/18=20,19=15,26=3/3(2);
 2/9=110/2;
 99//99;
 2/9=110/2;
 3/5=4,6=6,7=1111,11=2,25=1,30=1,71=1,74=-55/1,2,3;
 4/5=5,16=3,69=1/1;
 5/5=2,38=5/2;
 7//1,2,3,16;
 1/18=20,19=15,26=3/3(-5);
 2/9=110/2;
 6/7=2,8=2,9=2,10=2,19=2,28=1/1;
 99/9=1/99;
 Leave Link    1 at Mon Oct 14 00:01:37 2019, MaxMem= 10737418240 cpu:               1.9 elap:               0.1
 (Enter /apps/cent7/gaussian/g16-A.03/g16-haswell/g16/l101.exe)
 -------------------
 Title Card Required
 -------------------
 Symbolic Z-matrix:
 Charge =  0 Multiplicity = 1
 C                     2.0476   -0.764    -1.2874 
 C                     1.5073   -0.008    -0.0348 
 N                     2.0241    1.387    -0.0271 
 O                     1.6058    2.1233   -1.0902 
 C                    -0.0537   -0.0174    0.0004 
 C                     2.0542   -0.6929    1.2539 
 H                     1.9762   -1.839    -1.1218 
 H                     1.455    -0.4907   -2.1604 
 H                     3.0894   -0.4907   -1.4554 
 H                     2.6268    1.8117    0.6631 
 H                     1.3279    1.5359   -1.7968 
 H                    -0.3937   -0.0194    1.036 
 H                    -0.4339    0.8704   -0.5051 
 H                    -0.4231   -0.9096   -0.5051 
 H                     2.0053   -1.7757    1.1386 
 H                     3.0892   -0.391     1.4145 
 H                     1.4507   -0.391     2.1099 
 
 ITRead=  0  0  0  0  0  0  0  0  0  0  0  0  0  0  0  0  0
 MicOpt= -1 -1 -1 -1 -1 -1 -1 -1 -1 -1 -1 -1 -1 -1 -1 -1 -1
 NAtoms=     17 NQM=       17 NQMF=       0 NMMI=      0 NMMIF=      0
                NMic=       0 NMicF=      0.
                    Isotopes and Nuclear Properties:
 (Nuclear quadrupole moments (NQMom) in fm**2, nuclear magnetic moments (NMagM)
  in nuclear magnetons)

  Atom         1           2           3           4           5           6           7           8           9          10
 IAtWgt=          12          12          14          16          12          12           1           1           1           1
 AtmWgt=  12.0000000  12.0000000  14.0030740  15.9949146  12.0000000  12.0000000   1.0078250   1.0078250   1.0078250   1.0078250
 NucSpn=           0           0           2           0           0           0           1           1           1           1
 AtZEff=  -0.0000000  -0.0000000  -0.0000000  -0.0000000  -0.0000000  -0.0000000  -0.0000000  -0.0000000  -0.0000000  -0.0000000
 NQMom=    0.0000000   0.0000000   2.0440000   0.0000000   0.0000000   0.0000000   0.0000000   0.0000000   0.0000000   0.0000000
 NMagM=    0.0000000   0.0000000   0.4037610   0.0000000   0.0000000   0.0000000   2.7928460   2.7928460   2.7928460   2.7928460
 AtZNuc=   6.0000000   6.0000000   7.0000000   8.0000000   6.0000000   6.0000000   1.0000000   1.0000000   1.0000000   1.0000000

  Atom        11          12          13          14          15          16          17
 IAtWgt=           1           1           1           1           1           1           1
 AtmWgt=   1.0078250   1.0078250   1.0078250   1.0078250   1.0078250   1.0078250   1.0078250
 NucSpn=           1           1           1           1           1           1           1
 AtZEff=  -0.0000000  -0.0000000  -0.0000000  -0.0000000  -0.0000000  -0.0000000  -0.0000000
 NQMom=    0.0000000   0.0000000   0.0000000   0.0000000   0.0000000   0.0000000   0.0000000
 NMagM=    2.7928460   2.7928460   2.7928460   2.7928460   2.7928460   2.7928460   2.7928460
 AtZNuc=   1.0000000   1.0000000   1.0000000   1.0000000   1.0000000   1.0000000   1.0000000
 Leave Link  101 at Mon Oct 14 00:01:38 2019, MaxMem= 10737418240 cpu:               8.5 elap:               0.4
 (Enter /apps/cent7/gaussian/g16-A.03/g16-haswell/g16/l103.exe)

 GradGradGradGradGradGradGradGradGradGradGradGradGradGradGradGradGradGrad
 Berny optimization.
 Initialization pass.
                           ----------------------------
                           !    Initial Parameters    !
                           ! (Angstroms and Degrees)  !
 --------------------------                            --------------------------
 ! Name  Definition              Value          Derivative Info.                !
 --------------------------------------------------------------------------------
 ! R1    R(1,2)                  1.5596         estimate D2E/DX2                !
 ! R2    R(1,7)                  1.09           estimate D2E/DX2                !
 ! R3    R(1,8)                  1.09           estimate D2E/DX2                !
 ! R4    R(1,9)                  1.0901         estimate D2E/DX2                !
 ! R5    R(2,3)                  1.4877         estimate D2E/DX2                !
 ! R6    R(2,5)                  1.5614         estimate D2E/DX2                !
 ! R7    R(2,6)                  1.5585         estimate D2E/DX2                !
 ! R8    R(3,4)                  1.3592         estimate D2E/DX2                !
 ! R9    R(3,10)                 1.0099         estimate D2E/DX2                !
 ! R10   R(4,11)                 0.96           estimate D2E/DX2                !
 ! R11   R(5,12)                 1.09           estimate D2E/DX2                !
 ! R12   R(5,13)                 1.0901         estimate D2E/DX2                !
 ! R13   R(5,14)                 1.09           estimate D2E/DX2                !
 ! R14   R(6,15)                 1.09           estimate D2E/DX2                !
 ! R15   R(6,16)                 1.09           estimate D2E/DX2                !
 ! R16   R(6,17)                 1.09           estimate D2E/DX2                !
 ! A1    A(2,1,7)              109.4717         estimate D2E/DX2                !
 ! A2    A(2,1,8)              109.4741         estimate D2E/DX2                !
 ! A3    A(2,1,9)              109.4712         estimate D2E/DX2                !
 ! A4    A(7,1,8)              109.4728         estimate D2E/DX2                !
 ! A5    A(7,1,9)              109.4679         estimate D2E/DX2                !
 ! A6    A(8,1,9)              109.4697         estimate D2E/DX2                !
 ! A7    A(1,2,3)              109.7761         estimate D2E/DX2                !
 ! A8    A(1,2,5)              111.1936         estimate D2E/DX2                !
 ! A9    A(1,2,6)              109.2393         estimate D2E/DX2                !
 ! A10   A(3,2,5)              110.66           estimate D2E/DX2                !
 ! A11   A(3,2,6)              106.6127         estimate D2E/DX2                !
 ! A12   A(5,2,6)              109.2403         estimate D2E/DX2                !
 ! A13   A(2,3,4)              113.3924         estimate D2E/DX2                !
 ! A14   A(2,3,10)             127.2409         estimate D2E/DX2                !
 ! A15   A(4,3,10)             119.3667         estimate D2E/DX2                !
 ! A16   A(3,4,11)             109.4718         estimate D2E/DX2                !
 ! A17   A(2,5,12)             109.4677         estimate D2E/DX2                !
 ! A18   A(2,5,13)             109.471          estimate D2E/DX2                !
 ! A19   A(2,5,14)             109.4687         estimate D2E/DX2                !
 ! A20   A(12,5,13)            109.4685         estimate D2E/DX2                !
 ! A21   A(12,5,14)            109.4765         estimate D2E/DX2                !
 ! A22   A(13,5,14)            109.4749         estimate D2E/DX2                !
 ! A23   A(2,6,15)             109.4717         estimate D2E/DX2                !
 ! A24   A(2,6,16)             109.4699         estimate D2E/DX2                !
 ! A25   A(2,6,17)             109.4729         estimate D2E/DX2                !
 ! A26   A(15,6,16)            109.47           estimate D2E/DX2                !
 ! A27   A(15,6,17)            109.4735         estimate D2E/DX2                !
 ! A28   A(16,6,17)            109.4693         estimate D2E/DX2                !
 ! D1    D(7,1,2,3)            160.0515         estimate D2E/DX2                !
 ! D2    D(7,1,2,5)            -77.1594         estimate D2E/DX2                !
 ! D3    D(7,1,2,6)             43.4824         estimate D2E/DX2                !
 ! D4    D(8,1,2,3)            -79.9445         estimate D2E/DX2                !
 ! D5    D(8,1,2,5)             42.8445         estimate D2E/DX2                !
 ! D6    D(8,1,2,6)            163.4863         estimate D2E/DX2                !
 ! D7    D(9,1,2,3)             40.0553         estimate D2E/DX2                !
 ! D8    D(9,1,2,5)            162.8444         estimate D2E/DX2                !
 ! D9    D(9,1,2,6)            -76.5138         estimate D2E/DX2                !
 ! D10   D(1,2,3,4)             62.9096         estimate D2E/DX2                !
 ! D11   D(1,2,3,10)          -117.0949         estimate D2E/DX2                !
 ! D12   D(5,2,3,4)            -60.1943         estimate D2E/DX2                !
 ! D13   D(5,2,3,10)           119.8012         estimate D2E/DX2                !
 ! D14   D(6,2,3,4)           -178.8812         estimate D2E/DX2                !
 ! D15   D(6,2,3,10)             1.1144         estimate D2E/DX2                !
 ! D16   D(1,2,5,12)           148.5281         estimate D2E/DX2                !
 ! D17   D(1,2,5,13)           -91.4775         estimate D2E/DX2                !
 ! D18   D(1,2,5,14)            28.5254         estimate D2E/DX2                !
 ! D19   D(3,2,5,12)           -89.1931         estimate D2E/DX2                !
 ! D20   D(3,2,5,13)            30.8012         estimate D2E/DX2                !
 ! D21   D(3,2,5,14)           150.8041         estimate D2E/DX2                !
 ! D22   D(6,2,5,12)            27.887          estimate D2E/DX2                !
 ! D23   D(6,2,5,13)           147.8813         estimate D2E/DX2                !
 ! D24   D(6,2,5,14)           -92.1158         estimate D2E/DX2                !
 ! D25   D(1,2,6,15)           -42.0711         estimate D2E/DX2                !
 ! D26   D(1,2,6,16)            77.9269         estimate D2E/DX2                !
 ! D27   D(1,2,6,17)          -162.0752         estimate D2E/DX2                !
 ! D28   D(3,2,6,15)          -160.6323         estimate D2E/DX2                !
 ! D29   D(3,2,6,16)           -40.6343         estimate D2E/DX2                !
 ! D30   D(3,2,6,17)            79.3636         estimate D2E/DX2                !
 ! D31   D(5,2,6,15)            79.7568         estimate D2E/DX2                !
 ! D32   D(5,2,6,16)          -160.2452         estimate D2E/DX2                !
 ! D33   D(5,2,6,17)           -40.2473         estimate D2E/DX2                !
 ! D34   D(2,3,4,11)           -20.5039         estimate D2E/DX2                !
 ! D35   D(10,3,4,11)          159.5002         estimate D2E/DX2                !
 --------------------------------------------------------------------------------
 Trust Radius=3.00D-01 FncErr=1.00D-07 GrdErr=1.00D-06 EigMax=2.50D+02 EigMin=1.00D-04
 Number of steps in this run=     89 maximum allowed number of steps=    102.
 GradGradGradGradGradGradGradGradGradGradGradGradGradGradGradGradGradGrad

 Leave Link  103 at Mon Oct 14 00:01:38 2019, MaxMem= 10737418240 cpu:               1.0 elap:               0.1
 (Enter /apps/cent7/gaussian/g16-A.03/g16-haswell/g16/l202.exe)
                          Input orientation:                          
 ---------------------------------------------------------------------
 Center     Atomic      Atomic             Coordinates (Angstroms)
 Number     Number       Type             X           Y           Z
 ---------------------------------------------------------------------
      1          6           0        2.047600   -0.764000   -1.287400
      2          6           0        1.507300   -0.008000   -0.034800
      3          7           0        2.024100    1.387000   -0.027100
      4          8           0        1.605800    2.123300   -1.090200
      5          6           0       -0.053700   -0.017400    0.000400
      6          6           0        2.054200   -0.692900    1.253900
      7          1           0        1.976200   -1.839000   -1.121800
      8          1           0        1.455000   -0.490700   -2.160400
      9          1           0        3.089400   -0.490700   -1.455400
     10          1           0        2.626800    1.811700    0.663100
     11          1           0        1.327900    1.535900   -1.796800
     12          1           0       -0.393700   -0.019400    1.036000
     13          1           0       -0.433900    0.870400   -0.505100
     14          1           0       -0.423100   -0.909600   -0.505100
     15          1           0        2.005300   -1.775700    1.138600
     16          1           0        3.089200   -0.391000    1.414500
     17          1           0        1.450700   -0.391000    2.109900
 ---------------------------------------------------------------------
                    Distance matrix (angstroms):
                    1          2          3          4          5
     1  C    0.000000
     2  C    1.559637   0.000000
     3  N    2.493132   1.487672   0.000000
     4  O    2.927555   2.380338   1.359152   0.000000
     5  C    2.575131   1.561425   2.508057   2.919922   0.000000
     6  C    2.542303   1.558504   2.442919   3.691456   2.543778
     7  H    1.090021   2.180366   3.407013   3.979700   2.949246
     8  H    1.089953   2.180346   2.898379   2.828615   2.677545
     9  H    1.090075   2.180400   2.588564   3.027777   3.496061
    10  H    3.282401   2.247588   1.009947   2.052705   3.312078
    11  H    2.463127   2.349565   1.907539   0.959974   2.747997
    12  H    3.451458   2.181867   2.992307   3.620758   1.089987
    13  H    3.072637   2.181978   2.556780   2.464240   1.090078
    14  H    2.595679   2.181859   3.389933   3.695573   1.089958
    15  H    2.628840   2.179366   3.370739   4.508808   2.937107
    16  H    2.919644   2.179350   2.524665   3.846518   3.466565
    17  H    3.469447   2.179365   2.838457   4.072640   2.617783
                    6          7          8          9         10
     6  C    0.000000
     7  H    2.638860   0.000000
     8  H    3.472372   1.779959   0.000000
     9  H    2.907375   1.780005   1.779969   0.000000
    10  H    2.636273   4.115429   3.827050   3.162766   0.000000
    11  H    3.847315   3.502266   2.062878   2.706759   2.795410
    12  H    2.548195   3.685576   3.722471   4.308269   3.551817
    13  H    3.424709   3.678281   2.856668   3.894779   3.408610
    14  H    3.045990   2.645892   2.538258   3.662814   4.251124
    15  H    1.090019   2.261473   3.582940   3.091170   3.671757
    16  H    1.090028   3.125426   3.931979   2.871631   2.372826
    17  H    1.089996   3.580047   4.271466   3.925130   2.885884
                   11         12         13         14         15
    11  H    0.000000
    12  H    3.661642   0.000000
    13  H    2.283707   1.779986   0.000000
    14  H    3.273371   1.779975   1.780033   0.000000
    15  H    4.476845   2.974948   3.956424   3.057614   0.000000
    16  H    4.138547   3.523059   4.205737   4.036095   1.779987
    17  H    4.357789   2.166370   3.461369   3.258573   1.780000
                   16         17
    16  H    0.000000
    17  H    1.779962   0.000000
 Stoichiometry    C4H11NO
 Framework group  C1[X(C4H11NO)]
 Deg. of freedom    45
 Full point group                 C1      NOp   1
 Largest Abelian subgroup         C1      NOp   1
 Largest concise Abelian subgroup C1      NOp   1
                         Standard orientation:                         
 ---------------------------------------------------------------------
 Center     Atomic      Atomic             Coordinates (Angstroms)
 Number     Number       Type             X           Y           Z
 ---------------------------------------------------------------------
      1          6           0       -0.378530    0.964055   -1.235544
      2          6           0       -0.366777    0.015603    0.002507
      3          7           0        0.839074   -0.854545   -0.041456
      4          8           0        2.006652   -0.162897    0.033891
      5          6           0       -0.412252    0.827095    1.335722
      6          6           0       -1.602517   -0.931702   -0.064532
      7          1           0       -1.390436    1.334417   -1.399938
      8          1           0        0.291346    1.804811   -1.055567
      9          1           0       -0.044762    0.415693   -2.116544
     10          1           0        0.863850   -1.861260   -0.118296
     11          1           0        1.853903    0.751097   -0.216776
     12          1           0       -0.942048    0.250569    2.094013
     13          1           0        0.604445    1.025877    1.674961
     14          1           0       -0.930772    1.771181    1.168854
     15          1           0       -2.478789   -0.364220   -0.377986
     16          1           0       -1.410372   -1.729295   -0.782227
     17          1           0       -1.782642   -1.364184    0.919646
 ---------------------------------------------------------------------
 Rotational constants (GHZ):           4.3333692           2.6915763           2.6748548
 Leave Link  202 at Mon Oct 14 00:01:38 2019, MaxMem= 10737418240 cpu:               0.4 elap:               0.0
 (Enter /apps/cent7/gaussian/g16-A.03/g16-haswell/g16/l301.exe)
 Standard basis: 6-311++G(d,p) (5D, 7F)
 Ernie: Thresh=  0.10000D-02 Tol=  0.10000D-05 Strict=F.
 There are   215 symmetry adapted cartesian basis functions of A   symmetry.
 There are   209 symmetry adapted basis functions of A   symmetry.
   209 basis functions,   315 primitive gaussians,   215 cartesian basis functions
    25 alpha electrons       25 beta electrons
       nuclear repulsion energy       269.9517758780 Hartrees.
 IExCor= 4336 DFT=T Ex+Corr=M062X ExCW=0 ScaHFX=  0.540000
 ScaDFX=  1.000000  1.000000  1.000000  1.000000 ScalE2=  1.000000  1.000000
 IRadAn=      5 IRanWt=     -1 IRanGd=            0 ICorTp=0 IEmpDi=  4
 NAtoms=   17 NActive=   17 NUniq=   17 SFac= 1.00D+00 NAtFMM=   60 NAOKFM=F Big=F
 Integral buffers will be    131072 words long.
 Raffenetti 2 integral format.
 Two-electron integral symmetry is turned on.
 Leave Link  301 at Mon Oct 14 00:01:38 2019, MaxMem= 10737418240 cpu:               1.3 elap:               0.1
 (Enter /apps/cent7/gaussian/g16-A.03/g16-haswell/g16/l302.exe)
 NPDir=0 NMtPBC=     1 NCelOv=     1 NCel=       1 NClECP=     1 NCelD=      1
         NCelK=      1 NCelE2=     1 NClLst=     1 CellRange=     0.0.
 One-electron integrals computed using PRISM.
 One-electron integral symmetry used in STVInt
 NBasis=   209 RedAO= T EigKep=  1.90D-05  NBF=   209
 NBsUse=   209 1.00D-06 EigRej= -1.00D+00 NBFU=   209
 Precomputing XC quadrature grid using
 IXCGrd= 4 IRadAn=           5 IRanWt=          -1 IRanGd=           0 AccXCQ= 0.00D+00.
 Generated NRdTot=       0 NPtTot=           0 NUsed=           0 NTot=          32
 NSgBfM=   215   215   215   215   215 MxSgAt=    17 MxSgA2=    17.
 Leave Link  302 at Mon Oct 14 00:01:38 2019, MaxMem= 10737418240 cpu:               4.4 elap:               0.2
 (Enter /apps/cent7/gaussian/g16-A.03/g16-haswell/g16/l303.exe)
 DipDrv:  MaxL=1.
 Leave Link  303 at Mon Oct 14 00:01:38 2019, MaxMem= 10737418240 cpu:               1.0 elap:               0.1
 (Enter /apps/cent7/gaussian/g16-A.03/g16-haswell/g16/l401.exe)
 ExpMin= 3.60D-02 ExpMax= 8.59D+03 ExpMxC= 1.30D+03 IAcc=3 IRadAn=         5 AccDes= 0.00D+00
 Harris functional with IExCor= 1009 and IRadAn=       5 diagonalized for initial guess.
 HarFok:  IExCor= 1009 AccDes= 0.00D+00 IRadAn=         5 IDoV= 1 UseB2=F ITyADJ=14
 ICtDFT=  3500011 ScaDFX=  1.000000  1.000000  1.000000  1.000000
 FoFCou: FMM=F IPFlag=           0 FMFlag=      100000 FMFlg1=           0
         NFxFlg=           0 DoJE=T BraDBF=F KetDBF=T FulRan=T
         wScrn=  0.000000 ICntrl=       500 IOpCl=  0 I1Cent=   200000004 NGrid=           0
         NMat0=    1 NMatS0=      1 NMatT0=    0 NMatD0=    1 NMtDS0=    0 NMtDT0=    0
 Petite list used in FoFCou.
 Harris En= -288.814264075895    
 JPrj=0 DoOrth=F DoCkMO=F.
 Leave Link  401 at Mon Oct 14 00:01:39 2019, MaxMem= 10737418240 cpu:               8.6 elap:               0.4
 (Enter /apps/cent7/gaussian/g16-A.03/g16-haswell/g16/l502.exe)
 Integral symmetry usage will be decided dynamically.
 Closed shell SCF:
 Using DIIS extrapolation, IDIIS=  1040.
 NGot= 10737418240 LenX= 10737318341 LenY= 10737271675
 Requested convergence on RMS density matrix=1.00D-08 within 128 cycles.
 Requested convergence on MAX density matrix=1.00D-06.
 Requested convergence on             energy=1.00D-06.
 No special actions if energy rises.
 Fock matrices will be formed incrementally for  20 cycles.

 Cycle   1  Pass 1  IDiag  1:
 FoFJK:  IHMeth= 1 ICntrl=       0 DoSepK=F KAlg= 0 I1Cent=           0 FoldK=F
 IRaf= 990000000 NMat=       1 IRICut=       1 DoRegI=T DoRafI=F ISym2E= 0 IDoP0=0 IntGTp=1.
 FoFCou: FMM=F IPFlag=           0 FMFlag=      100000 FMFlg1=           0
         NFxFlg=           0 DoJE=F BraDBF=F KetDBF=F FulRan=T
         wScrn=  0.000000 ICntrl=         0 IOpCl=  0 I1Cent=           0 NGrid=           0
         NMat0=    1 NMatS0=      1 NMatT0=    0 NMatD0=    1 NMtDS0=    0 NMtDT0=    0
 Symmetry not used in FoFCou.
 E= -288.642972003118    
 DIIS: error= 4.11D-02 at cycle   1 NSaved=   1.
 NSaved= 1 IEnMin= 1 EnMin= -288.642972003118     IErMin= 1 ErrMin= 4.11D-02
 ErrMax= 4.11D-02  0.00D+00 EMaxC= 1.00D-01 BMatC= 2.91D-01 BMatP= 2.91D-01
 IDIUse=3 WtCom= 5.89D-01 WtEn= 4.11D-01
 Coeff-Com:  0.100D+01
 Coeff-En:   0.100D+01
 Coeff:      0.100D+01
 Gap=     0.215 Goal=   None    Shift=    0.000
 GapD=    0.215 DampG=1.000 DampE=0.500 DampFc=0.5000 IDamp=-1.
 Damping current iteration by 5.00D-01
 RMSDP=7.52D-03 MaxDP=2.58D-01              OVMax= 1.51D-01

 Cycle   2  Pass 1  IDiag  1:
 RMSU=  3.76D-03    CP:  9.90D-01
 E= -288.767641403293     Delta-E=       -0.124669400175 Rises=F Damp=T
 DIIS: error= 5.73D-03 at cycle   2 NSaved=   2.
 NSaved= 2 IEnMin= 2 EnMin= -288.767641403293     IErMin= 2 ErrMin= 5.73D-03
 ErrMax= 5.73D-03  0.00D+00 EMaxC= 1.00D-01 BMatC= 1.67D-02 BMatP= 2.91D-01
 IDIUse=3 WtCom= 9.43D-01 WtEn= 5.73D-02
 Coeff-Com: -0.120D+00 0.112D+01
 Coeff-En:   0.000D+00 0.100D+01
 Coeff:     -0.113D+00 0.111D+01
 Gap=     0.248 Goal=   None    Shift=    0.000
 RMSDP=2.58D-03 MaxDP=1.50D-01 DE=-1.25D-01 OVMax= 7.86D-02

 Cycle   3  Pass 1  IDiag  1:
 RMSU=  2.42D-03    CP:  9.47D-01  8.34D-01
 E= -288.881065207701     Delta-E=       -0.113423804408 Rises=F Damp=F
 DIIS: error= 2.77D-03 at cycle   3 NSaved=   3.
 NSaved= 3 IEnMin= 3 EnMin= -288.881065207701     IErMin= 3 ErrMin= 2.77D-03
 ErrMax= 2.77D-03  0.00D+00 EMaxC= 1.00D-01 BMatC= 1.65D-03 BMatP= 1.67D-02
 IDIUse=3 WtCom= 9.72D-01 WtEn= 2.77D-02
 Coeff-Com: -0.602D-01 0.226D+00 0.834D+00
 Coeff-En:   0.000D+00 0.000D+00 0.100D+01
 Coeff:     -0.585D-01 0.220D+00 0.839D+00
 Gap=     0.236 Goal=   None    Shift=    0.000
 RMSDP=4.89D-04 MaxDP=2.58D-02 DE=-1.13D-01 OVMax= 8.12D-03

 Cycle   4  Pass 1  IDiag  1:
 RMSU=  3.86D-04    CP:  9.38D-01  9.05D-01  9.76D-01
 E= -288.882072105228     Delta-E=       -0.001006897527 Rises=F Damp=F
 DIIS: error= 1.37D-03 at cycle   4 NSaved=   4.
 NSaved= 4 IEnMin= 4 EnMin= -288.882072105228     IErMin= 4 ErrMin= 1.37D-03
 ErrMax= 1.37D-03  0.00D+00 EMaxC= 1.00D-01 BMatC= 4.25D-04 BMatP= 1.65D-03
 IDIUse=3 WtCom= 9.86D-01 WtEn= 1.37D-02
 Coeff-Com: -0.212D-01 0.566D-01 0.389D+00 0.575D+00
 Coeff-En:   0.000D+00 0.000D+00 0.859D-01 0.914D+00
 Coeff:     -0.209D-01 0.558D-01 0.385D+00 0.580D+00
 Gap=     0.239 Goal=   None    Shift=    0.000
 RMSDP=1.49D-04 MaxDP=4.86D-03 DE=-1.01D-03 OVMax= 3.41D-03

 Cycle   5  Pass 1  IDiag  1:
 RMSU=  9.00D-05    CP:  9.37D-01  8.81D-01  9.89D-01  8.27D-01
 E= -288.882373865539     Delta-E=       -0.000301760310 Rises=F Damp=F
 DIIS: error= 2.19D-04 at cycle   5 NSaved=   5.
 NSaved= 5 IEnMin= 5 EnMin= -288.882373865539     IErMin= 5 ErrMin= 2.19D-04
 ErrMax= 2.19D-04  0.00D+00 EMaxC= 1.00D-01 BMatC= 1.23D-05 BMatP= 4.25D-04
 IDIUse=3 WtCom= 9.98D-01 WtEn= 2.19D-03
 Coeff-Com: -0.285D-02 0.480D-02 0.790D-01 0.201D+00 0.718D+00
 Coeff-En:   0.000D+00 0.000D+00 0.000D+00 0.000D+00 0.100D+01
 Coeff:     -0.284D-02 0.479D-02 0.789D-01 0.201D+00 0.718D+00
 Gap=     0.239 Goal=   None    Shift=    0.000
 RMSDP=4.00D-05 MaxDP=2.06D-03 DE=-3.02D-04 OVMax= 6.59D-04

 Cycle   6  Pass 1  IDiag  1:
 RMSU=  3.36D-05    CP:  9.38D-01  8.80D-01  9.94D-01  8.10D-01  8.66D-01
 E= -288.882382540216     Delta-E=       -0.000008674677 Rises=F Damp=F
 DIIS: error= 5.28D-05 at cycle   6 NSaved=   6.
 NSaved= 6 IEnMin= 6 EnMin= -288.882382540216     IErMin= 6 ErrMin= 5.28D-05
 ErrMax= 5.28D-05  0.00D+00 EMaxC= 1.00D-01 BMatC= 7.72D-07 BMatP= 1.23D-05
 IDIUse=1 WtCom= 1.00D+00 WtEn= 0.00D+00
 Coeff-Com:  0.199D-03-0.143D-02 0.103D-01 0.465D-01 0.257D+00 0.688D+00
 Coeff:      0.199D-03-0.143D-02 0.103D-01 0.465D-01 0.257D+00 0.688D+00
 Gap=     0.239 Goal=   None    Shift=    0.000
 RMSDP=1.21D-05 MaxDP=8.57D-04 DE=-8.67D-06 OVMax= 2.42D-04

 Cycle   7  Pass 1  IDiag  1:
 RMSU=  5.88D-06    CP:  9.38D-01  8.78D-01  9.95D-01  8.24D-01  9.22D-01
                    CP:  9.68D-01
 E= -288.882383148565     Delta-E=       -0.000000608350 Rises=F Damp=F
 DIIS: error= 2.10D-05 at cycle   7 NSaved=   7.
 NSaved= 7 IEnMin= 7 EnMin= -288.882383148565     IErMin= 7 ErrMin= 2.10D-05
 ErrMax= 2.10D-05  0.00D+00 EMaxC= 1.00D-01 BMatC= 1.09D-07 BMatP= 7.72D-07
 IDIUse=1 WtCom= 1.00D+00 WtEn= 0.00D+00
 Coeff-Com:  0.564D-03-0.128D-02-0.958D-02-0.172D-01-0.316D-01 0.266D+00
 Coeff-Com:  0.793D+00
 Coeff:      0.564D-03-0.128D-02-0.958D-02-0.172D-01-0.316D-01 0.266D+00
 Coeff:      0.793D+00
 Gap=     0.239 Goal=   None    Shift=    0.000
 RMSDP=6.26D-06 MaxDP=2.18D-04 DE=-6.08D-07 OVMax= 1.12D-04

 Cycle   8  Pass 1  IDiag  1:
 RMSU=  2.68D-06    CP:  9.38D-01  8.77D-01  9.96D-01  8.23D-01  9.28D-01
                    CP:  1.05D+00  1.07D+00
 E= -288.882383261252     Delta-E=       -0.000000112687 Rises=F Damp=F
 DIIS: error= 3.30D-06 at cycle   8 NSaved=   8.
 NSaved= 8 IEnMin= 8 EnMin= -288.882383261252     IErMin= 8 ErrMin= 3.30D-06
 ErrMax= 3.30D-06  0.00D+00 EMaxC= 1.00D-01 BMatC= 2.41D-09 BMatP= 1.09D-07
 IDIUse=1 WtCom= 1.00D+00 WtEn= 0.00D+00
 Coeff-Com:  0.107D-03-0.229D-03-0.261D-02-0.583D-02-0.167D-01 0.340D-01
 Coeff-Com:  0.191D+00 0.800D+00
 Coeff:      0.107D-03-0.229D-03-0.261D-02-0.583D-02-0.167D-01 0.340D-01
 Coeff:      0.191D+00 0.800D+00
 Gap=     0.239 Goal=   None    Shift=    0.000
 RMSDP=8.43D-07 MaxDP=2.47D-05 DE=-1.13D-07 OVMax= 2.40D-05

 Cycle   9  Pass 1  IDiag  1:
 RMSU=  5.98D-07    CP:  9.38D-01  8.77D-01  9.96D-01  8.23D-01  9.31D-01
                    CP:  1.06D+00  1.11D+00  9.66D-01
 E= -288.882383264182     Delta-E=       -0.000000002930 Rises=F Damp=F
 DIIS: error= 8.01D-07 at cycle   9 NSaved=   9.
 NSaved= 9 IEnMin= 9 EnMin= -288.882383264182     IErMin= 9 ErrMin= 8.01D-07
 ErrMax= 8.01D-07  0.00D+00 EMaxC= 1.00D-01 BMatC= 1.84D-10 BMatP= 2.41D-09
 IDIUse=1 WtCom= 1.00D+00 WtEn= 0.00D+00
 Coeff-Com: -0.186D-04 0.399D-04 0.301D-04-0.209D-03-0.161D-02-0.905D-02
 Coeff-Com: -0.922D-02 0.176D+00 0.844D+00
 Coeff:     -0.186D-04 0.399D-04 0.301D-04-0.209D-03-0.161D-02-0.905D-02
 Coeff:     -0.922D-02 0.176D+00 0.844D+00
 Gap=     0.239 Goal=   None    Shift=    0.000
 RMSDP=3.61D-07 MaxDP=1.42D-05 DE=-2.93D-09 OVMax= 9.46D-06

 Cycle  10  Pass 1  IDiag  1:
 RMSU=  1.56D-07    CP:  9.38D-01  8.77D-01  9.96D-01  8.23D-01  9.31D-01
                    CP:  1.06D+00  1.12D+00  1.03D+00  1.12D+00
 E= -288.882383264417     Delta-E=       -0.000000000234 Rises=F Damp=F
 DIIS: error= 3.73D-07 at cycle  10 NSaved=  10.
 NSaved=10 IEnMin=10 EnMin= -288.882383264417     IErMin=10 ErrMin= 3.73D-07
 ErrMax= 3.73D-07  0.00D+00 EMaxC= 1.00D-01 BMatC= 4.53D-11 BMatP= 1.84D-10
 IDIUse=1 WtCom= 1.00D+00 WtEn= 0.00D+00
 Coeff-Com: -0.176D-04 0.380D-04 0.230D-03 0.385D-03 0.647D-03-0.685D-02
 Coeff-Com: -0.206D-01 0.121D-01 0.376D+00 0.638D+00
 Coeff:     -0.176D-04 0.380D-04 0.230D-03 0.385D-03 0.647D-03-0.685D-02
 Coeff:     -0.206D-01 0.121D-01 0.376D+00 0.638D+00
 Gap=     0.239 Goal=   None    Shift=    0.000
 RMSDP=9.48D-08 MaxDP=3.61D-06 DE=-2.34D-10 OVMax= 3.59D-06

 Cycle  11  Pass 1  IDiag  1:
 RMSU=  5.63D-08    CP:  9.38D-01  8.77D-01  9.96D-01  8.23D-01  9.31D-01
                    CP:  1.06D+00  1.13D+00  1.04D+00  1.18D+00  1.08D+00
 E= -288.882383264466     Delta-E=       -0.000000000050 Rises=F Damp=F
 DIIS: error= 1.02D-07 at cycle  11 NSaved=  11.
 NSaved=11 IEnMin=11 EnMin= -288.882383264466     IErMin=11 ErrMin= 1.02D-07
 ErrMax= 1.02D-07  0.00D+00 EMaxC= 1.00D-01 BMatC= 2.09D-12 BMatP= 4.53D-11
 IDIUse=1 WtCom= 1.00D+00 WtEn= 0.00D+00
 Coeff-Com:  0.140D-05-0.211D-05 0.117D-04 0.369D-04 0.151D-03 0.587D-03
 Coeff-Com: -0.579D-03-0.201D-01-0.710D-01 0.692D-01 0.102D+01
 Coeff:      0.140D-05-0.211D-05 0.117D-04 0.369D-04 0.151D-03 0.587D-03
 Coeff:     -0.579D-03-0.201D-01-0.710D-01 0.692D-01 0.102D+01
 Gap=     0.239 Goal=   None    Shift=    0.000
 RMSDP=6.02D-08 MaxDP=2.29D-06 DE=-4.98D-11 OVMax= 2.19D-06

 Cycle  12  Pass 1  IDiag  1:
 RMSU=  2.10D-08    CP:  9.38D-01  8.77D-01  9.96D-01  8.23D-01  9.31D-01
                    CP:  1.06D+00  1.13D+00  1.05D+00  1.21D+00  1.26D+00
                    CP:  1.33D+00
 E= -288.882383264472     Delta-E=       -0.000000000006 Rises=F Damp=F
 DIIS: error= 3.20D-08 at cycle  12 NSaved=  12.
 NSaved=12 IEnMin=12 EnMin= -288.882383264472     IErMin=12 ErrMin= 3.20D-08
 ErrMax= 3.20D-08  0.00D+00 EMaxC= 1.00D-01 BMatC= 3.19D-13 BMatP= 2.09D-12
 IDIUse=1 WtCom= 1.00D+00 WtEn= 0.00D+00
 Coeff-Com:  0.185D-05-0.367D-05-0.117D-04-0.146D-04 0.890D-05 0.697D-03
 Coeff-Com:  0.130D-02-0.794D-02-0.547D-01-0.250D-01 0.358D+00 0.728D+00
 Coeff:      0.185D-05-0.367D-05-0.117D-04-0.146D-04 0.890D-05 0.697D-03
 Coeff:      0.130D-02-0.794D-02-0.547D-01-0.250D-01 0.358D+00 0.728D+00
 Gap=     0.239 Goal=   None    Shift=    0.000
 RMSDP=1.22D-08 MaxDP=5.38D-07 DE=-5.68D-12 OVMax= 5.35D-07

 Cycle  13  Pass 1  IDiag  1:
 RMSU=  5.33D-09    CP:  9.38D-01  8.77D-01  9.96D-01  8.23D-01  9.31D-01
                    CP:  1.06D+00  1.13D+00  1.05D+00  1.22D+00  1.29D+00
                    CP:  1.44D+00  1.12D+00
 E= -288.882383264471     Delta-E=        0.000000000001 Rises=F Damp=F
 DIIS: error= 1.02D-08 at cycle  13 NSaved=  13.
 NSaved=13 IEnMin=12 EnMin= -288.882383264472     IErMin=13 ErrMin= 1.02D-08
 ErrMax= 1.02D-08  0.00D+00 EMaxC= 1.00D-01 BMatC= 3.39D-14 BMatP= 3.19D-13
 IDIUse=1 WtCom= 1.00D+00 WtEn= 0.00D+00
 Coeff-Com:  0.216D-06-0.566D-06-0.348D-05-0.640D-05-0.879D-05 0.749D-04
 Coeff-Com:  0.349D-03 0.912D-03-0.248D-02-0.151D-01-0.636D-01 0.198D+00
 Coeff-Com:  0.882D+00
 Coeff:      0.216D-06-0.566D-06-0.348D-05-0.640D-05-0.879D-05 0.749D-04
 Coeff:      0.349D-03 0.912D-03-0.248D-02-0.151D-01-0.636D-01 0.198D+00
 Coeff:      0.882D+00
 Gap=     0.239 Goal=   None    Shift=    0.000
 RMSDP=6.15D-09 MaxDP=2.77D-07 DE= 1.48D-12 OVMax= 2.31D-07

 SCF Done:  E(RM062X) =  -288.882383264     A.U. after   13 cycles
            NFock= 13  Conv=0.61D-08     -V/T= 2.0041
 KE= 2.876915540971D+02 PE=-1.213470012124D+03 EE= 3.669442988842D+02
 Leave Link  502 at Mon Oct 14 00:01:48 2019, MaxMem= 10737418240 cpu:             206.9 elap:               8.7
 (Enter /apps/cent7/gaussian/g16-A.03/g16-haswell/g16/l601.exe)
 Copying SCF densities to generalized density rwf, IOpCl= 0 IROHF=0.

 **********************************************************************

            Population analysis using the SCF density.

 **********************************************************************

 Orbital symmetries:
       Occupied  (A) (A) (A) (A) (A) (A) (A) (A) (A) (A) (A) (A)
                 (A) (A) (A) (A) (A) (A) (A) (A) (A) (A) (A) (A)
                 (A)
       Virtual   (A) (A) (A) (A) (A) (A) (A) (A) (A) (A) (A) (A)
                 (A) (A) (A) (A) (A) (A) (A) (A) (A) (A) (A) (A)
                 (A) (A) (A) (A) (A) (A) (A) (A) (A) (A) (A) (A)
                 (A) (A) (A) (A) (A) (A) (A) (A) (A) (A) (A) (A)
                 (A) (A) (A) (A) (A) (A) (A) (A) (A) (A) (A) (A)
                 (A) (A) (A) (A) (A) (A) (A) (A) (A) (A) (A) (A)
                 (A) (A) (A) (A) (A) (A) (A) (A) (A) (A) (A) (A)
                 (A) (A) (A) (A) (A) (A) (A) (A) (A) (A) (A) (A)
                 (A) (A) (A) (A) (A) (A) (A) (A) (A) (A) (A) (A)
                 (A) (A) (A) (A) (A) (A) (A) (A) (A) (A) (A) (A)
                 (A) (A) (A) (A) (A) (A) (A) (A) (A) (A) (A) (A)
                 (A) (A) (A) (A) (A) (A) (A) (A) (A) (A) (A) (A)
                 (A) (A) (A) (A) (A) (A) (A) (A) (A) (A) (A) (A)
                 (A) (A) (A) (A) (A) (A) (A) (A) (A) (A) (A) (A)
                 (A) (A) (A) (A) (A) (A) (A) (A) (A) (A) (A) (A)
                 (A) (A) (A) (A)
 The electronic state is 1-A.
 Alpha  occ. eigenvalues --  -19.64179 -14.76276 -10.59193 -10.53352 -10.53206
 Alpha  occ. eigenvalues --  -10.52505  -1.20215  -0.94709  -0.85056  -0.78647
 Alpha  occ. eigenvalues --   -0.78227  -0.66809  -0.59753  -0.56323  -0.52109
 Alpha  occ. eigenvalues --   -0.51019  -0.49477  -0.48172  -0.45770  -0.43719
 Alpha  occ. eigenvalues --   -0.43360  -0.40657  -0.39536  -0.38888  -0.24383
 Alpha virt. eigenvalues --   -0.00521   0.01001   0.01725   0.01980   0.03337
 Alpha virt. eigenvalues --    0.04012   0.04218   0.04475   0.05365   0.07408
 Alpha virt. eigenvalues --    0.07556   0.08151   0.09727   0.10444   0.10923
 Alpha virt. eigenvalues --    0.12309   0.12768   0.13456   0.14712   0.14919
 Alpha virt. eigenvalues --    0.15503   0.15877   0.16280   0.16467   0.16839
 Alpha virt. eigenvalues --    0.17571   0.18390   0.18898   0.20124   0.20719
 Alpha virt. eigenvalues --    0.21784   0.22053   0.23278   0.24086   0.24788
 Alpha virt. eigenvalues --    0.26515   0.27077   0.28384   0.29301   0.29857
 Alpha virt. eigenvalues --    0.30775   0.32045   0.32914   0.33130   0.33953
 Alpha virt. eigenvalues --    0.35383   0.35655   0.37624   0.38342   0.41163
 Alpha virt. eigenvalues --    0.45502   0.46922   0.48224   0.49590   0.51896
 Alpha virt. eigenvalues --    0.53594   0.56471   0.57575   0.58907   0.61475
 Alpha virt. eigenvalues --    0.64056   0.66542   0.68641   0.69377   0.70010
 Alpha virt. eigenvalues --    0.71457   0.71967   0.72510   0.73231   0.74519
 Alpha virt. eigenvalues --    0.75982   0.76092   0.78948   0.81964   0.87597
 Alpha virt. eigenvalues --    0.88550   0.90419   0.95324   0.98705   1.01517
 Alpha virt. eigenvalues --    1.09225   1.12404   1.16280   1.17111   1.21578
 Alpha virt. eigenvalues --    1.26460   1.28294   1.32225   1.34187   1.36181
 Alpha virt. eigenvalues --    1.44934   1.47576   1.48008   1.50051   1.51509
 Alpha virt. eigenvalues --    1.52581   1.53994   1.57772   1.58025   1.60302
 Alpha virt. eigenvalues --    1.61668   1.62193   1.65651   1.66757   1.69098
 Alpha virt. eigenvalues --    1.70224   1.72162   1.76721   1.77998   1.79718
 Alpha virt. eigenvalues --    1.80931   1.83641   1.85735   1.89314   1.91942
 Alpha virt. eigenvalues --    1.92988   1.98386   2.00771   2.03923   2.07284
 Alpha virt. eigenvalues --    2.11763   2.12248   2.14150   2.17300   2.20513
 Alpha virt. eigenvalues --    2.25260   2.26287   2.29544   2.35030   2.40658
 Alpha virt. eigenvalues --    2.41059   2.47940   2.51055   2.52945   2.54236
 Alpha virt. eigenvalues --    2.55490   2.56124   2.57645   2.58898   2.59253
 Alpha virt. eigenvalues --    2.64148   2.65016   2.67438   2.69053   2.69750
 Alpha virt. eigenvalues --    2.71051   2.72916   2.76872   2.79052   2.83727
 Alpha virt. eigenvalues --    2.84912   2.95618   2.99330   3.06287   3.08795
 Alpha virt. eigenvalues --    3.14805   3.18034   3.24256   3.28403   3.36078
 Alpha virt. eigenvalues --    3.50548   3.52278   3.78422   3.80839   3.83414
 Alpha virt. eigenvalues --    3.84812   3.86263   3.87690   3.91703   3.95275
 Alpha virt. eigenvalues --    4.03335   4.29560   4.32664   4.60875   4.91881
 Alpha virt. eigenvalues --    5.16162   5.57489   5.92996  23.80001  24.02729
 Alpha virt. eigenvalues --   24.04601  24.06738  35.63601  50.04685
          Condensed to atoms (all electrons):
               1          2          3          4          5          6
     1  C    6.149185  -0.419948  -0.084613  -0.034147   0.070506  -0.189963
     2  C   -0.419948   6.522442   0.119932   0.045978  -0.251615   0.190048
     3  N   -0.084613   0.119932   7.236564  -0.018003  -0.078196  -0.117604
     4  O   -0.034147   0.045978  -0.018003   7.821961  -0.041192   0.027007
     5  C    0.070506  -0.251615  -0.078196  -0.041192   5.819418  -0.163554
     6  C   -0.189963   0.190048  -0.117604   0.027007  -0.163554   5.568819
     7  H    0.474899  -0.093322   0.022640  -0.000577   0.003402  -0.033295
     8  H    0.247165   0.119362  -0.021745  -0.012033  -0.023551   0.019147
     9  H    0.373434  -0.025183  -0.003491   0.001765  -0.008270   0.015048
    10  H   -0.012491  -0.029931   0.355247  -0.006194  -0.004171   0.008315
    11  H    0.021943   0.018450  -0.080748   0.315863  -0.023263   0.004353
    12  H    0.025102  -0.066389   0.002357  -0.006299   0.401718  -0.007725
    13  H   -0.071179   0.173696  -0.056711   0.032481   0.289785   0.007598
    14  H   -0.013671  -0.064753   0.018468  -0.000246   0.406105   0.016738
    15  H   -0.020326  -0.011053   0.012480  -0.001696  -0.008187   0.395751
    16  H    0.018428  -0.085151   0.017111  -0.000617   0.021102   0.387147
    17  H   -0.028828  -0.021358  -0.005660   0.003368  -0.026222   0.411181
               7          8          9         10         11         12
     1  C    0.474899   0.247165   0.373434  -0.012491   0.021943   0.025102
     2  C   -0.093322   0.119362  -0.025183  -0.029931   0.018450  -0.066389
     3  N    0.022640  -0.021745  -0.003491   0.355247  -0.080748   0.002357
     4  O   -0.000577  -0.012033   0.001765  -0.006194   0.315863  -0.006299
     5  C    0.003402  -0.023551  -0.008270  -0.004171  -0.023263   0.401718
     6  C   -0.033295   0.019147   0.015048   0.008315   0.004353  -0.007725
     7  H    0.551516  -0.041303  -0.039190   0.000360   0.003748   0.000851
     8  H   -0.041303   0.607180  -0.027362   0.000915  -0.006805  -0.001863
     9  H   -0.039190  -0.027362   0.516704  -0.000348  -0.004682  -0.004338
    10  H    0.000360   0.000915  -0.000348   0.365119   0.006893  -0.001077
    11  H    0.003748  -0.006805  -0.004682   0.006893   0.482334  -0.000084
    12  H    0.000851  -0.001863  -0.004338  -0.001077  -0.000084   0.561045
    13  H    0.000342   0.006198   0.003407   0.001311  -0.007668  -0.022914
    14  H   -0.008881   0.000703   0.001657  -0.000566   0.002206  -0.036051
    15  H   -0.004101   0.001842   0.002564  -0.002446  -0.000968   0.003935
    16  H    0.004654  -0.001872  -0.002092   0.001915   0.000318  -0.000510
    17  H   -0.001199  -0.003454   0.002841   0.002253  -0.000099   0.003893
              13         14         15         16         17
     1  C   -0.071179  -0.013671  -0.020326   0.018428  -0.028828
     2  C    0.173696  -0.064753  -0.011053  -0.085151  -0.021358
     3  N   -0.056711   0.018468   0.012480   0.017111  -0.005660
     4  O    0.032481  -0.000246  -0.001696  -0.000617   0.003368
     5  C    0.289785   0.406105  -0.008187   0.021102  -0.026222
     6  C    0.007598   0.016738   0.395751   0.387147   0.411181
     7  H    0.000342  -0.008881  -0.004101   0.004654  -0.001199
     8  H    0.006198   0.000703   0.001842  -0.001872  -0.003454
     9  H    0.003407   0.001657   0.002564  -0.002092   0.002841
    10  H    0.001311  -0.000566  -0.002446   0.001915   0.002253
    11  H   -0.007668   0.002206  -0.000968   0.000318  -0.000099
    12  H   -0.022914  -0.036051   0.003935  -0.000510   0.003893
    13  H    0.542030  -0.051621  -0.000421  -0.004140   0.003538
    14  H   -0.051621   0.574090  -0.000727   0.000534   0.002257
    15  H   -0.000421  -0.000727   0.548473  -0.039183  -0.033536
    16  H   -0.004140   0.000534  -0.039183   0.567802  -0.028368
    17  H    0.003538   0.002257  -0.033536  -0.028368   0.558886
 Mulliken charges:
               1
     1  C   -0.505498
     2  C   -0.121206
     3  N   -0.318027
     4  O   -0.127420
     5  C   -0.383815
     6  C   -0.539009
     7  H    0.159455
     8  H    0.137476
     9  H    0.197538
    10  H    0.314895
    11  H    0.268208
    12  H    0.148350
    13  H    0.154268
    14  H    0.153757
    15  H    0.157598
    16  H    0.142923
    17  H    0.160507
 Sum of Mulliken charges =  -0.00000
 Mulliken charges with hydrogens summed into heavy atoms:
               1
     1  C   -0.011030
     2  C   -0.121206
     3  N   -0.003132
     4  O    0.140789
     5  C    0.072559
     6  C   -0.077980
 Electronic spatial extent (au):  <R**2>=            629.9879
 Charge=             -0.0000 electrons
 Dipole moment (field-independent basis, Debye):
    X=             -1.8259    Y=              0.6080    Z=             -0.5236  Tot=              1.9944
 Quadrupole moment (field-independent basis, Debye-Ang):
   XX=            -43.6326   YY=            -36.0870   ZZ=            -41.1833
   XY=              2.1230   XZ=             -0.7914   YZ=             -0.1353
 Traceless Quadrupole moment (field-independent basis, Debye-Ang):
   XX=             -3.3317   YY=              4.2140   ZZ=             -0.8823
   XY=              2.1230   XZ=             -0.7914   YZ=             -0.1353
 Octapole moment (field-independent basis, Debye-Ang**2):
  XXX=             -3.1010  YYY=             -9.3851  ZZZ=              0.0343  XYY=              8.6384
  XXY=              6.0415  XXZ=             -1.9361  XZZ=              1.2689  YZZ=             -1.3088
  YYZ=             -1.1030  XYZ=              0.5321
 Hexadecapole moment (field-independent basis, Debye-Ang**3):
 XXXX=           -412.6941 YYYY=           -211.9028 ZZZZ=           -233.8399 XXXY=              6.5498
 XXXZ=             -0.3764 YYYX=             -7.9825 YYYZ=              2.6030 ZZZX=             -2.1999
 ZZZY=             -0.6599 XXYY=            -93.8621 XXZZ=           -104.3436 YYZZ=            -81.0904
 XXYZ=             -3.0358 YYXZ=             -0.9381 ZZXY=              2.6319
 N-N= 2.699517758780D+02 E-N=-1.213470012353D+03  KE= 2.876915540971D+02
 No NMR shielding tensors so no spin-rotation constants.
 Leave Link  601 at Mon Oct 14 00:01:48 2019, MaxMem= 10737418240 cpu:               2.4 elap:               0.1
 (Enter /apps/cent7/gaussian/g16-A.03/g16-haswell/g16/l701.exe)
 ... and contract with generalized density number  0.
 Compute integral first derivatives.
 Leave Link  701 at Mon Oct 14 00:01:48 2019, MaxMem= 10737418240 cpu:               2.7 elap:               0.1
 (Enter /apps/cent7/gaussian/g16-A.03/g16-haswell/g16/l702.exe)
 L702 exits ... SP integral derivatives will be done elsewhere.
 Leave Link  702 at Mon Oct 14 00:01:48 2019, MaxMem= 10737418240 cpu:               0.4 elap:               0.0
 (Enter /apps/cent7/gaussian/g16-A.03/g16-haswell/g16/l703.exe)
 Integral derivatives from FoFJK, PRISM(SPDF).
 Compute integral first derivatives, UseDBF=F ICtDFT=           0.
 Calling FoFJK, ICntrl=      2127 FMM=F ISym2X=0 I1Cent= 0 IOpClX= 0 NMat=1 NMatS=1 NMatT=0.
 FoFJK:  IHMeth= 1 ICntrl=    2127 DoSepK=F KAlg= 0 I1Cent=           0 FoldK=F
 IRaf=         0 NMat=       1 IRICut=       1 DoRegI=T DoRafI=F ISym2E= 0 IDoP0=0 IntGTp=1.
 FoFCou: FMM=F IPFlag=           0 FMFlag=      100000 FMFlg1=         800
         NFxFlg=           0 DoJE=F BraDBF=F KetDBF=F FulRan=T
         wScrn=  0.000000 ICntrl=      2127 IOpCl=  0 I1Cent=           0 NGrid=           0
         NMat0=    1 NMatS0=      1 NMatT0=    0 NMatD0=    1 NMtDS0=    0 NMtDT0=    0
 Symmetry not used in FoFCou.
 Leave Link  703 at Mon Oct 14 00:01:49 2019, MaxMem= 10737418240 cpu:              32.6 elap:               1.4
 (Enter /apps/cent7/gaussian/g16-A.03/g16-haswell/g16/l716.exe)
 Dipole        =-7.18372674D-01 2.39223726D-01-2.05981225D-01
 ***** Axes restored to original set *****
 -------------------------------------------------------------------
 Center     Atomic                   Forces (Hartrees/Bohr)
 Number     Number              X              Y              Z
 -------------------------------------------------------------------
      1        6          -0.005130134    0.011065932    0.011338607
      2        6           0.013650360    0.009431218    0.021742931
      3        7          -0.009668123   -0.061550852    0.018327618
      4        8          -0.009765762    0.043092200   -0.019166040
      5        6           0.016319736   -0.001327600   -0.002688912
      6        6          -0.005780178    0.010041576   -0.014098800
      7        1          -0.002569999   -0.000517427   -0.003589688
      8        1           0.000841928   -0.003578069   -0.005407960
      9        1           0.000697164   -0.000922821   -0.000331404
     10        1          -0.004098290    0.001711301   -0.011066269
     11        1           0.008732440   -0.004666529    0.001295577
     12        1          -0.002554841    0.002069984   -0.001483229
     13        1          -0.002423658   -0.000607655   -0.000619669
     14        1          -0.003353102   -0.001150112    0.000670144
     15        1          -0.000017891   -0.000217820    0.002533077
     16        1           0.002713728   -0.002679929    0.000670237
     17        1           0.002406622   -0.000193398    0.001873781
 -------------------------------------------------------------------
 Cartesian Forces:  Max     0.061550852 RMS     0.012940710
 Leave Link  716 at Mon Oct 14 00:01:49 2019, MaxMem= 10737418240 cpu:               0.6 elap:               0.1
 (Enter /apps/cent7/gaussian/g16-A.03/g16-haswell/g16/l103.exe)

 GradGradGradGradGradGradGradGradGradGradGradGradGradGradGradGradGradGrad
 Berny optimization.
 FormGI is forming the generalized inverse of G from B-inverse, IUseBI=4.
 Internal  Forces:  Max     0.035112374 RMS     0.007216634
 Search for a local minimum.
 Step number   1 out of a maximum of   89
 All quantities printed in internal units (Hartrees-Bohrs-Radians)
 RMS Force = .72166D-02 SwitMx=.10000D-02 MixMth= 1
 Mixed Optimization -- RFO/linear search
 Second derivative matrix not updated -- first step.
 ITU=  0
     Eigenvalues ---    0.00230   0.00230   0.00230   0.00532   0.00816
     Eigenvalues ---    0.01835   0.04494   0.05093   0.05715   0.05715
     Eigenvalues ---    0.05715   0.05715   0.05715   0.05716   0.05785
     Eigenvalues ---    0.14952   0.15147   0.16000   0.16000   0.16000
     Eigenvalues ---    0.16000   0.16000   0.16000   0.16000   0.16000
     Eigenvalues ---    0.16000   0.16000   0.16000   0.22000   0.26702
     Eigenvalues ---    0.26848   0.26941   0.33706   0.34804   0.34804
     Eigenvalues ---    0.34809   0.34810   0.34810   0.34813   0.34814
     Eigenvalues ---    0.34818   0.34818   0.45981   0.53119   0.55479
 RFO step:  Lambda=-1.72080498D-02 EMin= 2.30000000D-03
 Linear search not attempted -- first point.
 Iteration  1 RMS(Cart)=  0.07253568 RMS(Int)=  0.00522242
 Iteration  2 RMS(Cart)=  0.00610445 RMS(Int)=  0.00012361
 Iteration  3 RMS(Cart)=  0.00002146 RMS(Int)=  0.00012165
 Iteration  4 RMS(Cart)=  0.00000000 RMS(Int)=  0.00012165
 ITry= 1 IFail=0 DXMaxC= 3.67D-01 DCOld= 1.00D+10 DXMaxT= 3.00D-01 DXLimC= 3.00D+00 Rises=F
 Variable       Old X    -DE/DX   Delta X   Delta X   Delta X     New X
                                 (Linear)    (Quad)   (Total)
    R1        2.94729  -0.00668   0.00000  -0.02338  -0.02338   2.92390
    R2        2.05984   0.00013   0.00000   0.00036   0.00036   2.06020
    R3        2.05971   0.00298   0.00000   0.00815   0.00815   2.06786
    R4        2.05994   0.00049   0.00000   0.00133   0.00133   2.06128
    R5        2.81129  -0.02528   0.00000  -0.07135  -0.07135   2.73994
    R6        2.95067  -0.00807   0.00000  -0.02840  -0.02840   2.92226
    R7        2.94515  -0.01075   0.00000  -0.03751  -0.03751   2.90763
    R8        2.56843   0.03511   0.00000   0.06403   0.06403   2.63245
    R9        1.90852  -0.00929   0.00000  -0.01947  -0.01947   1.88905
   R10        1.81409  -0.00063   0.00000  -0.00110  -0.00110   1.81299
   R11        2.05978  -0.00062   0.00000  -0.00169  -0.00169   2.05809
   R12        2.05995   0.00064   0.00000   0.00174   0.00174   2.06169
   R13        2.05972   0.00177   0.00000   0.00484   0.00484   2.06456
   R14        2.05984  -0.00005   0.00000  -0.00014  -0.00014   2.05970
   R15        2.05985   0.00193   0.00000   0.00529   0.00529   2.06515
   R16        2.05979   0.00009   0.00000   0.00023   0.00023   2.06003
    A1        1.91064   0.00167   0.00000   0.00669   0.00665   1.91729
    A2        1.91068   0.00754   0.00000   0.04231   0.04211   1.95279
    A3        1.91063  -0.00006   0.00000   0.00259   0.00242   1.91305
    A4        1.91066  -0.00555   0.00000  -0.03724  -0.03731   1.87335
    A5        1.91057  -0.00073   0.00000  -0.00362  -0.00362   1.90695
    A6        1.91061  -0.00287   0.00000  -0.01073  -0.01104   1.89956
    A7        1.91595   0.00204   0.00000   0.00592   0.00580   1.92176
    A8        1.94069  -0.00353   0.00000  -0.02175  -0.02196   1.91873
    A9        1.90659   0.00100   0.00000   0.01217   0.01229   1.91888
   A10        1.93138  -0.00028   0.00000  -0.00817  -0.00815   1.92324
   A11        1.86074  -0.00268   0.00000  -0.01432  -0.01427   1.84647
   A12        1.90660   0.00354   0.00000   0.02702   0.02711   1.93371
   A13        1.97907   0.02963   0.00000   0.12491   0.12480   2.10387
   A14        2.22077  -0.00793   0.00000  -0.02360  -0.02371   2.19706
   A15        2.08334  -0.02170   0.00000  -0.10131  -0.10142   1.98193
   A16        1.91064  -0.01158   0.00000  -0.06537  -0.06537   1.84528
   A17        1.91057   0.00306   0.00000   0.01721   0.01706   1.92763
   A18        1.91063   0.00197   0.00000   0.00961   0.00953   1.92016
   A19        1.91059   0.00338   0.00000   0.02065   0.02046   1.93105
   A20        1.91059  -0.00301   0.00000  -0.02010  -0.02014   1.89045
   A21        1.91072  -0.00273   0.00000  -0.01240  -0.01266   1.89807
   A22        1.91070  -0.00266   0.00000  -0.01496  -0.01507   1.89563
   A23        1.91064   0.00225   0.00000   0.01162   0.01153   1.92217
   A24        1.91061   0.00199   0.00000   0.01037   0.01029   1.92090
   A25        1.91066   0.00307   0.00000   0.01926   0.01911   1.92977
   A26        1.91061  -0.00274   0.00000  -0.01934  -0.01936   1.89125
   A27        1.91067  -0.00238   0.00000  -0.01169  -0.01184   1.89883
   A28        1.91060  -0.00219   0.00000  -0.01022  -0.01036   1.90024
    D1        2.79343   0.00108   0.00000   0.04705   0.04705   2.84048
    D2       -1.34669  -0.00026   0.00000   0.02606   0.02610  -1.32058
    D3        0.75891   0.00258   0.00000   0.05393   0.05383   0.81274
    D4       -1.39530  -0.00008   0.00000   0.03145   0.03140  -1.36389
    D5        0.74778  -0.00142   0.00000   0.01046   0.01045   0.75823
    D6        2.85337   0.00142   0.00000   0.03832   0.03818   2.89156
    D7        0.69910   0.00099   0.00000   0.04581   0.04591   0.74501
    D8        2.84217  -0.00035   0.00000   0.02482   0.02496   2.86713
    D9       -1.33542   0.00248   0.00000   0.05268   0.05269  -1.28273
   D10        1.09798  -0.00150   0.00000  -0.02194  -0.02191   1.07607
   D11       -2.04369  -0.00224   0.00000  -0.05091  -0.05108  -2.09477
   D12       -1.05059   0.00176   0.00000   0.00702   0.00722  -1.04337
   D13        2.09093   0.00102   0.00000  -0.02196  -0.02195   2.06897
   D14       -3.12207  -0.00075   0.00000  -0.01246  -0.01240  -3.13446
   D15        0.01945  -0.00148   0.00000  -0.04144  -0.04157  -0.02212
   D16        2.59230   0.00173   0.00000   0.06089   0.06080   2.65311
   D17       -1.59658   0.00112   0.00000   0.05270   0.05253  -1.54405
   D18        0.49786   0.00114   0.00000   0.05290   0.05272   0.55058
   D19       -1.55671   0.00169   0.00000   0.04773   0.04788  -1.50884
   D20        0.53758   0.00108   0.00000   0.03953   0.03961   0.57719
   D21        2.63203   0.00110   0.00000   0.03974   0.03979   2.67182
   D22        0.48672   0.00040   0.00000   0.04178   0.04189   0.52861
   D23        2.58102  -0.00021   0.00000   0.03358   0.03362   2.61463
   D24       -1.60772  -0.00020   0.00000   0.03379   0.03380  -1.57392
   D25       -0.73428   0.00023   0.00000  -0.04975  -0.04987  -0.78415
   D26        1.36008  -0.00053   0.00000  -0.05997  -0.06017   1.29991
   D27       -2.82875  -0.00011   0.00000  -0.05434  -0.05450  -2.88325
   D28       -2.80356  -0.00121   0.00000  -0.05519  -0.05515  -2.85871
   D29       -0.70920  -0.00197   0.00000  -0.06542  -0.06545  -0.77465
   D30        1.38516  -0.00155   0.00000  -0.05979  -0.05978   1.32537
   D31        1.39202  -0.00126   0.00000  -0.05194  -0.05175   1.34027
   D32       -2.79681  -0.00202   0.00000  -0.06216  -0.06205  -2.85885
   D33       -0.70245  -0.00160   0.00000  -0.05653  -0.05638  -0.75883
   D34       -0.35786  -0.00688   0.00000  -0.19723  -0.19689  -0.55475
   D35        2.78380  -0.00621   0.00000  -0.17076  -0.17111   2.61270
         Item               Value     Threshold  Converged?
 Maximum Force            0.035112     0.000450     NO 
 RMS     Force            0.007217     0.000300     NO 
 Maximum Displacement     0.367213     0.001800     NO 
 RMS     Displacement     0.074037     0.001200     NO 
 Predicted change in Energy=-1.021145D-02
 Lowest energy point so far.  Saving SCF results.
 GradGradGradGradGradGradGradGradGradGradGradGradGradGradGradGradGradGrad

 Leave Link  103 at Mon Oct 14 00:01:50 2019, MaxMem= 10737418240 cpu:               0.9 elap:               0.1
 (Enter /apps/cent7/gaussian/g16-A.03/g16-haswell/g16/l202.exe)
                          Input orientation:                          
 ---------------------------------------------------------------------
 Center     Atomic      Atomic             Coordinates (Angstroms)
 Number     Number       Type             X           Y           Z
 ---------------------------------------------------------------------
      1          6           0        2.013416   -0.769558   -1.279143
      2          6           0        1.493430   -0.026081   -0.025795
      3          7           0        1.969038    1.343610   -0.025586
      4          8           0        1.613157    2.216724   -1.051043
      5          6           0       -0.052484   -0.054350    0.000511
      6          6           0        2.073246   -0.670956    1.245189
      7          1           0        1.923074   -1.846405   -1.134911
      8          1           0        1.439317   -0.511176   -2.174163
      9          1           0        3.060852   -0.515662   -1.447123
     10          1           0        2.538948    1.765841    0.678836
     11          1           0        1.522221    1.672641   -1.835991
     12          1           0       -0.416501   -0.004340    1.025750
     13          1           0       -0.451008    0.801105   -0.546902
     14          1           0       -0.428844   -0.970030   -0.461527
     15          1           0        2.006532   -1.756832    1.178825
     16          1           0        3.125121   -0.396952    1.358126
     17          1           0        1.525587   -0.338679    2.127246
 ---------------------------------------------------------------------
                    Distance matrix (angstroms):
                    1          2          3          4          5
     1  C    0.000000
     2  C    1.547264   0.000000
     3  N    2.457408   1.449916   0.000000
     4  O    3.021608   2.468935   1.393034   0.000000
     5  C    2.533176   1.546396   2.457951   3.006310   0.000000
     6  C    2.526966   1.538652   2.384157   3.717937   2.539322
     7  H    1.090213   2.174468   3.377708   4.075794   2.898874
     8  H    1.094263   2.203118   2.887424   2.955174   2.676446
     9  H    1.090781   2.171791   2.582579   3.117472   3.464291
    10  H    3.246246   2.191027   0.999643   2.013173   3.238632
    11  H    2.552584   2.482598   1.893534   0.959395   2.972361
    12  H    3.435490   2.180379   2.934804   3.655914   1.089094
    13  H    3.012731   2.176380   2.534306   2.553216   1.091002
    14  H    2.583278   2.185415   3.360478   3.830495   1.092518
    15  H    2.648843   2.170226   3.326372   4.573423   2.920002
    16  H    2.886159   2.171451   2.506140   3.862827   3.472415
    17  H    3.468014   2.175853   2.767928   4.079126   2.663485
                    6          7          8          9         10
     6  C    0.000000
     7  H    2.658780   0.000000
     8  H    3.481288   1.759802   0.000000
     9  H    2.871938   1.778453   1.777072   0.000000
    10  H    2.544722   4.088679   3.812295   3.161857   0.000000
    11  H    3.910210   3.610523   2.211399   2.703197   2.714180
    12  H    2.586768   3.679031   3.733683   4.297503   3.462451
    13  H    3.427887   3.604349   2.818402   3.857128   3.372386
    14  H    3.043482   2.598654   2.575596   3.654564   4.194425
    15  H    1.089946   2.316974   3.621591   3.089935   3.597593
    16  H    1.092828   3.124270   3.915616   2.808495   2.341517
    17  H    1.090120   3.615647   4.305731   3.894159   2.748416
                   11         12         13         14         15
    11  H    0.000000
    12  H    3.841935   0.000000
    13  H    2.512958   1.767249   0.000000
    14  H    3.560830   1.773331   1.773330   0.000000
    15  H    4.591835   2.994285   3.944702   3.039880   0.000000
    16  H    4.129755   3.578785   4.225301   4.033636   1.769933
    17  H    4.444396   2.257604   3.515267   3.304565   1.772559
                   16         17
    16  H    0.000000
    17  H    1.775796   0.000000
 Stoichiometry    C4H11NO
 Framework group  C1[X(C4H11NO)]
 Deg. of freedom    45
 Full point group                 C1      NOp   1
 RotChk:  IX=0 Diff= 9.53D-02
 Largest Abelian subgroup         C1      NOp   1
 Largest concise Abelian subgroup C1      NOp   1
                         Standard orientation:                         
 ---------------------------------------------------------------------
 Center     Atomic      Atomic             Coordinates (Angstroms)
 Number     Number       Type             X           Y           Z
 ---------------------------------------------------------------------
      1          6           0       -0.433410    1.035469   -1.153148
      2          6           0       -0.387750    0.012935    0.007181
      3          7           0        0.825930   -0.776401   -0.071465
      4          8           0        2.074548   -0.166790    0.027882
      5          6           0       -0.457110    0.751628    1.363964
      6          6           0       -1.548084   -0.988248   -0.129610
      7          1           0       -1.450526    1.407117   -1.279317
      8          1           0        0.208212    1.900578   -0.959961
      9          1           0       -0.108546    0.555392   -2.077156
     10          1           0        0.873272   -1.769778   -0.172698
     11          1           0        1.968370    0.707078   -0.353589
     12          1           0       -0.909103    0.113411    2.121927
     13          1           0        0.547365    1.018930    1.695423
     14          1           0       -1.049655    1.665199    1.275228
     15          1           0       -2.472320   -0.461280   -0.366411
     16          1           0       -1.339280   -1.696187   -0.935523
     17          1           0       -1.687554   -1.542041    0.798949
 ---------------------------------------------------------------------
 Rotational constants (GHZ):           4.3768518           2.6626619           2.6250973
 Leave Link  202 at Mon Oct 14 00:01:50 2019, MaxMem= 10737418240 cpu:               0.2 elap:               0.0
 (Enter /apps/cent7/gaussian/g16-A.03/g16-haswell/g16/l301.exe)
 Standard basis: 6-311++G(d,p) (5D, 7F)
 Ernie: Thresh=  0.10000D-02 Tol=  0.10000D-05 Strict=F.
 There are   215 symmetry adapted cartesian basis functions of A   symmetry.
 There are   209 symmetry adapted basis functions of A   symmetry.
   209 basis functions,   315 primitive gaussians,   215 cartesian basis functions
    25 alpha electrons       25 beta electrons
       nuclear repulsion energy       269.7734861081 Hartrees.
 IExCor= 4336 DFT=T Ex+Corr=M062X ExCW=0 ScaHFX=  0.540000
 ScaDFX=  1.000000  1.000000  1.000000  1.000000 ScalE2=  1.000000  1.000000
 IRadAn=      5 IRanWt=     -1 IRanGd=            0 ICorTp=0 IEmpDi=  4
 NAtoms=   17 NActive=   17 NUniq=   17 SFac= 1.00D+00 NAtFMM=   60 NAOKFM=F Big=F
 Integral buffers will be    131072 words long.
 Raffenetti 2 integral format.
 Two-electron integral symmetry is turned on.
 Leave Link  301 at Mon Oct 14 00:01:50 2019, MaxMem= 10737418240 cpu:               1.2 elap:               0.1
 (Enter /apps/cent7/gaussian/g16-A.03/g16-haswell/g16/l302.exe)
 NPDir=0 NMtPBC=     1 NCelOv=     1 NCel=       1 NClECP=     1 NCelD=      1
         NCelK=      1 NCelE2=     1 NClLst=     1 CellRange=     0.0.
 One-electron integrals computed using PRISM.
 One-electron integral symmetry used in STVInt
 NBasis=   209 RedAO= T EigKep=  1.93D-05  NBF=   209
 NBsUse=   209 1.00D-06 EigRej= -1.00D+00 NBFU=   209
 Precomputing XC quadrature grid using
 IXCGrd= 4 IRadAn=           5 IRanWt=          -1 IRanGd=           0 AccXCQ= 0.00D+00.
 Generated NRdTot=       0 NPtTot=           0 NUsed=           0 NTot=          32
 NSgBfM=   215   215   215   215   215 MxSgAt=    17 MxSgA2=    17.
 Leave Link  302 at Mon Oct 14 00:01:50 2019, MaxMem= 10737418240 cpu:               3.4 elap:               0.2
 (Enter /apps/cent7/gaussian/g16-A.03/g16-haswell/g16/l303.exe)
 DipDrv:  MaxL=1.
 Leave Link  303 at Mon Oct 14 00:01:50 2019, MaxMem= 10737418240 cpu:               0.6 elap:               0.0
 (Enter /apps/cent7/gaussian/g16-A.03/g16-haswell/g16/l401.exe)
 Initial guess from the checkpoint file:  "9.chk"
 B after Tr=    -0.000000    0.000000    0.000000
         Rot=    0.999489   -0.028741   -0.001153   -0.013914 Ang=  -3.66 deg.
 Guess basis will be translated and rotated to current coordinates.
 JPrj=2 DoOrth=T DoCkMO=T.
 Generating alternative initial guess.
 ExpMin= 3.60D-02 ExpMax= 8.59D+03 ExpMxC= 1.30D+03 IAcc=3 IRadAn=         5 AccDes= 0.00D+00
 Harris functional with IExCor= 1009 and IRadAn=       5 diagonalized for initial guess.
 HarFok:  IExCor= 1009 AccDes= 0.00D+00 IRadAn=         5 IDoV= 1 UseB2=F ITyADJ=14
 ICtDFT=  3500011 ScaDFX=  1.000000  1.000000  1.000000  1.000000
 FoFCou: FMM=F IPFlag=           0 FMFlag=      100000 FMFlg1=           0
         NFxFlg=           0 DoJE=T BraDBF=F KetDBF=T FulRan=T
         wScrn=  0.000000 ICntrl=       500 IOpCl=  0 I1Cent=   200000004 NGrid=           0
         NMat0=    1 NMatS0=      1 NMatT0=    0 NMatD0=    1 NMtDS0=    0 NMtDT0=    0
 Petite list used in FoFCou.
 Harris En= -288.825998795379    
 Leave Link  401 at Mon Oct 14 00:01:50 2019, MaxMem= 10737418240 cpu:              10.1 elap:               0.4
 (Enter /apps/cent7/gaussian/g16-A.03/g16-haswell/g16/l502.exe)
 Integral symmetry usage will be decided dynamically.
 Closed shell SCF:
 Using DIIS extrapolation, IDIIS=  1040.
 NGot= 10737418240 LenX= 10737318341 LenY= 10737271675
 Requested convergence on RMS density matrix=1.00D-08 within 128 cycles.
 Requested convergence on MAX density matrix=1.00D-06.
 Requested convergence on             energy=1.00D-06.
 No special actions if energy rises.
 Fock matrices will be formed incrementally for  20 cycles.

 Cycle   1  Pass 1  IDiag  1:
 FoFJK:  IHMeth= 1 ICntrl=       0 DoSepK=F KAlg= 0 I1Cent=           0 FoldK=F
 IRaf= 990000000 NMat=       1 IRICut=       1 DoRegI=T DoRafI=F ISym2E= 0 IDoP0=0 IntGTp=1.
 FoFCou: FMM=F IPFlag=           0 FMFlag=      100000 FMFlg1=           0
         NFxFlg=           0 DoJE=F BraDBF=F KetDBF=F FulRan=T
         wScrn=  0.000000 ICntrl=         0 IOpCl=  0 I1Cent=           0 NGrid=           0
         NMat0=    1 NMatS0=      1 NMatT0=    0 NMatD0=    1 NMtDS0=    0 NMtDT0=    0
 Symmetry not used in FoFCou.
 E= -288.878346384623    
 DIIS: error= 4.60D-03 at cycle   1 NSaved=   1.
 NSaved= 1 IEnMin= 1 EnMin= -288.878346384623     IErMin= 1 ErrMin= 4.60D-03
 ErrMax= 4.60D-03  0.00D+00 EMaxC= 1.00D-01 BMatC= 1.07D-02 BMatP= 1.07D-02
 IDIUse=3 WtCom= 9.54D-01 WtEn= 4.60D-02
 Coeff-Com:  0.100D+01
 Coeff-En:   0.100D+01
 Coeff:      0.100D+01
 Gap=     0.402 Goal=   None    Shift=    0.000
 GapD=    0.402 DampG=2.000 DampE=1.000 DampFc=2.0000 IDamp=-1.
 RMSDP=3.99D-03 MaxDP=2.27D-01              OVMax= 2.63D-02

 Cycle   2  Pass 1  IDiag  1:
 RMSU=  3.66D-03    CP:  1.11D+00
 E= -288.892476459018     Delta-E=       -0.014130074395 Rises=F Damp=F
 DIIS: error= 1.56D-03 at cycle   2 NSaved=   2.
 NSaved= 2 IEnMin= 2 EnMin= -288.892476459018     IErMin= 2 ErrMin= 1.56D-03
 ErrMax= 1.56D-03  0.00D+00 EMaxC= 1.00D-01 BMatC= 6.23D-04 BMatP= 1.07D-02
 IDIUse=3 WtCom= 9.84D-01 WtEn= 1.56D-02
 Coeff-Com: -0.534D-01 0.105D+01
 Coeff-En:   0.000D+00 0.100D+01
 Coeff:     -0.525D-01 0.105D+01
 Gap=     0.246 Goal=   None    Shift=    0.000
 RMSDP=5.04D-04 MaxDP=2.75D-02 DE=-1.41D-02 OVMax= 8.57D-03

 Cycle   3  Pass 1  IDiag  1:
 RMSU=  4.31D-04    CP:  1.10D+00  9.51D-01
 E= -288.892897256156     Delta-E=       -0.000420797138 Rises=F Damp=F
 DIIS: error= 2.02D-03 at cycle   3 NSaved=   3.
 NSaved= 3 IEnMin= 3 EnMin= -288.892897256156     IErMin= 2 ErrMin= 1.56D-03
 ErrMax= 2.02D-03  0.00D+00 EMaxC= 1.00D-01 BMatC= 6.53D-04 BMatP= 6.23D-04
 IDIUse=3 WtCom= 9.80D-01 WtEn= 2.02D-02
 Coeff-Com: -0.830D-01 0.569D+00 0.514D+00
 Coeff-En:   0.000D+00 0.141D+00 0.859D+00
 Coeff:     -0.813D-01 0.561D+00 0.521D+00
 Gap=     0.246 Goal=   None    Shift=    0.000
 RMSDP=3.53D-04 MaxDP=2.08D-02 DE=-4.21D-04 OVMax= 4.78D-03

 Cycle   4  Pass 1  IDiag  1:
 RMSU=  1.48D-04    CP:  1.11D+00  1.03D+00  8.27D-01
 E= -288.893355400113     Delta-E=       -0.000458143957 Rises=F Damp=F
 DIIS: error= 2.29D-04 at cycle   4 NSaved=   4.
 NSaved= 4 IEnMin= 4 EnMin= -288.893355400113     IErMin= 4 ErrMin= 2.29D-04
 ErrMax= 2.29D-04  0.00D+00 EMaxC= 1.00D-01 BMatC= 1.13D-05 BMatP= 6.23D-04
 IDIUse=3 WtCom= 9.98D-01 WtEn= 2.29D-03
 Coeff-Com: -0.492D-02-0.270D-01 0.788D-01 0.953D+00
 Coeff-En:   0.000D+00 0.000D+00 0.000D+00 0.100D+01
 Coeff:     -0.491D-02-0.270D-01 0.786D-01 0.953D+00
 Gap=     0.246 Goal=   None    Shift=    0.000
 RMSDP=9.05D-05 MaxDP=5.80D-03 DE=-4.58D-04 OVMax= 1.46D-03

 Cycle   5  Pass 1  IDiag  1:
 RMSU=  3.63D-05    CP:  1.10D+00  1.01D+00  9.44D-01  1.07D+00
 E= -288.893368410020     Delta-E=       -0.000013009908 Rises=F Damp=F
 DIIS: error= 7.02D-05 at cycle   5 NSaved=   5.
 NSaved= 5 IEnMin= 5 EnMin= -288.893368410020     IErMin= 5 ErrMin= 7.02D-05
 ErrMax= 7.02D-05  0.00D+00 EMaxC= 1.00D-01 BMatC= 1.88D-06 BMatP= 1.13D-05
 IDIUse=1 WtCom= 1.00D+00 WtEn= 0.00D+00
 Coeff-Com:  0.517D-02-0.596D-01-0.119D-01 0.378D+00 0.688D+00
 Coeff:      0.517D-02-0.596D-01-0.119D-01 0.378D+00 0.688D+00
 Gap=     0.246 Goal=   None    Shift=    0.000
 RMSDP=2.64D-05 MaxDP=1.58D-03 DE=-1.30D-05 OVMax= 5.25D-04

 Cycle   6  Pass 1  IDiag  1:
 RMSU=  1.10D-05    CP:  1.10D+00  1.01D+00  9.73D-01  1.12D+00  1.19D+00
 E= -288.893370398953     Delta-E=       -0.000001988933 Rises=F Damp=F
 DIIS: error= 1.88D-05 at cycle   6 NSaved=   6.
 NSaved= 6 IEnMin= 6 EnMin= -288.893370398953     IErMin= 6 ErrMin= 1.88D-05
 ErrMax= 1.88D-05  0.00D+00 EMaxC= 1.00D-01 BMatC= 1.23D-07 BMatP= 1.88D-06
 IDIUse=1 WtCom= 1.00D+00 WtEn= 0.00D+00
 Coeff-Com:  0.178D-02-0.126D-01-0.112D-01-0.336D-02 0.184D+00 0.842D+00
 Coeff:      0.178D-02-0.126D-01-0.112D-01-0.336D-02 0.184D+00 0.842D+00
 Gap=     0.246 Goal=   None    Shift=    0.000
 RMSDP=7.38D-06 MaxDP=2.00D-04 DE=-1.99D-06 OVMax= 2.51D-04

 Cycle   7  Pass 1  IDiag  1:
 RMSU=  4.71D-06    CP:  1.10D+00  1.01D+00  9.77D-01  1.14D+00  1.29D+00
                    CP:  1.08D+00
 E= -288.893370583522     Delta-E=       -0.000000184569 Rises=F Damp=F
 DIIS: error= 6.39D-06 at cycle   7 NSaved=   7.
 NSaved= 7 IEnMin= 7 EnMin= -288.893370583522     IErMin= 7 ErrMin= 6.39D-06
 ErrMax= 6.39D-06  0.00D+00 EMaxC= 1.00D-01 BMatC= 1.47D-08 BMatP= 1.23D-07
 IDIUse=1 WtCom= 1.00D+00 WtEn= 0.00D+00
 Coeff-Com:  0.157D-03 0.115D-02-0.257D-02-0.343D-01-0.116D-01 0.251D+00
 Coeff-Com:  0.796D+00
 Coeff:      0.157D-03 0.115D-02-0.257D-02-0.343D-01-0.116D-01 0.251D+00
 Coeff:      0.796D+00
 Gap=     0.246 Goal=   None    Shift=    0.000
 RMSDP=4.76D-06 MaxDP=2.88D-04 DE=-1.85D-07 OVMax= 9.10D-05

 Cycle   8  Pass 1  IDiag  1:
 RMSU=  1.35D-06    CP:  1.10D+00  1.01D+00  9.81D-01  1.14D+00  1.34D+00
                    CP:  1.16D+00  1.06D+00
 E= -288.893370605468     Delta-E=       -0.000000021946 Rises=F Damp=F
 DIIS: error= 3.47D-06 at cycle   8 NSaved=   8.
 NSaved= 8 IEnMin= 8 EnMin= -288.893370605468     IErMin= 8 ErrMin= 3.47D-06
 ErrMax= 3.47D-06  0.00D+00 EMaxC= 1.00D-01 BMatC= 2.20D-09 BMatP= 1.47D-08
 IDIUse=1 WtCom= 1.00D+00 WtEn= 0.00D+00
 Coeff-Com: -0.201D-03 0.226D-02 0.725D-03-0.121D-01-0.338D-01-0.376D-01
 Coeff-Com:  0.281D+00 0.800D+00
 Coeff:     -0.201D-03 0.226D-02 0.725D-03-0.121D-01-0.338D-01-0.376D-01
 Coeff:      0.281D+00 0.800D+00
 Gap=     0.246 Goal=   None    Shift=    0.000
 RMSDP=1.03D-06 MaxDP=2.35D-05 DE=-2.19D-08 OVMax= 3.95D-05

 Cycle   9  Pass 1  IDiag  1:
 RMSU=  3.89D-07    CP:  1.10D+00  1.00D+00  9.81D-01  1.14D+00  1.35D+00
                    CP:  1.17D+00  1.18D+00  1.20D+00
 E= -288.893370608752     Delta-E=       -0.000000003284 Rises=F Damp=F
 DIIS: error= 5.14D-07 at cycle   9 NSaved=   9.
 NSaved= 9 IEnMin= 9 EnMin= -288.893370608752     IErMin= 9 ErrMin= 5.14D-07
 ErrMax= 5.14D-07  0.00D+00 EMaxC= 1.00D-01 BMatC= 9.30D-11 BMatP= 2.20D-09
 IDIUse=1 WtCom= 1.00D+00 WtEn= 0.00D+00
 Coeff-Com: -0.423D-04 0.318D-03 0.324D-03 0.961D-04-0.619D-02-0.240D-01
 Coeff-Com:  0.562D-02 0.186D+00 0.838D+00
 Coeff:     -0.423D-04 0.318D-03 0.324D-03 0.961D-04-0.619D-02-0.240D-01
 Coeff:      0.562D-02 0.186D+00 0.838D+00
 Gap=     0.246 Goal=   None    Shift=    0.000
 RMSDP=2.24D-07 MaxDP=6.89D-06 DE=-3.28D-09 OVMax= 8.11D-06

 Cycle  10  Pass 1  IDiag  1:
 RMSU=  1.01D-07    CP:  1.10D+00  1.00D+00  9.81D-01  1.14D+00  1.35D+00
                    CP:  1.17D+00  1.21D+00  1.28D+00  1.13D+00
 E= -288.893370608889     Delta-E=       -0.000000000137 Rises=F Damp=F
 DIIS: error= 1.13D-07 at cycle  10 NSaved=  10.
 NSaved=10 IEnMin=10 EnMin= -288.893370608889     IErMin=10 ErrMin= 1.13D-07
 ErrMax= 1.13D-07  0.00D+00 EMaxC= 1.00D-01 BMatC= 4.46D-12 BMatP= 9.30D-11
 IDIUse=1 WtCom= 1.00D+00 WtEn= 0.00D+00
 Coeff-Com:  0.917D-05-0.131D-03-0.465D-07 0.108D-02 0.159D-02-0.121D-02
 Coeff-Com: -0.217D-01-0.303D-01 0.122D+00 0.928D+00
 Coeff:      0.917D-05-0.131D-03-0.465D-07 0.108D-02 0.159D-02-0.121D-02
 Coeff:     -0.217D-01-0.303D-01 0.122D+00 0.928D+00
 Gap=     0.246 Goal=   None    Shift=    0.000
 RMSDP=7.35D-08 MaxDP=2.48D-06 DE=-1.37D-10 OVMax= 2.44D-06

 Cycle  11  Pass 1  IDiag  1:
 RMSU=  2.65D-08    CP:  1.10D+00  1.00D+00  9.81D-01  1.14D+00  1.35D+00
                    CP:  1.17D+00  1.21D+00  1.31D+00  1.20D+00  1.14D+00
 E= -288.893370608897     Delta-E=       -0.000000000008 Rises=F Damp=F
 DIIS: error= 4.29D-08 at cycle  11 NSaved=  11.
 NSaved=11 IEnMin=11 EnMin= -288.893370608897     IErMin=11 ErrMin= 4.29D-08
 ErrMax= 4.29D-08  0.00D+00 EMaxC= 1.00D-01 BMatC= 5.37D-13 BMatP= 4.46D-12
 IDIUse=1 WtCom= 1.00D+00 WtEn= 0.00D+00
 Coeff-Com:  0.499D-05-0.586D-04-0.163D-04 0.365D-03 0.809D-03 0.607D-03
 Coeff-Com: -0.737D-02-0.189D-01-0.601D-03 0.283D+00 0.742D+00
 Coeff:      0.499D-05-0.586D-04-0.163D-04 0.365D-03 0.809D-03 0.607D-03
 Coeff:     -0.737D-02-0.189D-01-0.601D-03 0.283D+00 0.742D+00
 Gap=     0.246 Goal=   None    Shift=    0.000
 RMSDP=2.17D-08 MaxDP=1.82D-06 DE=-7.84D-12 OVMax= 4.58D-07

 Cycle  12  Pass 1  IDiag  1:
 RMSU=  8.58D-09    CP:  1.10D+00  1.00D+00  9.81D-01  1.14D+00  1.35D+00
                    CP:  1.17D+00  1.21D+00  1.32D+00  1.21D+00  1.18D+00
                    CP:  1.16D+00
 E= -288.893370608897     Delta-E=        0.000000000000 Rises=F Damp=F
 DIIS: error= 1.33D-08 at cycle  12 NSaved=  12.
 NSaved=12 IEnMin=11 EnMin= -288.893370608897     IErMin=12 ErrMin= 1.33D-08
 ErrMax= 1.33D-08  0.00D+00 EMaxC= 1.00D-01 BMatC= 5.67D-14 BMatP= 5.37D-13
 IDIUse=1 WtCom= 1.00D+00 WtEn= 0.00D+00
 Coeff-Com:  0.139D-06 0.128D-05-0.483D-05-0.439D-04 0.183D-05 0.282D-03
 Coeff-Com:  0.950D-03-0.859D-03-0.164D-01-0.557D-01 0.203D+00 0.868D+00
 Coeff:      0.139D-06 0.128D-05-0.483D-05-0.439D-04 0.183D-05 0.282D-03
 Coeff:      0.950D-03-0.859D-03-0.164D-01-0.557D-01 0.203D+00 0.868D+00
 Gap=     0.246 Goal=   None    Shift=    0.000
 RMSDP=4.24D-09 MaxDP=1.58D-07 DE= 0.00D+00 OVMax= 2.02D-07

 SCF Done:  E(RM062X) =  -288.893370609     A.U. after   12 cycles
            NFock= 12  Conv=0.42D-08     -V/T= 2.0039
 KE= 2.877604926926D+02 PE=-1.213182834348D+03 EE= 3.667554849388D+02
 Leave Link  502 at Mon Oct 14 00:01:58 2019, MaxMem= 10737418240 cpu:             185.1 elap:               7.8
 (Enter /apps/cent7/gaussian/g16-A.03/g16-haswell/g16/l701.exe)
 ... and contract with generalized density number  0.
 Compute integral first derivatives.
 Leave Link  701 at Mon Oct 14 00:01:58 2019, MaxMem= 10737418240 cpu:               3.2 elap:               0.2
 (Enter /apps/cent7/gaussian/g16-A.03/g16-haswell/g16/l702.exe)
 L702 exits ... SP integral derivatives will be done elsewhere.
 Leave Link  702 at Mon Oct 14 00:01:58 2019, MaxMem= 10737418240 cpu:               0.5 elap:               0.0
 (Enter /apps/cent7/gaussian/g16-A.03/g16-haswell/g16/l703.exe)
 Integral derivatives from FoFJK, PRISM(SPDF).
 Compute integral first derivatives, UseDBF=F ICtDFT=           0.
 Calling FoFJK, ICntrl=      2127 FMM=F ISym2X=0 I1Cent= 0 IOpClX= 0 NMat=1 NMatS=1 NMatT=0.
 FoFJK:  IHMeth= 1 ICntrl=    2127 DoSepK=F KAlg= 0 I1Cent=           0 FoldK=F
 IRaf=         0 NMat=       1 IRICut=       1 DoRegI=T DoRafI=F ISym2E= 0 IDoP0=0 IntGTp=1.
 FoFCou: FMM=F IPFlag=           0 FMFlag=      100000 FMFlg1=         800
         NFxFlg=           0 DoJE=F BraDBF=F KetDBF=F FulRan=T
         wScrn=  0.000000 ICntrl=      2127 IOpCl=  0 I1Cent=           0 NGrid=           0
         NMat0=    1 NMatS0=      1 NMatT0=    0 NMatD0=    1 NMtDS0=    0 NMtDT0=    0
 Symmetry not used in FoFCou.
 Leave Link  703 at Mon Oct 14 00:02:00 2019, MaxMem= 10737418240 cpu:              32.9 elap:               1.4
 (Enter /apps/cent7/gaussian/g16-A.03/g16-haswell/g16/l716.exe)
 Dipole        =-6.93297246D-01 2.24668504D-01-2.80500839D-01
 ***** Axes restored to original set *****
 -------------------------------------------------------------------
 Center     Atomic                   Forces (Hartrees/Bohr)
 Number     Number              X              Y              Z
 -------------------------------------------------------------------
      1        6          -0.000665202    0.003278549    0.003289054
      2        6          -0.001716334    0.006919260    0.002439058
      3        7           0.003410894   -0.012203617    0.005435598
      4        8          -0.011122349    0.005080295    0.000991879
      5        6           0.004010899   -0.004372411   -0.001160025
[...]
   zz         0.651473D+02      0.965383D+01      0.107413D+02

 ----------------------------------------------------------------------
 1\1\GINC-BROWN-A110\Freq\RM062X\6-311++G(d,p)\C4H11N1O1\FINEJ\14-Oct-2
 019\0\\#P Geom=AllCheck Guess=TCheck SCRF=Check GenChk RM062X/6-311++G
 (d,p) Freq\\Title Card Required\\0,1\C,1.9895518373,-0.7940024344,-1.3
 075409556\C,1.5181575634,-0.0716923264,-0.04791024\N,2.0380562795,1.31
 03074174,-0.0880671071\O,1.3859514914,2.0304836718,-1.129895166\C,-0.0
 101813686,-0.1046223003,0.0487469239\C,2.1485703499,-0.7001490159,1.19
 33786274\H,1.6842186636,-1.8424389527,-1.2792593761\H,1.5535689678,-0.
 3349327653,-2.1966851724\H,3.0782303982,-0.747832641,-1.3844227801\H,1
 .7251990256,1.7803290993,0.7604455055\H,2.1117116801,2.3364695217,-1.6
 790486924\H,-0.3500381744,0.3936677661,0.9617059388\H,-0.4567624266,0.
 4021085439,-0.807742059\H,-0.3697392083,-1.1363449315,0.0712202111\H,1
 .8276036413,-1.7393239425,1.2901118881\H,3.2378673845,-0.6729132687,1.
 1264526387\H,1.8431338953,-0.1702134416,2.1008098152\\Version=ES64L-G1
 6RevA.03\State=1-A\HF=-288.9257138\RMSD=1.098e-09\RMSF=2.555e-05\ZeroP
 oint=0.1542446\Thermal=0.1542446\Dipole=0.1250257,-0.199862,0.1316254\
 DipoleDeriv=0.014524,0.0201523,0.0275892,0.0119723,0.0024654,-0.014895
 9,0.0120095,-0.0375678,-0.0603914,0.3261433,-0.0026099,-0.0244513,0.08
 7868,0.4249209,-0.0103411,-0.0184999,0.0216174,0.2103453,-0.399868,-0.
 2253348,0.0778824,-0.1934041,-0.1091782,-0.1746785,0.0514025,-0.196107
 3,0.0598616,-0.2126819,0.1358262,-0.1745821,0.025354,-0.705011,0.18016
 58,-0.0527277,0.1927441,-0.5463986,-0.1294822,-0.0320496,-0.0137884,0.
 0137451,-0.0193299,0.0292028,-0.0087752,0.0251564,0.013588,0.0127913,-
 0.0007949,-0.0276371,0.0184846,-0.0195638,0.0484673,-0.0315444,0.05075
 13,-0.0071874,0.0540927,-0.068647,0.0066241,-0.0415839,-0.1185438,-0.0
 173335,0.0200336,0.029952,0.0634159,0.0383323,0.0326932,-0.0664862,0.0
 355475,0.0539277,0.074757,-0.034497,0.03039,-0.0730594,-0.133756,0.015
 9925,0.0471503,-0.0209373,0.070716,-0.0079618,-0.0041306,-0.0140652,0.
 0501252,0.1982267,0.1130661,0.1013382,0.0444464,0.1268962,0.0005407,0.
 0308779,-0.0149875,0.0279224,0.1842006,0.023491,0.007837,0.0291785,0.3
 505559,-0.000417,-0.0092136,0.0103934,0.288026,0.0185077,0.0097786,0.0
 229288,0.0371895,0.0197987,-0.0958043,0.0806071,-0.0895657,-0.0887621,
 0.0226162,0.0259503,-0.0343547,0.0540998,0.0622262,0.0466485,-0.079455
 7,0.0477813,-0.030359,0.0293651,-0.04611,0.0116495,-0.0892633,-0.12366
 05,0.0091983,0.0052921,0.0000159,0.0760261,0.0539425,-0.0691144,0.0028
 063,-0.0400771,-0.1026735,0.039802,-0.0154487,-0.0041039,0.0546386,-0.
 1217454,0.0182369,-0.0222058,-0.0108762,0.078342,0.0039318,0.0309447,0
 .0062667,0.0542467,0.044791,0.0494735,0.0577,0.038256,0.0081116,-0.111
 2821,0.0231254,-0.0586711,-0.0920377\Polar=60.7790986,-0.0949466,63.51
 05234,-0.1084947,-2.8652294,64.0931591\Quadrupole=-1.6745454,0.1579975
 ,1.5165479,1.2559952,-1.5144384,-0.3006534\PG=C01 [X(C4H11N1O1)]\NImag
 =0\\0.58059024,0.01829951,0.56523511,0.02913339,-0.04096509,0.51513965
 ,-0.09068280,0.01734949,0.03163051,0.51376590,0.01935592,-0.09767813,-
 0.04503701,-0.01436538,0.49726047,0.03414495,-0.03972658,-0.16009949,0
 .01123443,0.01261264,0.55020920,0.00398119,0.00570242,-0.00050705,-0.0
 9219936,-0.01902262,-0.00490129,0.26628744,-0.00605612,-0.03245457,-0.
 00684951,-0.07802498,-0.16714344,-0.01342242,-0.03164460,0.48251536,-0
 .01142206,-0.03636429,0.00026946,-0.00516923,-0.01499460,-0.08857913,-
 0.03931850,0.07618562,0.58947683,0.00040826,0.00062456,-0.00086657,0.0
 0217493,-0.00533605,0.01046217,-0.10305060,0.03530720,-0.06387828,0.44
 772950,-0.00057912,-0.00027749,-0.00133648,0.02779201,-0.01871456,0.03
 709047,0.03585533,-0.10042398,0.06678814,0.07785188,0.18353992,-0.0001
 2087,-0.00188181,-0.00158490,-0.00696753,0.01082526,-0.01534222,-0.054
 35371,0.06554511,-0.17204704,-0.15362898,-0.20729458,0.38980250,-0.016
 97978,0.00411301,0.00629285,-0.18473466,0.00448083,0.00571920,-0.01806
 479,-0.01393454,0.00291618,-0.00046693,-0.00077250,-0.00032067,0.47083
 014,0.01709193,0.00144108,-0.00185188,0.00824284,-0.07653523,-0.000015
 81,-0.04632641,-0.01824528,0.00201272,0.00002353,0.00198305,0.00003241
 ,-0.00375440,0.58779318,0.03163627,-0.00191220,-0.00470999,0.00801501,
 0.00035037,-0.08037207,0.00170137,0.00067309,0.00174106,0.00106679,-0.
 00089847,0.00091398,0.00960416,-0.00256754,0.58674894,0.00384853,-0.00
 478862,0.00669140,-0.09841622,0.02038200,-0.04107241,0.00403792,-0.000
 72783,0.00678810,0.00076115,-0.00491689,0.00295811,-0.02129903,0.01673
 920,-0.03026278,0.57108134,-0.00666583,0.00807020,-0.01278966,0.018317
 01,-0.09523620,0.03335233,0.01315188,-0.02290136,0.03422454,-0.0015582
 6,-0.00910552,0.00449484,0.00306608,0.00104339,0.00044903,0.02047842,0
 .57035886,-0.01065905,0.01019198,-0.03305316,-0.04042662,0.03928709,-0
 .15354089,-0.00189610,0.00968703,-0.00872476,0.00122586,-0.00156150,0.
 00269178,-0.00389084,-0.00069710,-0.00007671,-0.03679220,0.03093110,0.
 51107058,-0.06874685,-0.07396362,0.00310690,0.00116734,0.00938587,-0.0
 0146503,-0.00001072,0.00101072,0.00098272,0.00013612,0.00029719,0.0005
 0876,0.00021071,0.00037666,-0.00013738,-0.00005089,-0.00019257,-0.0003
 6077,0.07048429,-0.07236428,-0.29446454,0.00764908,-0.00570566,-0.0140
 0956,0.00348290,0.00130053,-0.00108326,-0.00337994,-0.00014169,-0.0000
 8430,-0.00051854,-0.00062600,0.00001619,0.00058897,-0.00011606,0.00038
 000,0.00112653,0.08010131,0.31974493,0.00389795,0.01029653,-0.04674757
 ,-0.00932216,-0.02493825,0.00194952,0.00115082,-0.00331261,-0.00706157
 ,0.00007885,0.00114593,0.00141085,-0.00068994,0.00015605,0.00056048,-0
 .00039760,-0.00071404,0.00145270,-0.00441075,-0.00798127,0.05025478,-0
 .09293326,0.04666105,-0.08962545,0.00294659,-0.00581111,0.00847276,-0.
 00003495,-0.00009150,-0.00093029,-0.00016205,0.00074581,0.00083152,0.0
 0089688,-0.00070621,0.00056991,-0.00043291,0.00095346,0.00157878,0.003
 41743,-0.00381578,0.00917517,0.09649240,0.04681950,-0.09568170,0.09568
 306,-0.00703164,0.00717133,-0.01313447,-0.00063607,0.00082589,0.000439
 48,0.00026639,-0.00171131,-0.00008339,-0.00073471,0.00029969,0.0002718
 6,0.00083270,-0.00166500,-0.00210769,0.01344138,-0.01192019,0.02500000
 ,-0.05189517,0.10217485,-0.08779445,0.09325883,-0.22411104,-0.01185804
 ,0.01276169,-0.02257754,-0.00032293,0.00150975,-0.00065176,0.00041286,
 0.00109467,0.00238767,-0.00127545,0.00056570,0.00087543,0.00259880,-0.
 00408798,-0.00364184,0.00065769,-0.00033647,0.00009890,0.09584409,-0.1
 0202603,0.24536201,-0.31502468,-0.01225840,0.01652687,-0.01203988,-0.0
 0120774,0.00000514,0.00111342,-0.00063980,-0.00107529,-0.00005449,0.00
 044315,-0.00013160,0.00085040,0.00153990,0.00258158,0.00042486,-0.0002
 4801,-0.00086852,-0.00678419,0.00028119,0.00012554,-0.01094499,-0.0012
 2720,0.00143396,0.34169313,-0.01365634,-0.04734824,0.00184295,0.016226
 32,-0.00083242,-0.00083062,0.00062811,0.00114344,0.00076460,-0.0002304
 2,-0.00024370,0.00017141,0.00046845,-0.00158857,-0.00268043,-0.0001321
 9,-0.00002864,0.00073620,-0.03110246,0.00046045,0.00180144,0.01427835,
 0.00033951,-0.00210880,0.01305300,0.04709895,0.01385189,0.00117130,-0.
 04828682,0.02833310,0.00245829,-0.00263731,-0.00054742,0.00143809,0.00
 168280,0.00001857,0.00015643,-0.00008871,0.00078550,-0.00286577,-0.004
 65012,0.00138970,0.00015260,0.00134753,0.00109448,0.00010820,-0.001532
 24,-0.02619825,-0.00314588,0.00293851,-0.01919336,0.00057005,0.0515472
 2,-0.00023875,-0.00049501,-0.00002728,-0.00089233,-0.01510809,-0.01139
 056,-0.07182661,0.08055996,0.13692602,0.00211647,-0.00561352,-0.030334
 59,0.00136088,-0.00058345,-0.00224443,0.00012647,0.00103708,-0.0000293
 1,0.00064496,0.00013057,-0.00012681,-0.00002149,0.00003308,-0.00007079
 ,0.00035622,-0.00025497,-0.00023273,0.06964416,-0.00323523,-0.00674183
 ,0.00196556,0.01355629,-0.01958825,-0.03248146,0.05308521,-0.13551500,
 -0.14448587,-0.00339593,0.00336902,0.03252060,0.00085558,0.00157621,-0
 .00037206,0.00045045,0.00048643,-0.00151011,0.00053807,-0.00102396,-0.
 00196539,-0.00012319,0.00018225,0.00009374,-0.00000731,0.00025495,0.00
 032953,-0.06193245,0.15616955,-0.00033675,0.00061605,0.00135146,0.0047
 6565,-0.00076847,-0.00050955,0.08486277,-0.14172944,-0.28955804,0.0074
 8809,0.00167749,-0.03361302,-0.00026445,0.00169745,0.00037487,-0.00006
 013,0.00064707,0.00201691,-0.00005820,0.00008272,0.00021463,0.00001780
 ,0.00011072,-0.00003723,-0.00001464,0.00005738,0.00004514,-0.09255931,
 0.13849711,0.32432747,0.00055248,-0.00018647,0.00051088,-0.00153252,0.
 00016056,-0.00321071,0.01619715,0.01544733,-0.02498675,-0.35262447,-0.
 13179663,0.24156153,-0.00040894,-0.00004964,-0.00033326,0.00058961,0.0
 0108991,0.00006363,-0.00021441,0.00008766,-0.00001032,-0.00001511,-0.0
 0006604,-0.00002059,-0.00026111,0.00017189,-0.00006921,-0.00056986,0.0
 0150010,-0.00355586,0.33806850,0.00017896,0.00035251,0.00082028,-0.000
 25858,-0.00254249,0.00571587,-0.01473218,-0.01087324,0.01333229,-0.100
 41995,-0.05636687,0.09657340,0.00044851,0.00000085,-0.00006971,-0.0002
 5601,-0.00120808,-0.00031805,0.00005578,0.00029289,-0.00050113,-0.0006
 0285,-0.00072626,-0.00067662,0.00032644,-0.00028090,0.00001465,0.00136
 670,0.00009883,-0.00051552,0.11345008,0.07144530,0.00027301,-0.0000583
 0,0.00055109,-0.00157346,0.00097245,-0.00212897,0.01819737,0.01101516,
 -0.02328524,0.19506990,0.09926709,-0.17411802,-0.00060216,-0.00113101,
 -0.00028283,0.00021317,0.00041446,-0.00013587,0.00000571,0.00003599,-0
 .00024167,-0.00035368,-0.00023705,-0.00008350,0.00015517,0.00000520,0.
 00005350,-0.00062240,0.00443153,-0.00448981,-0.21048559,-0.11477979,0.
 20368545,-0.00681857,-0.00099112,-0.00070566,-0.01021799,0.01643394,0.
 02838929,0.00295450,0.00154913,-0.00028013,-0.00028829,-0.00008738,0.0
 0006170,-0.06991023,0.03504532,0.06491235,0.00144399,-0.00004757,0.001
 61096,0.00009860,0.00010019,-0.00024216,0.00004125,-0.00017681,-0.0000
 6351,-0.00071669,0.00102299,0.00185040,-0.00034652,-0.00117180,-0.0006
 1339,-0.00005716,0.00003880,0.00007272,0.07761025,0.00029083,0.0004419
 4,0.00055800,-0.00113124,-0.00218276,0.00072349,-0.00014768,0.00140272
 ,0.00127030,0.00011781,-0.00014382,-0.00025408,0.03623566,-0.10219781,
 -0.10090299,-0.00011724,-0.00013824,-0.00026569,-0.00013075,0.00042475
 ,0.00022833,-0.00008105,-0.00004135,-0.00020569,0.00011721,0.00047391,
 -0.00028018,-0.00006582,0.00013807,-0.00032686,0.00005216,-0.00008754,
 0.00002283,-0.03964769,0.10665379,0.00095940,0.00065016,0.00111257,-0.
 00025012,-0.00118975,-0.00330326,-0.00038422,0.00046685,0.00066882,0.0
 0021582,0.00061575,-0.00006908,0.06603924,-0.10163517,-0.23300551,-0.0
 0069714,0.00043033,0.00066253,-0.00019065,-0.00002999,0.00002969,-0.00
 023217,0.00002167,0.00038850,0.00025543,-0.00032046,0.00003571,0.00081
 328,0.00047168,0.00004198,-0.00005104,0.00000275,-0.00000360,-0.073304
 95,0.11203301,0.25088536,0.00131736,-0.00026761,-0.00142127,-0.0128695
 9,0.01665295,-0.02730203,0.00137573,0.00134400,-0.00093771,0.00027137,
 -0.00104137,0.00119096,-0.09025501,0.05109076,-0.08547884,-0.00660438,
 -0.00108337,0.00180166,-0.00003515,-0.00007427,0.00009473,-0.00017964,
 0.00019364,0.00098383,0.00026813,-0.00032464,0.00011761,-0.00021994,-0
 .00015298,-0.00003833,0.00029061,-0.00000739,0.00018704,0.00359140,-0.
 00568076,0.00793711,0.09976385,-0.00004055,-0.00026349,0.00029441,-0.0
 0047088,0.00002582,-0.00154691,0.00062682,0.00009930,-0.00025381,-0.00
 165993,-0.00168940,0.00039838,0.05302592,-0.10663320,0.10064184,-0.000
 22578,0.00007110,-0.00026306,0.00010603,-0.00008718,0.00012528,0.00036
 004,0.00022081,-0.00025375,-0.00011778,0.00005394,-0.00017661,-0.00000
 062,-0.00003763,-0.00014797,-0.00001632,-0.00004649,0.00006187,-0.0075
 8061,0.00768728,-0.01295040,-0.05674821,0.11246705,0.00031072,-0.00036
 457,0.00086342,0.00036364,-0.00265382,0.00130121,-0.00092456,0.0005785
 0,-0.00066157,0.00162642,0.00082097,-0.00047112,-0.08759204,0.09968263
 ,-0.21853072,0.00010330,-0.00019403,0.00070004,-0.00006439,-0.00005768
 ,-0.00002570,0.00015398,0.00013433,0.00013200,-0.00010717,-0.00006539,
 0.00005248,-0.00011812,0.00014594,-0.00012134,0.00043785,0.00010762,0.
 00024970,-0.01057442,0.01273188,-0.01937084,0.09453660,-0.11012012,0.2
 3449281,0.00114398,-0.00057367,-0.00045825,-0.00701369,-0.03118429,0.0
 0021080,-0.01000564,-0.00285020,0.00005493,0.00136814,0.00100514,-0.00
 025739,-0.07371953,-0.08018775,0.00228175,0.00132643,-0.00074601,0.000
 41773,-0.00039690,0.00064925,0.00056261,-0.00003924,0.00006727,0.00003
 795,0.00030847,0.00020785,-0.00029110,0.00001171,0.00045915,0.00032027
 ,0.00022351,0.00000409,-0.00022736,0.00261251,0.00984567,-0.00120150,0
 .00404722,0.01299401,0.00140318,0.08033287,0.00047768,-0.00006802,-0.0
 0014078,0.00131634,-0.00153153,-0.00012910,-0.00060938,0.00100202,0.00
 063984,-0.00025182,0.00022085,-0.00025427,-0.08211210,-0.28810809,0.00
 511477,0.00033573,0.00010744,0.00001085,0.00020270,0.00053343,0.000052
 26,-0.00012067,-0.00009144,-0.00008518,-0.00005869,0.00029822,0.000038
 50,0.00039078,0.00035780,0.00024878,-0.00006882,0.00005905,-0.00016522
 ,-0.00409401,-0.01255024,0.00125158,-0.00454922,-0.01271775,-0.0010813
 9,0.08930680,0.31181811,0.00013700,0.00034187,0.00002798,-0.00014604,0
 .00143840,-0.00198450,-0.00060010,0.00063134,0.00014273,0.00072521,0.0
 0012806,0.00009441,0.00207568,0.00469103,-0.04655302,-0.00010260,-0.00
 039643,-0.00012109,0.00055921,-0.00020244,0.00001603,-0.00001246,0.000
 18404,-0.00006950,-0.00016362,-0.00006587,-0.00007506,0.00034316,0.000
 32687,0.00022243,0.00022680,0.00005027,0.00016680,-0.00993763,-0.02574
 080,0.00127824,0.00979202,0.02388578,0.00077333,-0.00251046,-0.0053846
 9,0.04604625,-0.00000604,-0.00010649,0.00051733,0.00278317,0.01383851,
 -0.00017188,-0.00134446,0.00011784,-0.00132105,0.00106582,0.00108353,-
 0.00087672,0.00054031,0.00048911,0.00021397,-0.07043360,-0.07828244,0.
 00670393,0.00026554,-0.00009656,0.00011614,-0.00010311,0.00012644,0.00
 014029,-0.00005857,-0.00017979,-0.00002478,-0.00029685,-0.00033224,-0.
 00021442,-0.00019681,0.00030976,-0.00025901,-0.00004429,0.00006054,0.0
 0009665,0.00014101,-0.00011052,0.00017452,-0.00037841,-0.00000687,-0.0
 0046244,0.07327596,-0.00019665,0.00038899,-0.00092059,-0.00515023,-0.0
 1332575,-0.00108857,0.00174681,0.00030962,0.00267892,-0.00028371,-0.00
 092316,0.00070052,-0.00056574,0.00019930,-0.00069931,-0.07678171,-0.29
 238679,0.02166893,-0.00007795,0.00058981,0.00031877,0.00021397,0.00025
 635,-0.00003668,0.00011871,-0.00003204,0.00004529,-0.00012177,0.000599
 10,-0.00017601,0.00028918,-0.00014415,-0.00000090,0.00001265,-0.000092
 86,0.00012131,0.00004311,0.00036566,0.00001757,0.00062867,0.00043210,0
 .00016253,0.08412203,0.31658699,0.00052922,0.00081398,0.00129472,0.009
 87446,0.02563954,-0.00181048,-0.00212276,0.00002574,-0.00466874,-0.000
 27830,0.00264634,-0.00101216,0.00088833,-0.00015982,0.00072817,0.00599
 321,0.01963968,-0.04674848,-0.00021184,-0.00047182,-0.00063235,-0.0000
 8863,-0.00024658,0.00030466,0.00004164,-0.00001217,-0.00005581,-0.0003
 1981,0.00031873,0.00001659,-0.00022361,0.00027950,0.00003404,-0.000109
 64,-0.00016903,-0.00005035,0.00026862,-0.00020451,-0.00005739,-0.00052
 892,-0.00018935,0.00011677,-0.00532357,-0.02429517,0.05116232,0.000501
 19,-0.00023570,0.00108110,-0.01478609,-0.00074048,0.00155396,0.0005626
 5,-0.00078942,0.00135739,0.00081041,-0.00005561,-0.00011891,0.00008701
 ,0.00187192,-0.00347134,-0.31680003,-0.00728243,0.01900738,-0.00006680
 ,0.00008822,-0.00009396,0.00034170,0.00011338,-0.00000464,0.00054316,-
 0.00020653,-0.00056076,-0.00037746,-0.00010555,-0.00020273,-0.00004110
 ,0.00012450,-0.00007356,0.00033110,-0.00009819,0.00008361,-0.00098971,
 -0.00016352,0.00005653,0.00027974,-0.00008078,0.00014329,-0.00726309,0
 .00046152,0.00057471,0.34391387,-0.00032559,-0.00005583,-0.00068342,0.
 01393938,-0.00089084,-0.00173764,0.00097735,0.00037738,-0.00001763,-0.
 00061624,0.00019471,-0.00045064,0.00052414,-0.00125717,0.00207311,-0.0
 0861522,-0.04694403,-0.00011802,-0.00018869,-0.00005736,0.00002992,0.0
 0002801,-0.00015465,-0.00007254,-0.00018666,0.00036434,-0.00004100,0.0
 0039059,-0.00002929,-0.00004905,-0.00001709,-0.00001076,0.00011001,-0.
 00030585,0.00002772,0.00015701,0.00081241,0.00046599,0.00025442,0.0002
 7937,0.00025625,0.00007417,-0.03097333,0.00109087,0.00209005,0.0075909
 9,0.04665456,-0.00120852,-0.00002354,0.00161306,-0.02751656,-0.0020736
 1,0.00180345,-0.00008161,-0.00082803,0.00074915,0.00048822,-0.00053681
 ,0.00011281,-0.00126180,0.00262811,-0.00453379,0.02116629,-0.00020618,
 -0.04897230,0.00005443,-0.00008351,-0.00005764,0.00028134,0.00006437,0
 .00022312,0.00042763,0.00005054,-0.00066913,0.00022456,0.00011183,-0.0
 0006053,0.00002890,0.00011617,-0.00000874,-0.00012292,0.00025069,0.000
 18025,-0.00176630,0.00017911,0.00032894,0.00020620,-0.00004500,-0.0000
 7700,0.00214674,-0.00031020,-0.00152405,-0.01948516,-0.00145682,0.0520
 3144,-0.00091252,0.00111667,-0.00187970,0.00254722,-0.00791483,-0.0106
 7880,0.00002713,-0.00057719,0.00029395,-0.00019535,-0.00021103,-0.0000
 0162,0.00106257,-0.00090330,-0.00065511,-0.06960323,0.03801265,0.06251
 349,-0.00011906,0.00020138,0.00009189,0.00073048,-0.00012613,-0.000699
 08,0.00032680,0.00003039,-0.00032364,0.00052895,0.00001183,0.00046364,
 -0.00000036,-0.00002665,0.00002312,-0.00028385,0.00038052,-0.00008875,
 0.00008674,0.00002190,0.00021395,-0.00010118,-0.00007766,-0.00006701,0
 .00205340,-0.00445889,-0.00896311,-0.00704653,0.01668644,0.02641855,0.
 07089878,0.00060540,-0.00089600,0.00176106,-0.00460109,0.00575355,0.01
 113588,0.00004448,0.00096441,0.00115969,-0.00029737,0.00037657,-0.0005
 2461,-0.00071820,0.00021241,-0.00006033,0.03745904,-0.11090357,-0.1067
 9850,0.00014033,0.00028791,0.00025818,0.00000683,0.00052123,0.00060535
 ,0.00007200,-0.00013319,0.00002652,0.00026694,-0.00029628,0.00007855,-
 0.00004784,0.00003735,0.00003569,-0.00010018,0.00018444,-0.00009631,-0
 .00020706,0.00001818,0.00006312,0.00009464,-0.00001821,-0.00012413,0.0
 0994049,-0.01391406,-0.02570511,-0.00049231,-0.00003191,0.00216287,-0.
 04216609,0.11783716,-0.00333211,0.00395570,-0.00363043,0.00901295,-0.0
 1469022,-0.02237796,0.00004794,-0.00161428,0.00050699,-0.00022663,0.00
 019650,0.00093228,0.00157619,-0.00054200,0.00077183,0.06148278,-0.1063
 4766,-0.22492696,-0.00007088,-0.00001273,0.00031117,0.00051559,-0.0009
 2844,-0.00153839,0.00000124,0.00008398,0.00029230,-0.00023088,0.001601
 76,-0.00022194,0.00011735,-0.00015198,0.00003765,-0.00094304,0.0003267
 8,0.00051901,0.00003430,0.00033046,0.00034477,-0.00002044,0.00011841,-
 0.00000478,-0.00145568,0.00181358,0.00290254,0.00015309,-0.00016193,-0
 .00113905,-0.06666175,0.11602209,0.24722097\\0.00000083,0.00001820,0.0
 0004230,-0.00000778,0.00000853,0.00003254,-0.00004613,0.00005100,-0.00
 010225,0.00006578,-0.00004474,0.00006737,0.00002294,-0.00001658,-0.000
 01018,-0.00000921,0.00001563,-0.00001007,-0.00000066,-0.00000660,-0.00
 001504,-0.00000522,-0.00000228,-0.00001852,-0.00000272,-0.00000387,-0.
 00000791,-0.00000939,-0.00002045,0.00002151,-0.00001171,-0.00000530,-0
 .00000655,-0.00000974,0.00000200,0.00000131,-0.00001023,0.00000823,-0.
 00000152,0.00001153,0.00000997,-0.00000308,0.00000242,-0.00000258,0.00
 000110,0.00000596,-0.00000760,0.00000581,0.00000332,-0.00000354,0.0000
 0318\\\@


 I HAVE NOT FAILED, I HAVE ONLY DISCOVERED 10,000
 WAYS THAT DIDN'T WORK.  -- THOMAS A. EDISON
 Job cpu time:       0 days  0 hours 26 minutes 42.1 seconds.
 Elapsed time:       0 days  0 hours  1 minutes  7.4 seconds.
 File lengths (MBytes):  RWF=     72 Int=      0 D2E=      0 Chk=      5 Scr=      1
 Normal termination of Gaussian 16 at Mon Oct 14 00:04:53 2019.
real 195.97
user 4526.44
sys 20.48
Machine:
brown-a110
brown-a110
brown-a110
brown-a110
brown-a110
brown-a110
brown-a110
brown-a110
brown-a110
brown-a110
brown-a110
brown-a110
brown-a110
brown-a110
brown-a110
brown-a110
brown-a110
brown-a110
brown-a110
brown-a110
brown-a110
brown-a110
brown-a110
brown-a110
