 Entering Gaussian System, Link 0=/apps/cent7/gaussian/g16-A.03/g16-haswell/g16/g16
 Initial command:
 /apps/cent7/gaussian/g16-A.03/g16-haswell/g16/l1.exe "/scratch/brown/finej/gaussian/Gau-372903.inp" -scrdir="/scratch/brown/finej/gaussian/"
 Entering Link 1 = /apps/cent7/gaussian/g16-A.03/g16-haswell/g16/l1.exe PID=    372905.
  
 Copyright (c) 1988,1990,1992,1993,1995,1998,2003,2009,2016,
            Gaussian, Inc.  All Rights Reserved.
  
 This is part of the Gaussian(R) 16 program.  It is based on
 the Gaussian(R) 09 system (copyright 2009, Gaussian, Inc.),
 the Gaussian(R) 03 system (copyright 2003, Gaussian, Inc.),
 the Gaussian(R) 98 system (copyright 1998, Gaussian, Inc.),
 the Gaussian(R) 94 system (copyright 1995, Gaussian, Inc.),
 the Gaussian 92(TM) system (copyright 1992, Gaussian, Inc.),
 the Gaussian 90(TM) system (copyright 1990, Gaussian, Inc.),
 the Gaussian 88(TM) system (copyright 1988, Gaussian, Inc.),
 the Gaussian 86(TM) system (copyright 1986, Carnegie Mellon
 University), and the Gaussian 82(TM) system (copyright 1983,
 Carnegie Mellon University). Gaussian is a federally registered
 trademark of Gaussian, Inc.
  
 This software contains proprietary and confidential information,
 including trade secrets, belonging to Gaussian, Inc.
  
 This software is provided under written license and may be
 used, copied, transmitted, or stored only in accord with that
 written license.
  
 The following legend is applicable only to US Government
 contracts under FAR:
  
                    RESTRICTED RIGHTS LEGEND
  
 Use, reproduction and disclosure by the US Government is
 subject to restrictions as set forth in subparagraphs (a)
 and (c) of the Commercial Computer Software - Restricted
 Rights clause in FAR 52.227-19.
  
 Gaussian, Inc.
 340 Quinnipiac St., Bldg. 40, Wallingford CT 06492
  
  
 ---------------------------------------------------------------
 Warning -- This program may not be used in any manner that
 competes with the business of Gaussian, Inc. or will provide
 assistance to any competitor of Gaussian, Inc.  The licensee
 of this program is prohibited from giving any competitor of
 Gaussian, Inc. access to this program.  By using this program,
 the user acknowledges that Gaussian, Inc. is engaged in the
 business of creating and licensing software in the field of
 computational chemistry and represents and warrants to the
 licensee that it is not a competitor of Gaussian, Inc. and that
 it will not use this program in any manner prohibited above.
 ---------------------------------------------------------------
  

 Cite this work as:
 Gaussian 16, Revision A.03,
 M. J. Frisch, G. W. Trucks, H. B. Schlegel, G. E. Scuseria, 
 M. A. Robb, J. R. Cheeseman, G. Scalmani, V. Barone, 
 G. A. Petersson, H. Nakatsuji, X. Li, M. Caricato, A. V. Marenich, 
 J. Bloino, B. G. Janesko, R. Gomperts, B. Mennucci, H. P. Hratchian, 
 J. V. Ortiz, A. F. Izmaylov, J. L. Sonnenberg, D. Williams-Young, 
 F. Ding, F. Lipparini, F. Egidi, J. Goings, B. Peng, A. Petrone, 
 T. Henderson, D. Ranasinghe, V. G. Zakrzewski, J. Gao, N. Rega, 
 G. Zheng, W. Liang, M. Hada, M. Ehara, K. Toyota, R. Fukuda, 
 J. Hasegawa, M. Ishida, T. Nakajima, Y. Honda, O. Kitao, H. Nakai, 
 T. Vreven, K. Throssell, J. A. Montgomery, Jr., J. E. Peralta, 
 F. Ogliaro, M. J. Bearpark, J. J. Heyd, E. N. Brothers, K. N. Kudin, 
 V. N. Staroverov, T. A. Keith, R. Kobayashi, J. Normand, 
 K. Raghavachari, A. P. Rendell, J. C. Burant, S. S. Iyengar, 
 J. Tomasi, M. Cossi, J. M. Millam, M. Klene, C. Adamo, R. Cammi, 
 J. W. Ochterski, R. L. Martin, K. Morokuma, O. Farkas, 
 J. B. Foresman, and D. J. Fox, Gaussian, Inc., Wallingford CT, 2016.
 
 ******************************************
 Gaussian 16:  ES64L-G16RevA.03 25-Dec-2016
                30-Dec-2019 
 ******************************************
 %chk=9_p_b.chk
 %nprocshared=24
 Will use up to   24 processors via shared memory.
 %mem=80GB
 -------------------------------------------------------------------
 #p opt freq m062x/6-311++g(d,p) geom=connectivity temperature=0.001
 -------------------------------------------------------------------
 1/18=20,19=15,26=3,38=1,57=2,112=-1000/1,3;
 2/9=110,12=2,17=6,18=5,40=1/2;
 3/5=4,6=6,7=1111,11=2,25=1,30=1,71=1,74=-55/1,2,3;
 4//1;
 5/5=2,38=5/2;
 6/7=2,8=2,9=2,10=2,28=1/1;
 7//1,2,3,16;
 1/18=20,19=15,26=3/3(2);
 2/9=110/2;
 99//99;
 2/9=110/2;
 3/5=4,6=6,7=1111,11=2,25=1,30=1,71=1,74=-55/1,2,3;
 4/5=5,16=3,69=1/1;
 5/5=2,38=5/2;
 7//1,2,3,16;
 1/18=20,19=15,26=3/3(-5);
 2/9=110/2;
 6/7=2,8=2,9=2,10=2,19=2,28=1/1;
 99/9=1/99;
 Leave Link    1 at Mon Dec 30 16:44:31 2019, MaxMem= 10737418240 cpu:               1.2 elap:               0.1
 (Enter /apps/cent7/gaussian/g16-A.03/g16-haswell/g16/l101.exe)
 -------------------
 Title Card Required
 -------------------
 Symbolic Z-matrix:
 Charge =  1 Multiplicity = 1
 C                     2.0476   -0.764    -1.2874 
 C                     1.5073   -0.008    -0.0348 
 N                     2.0241    1.387    -0.0271 
 O                     1.6058    2.1233   -1.0902 
 C                    -0.0537   -0.0174    0.0004 
 C                     2.0542   -0.6929    1.2539 
 H                     1.9762   -1.839    -1.1218 
 H                     1.455    -0.4907   -2.1604 
 H                     3.0894   -0.4907   -1.4554 
 H                     2.6268    1.8117    0.6631 
 H                     1.93664   1.73072  -1.90139 
 H                    -0.3937   -0.0194    1.036 
 H                    -0.4339    0.8704   -0.5051 
 H                    -0.4231   -0.9096   -0.5051 
 H                     2.0053   -1.7757    1.1386 
 H                     3.0892   -0.391     1.4145 
 H                     1.4507   -0.391     2.1099 
 H                     1.93916   3.01994  -1.00947 
 
 ITRead=  0  0  0  0  0  0  0  0  0  0  0  0  0  0  0  0  0  0
 MicOpt= -1 -1 -1 -1 -1 -1 -1 -1 -1 -1 -1 -1 -1 -1 -1 -1 -1 -1
 NAtoms=     18 NQM=       18 NQMF=       0 NMMI=      0 NMMIF=      0
                NMic=       0 NMicF=      0.
                    Isotopes and Nuclear Properties:
 (Nuclear quadrupole moments (NQMom) in fm**2, nuclear magnetic moments (NMagM)
  in nuclear magnetons)

  Atom         1           2           3           4           5           6           7           8           9          10
 IAtWgt=          12          12          14          16          12          12           1           1           1           1
 AtmWgt=  12.0000000  12.0000000  14.0030740  15.9949146  12.0000000  12.0000000   1.0078250   1.0078250   1.0078250   1.0078250
 NucSpn=           0           0           2           0           0           0           1           1           1           1
 AtZEff=  -0.0000000  -0.0000000  -0.0000000  -0.0000000  -0.0000000  -0.0000000  -0.0000000  -0.0000000  -0.0000000  -0.0000000
 NQMom=    0.0000000   0.0000000   2.0440000   0.0000000   0.0000000   0.0000000   0.0000000   0.0000000   0.0000000   0.0000000
 NMagM=    0.0000000   0.0000000   0.4037610   0.0000000   0.0000000   0.0000000   2.7928460   2.7928460   2.7928460   2.7928460
 AtZNuc=   6.0000000   6.0000000   7.0000000   8.0000000   6.0000000   6.0000000   1.0000000   1.0000000   1.0000000   1.0000000

  Atom        11          12          13          14          15          16          17          18
 IAtWgt=           1           1           1           1           1           1           1           1
 AtmWgt=   1.0078250   1.0078250   1.0078250   1.0078250   1.0078250   1.0078250   1.0078250   1.0078250
 NucSpn=           1           1           1           1           1           1           1           1
 AtZEff=  -0.0000000  -0.0000000  -0.0000000  -0.0000000  -0.0000000  -0.0000000  -0.0000000  -0.0000000
 NQMom=    0.0000000   0.0000000   0.0000000   0.0000000   0.0000000   0.0000000   0.0000000   0.0000000
 NMagM=    2.7928460   2.7928460   2.7928460   2.7928460   2.7928460   2.7928460   2.7928460   2.7928460
 AtZNuc=   1.0000000   1.0000000   1.0000000   1.0000000   1.0000000   1.0000000   1.0000000   1.0000000
 Leave Link  101 at Mon Dec 30 16:44:31 2019, MaxMem= 10737418240 cpu:               8.3 elap:               0.4
 (Enter /apps/cent7/gaussian/g16-A.03/g16-haswell/g16/l103.exe)

 GradGradGradGradGradGradGradGradGradGradGradGradGradGradGradGradGradGrad
 Berny optimization.
 Initialization pass.
                           ----------------------------
                           !    Initial Parameters    !
                           ! (Angstroms and Degrees)  !
 --------------------------                            --------------------------
 ! Name  Definition              Value          Derivative Info.                !
 --------------------------------------------------------------------------------
 ! R1    R(1,2)                  1.5596         estimate D2E/DX2                !
 ! R2    R(1,7)                  1.09           estimate D2E/DX2                !
 ! R3    R(1,8)                  1.09           estimate D2E/DX2                !
 ! R4    R(1,9)                  1.0901         estimate D2E/DX2                !
 ! R5    R(2,3)                  1.4877         estimate D2E/DX2                !
 ! R6    R(2,5)                  1.5614         estimate D2E/DX2                !
 ! R7    R(2,6)                  1.5585         estimate D2E/DX2                !
 ! R8    R(3,4)                  1.3592         estimate D2E/DX2                !
 ! R9    R(3,10)                 1.0099         estimate D2E/DX2                !
 ! R10   R(4,11)                 0.96           estimate D2E/DX2                !
 ! R11   R(4,18)                 0.96           estimate D2E/DX2                !
 ! R12   R(5,12)                 1.09           estimate D2E/DX2                !
 ! R13   R(5,13)                 1.0901         estimate D2E/DX2                !
 ! R14   R(5,14)                 1.09           estimate D2E/DX2                !
 ! R15   R(6,15)                 1.09           estimate D2E/DX2                !
 ! R16   R(6,16)                 1.09           estimate D2E/DX2                !
 ! R17   R(6,17)                 1.09           estimate D2E/DX2                !
 ! A1    A(2,1,7)              109.4717         estimate D2E/DX2                !
 ! A2    A(2,1,8)              109.4741         estimate D2E/DX2                !
 ! A3    A(2,1,9)              109.4712         estimate D2E/DX2                !
 ! A4    A(7,1,8)              109.4728         estimate D2E/DX2                !
 ! A5    A(7,1,9)              109.4679         estimate D2E/DX2                !
 ! A6    A(8,1,9)              109.4697         estimate D2E/DX2                !
 ! A7    A(1,2,3)              109.7761         estimate D2E/DX2                !
 ! A8    A(1,2,5)              111.1936         estimate D2E/DX2                !
 ! A9    A(1,2,6)              109.2393         estimate D2E/DX2                !
 ! A10   A(3,2,5)              110.66           estimate D2E/DX2                !
 ! A11   A(3,2,6)              106.6127         estimate D2E/DX2                !
 ! A12   A(5,2,6)              109.2403         estimate D2E/DX2                !
 ! A13   A(2,3,4)              113.3924         estimate D2E/DX2                !
 ! A14   A(2,3,10)             127.2409         estimate D2E/DX2                !
 ! A15   A(4,3,10)             119.3667         estimate D2E/DX2                !
 ! A16   A(3,4,11)             109.4712         estimate D2E/DX2                !
 ! A17   A(3,4,18)             109.4712         estimate D2E/DX2                !
 ! A18   A(11,4,18)            109.4712         estimate D2E/DX2                !
 ! A19   A(2,5,12)             109.4677         estimate D2E/DX2                !
 ! A20   A(2,5,13)             109.471          estimate D2E/DX2                !
 ! A21   A(2,5,14)             109.4687         estimate D2E/DX2                !
 ! A22   A(12,5,13)            109.4685         estimate D2E/DX2                !
 ! A23   A(12,5,14)            109.4765         estimate D2E/DX2                !
 ! A24   A(13,5,14)            109.4749         estimate D2E/DX2                !
 ! A25   A(2,6,15)             109.4717         estimate D2E/DX2                !
 ! A26   A(2,6,16)             109.4699         estimate D2E/DX2                !
 ! A27   A(2,6,17)             109.4729         estimate D2E/DX2                !
 ! A28   A(15,6,16)            109.47           estimate D2E/DX2                !
 ! A29   A(15,6,17)            109.4735         estimate D2E/DX2                !
 ! A30   A(16,6,17)            109.4693         estimate D2E/DX2                !
 ! D1    D(7,1,2,3)            160.0515         estimate D2E/DX2                !
 ! D2    D(7,1,2,5)            -77.1594         estimate D2E/DX2                !
 ! D3    D(7,1,2,6)             43.4824         estimate D2E/DX2                !
 ! D4    D(8,1,2,3)            -79.9445         estimate D2E/DX2                !
 ! D5    D(8,1,2,5)             42.8445         estimate D2E/DX2                !
 ! D6    D(8,1,2,6)            163.4863         estimate D2E/DX2                !
 ! D7    D(9,1,2,3)             40.0553         estimate D2E/DX2                !
 ! D8    D(9,1,2,5)            162.8444         estimate D2E/DX2                !
 ! D9    D(9,1,2,6)            -76.5138         estimate D2E/DX2                !
 ! D10   D(1,2,3,4)             62.9096         estimate D2E/DX2                !
 ! D11   D(1,2,3,10)          -117.0949         estimate D2E/DX2                !
 ! D12   D(5,2,3,4)            -60.1943         estimate D2E/DX2                !
 ! D13   D(5,2,3,10)           119.8012         estimate D2E/DX2                !
 ! D14   D(6,2,3,4)           -178.8812         estimate D2E/DX2                !
 ! D15   D(6,2,3,10)             1.1144         estimate D2E/DX2                !
 ! D16   D(1,2,5,12)           148.5281         estimate D2E/DX2                !
 ! D17   D(1,2,5,13)           -91.4775         estimate D2E/DX2                !
 ! D18   D(1,2,5,14)            28.5254         estimate D2E/DX2                !
 ! D19   D(3,2,5,12)           -89.1931         estimate D2E/DX2                !
 ! D20   D(3,2,5,13)            30.8012         estimate D2E/DX2                !
 ! D21   D(3,2,5,14)           150.8041         estimate D2E/DX2                !
 ! D22   D(6,2,5,12)            27.887          estimate D2E/DX2                !
 ! D23   D(6,2,5,13)           147.8813         estimate D2E/DX2                !
 ! D24   D(6,2,5,14)           -92.1158         estimate D2E/DX2                !
 ! D25   D(1,2,6,15)           -42.0711         estimate D2E/DX2                !
 ! D26   D(1,2,6,16)            77.9269         estimate D2E/DX2                !
 ! D27   D(1,2,6,17)          -162.0752         estimate D2E/DX2                !
 ! D28   D(3,2,6,15)          -160.6323         estimate D2E/DX2                !
 ! D29   D(3,2,6,16)           -40.6343         estimate D2E/DX2                !
 ! D30   D(3,2,6,17)            79.3636         estimate D2E/DX2                !
 ! D31   D(5,2,6,15)            79.7568         estimate D2E/DX2                !
 ! D32   D(5,2,6,16)          -160.2452         estimate D2E/DX2                !
 ! D33   D(5,2,6,17)           -40.2473         estimate D2E/DX2                !
 ! D34   D(2,3,4,11)           -62.4324         estimate D2E/DX2                !
 ! D35   D(2,3,4,18)           177.5676         estimate D2E/DX2                !
 ! D36   D(10,3,4,11)          117.5717         estimate D2E/DX2                !
 ! D37   D(10,3,4,18)           -2.4283         estimate D2E/DX2                !
 --------------------------------------------------------------------------------
 Trust Radius=3.00D-01 FncErr=1.00D-07 GrdErr=1.00D-06 EigMax=2.50D+02 EigMin=1.00D-04
 Number of steps in this run=     94 maximum allowed number of steps=    108.
 GradGradGradGradGradGradGradGradGradGradGradGradGradGradGradGradGradGrad

 Leave Link  103 at Mon Dec 30 16:44:31 2019, MaxMem= 10737418240 cpu:               0.2 elap:               0.0
 (Enter /apps/cent7/gaussian/g16-A.03/g16-haswell/g16/l202.exe)
                          Input orientation:                          
 ---------------------------------------------------------------------
 Center     Atomic      Atomic             Coordinates (Angstroms)
 Number     Number       Type             X           Y           Z
 ---------------------------------------------------------------------
      1          6           0        2.047600   -0.764000   -1.287400
      2          6           0        1.507300   -0.008000   -0.034800
      3          7           0        2.024100    1.387000   -0.027100
      4          8           0        1.605800    2.123300   -1.090200
      5          6           0       -0.053700   -0.017400    0.000400
      6          6           0        2.054200   -0.692900    1.253900
      7          1           0        1.976200   -1.839000   -1.121800
      8          1           0        1.455000   -0.490700   -2.160400
      9          1           0        3.089400   -0.490700   -1.455400
     10          1           0        2.626800    1.811700    0.663100
     11          1           0        1.936635    1.730718   -1.901389
     12          1           0       -0.393700   -0.019400    1.036000
     13          1           0       -0.433900    0.870400   -0.505100
     14          1           0       -0.423100   -0.909600   -0.505100
     15          1           0        2.005300   -1.775700    1.138600
     16          1           0        3.089200   -0.391000    1.414500
     17          1           0        1.450700   -0.391000    2.109900
     18          1           0        1.939159    3.019935   -1.009474
 ---------------------------------------------------------------------
                    Distance matrix (angstroms):
                    1          2          3          4          5
     1  C    0.000000
     2  C    1.559637   0.000000
     3  N    2.493132   1.487672   0.000000
     4  O    2.927555   2.380338   1.359152   0.000000
     5  C    2.575131   1.561425   2.508057   2.919922   0.000000
     6  C    2.542303   1.558504   2.442919   3.691456   2.543778
     7  H    1.090021   2.180366   3.407013   3.979700   2.949246
     8  H    1.089953   2.180346   2.898379   2.828615   2.677545
     9  H    1.090075   2.180400   2.588564   3.027777   3.496061
    10  H    3.282401   2.247588   1.009947   2.052705   3.312078
    11  H    2.571559   2.586817   1.907551   0.960000   3.261005
    12  H    3.451458   2.181867   2.992307   3.620758   1.089987
    13  H    3.072637   2.181978   2.556780   2.464240   1.090078
    14  H    2.595679   2.181859   3.389933   3.695573   1.089958
    15  H    2.628840   2.179366   3.370739   4.508808   2.937107
    16  H    2.919644   2.179350   2.524665   3.846518   3.466565
    17  H    3.469447   2.179365   2.838457   4.072640   2.617783
    18  H    3.795678   3.210122   1.907551   0.960000   3.770509
                    6          7          8          9         10
     6  C    0.000000
     7  H    2.638860   0.000000
     8  H    3.472372   1.779959   0.000000
     9  H    2.907375   1.780005   1.779969   0.000000
    10  H    2.636273   4.115429   3.827050   3.162766   0.000000
    11  H    3.980401   3.654068   2.287741   2.542139   2.656970
    12  H    2.548195   3.685576   3.722471   4.308269   3.551817
    13  H    3.424709   3.678281   2.856668   3.894779   3.408610
    14  H    3.045990   2.645892   2.538258   3.662814   4.251124
    15  H    1.090019   2.261473   3.582940   3.091170   3.671757
    16  H    1.090028   3.125426   3.931979   2.871631   2.372826
    17  H    1.089996   3.580047   4.271466   3.925130   2.885884
    18  H    4.349855   4.860375   3.726071   3.721084   2.174899
                   11         12         13         14         15
    11  H    0.000000
    12  H    4.137829   0.000000
    13  H    2.882570   1.779986   0.000000
    14  H    3.806475   1.779975   1.780033   0.000000
    15  H    4.641252   2.974948   3.956424   3.057614   0.000000
    16  H    4.101855   3.523059   4.205737   4.036095   1.779987
    17  H    4.563799   2.166370   3.461369   3.258573   1.780000
    18  H    1.567673   4.343242   3.241343   4.612582   5.255161
                   16         17         18
    16  H    0.000000
    17  H    1.779962   0.000000
    18  H    4.339669   4.647964   0.000000
 Stoichiometry    C4H12NO(1+)
 Framework group  C1[X(C4H12NO)]
 Deg. of freedom    48
 Full point group                 C1      NOp   1
 Largest Abelian subgroup         C1      NOp   1
 Largest concise Abelian subgroup C1      NOp   1
                         Standard orientation:                         
 ---------------------------------------------------------------------
 Center     Atomic      Atomic             Coordinates (Angstroms)
 Number     Number       Type             X           Y           Z
 ---------------------------------------------------------------------
      1          6           0       -0.467119    1.314169   -0.849289
      2          6           0       -0.426654    0.011018    0.006648
      3          7           0        0.828346   -0.736848   -0.274130
      4          8           0        1.951929   -0.054221    0.070653
      5          6           0       -0.547519    0.332181    1.529899
      6          6           0       -1.603602   -0.918544   -0.417197
      7          1           0       -1.495095    1.669289   -0.922099
      8          1           0        0.148831    2.078900   -0.376226
      9          1           0       -0.083410    1.105027   -1.847934
     10          1           0        0.913161   -1.658943   -0.677293
     11          1           0        2.009866    0.750404   -0.449754
     12          1           0       -1.058957   -0.487497    2.034508
     13          1           0        0.448475    0.455757    1.955335
     14          1           0       -1.116313    1.252360    1.663136
     15          1           0       -2.504478   -0.321829   -0.560360
     16          1           0       -1.350248   -1.423392   -1.349453
     17          1           0       -1.779206   -1.660561    0.361690
     18          1           0        2.722888   -0.600756   -0.098231
 ---------------------------------------------------------------------
 Rotational constants (GHZ):           4.3188109           2.5720286           2.5630177
 Leave Link  202 at Mon Dec 30 16:44:31 2019, MaxMem= 10737418240 cpu:               0.4 elap:               0.0
 (Enter /apps/cent7/gaussian/g16-A.03/g16-haswell/g16/l301.exe)
 Standard basis: 6-311++G(d,p) (5D, 7F)
 Ernie: Thresh=  0.10000D-02 Tol=  0.10000D-05 Strict=F.
 There are   222 symmetry adapted cartesian basis functions of A   symmetry.
 There are   216 symmetry adapted basis functions of A   symmetry.
   216 basis functions,   324 primitive gaussians,   222 cartesian basis functions
    25 alpha electrons       25 beta electrons
       nuclear repulsion energy       280.9186416589 Hartrees.
 IExCor= 4336 DFT=T Ex+Corr=M062X ExCW=0 ScaHFX=  0.540000
 ScaDFX=  1.000000  1.000000  1.000000  1.000000 ScalE2=  1.000000  1.000000
 IRadAn=      5 IRanWt=     -1 IRanGd=            0 ICorTp=0 IEmpDi=  4
 NAtoms=   18 NActive=   18 NUniq=   18 SFac= 1.00D+00 NAtFMM=   60 NAOKFM=F Big=F
 Integral buffers will be    131072 words long.
 Raffenetti 2 integral format.
 Two-electron integral symmetry is turned on.
 Leave Link  301 at Mon Dec 30 16:44:32 2019, MaxMem= 10737418240 cpu:               1.3 elap:               0.1
 (Enter /apps/cent7/gaussian/g16-A.03/g16-haswell/g16/l302.exe)
 NPDir=0 NMtPBC=     1 NCelOv=     1 NCel=       1 NClECP=     1 NCelD=      1
         NCelK=      1 NCelE2=     1 NClLst=     1 CellRange=     0.0.
 One-electron integrals computed using PRISM.
 One-electron integral symmetry used in STVInt
 NBasis=   216 RedAO= T EigKep=  1.91D-05  NBF=   216
 NBsUse=   216 1.00D-06 EigRej= -1.00D+00 NBFU=   216
 Precomputing XC quadrature grid using
 IXCGrd= 4 IRadAn=           5 IRanWt=          -1 IRanGd=           0 AccXCQ= 0.00D+00.
 Generated NRdTot=       0 NPtTot=           0 NUsed=           0 NTot=          32
 NSgBfM=   222   222   222   222   222 MxSgAt=    18 MxSgA2=    18.
 Leave Link  302 at Mon Dec 30 16:44:32 2019, MaxMem= 10737418240 cpu:               4.7 elap:               0.2
 (Enter /apps/cent7/gaussian/g16-A.03/g16-haswell/g16/l303.exe)
 DipDrv:  MaxL=1.
 Leave Link  303 at Mon Dec 30 16:44:32 2019, MaxMem= 10737418240 cpu:               0.9 elap:               0.1
 (Enter /apps/cent7/gaussian/g16-A.03/g16-haswell/g16/l401.exe)
 ExpMin= 3.60D-02 ExpMax= 8.59D+03 ExpMxC= 1.30D+03 IAcc=3 IRadAn=         5 AccDes= 0.00D+00
 Harris functional with IExCor= 1009 and IRadAn=       5 diagonalized for initial guess.
 HarFok:  IExCor= 1009 AccDes= 0.00D+00 IRadAn=         5 IDoV= 1 UseB2=F ITyADJ=14
 ICtDFT=  3500011 ScaDFX=  1.000000  1.000000  1.000000  1.000000
 FoFCou: FMM=F IPFlag=           0 FMFlag=      100000 FMFlg1=           0
         NFxFlg=           0 DoJE=T BraDBF=F KetDBF=T FulRan=T
         wScrn=  0.000000 ICntrl=       500 IOpCl=  0 I1Cent=   200000004 NGrid=           0
         NMat0=    1 NMatS0=      1 NMatT0=    0 NMatD0=    1 NMtDS0=    0 NMtDT0=    0
 Petite list used in FoFCou.
 Harris En= -289.176755667999    
 JPrj=0 DoOrth=F DoCkMO=F.
 Leave Link  401 at Mon Dec 30 16:44:32 2019, MaxMem= 10737418240 cpu:               9.0 elap:               0.4
 (Enter /apps/cent7/gaussian/g16-A.03/g16-haswell/g16/l502.exe)
 Integral symmetry usage will be decided dynamically.
 Closed shell SCF:
 Using DIIS extrapolation, IDIIS=  1040.
 NGot= 10737418240 LenX= 10737311970 LenY= 10737262245
 Requested convergence on RMS density matrix=1.00D-08 within 128 cycles.
 Requested convergence on MAX density matrix=1.00D-06.
 Requested convergence on             energy=1.00D-06.
 No special actions if energy rises.
 Fock matrices will be formed incrementally for  20 cycles.

 Cycle   1  Pass 1  IDiag  1:
 FoFJK:  IHMeth= 1 ICntrl=       0 DoSepK=F KAlg= 0 I1Cent=           0 FoldK=F
 IRaf= 990000000 NMat=       1 IRICut=       1 DoRegI=T DoRafI=F ISym2E= 0 IDoP0=0 IntGTp=1.
 FoFCou: FMM=F IPFlag=           0 FMFlag=      100000 FMFlg1=           0
         NFxFlg=           0 DoJE=F BraDBF=F KetDBF=F FulRan=T
         wScrn=  0.000000 ICntrl=         0 IOpCl=  0 I1Cent=           0 NGrid=           0
         NMat0=    1 NMatS0=      1 NMatT0=    0 NMatD0=    1 NMtDS0=    0 NMtDT0=    0
 Symmetry not used in FoFCou.
 E= -288.952026820455    
 DIIS: error= 3.49D-02 at cycle   1 NSaved=   1.
 NSaved= 1 IEnMin= 1 EnMin= -288.952026820455     IErMin= 1 ErrMin= 3.49D-02
 ErrMax= 3.49D-02  0.00D+00 EMaxC= 1.00D-01 BMatC= 2.69D-01 BMatP= 2.69D-01
 IDIUse=3 WtCom= 6.51D-01 WtEn= 3.49D-01
 Coeff-Com:  0.100D+01
 Coeff-En:   0.100D+01
 Coeff:      0.100D+01
 Gap=     0.314 Goal=   None    Shift=    0.000
 GapD=    0.314 DampG=1.000 DampE=0.500 DampFc=0.5000 IDamp=-1.
 Damping current iteration by 5.00D-01
 RMSDP=8.02D-03 MaxDP=3.27D-01              OVMax= 1.71D-01

 Cycle   2  Pass 1  IDiag  1:
 RMSU=  4.01D-03    CP:  9.94D-01
 E= -289.071509077934     Delta-E=       -0.119482257479 Rises=F Damp=T
 DIIS: error= 5.73D-03 at cycle   2 NSaved=   2.
 NSaved= 2 IEnMin= 2 EnMin= -289.071509077934     IErMin= 2 ErrMin= 5.73D-03
 ErrMax= 5.73D-03  0.00D+00 EMaxC= 1.00D-01 BMatC= 1.87D-02 BMatP= 2.69D-01
 IDIUse=3 WtCom= 9.43D-01 WtEn= 5.73D-02
 Coeff-Com: -0.149D+00 0.115D+01
 Coeff-En:   0.000D+00 0.100D+01
 Coeff:     -0.140D+00 0.114D+01
 Gap=     0.322 Goal=   None    Shift=    0.000
 RMSDP=2.63D-03 MaxDP=1.50D-01 DE=-1.19D-01 OVMax= 8.97D-02

 Cycle   3  Pass 1  IDiag  1:
 RMSU=  2.58D-03    CP:  9.61D-01  1.04D+00
 E= -289.179389832420     Delta-E=       -0.107880754486 Rises=F Damp=F
 DIIS: error= 3.86D-03 at cycle   3 NSaved=   3.
 NSaved= 3 IEnMin= 3 EnMin= -289.179389832420     IErMin= 3 ErrMin= 3.86D-03
 ErrMax= 3.86D-03  0.00D+00 EMaxC= 1.00D-01 BMatC= 2.03D-03 BMatP= 1.87D-02
 IDIUse=3 WtCom= 9.61D-01 WtEn= 3.86D-02
 Coeff-Com: -0.759D-01 0.260D+00 0.816D+00
 Coeff-En:   0.000D+00 0.000D+00 0.100D+01
 Coeff:     -0.730D-01 0.250D+00 0.823D+00
 Gap=     0.298 Goal=   None    Shift=    0.000
 RMSDP=5.90D-04 MaxDP=6.03D-02 DE=-1.08D-01 OVMax= 1.06D-02

 Cycle   4  Pass 1  IDiag  1:
 RMSU=  5.23D-04    CP:  9.43D-01  1.04D+00  9.72D-01
 E= -289.180904822720     Delta-E=       -0.001514990300 Rises=F Damp=F
 DIIS: error= 1.14D-03 at cycle   4 NSaved=   4.
 NSaved= 4 IEnMin= 4 EnMin= -289.180904822720     IErMin= 4 ErrMin= 1.14D-03
 ErrMax= 1.14D-03  0.00D+00 EMaxC= 1.00D-01 BMatC= 3.89D-04 BMatP= 2.03D-03
 IDIUse=3 WtCom= 9.89D-01 WtEn= 1.14D-02
 Coeff-Com: -0.263D-01 0.607D-01 0.363D+00 0.603D+00
 Coeff-En:   0.000D+00 0.000D+00 0.000D+00 0.100D+01
 Coeff:     -0.260D-01 0.600D-01 0.358D+00 0.608D+00
 Gap=     0.297 Goal=   None    Shift=    0.000
 RMSDP=1.49D-04 MaxDP=4.15D-03 DE=-1.51D-03 OVMax= 3.10D-03

 Cycle   5  Pass 1  IDiag  1:
 RMSU=  8.85D-05    CP:  9.44D-01  1.03D+00  9.97D-01  8.23D-01
 E= -289.181192486922     Delta-E=       -0.000287664202 Rises=F Damp=F
 DIIS: error= 2.40D-04 at cycle   5 NSaved=   5.
 NSaved= 5 IEnMin= 5 EnMin= -289.181192486922     IErMin= 5 ErrMin= 2.40D-04
 ErrMax= 2.40D-04  0.00D+00 EMaxC= 1.00D-01 BMatC= 1.18D-05 BMatP= 3.89D-04
 IDIUse=3 WtCom= 9.98D-01 WtEn= 2.40D-03
 Coeff-Com: -0.232D-02 0.157D-02 0.485D-01 0.184D+00 0.768D+00
 Coeff-En:   0.000D+00 0.000D+00 0.000D+00 0.000D+00 0.100D+01
 Coeff:     -0.231D-02 0.157D-02 0.483D-01 0.183D+00 0.769D+00
 Gap=     0.297 Goal=   None    Shift=    0.000
 RMSDP=2.91D-05 MaxDP=9.90D-04 DE=-2.88D-04 OVMax= 6.19D-04

 Cycle   6  Pass 1  IDiag  1:
 RMSU=  2.65D-05    CP:  9.44D-01  1.03D+00  1.00D+00  8.30D-01  1.00D+00
 E= -289.181202213522     Delta-E=       -0.000009726600 Rises=F Damp=F
 DIIS: error= 3.39D-05 at cycle   6 NSaved=   6.
 NSaved= 6 IEnMin= 6 EnMin= -289.181202213522     IErMin= 6 ErrMin= 3.39D-05
 ErrMax= 3.39D-05  0.00D+00 EMaxC= 1.00D-01 BMatC= 2.94D-07 BMatP= 1.18D-05
 IDIUse=1 WtCom= 1.00D+00 WtEn= 0.00D+00
 Coeff-Com:  0.134D-02-0.344D-02-0.172D-01-0.190D-01 0.615D-01 0.977D+00
 Coeff:      0.134D-02-0.344D-02-0.172D-01-0.190D-01 0.615D-01 0.977D+00
 Gap=     0.298 Goal=   None    Shift=    0.000
 RMSDP=1.56D-05 MaxDP=1.57D-03 DE=-9.73D-06 OVMax= 2.22D-04

 Cycle   7  Pass 1  IDiag  1:
 RMSU=  7.29D-06    CP:  9.43D-01  1.02D+00  1.00D+00  8.44D-01  1.04D+00
                    CP:  1.07D+00
 E= -289.181202545668     Delta-E=       -0.000000332146 Rises=F Damp=F
 DIIS: error= 1.74D-05 at cycle   7 NSaved=   7.
 NSaved= 7 IEnMin= 7 EnMin= -289.181202545668     IErMin= 7 ErrMin= 1.74D-05
 ErrMax= 1.74D-05  0.00D+00 EMaxC= 1.00D-01 BMatC= 1.04D-07 BMatP= 2.94D-07
 IDIUse=1 WtCom= 1.00D+00 WtEn= 0.00D+00
 Coeff-Com:  0.727D-03-0.159D-02-0.107D-01-0.198D-01-0.157D-01 0.447D+00
 Coeff-Com:  0.600D+00
 Coeff:      0.727D-03-0.159D-02-0.107D-01-0.198D-01-0.157D-01 0.447D+00
 Coeff:      0.600D+00
 Gap=     0.297 Goal=   None    Shift=    0.000
 RMSDP=2.34D-06 MaxDP=7.10D-05 DE=-3.32D-07 OVMax= 6.19D-05

 Cycle   8  Pass 1  IDiag  1:
 RMSU=  1.39D-06    CP:  9.43D-01  1.02D+00  1.00D+00  8.44D-01  1.05D+00
                    CP:  1.10D+00  8.64D-01
 E= -289.181202623090     Delta-E=       -0.000000077423 Rises=F Damp=F
 DIIS: error= 3.91D-06 at cycle   8 NSaved=   8.
 NSaved= 8 IEnMin= 8 EnMin= -289.181202623090     IErMin= 8 ErrMin= 3.91D-06
 ErrMax= 3.91D-06  0.00D+00 EMaxC= 1.00D-01 BMatC= 4.55D-09 BMatP= 1.04D-07
 IDIUse=1 WtCom= 1.00D+00 WtEn= 0.00D+00
 Coeff-Com:  0.109D-03-0.216D-03-0.201D-02-0.500D-02-0.899D-02 0.663D-01
 Coeff-Com:  0.200D+00 0.750D+00
 Coeff:      0.109D-03-0.216D-03-0.201D-02-0.500D-02-0.899D-02 0.663D-01
 Coeff:      0.200D+00 0.750D+00
 Gap=     0.298 Goal=   None    Shift=    0.000
 RMSDP=6.82D-07 MaxDP=4.20D-05 DE=-7.74D-08 OVMax= 1.68D-05

 Cycle   9  Pass 1  IDiag  1:
 RMSU=  5.86D-07    CP:  9.43D-01  1.02D+00  1.00D+00  8.45D-01  1.05D+00
                    CP:  1.11D+00  8.94D-01  1.00D+00
 E= -289.181202626742     Delta-E=       -0.000000003651 Rises=F Damp=F
 DIIS: error= 6.57D-07 at cycle   9 NSaved=   9.
 NSaved= 9 IEnMin= 9 EnMin= -289.181202626742     IErMin= 9 ErrMin= 6.57D-07
 ErrMax= 6.57D-07  0.00D+00 EMaxC= 1.00D-01 BMatC= 1.37D-10 BMatP= 4.55D-09
 IDIUse=1 WtCom= 1.00D+00 WtEn= 0.00D+00
 Coeff-Com: -0.375D-04 0.805D-04 0.443D-03 0.681D-03 0.282D-03-0.242D-01
 Coeff-Com: -0.151D-01 0.968D-01 0.941D+00
 Coeff:     -0.375D-04 0.805D-04 0.443D-03 0.681D-03 0.282D-03-0.242D-01
 Coeff:     -0.151D-01 0.968D-01 0.941D+00
 Gap=     0.298 Goal=   None    Shift=    0.000
 RMSDP=3.22D-07 MaxDP=2.32D-05 DE=-3.65D-09 OVMax= 8.13D-06

 Cycle  10  Pass 1  IDiag  1:
 RMSU=  1.41D-07    CP:  9.43D-01  1.02D+00  1.00D+00  8.45D-01  1.04D+00
                    CP:  1.11D+00  9.16D-01  1.06D+00  1.14D+00
 E= -289.181202626975     Delta-E=       -0.000000000233 Rises=F Damp=F
 DIIS: error= 2.03D-07 at cycle  10 NSaved=  10.
 NSaved=10 IEnMin=10 EnMin= -289.181202626975     IErMin=10 ErrMin= 2.03D-07
 ErrMax= 2.03D-07  0.00D+00 EMaxC= 1.00D-01 BMatC= 1.13D-11 BMatP= 1.37D-10
 IDIUse=1 WtCom= 1.00D+00 WtEn= 0.00D+00
 Coeff-Com: -0.921D-05 0.209D-04 0.145D-03 0.310D-03 0.398D-03-0.628D-02
 Coeff-Com: -0.103D-01-0.173D-01 0.144D+00 0.889D+00
 Coeff:     -0.921D-05 0.209D-04 0.145D-03 0.310D-03 0.398D-03-0.628D-02
 Coeff:     -0.103D-01-0.173D-01 0.144D+00 0.889D+00
 Gap=     0.298 Goal=   None    Shift=    0.000
 RMSDP=9.22D-08 MaxDP=5.82D-06 DE=-2.33D-10 OVMax= 2.84D-06

 Cycle  11  Pass 1  IDiag  1:
 RMSU=  5.58D-08    CP:  9.43D-01  1.02D+00  1.00D+00  8.45D-01  1.04D+00
                    CP:  1.11D+00  9.20D-01  1.08D+00  1.19D+00  1.17D+00
 E= -289.181202626992     Delta-E=       -0.000000000017 Rises=F Damp=F
 DIIS: error= 1.05D-07 at cycle  11 NSaved=  11.
 NSaved=11 IEnMin=11 EnMin= -289.181202626992     IErMin=11 ErrMin= 1.05D-07
 ErrMax= 1.05D-07  0.00D+00 EMaxC= 1.00D-01 BMatC= 3.49D-12 BMatP= 1.13D-11
 IDIUse=1 WtCom= 1.00D+00 WtEn= 0.00D+00
 Coeff-Com:  0.195D-05-0.398D-05-0.361D-05 0.296D-04 0.977D-04 0.728D-03
 Coeff-Com: -0.173D-02-0.195D-01-0.804D-01 0.353D+00 0.748D+00
 Coeff:      0.195D-05-0.398D-05-0.361D-05 0.296D-04 0.977D-04 0.728D-03
 Coeff:     -0.173D-02-0.195D-01-0.804D-01 0.353D+00 0.748D+00
 Gap=     0.298 Goal=   None    Shift=    0.000
 RMSDP=4.31D-08 MaxDP=4.31D-06 DE=-1.67D-11 OVMax= 1.40D-06

 Cycle  12  Pass 1  IDiag  1:
 RMSU=  1.91D-08    CP:  9.43D-01  1.02D+00  1.00D+00  8.45D-01  1.04D+00
                    CP:  1.11D+00  9.21D-01  1.08D+00  1.21D+00  1.28D+00
                    CP:  1.13D+00
 E= -289.181202626998     Delta-E=       -0.000000000007 Rises=F Damp=F
 DIIS: error= 2.49D-08 at cycle  12 NSaved=  12.
 NSaved=12 IEnMin=12 EnMin= -289.181202626998     IErMin=12 ErrMin= 2.49D-08
 ErrMax= 2.49D-08  0.00D+00 EMaxC= 1.00D-01 BMatC= 2.08D-13 BMatP= 3.49D-12
 IDIUse=1 WtCom= 1.00D+00 WtEn= 0.00D+00
 Coeff-Com:  0.144D-05-0.311D-05-0.167D-04-0.290D-04-0.136D-04 0.816D-03
 Coeff-Com:  0.108D-02-0.958D-03-0.332D-01-0.594D-01 0.124D+00 0.968D+00
 Coeff:      0.144D-05-0.311D-05-0.167D-04-0.290D-04-0.136D-04 0.816D-03
 Coeff:      0.108D-02-0.958D-03-0.332D-01-0.594D-01 0.124D+00 0.968D+00
 Gap=     0.298 Goal=   None    Shift=    0.000
 RMSDP=1.59D-08 MaxDP=1.02D-06 DE=-6.71D-12 OVMax= 6.22D-07

 Cycle  13  Pass 1  IDiag  1:
 RMSU=  4.26D-09    CP:  9.43D-01  1.02D+00  1.00D+00  8.45D-01  1.04D+00
                    CP:  1.11D+00  9.22D-01  1.08D+00  1.22D+00  1.33D+00
                    CP:  1.27D+00  1.13D+00
 E= -289.181202626999     Delta-E=       -0.000000000001 Rises=F Damp=F
 DIIS: error= 5.09D-09 at cycle  13 NSaved=  13.
 NSaved=13 IEnMin=13 EnMin= -289.181202626999     IErMin=13 ErrMin= 5.09D-09
 ErrMax= 5.09D-09  0.00D+00 EMaxC= 1.00D-01 BMatC= 1.11D-14 BMatP= 2.08D-13
 IDIUse=1 WtCom= 1.00D+00 WtEn= 0.00D+00
 Coeff-Com: -0.117D-06 0.156D-06-0.103D-06-0.192D-05-0.121D-05-0.241D-04
 Coeff-Com:  0.192D-03 0.135D-02 0.244D-02-0.318D-01-0.415D-01 0.109D+00
 Coeff-Com:  0.960D+00
 Coeff:     -0.117D-06 0.156D-06-0.103D-06-0.192D-05-0.121D-05-0.241D-04
 Coeff:      0.192D-03 0.135D-02 0.244D-02-0.318D-01-0.415D-01 0.109D+00
 Coeff:      0.960D+00
 Gap=     0.298 Goal=   None    Shift=    0.000
 RMSDP=3.58D-09 MaxDP=2.79D-07 DE=-6.82D-13 OVMax= 1.36D-07

 SCF Done:  E(RM062X) =  -289.181202627     A.U. after   13 cycles
            NFock= 13  Conv=0.36D-08     -V/T= 2.0035
 KE= 2.881599998893D+02 PE=-1.225600537117D+03 EE= 3.673406929414D+02
 Leave Link  502 at Mon Dec 30 16:44:42 2019, MaxMem= 10737418240 cpu:             231.2 elap:               9.7
 (Enter /apps/cent7/gaussian/g16-A.03/g16-haswell/g16/l601.exe)
 Copying SCF densities to generalized density rwf, IOpCl= 0 IROHF=0.

 **********************************************************************

            Population analysis using the SCF density.

 **********************************************************************

 Orbital symmetries:
       Occupied  (A) (A) (A) (A) (A) (A) (A) (A) (A) (A) (A) (A)
                 (A) (A) (A) (A) (A) (A) (A) (A) (A) (A) (A) (A)
                 (A)
       Virtual   (A) (A) (A) (A) (A) (A) (A) (A) (A) (A) (A) (A)
                 (A) (A) (A) (A) (A) (A) (A) (A) (A) (A) (A) (A)
                 (A) (A) (A) (A) (A) (A) (A) (A) (A) (A) (A) (A)
                 (A) (A) (A) (A) (A) (A) (A) (A) (A) (A) (A) (A)
                 (A) (A) (A) (A) (A) (A) (A) (A) (A) (A) (A) (A)
                 (A) (A) (A) (A) (A) (A) (A) (A) (A) (A) (A) (A)
                 (A) (A) (A) (A) (A) (A) (A) (A) (A) (A) (A) (A)
                 (A) (A) (A) (A) (A) (A) (A) (A) (A) (A) (A) (A)
                 (A) (A) (A) (A) (A) (A) (A) (A) (A) (A) (A) (A)
                 (A) (A) (A) (A) (A) (A) (A) (A) (A) (A) (A) (A)
                 (A) (A) (A) (A) (A) (A) (A) (A) (A) (A) (A) (A)
                 (A) (A) (A) (A) (A) (A) (A) (A) (A) (A) (A) (A)
                 (A) (A) (A) (A) (A) (A) (A) (A) (A) (A) (A) (A)
                 (A) (A) (A) (A) (A) (A) (A) (A) (A) (A) (A) (A)
                 (A) (A) (A) (A) (A) (A) (A) (A) (A) (A) (A) (A)
                 (A) (A) (A) (A) (A) (A) (A) (A) (A) (A) (A)
 The electronic state is 1-A.
 Alpha  occ. eigenvalues --  -20.02968 -15.00120 -10.76471 -10.68808 -10.68148
 Alpha  occ. eigenvalues --  -10.67447  -1.58046  -1.20122  -1.05928  -1.00405
 Alpha  occ. eigenvalues --   -0.94246  -0.93968  -0.90032  -0.84829  -0.79504
 Alpha  occ. eigenvalues --   -0.70483  -0.66998  -0.66022  -0.62302  -0.61093
 Alpha  occ. eigenvalues --   -0.60242  -0.58138  -0.56545  -0.54711  -0.49590
 Alpha virt. eigenvalues --   -0.19839  -0.14619  -0.12140  -0.10334  -0.08205
 Alpha virt. eigenvalues --   -0.08136  -0.07441  -0.07247  -0.06404  -0.06323
 Alpha virt. eigenvalues --   -0.05446  -0.04545  -0.04044  -0.03556  -0.02502
 Alpha virt. eigenvalues --   -0.02039  -0.01937  -0.01066  -0.00413   0.00685
 Alpha virt. eigenvalues --    0.02358   0.02950   0.03371   0.03563   0.04428
 Alpha virt. eigenvalues --    0.04787   0.04974   0.05407   0.05721   0.05980
 Alpha virt. eigenvalues --    0.06214   0.06766   0.07510   0.08079   0.08473
 Alpha virt. eigenvalues --    0.08932   0.09150   0.10500   0.11518   0.12503
 Alpha virt. eigenvalues --    0.13661   0.14413   0.15134   0.15932   0.17108
 Alpha virt. eigenvalues --    0.18303   0.19422   0.20524   0.20696   0.21304
 Alpha virt. eigenvalues --    0.24529   0.25679   0.27732   0.32210   0.33313
 Alpha virt. eigenvalues --    0.34365   0.35773   0.37183   0.39105   0.41644
 Alpha virt. eigenvalues --    0.43146   0.44748   0.45811   0.49353   0.49559
 Alpha virt. eigenvalues --    0.52506   0.54777   0.55019   0.55873   0.56655
 Alpha virt. eigenvalues --    0.57949   0.58406   0.59424   0.60446   0.61038
 Alpha virt. eigenvalues --    0.62549   0.65859   0.67911   0.70439   0.72005
 Alpha virt. eigenvalues --    0.75339   0.80071   0.80750   0.83510   0.88734
 Alpha virt. eigenvalues --    0.92128   0.93843   1.03965   1.05532   1.08640
 Alpha virt. eigenvalues --    1.10987   1.13195   1.17695   1.25829   1.28779
 Alpha virt. eigenvalues --    1.30293   1.32257   1.34983   1.35473   1.38743
 Alpha virt. eigenvalues --    1.39287   1.41418   1.41640   1.44855   1.46522
 Alpha virt. eigenvalues --    1.47713   1.48421   1.51470   1.53043   1.53766
 Alpha virt. eigenvalues --    1.54548   1.55354   1.59653   1.64591   1.65297
 Alpha virt. eigenvalues --    1.65735   1.68807   1.70315   1.71209   1.73736
 Alpha virt. eigenvalues --    1.78732   1.79514   1.81198   1.85340   1.87177
 Alpha virt. eigenvalues --    1.89796   1.94676   1.97019   1.97258   2.01095
 Alpha virt. eigenvalues --    2.05201   2.10143   2.11070   2.15990   2.21640
 Alpha virt. eigenvalues --    2.23414   2.26047   2.31681   2.34487   2.36532
 Alpha virt. eigenvalues --    2.38118   2.39525   2.40591   2.41659   2.43318
 Alpha virt. eigenvalues --    2.44314   2.45727   2.46202   2.50122   2.50564
 Alpha virt. eigenvalues --    2.53666   2.55842   2.57564   2.57888   2.61336
 Alpha virt. eigenvalues --    2.64167   2.67715   2.69120   2.81103   2.85864
 Alpha virt. eigenvalues --    2.88908   2.90397   3.00095   3.06713   3.12903
 Alpha virt. eigenvalues --    3.14478   3.21977   3.22647   3.45828   3.61203
 Alpha virt. eigenvalues --    3.65482   3.66038   3.68217   3.70026   3.72311
 Alpha virt. eigenvalues --    3.74556   3.76451   3.82903   4.12761   4.16072
 Alpha virt. eigenvalues --    4.31580   4.70052   5.01985   5.45183   5.63780
 Alpha virt. eigenvalues --   23.63459  23.87639  23.89410  23.91897  35.39525
 Alpha virt. eigenvalues --   49.69462
          Condensed to atoms (all electrons):
               1          2          3          4          5          6
     1  C    5.754463  -0.233139  -0.101256   0.079644   0.186751  -0.257575
     2  C   -0.233139   6.857070  -0.157611  -0.090560  -0.110263  -0.001847
     3  N   -0.101256  -0.157611   7.513385  -0.043172  -0.172236   0.050365
     4  O    0.079644  -0.090560  -0.043172   7.254149   0.078237  -0.048292
     5  C    0.186751  -0.110263  -0.172236   0.078237   5.465276  -0.135535
     6  C   -0.257575  -0.001847   0.050365  -0.048292  -0.135535   5.689611
     7  H    0.460656  -0.075092   0.014596   0.006107   0.000935  -0.027698
     8  H    0.276016   0.115545  -0.046189   0.006148  -0.006192  -0.014006
     9  H    0.469468  -0.160984   0.032815  -0.010344  -0.010466   0.033678
    10  H   -0.012735   0.017643   0.336610  -0.019145  -0.010443   0.004349
    11  H   -0.005790   0.057120  -0.087833   0.352466  -0.014510   0.008297
    12  H   -0.003724  -0.016764  -0.004064  -0.005718   0.399142  -0.019948
    13  H    0.017437  -0.041153  -0.016739   0.022008   0.407979  -0.029125
    14  H   -0.048651  -0.006011   0.014224  -0.006725   0.388517   0.033349
    15  H   -0.037342  -0.003692   0.016396  -0.004553  -0.020322   0.418557
    16  H    0.017577  -0.081789   0.016731   0.002546   0.007592   0.394711
    17  H    0.001287  -0.031162   0.009140  -0.005945  -0.040996   0.414466
    18  H    0.003813  -0.000042   0.005328   0.317118   0.008331  -0.012443
               7          8          9         10         11         12
     1  C    0.460656   0.276016   0.469468  -0.012735  -0.005790  -0.003724
     2  C   -0.075092   0.115545  -0.160984   0.017643   0.057120  -0.016764
     3  N    0.014596  -0.046189   0.032815   0.336610  -0.087833  -0.004064
     4  O    0.006107   0.006148  -0.010344  -0.019145   0.352466  -0.005718
     5  C    0.000935  -0.006192  -0.010466  -0.010443  -0.014510   0.399142
     6  C   -0.027698  -0.014006   0.033678   0.004349   0.008297  -0.019948
     7  H    0.452853  -0.015793  -0.022878  -0.000123  -0.000566  -0.001430
     8  H   -0.015793   0.568085  -0.049539   0.000123   0.002088  -0.000594
     9  H   -0.022878  -0.049539   0.523313   0.000178  -0.005369  -0.004039
    10  H   -0.000123   0.000123   0.000178   0.303196   0.001935  -0.001566
    11  H   -0.000566   0.002088  -0.005369   0.001935   0.351370   0.000457
    12  H   -0.001430  -0.000594  -0.004039  -0.001566   0.000457   0.520733
    13  H    0.004244  -0.007668   0.002939   0.002003  -0.003965  -0.029056
    14  H   -0.008384   0.003872  -0.000381   0.000312   0.002112  -0.024041
    15  H   -0.002392   0.002161   0.003760   0.000078  -0.000843   0.004143
    16  H    0.003734   0.000624  -0.004446  -0.001881   0.000665  -0.000081
    17  H   -0.000226  -0.006000   0.002181   0.001904   0.000346   0.006670
    18  H   -0.000263   0.003047   0.000285  -0.000214  -0.028718   0.000569
              13         14         15         16         17         18
     1  C    0.017437  -0.048651  -0.037342   0.017577   0.001287   0.003813
     2  C   -0.041153  -0.006011  -0.003692  -0.081789  -0.031162  -0.000042
     3  N   -0.016739   0.014224   0.016396   0.016731   0.009140   0.005328
     4  O    0.022008  -0.006725  -0.004553   0.002546  -0.005945   0.317118
     5  C    0.407979   0.388517  -0.020322   0.007592  -0.040996   0.008331
     6  C   -0.029125   0.033349   0.418557   0.394711   0.414466  -0.012443
     7  H    0.004244  -0.008384  -0.002392   0.003734  -0.000226  -0.000263
     8  H   -0.007668   0.003872   0.002161   0.000624  -0.006000   0.003047
     9  H    0.002939  -0.000381   0.003760  -0.004446   0.002181   0.000285
    10  H    0.002003   0.000312   0.000078  -0.001881   0.001904  -0.000214
    11  H   -0.003965   0.002112  -0.000843   0.000665   0.000346  -0.028718
    12  H   -0.029056  -0.024041   0.004143  -0.000081   0.006670   0.000569
    13  H    0.551331  -0.041491   0.001670  -0.004943  -0.000696   0.001850
    14  H   -0.041491   0.498648  -0.002413   0.000676   0.002050  -0.001097
    15  H    0.001670  -0.002413   0.485505  -0.037521  -0.023613   0.000597
    16  H   -0.004943   0.000676  -0.037521   0.553775  -0.026813   0.000344
    17  H   -0.000696   0.002050  -0.023613  -0.026813   0.509333  -0.001463
    18  H    0.001850  -0.001097   0.000597   0.000344  -0.001463   0.325933
 Mulliken charges:
               1
     1  C   -0.566902
     2  C   -0.037269
     3  N   -0.380490
     4  O    0.116031
     5  C   -0.421798
     6  C   -0.500915
     7  H    0.211721
     8  H    0.168273
     9  H    0.199829
    10  H    0.377776
    11  H    0.370737
    12  H    0.179311
    13  H    0.163376
    14  H    0.195435
    15  H    0.199825
    16  H    0.158497
    17  H    0.189537
    18  H    0.377025
 Sum of Mulliken charges =   1.00000
 Mulliken charges with hydrogens summed into heavy atoms:
               1
     1  C    0.012921
     2  C   -0.037269
     3  N   -0.002714
     4  O    0.863794
     5  C    0.116324
     6  C    0.046945
 Electronic spatial extent (au):  <R**2>=            632.7740
 Charge=              1.0000 electrons
 Dipole moment (field-independent basis, Debye):
    X=              6.1528    Y=             -0.7905    Z=             -1.5816  Tot=              6.4018
 Quadrupole moment (field-independent basis, Debye-Ang):
   XX=            -13.6744   YY=            -31.4854   ZZ=            -36.6334
   XY=             -2.1436   XZ=             -3.0470   YZ=              0.7367
 Traceless Quadrupole moment (field-independent basis, Debye-Ang):
   XX=             13.5900   YY=             -4.2210   ZZ=             -9.3690
   XY=             -2.1436   XZ=             -3.0470   YZ=              0.7367
 Octapole moment (field-independent basis, Debye-Ang**2):
  XXX=             63.2251  YYY=             -7.0521  ZZZ=              0.0086  XYY=             10.0671
  XXY=             -5.8182  XXZ=             -7.5369  XZZ=              3.5375  YZZ=             -1.2543
  YYZ=             -4.0990  XYZ=              1.0875
 Hexadecapole moment (field-independent basis, Debye-Ang**3):
 XXXX=           -205.0708 YYYY=           -199.7825 ZZZZ=           -215.7771 XXXY=            -24.7424
 XXXZ=            -12.0340 YYYX=             -9.4067 YYYZ=              7.4426 ZZZX=             -3.5239
 ZZZY=              0.5452 XXYY=            -75.8407 XXZZ=            -94.7639 YYZZ=            -68.2113
 XXYZ=             -2.5566 YYXZ=             -5.8730 ZZXY=             -0.0469
 N-N= 2.809186416589D+02 E-N=-1.225600536009D+03  KE= 2.881599998893D+02
 No NMR shielding tensors so no spin-rotation constants.
 Leave Link  601 at Mon Dec 30 16:44:42 2019, MaxMem= 10737418240 cpu:               2.5 elap:               0.1
 (Enter /apps/cent7/gaussian/g16-A.03/g16-haswell/g16/l701.exe)
 ... and contract with generalized density number  0.
 Compute integral first derivatives.
 Leave Link  701 at Mon Dec 30 16:44:42 2019, MaxMem= 10737418240 cpu:               3.2 elap:               0.2
 (Enter /apps/cent7/gaussian/g16-A.03/g16-haswell/g16/l702.exe)
 L702 exits ... SP integral derivatives will be done elsewhere.
 Leave Link  702 at Mon Dec 30 16:44:42 2019, MaxMem= 10737418240 cpu:               0.4 elap:               0.0
 (Enter /apps/cent7/gaussian/g16-A.03/g16-haswell/g16/l703.exe)
 Integral derivatives from FoFJK, PRISM(SPDF).
 Compute integral first derivatives, UseDBF=F ICtDFT=           0.
 Calling FoFJK, ICntrl=      2127 FMM=F ISym2X=0 I1Cent= 0 IOpClX= 0 NMat=1 NMatS=1 NMatT=0.
 FoFJK:  IHMeth= 1 ICntrl=    2127 DoSepK=F KAlg= 0 I1Cent=           0 FoldK=F
 IRaf=         0 NMat=       1 IRICut=       1 DoRegI=T DoRafI=F ISym2E= 0 IDoP0=0 IntGTp=1.
 FoFCou: FMM=F IPFlag=           0 FMFlag=      100000 FMFlg1=         800
         NFxFlg=           0 DoJE=F BraDBF=F KetDBF=F FulRan=T
         wScrn=  0.000000 ICntrl=      2127 IOpCl=  0 I1Cent=           0 NGrid=           0
         NMat0=    1 NMatS0=      1 NMatT0=    0 NMatD0=    1 NMtDS0=    0 NMtDT0=    0
 Symmetry not used in FoFCou.
 Leave Link  703 at Mon Dec 30 16:44:44 2019, MaxMem= 10737418240 cpu:              35.2 elap:               1.5
 (Enter /apps/cent7/gaussian/g16-A.03/g16-haswell/g16/l716.exe)
 Dipole        = 2.42068292D+00-3.10991179D-01-6.22262095D-01
 ***** Axes restored to original set *****
 -------------------------------------------------------------------
 Center     Atomic                   Forces (Hartrees/Bohr)
 Number     Number              X              Y              Z
 -------------------------------------------------------------------
      1        6          -0.004091464    0.018443747    0.011328322
      2        6          -0.006167870   -0.015494940    0.007367704
      3        7           0.005840035   -0.061161461    0.053654785
      4        8          -0.018022438    0.026664856   -0.018733136
      5        6           0.017720528    0.002292814   -0.001127297
      6        6          -0.002169403    0.017987042   -0.010769187
      7        1          -0.001644220    0.001368364   -0.003815204
      8        1          -0.001050459   -0.003812201   -0.005902682
      9        1           0.003489007   -0.003612075   -0.000420502
     10        1           0.000961013    0.007003181   -0.007217049
     11        1           0.009149207   -0.007636407   -0.022922771
     12        1          -0.002751541    0.002169138   -0.002202189
     13        1          -0.005050915   -0.001820431   -0.001543704
     14        1          -0.001704444    0.000444716    0.000749367
     15        1          -0.000424710    0.001643674    0.000425222
     16        1           0.003503446   -0.004399158    0.001873710
     17        1           0.002716524   -0.000602033    0.001580108
     18        1          -0.000302298    0.020521171   -0.002325497
 -------------------------------------------------------------------
 Cartesian Forces:  Max     0.061161461 RMS     0.014281842
 Leave Link  716 at Mon Dec 30 16:44:44 2019, MaxMem= 10737418240 cpu:               0.6 elap:               0.0
 (Enter /apps/cent7/gaussian/g16-A.03/g16-haswell/g16/l103.exe)

 GradGradGradGradGradGradGradGradGradGradGradGradGradGradGradGradGradGrad
 Berny optimization.
 FormGI is forming the generalized inverse of G from B-inverse, IUseBI=4.
 Internal  Forces:  Max     0.058651022 RMS     0.008380615
 Search for a local minimum.
 Step number   1 out of a maximum of   94
 All quantities printed in internal units (Hartrees-Bohrs-Radians)
 RMS Force = .83806D-02 SwitMx=.10000D-02 MixMth= 1
 Mixed Optimization -- RFO/linear search
 Second derivative matrix not updated -- first step.
 ITU=  0
     Eigenvalues ---    0.00230   0.00230   0.00230   0.00532   0.00998
     Eigenvalues ---    0.01835   0.04494   0.05093   0.05715   0.05715
     Eigenvalues ---    0.05715   0.05715   0.05715   0.05716   0.05785
     Eigenvalues ---    0.06194   0.14952   0.15147   0.16000   0.16000
     Eigenvalues ---    0.16000   0.16000   0.16000   0.16000   0.16000
     Eigenvalues ---    0.16000   0.16000   0.16000   0.16000   0.16000
     Eigenvalues ---    0.22000   0.26702   0.26848   0.26941   0.33706
     Eigenvalues ---    0.34804   0.34804   0.34809   0.34810   0.34810
     Eigenvalues ---    0.34813   0.34814   0.34818   0.34818   0.45981
     Eigenvalues ---    0.53119   0.55473   0.55473
 RFO step:  Lambda=-1.82041517D-02 EMin= 2.30000000D-03
 Linear search not attempted -- first point.
 Iteration  1 RMS(Cart)=  0.04903788 RMS(Int)=  0.00184983
 Iteration  2 RMS(Cart)=  0.00220063 RMS(Int)=  0.00055233
 Iteration  3 RMS(Cart)=  0.00000515 RMS(Int)=  0.00055232
 Iteration  4 RMS(Cart)=  0.00000001 RMS(Int)=  0.00055232
 ITry= 1 IFail=0 DXMaxC= 1.60D-01 DCOld= 1.00D+10 DXMaxT= 3.00D-01 DXLimC= 3.00D+00 Rises=F
 Variable       Old X    -DE/DX   Delta X   Delta X   Delta X     New X
                                 (Linear)    (Quad)   (Total)
    R1        2.94729  -0.00810   0.00000  -0.02826  -0.02826   2.91902
    R2        2.05984  -0.00182   0.00000  -0.00497  -0.00497   2.05487
    R3        2.05971   0.00434   0.00000   0.01185   0.01185   2.07157
    R4        2.05994   0.00249   0.00000   0.00681   0.00681   2.06675
    R5        2.81129  -0.01451   0.00000  -0.04085  -0.04085   2.77045
    R6        2.95067  -0.00832   0.00000  -0.02918  -0.02918   2.92149
    R7        2.94515  -0.01085   0.00000  -0.03774  -0.03774   2.90741
    R8        2.56843   0.05865   0.00000   0.10676   0.10676   2.67518
    R9        1.90852  -0.00141   0.00000  -0.00296  -0.00296   1.90557
   R10        1.81414   0.02565   0.00000   0.04476   0.04476   1.85890
   R11        1.81414   0.01887   0.00000   0.03293   0.03293   1.84707
   R12        2.05978  -0.00124   0.00000  -0.00338  -0.00338   2.05640
   R13        2.05995   0.00099   0.00000   0.00272   0.00272   2.06267
   R14        2.05972  -0.00013   0.00000  -0.00037  -0.00037   2.05935
   R15        2.05984  -0.00166   0.00000  -0.00453  -0.00453   2.05531
   R16        2.05985   0.00238   0.00000   0.00651   0.00651   2.06636
   R17        2.05979  -0.00043   0.00000  -0.00117  -0.00117   2.05862
    A1        1.91064   0.00121   0.00000  -0.00044  -0.00035   1.91029
    A2        1.91068   0.00654   0.00000   0.03899   0.03849   1.94917
    A3        1.91063   0.00283   0.00000   0.02079   0.02024   1.93087
    A4        1.91066  -0.00546   0.00000  -0.04043  -0.04031   1.87035
    A5        1.91057  -0.00278   0.00000  -0.02023  -0.02018   1.89040
    A6        1.91061  -0.00233   0.00000   0.00131   0.00027   1.91088
    A7        1.91595  -0.00002   0.00000  -0.01998  -0.01968   1.89628
    A8        1.94069  -0.00353   0.00000  -0.00712  -0.00856   1.93213
    A9        1.90659   0.00370   0.00000   0.03426   0.03337   1.93995
   A10        1.93138   0.00138   0.00000  -0.00357  -0.00315   1.92823
   A11        1.86074  -0.00589   0.00000  -0.04911  -0.04861   1.81213
   A12        1.90660   0.00437   0.00000   0.04496   0.04452   1.95112
   A13        1.97907   0.00657   0.00000   0.02757   0.02754   2.00661
   A14        2.22077   0.00597   0.00000   0.03814   0.03810   2.25887
   A15        2.08334  -0.01254   0.00000  -0.06570  -0.06573   2.01761
   A16        1.91063   0.00306   0.00000   0.02633   0.02491   1.93554
   A17        1.91063   0.01136   0.00000   0.07289   0.07152   1.98215
   A18        1.91063  -0.00322   0.00000   0.00022  -0.00221   1.90843
   A19        1.91057   0.00358   0.00000   0.02207   0.02176   1.93233
   A20        1.91063   0.00610   0.00000   0.03408   0.03379   1.94442
   A21        1.91059   0.00076   0.00000   0.00245   0.00242   1.91301
   A22        1.91059  -0.00425   0.00000  -0.02024  -0.02077   1.88982
   A23        1.91072  -0.00212   0.00000  -0.01164  -0.01168   1.89905
   A24        1.91070  -0.00406   0.00000  -0.02671  -0.02672   1.88398
   A25        1.91064  -0.00200   0.00000  -0.01594  -0.01578   1.89486
   A26        1.91061   0.00554   0.00000   0.03215   0.03183   1.94244
   A27        1.91066   0.00369   0.00000   0.02436   0.02400   1.93467
   A28        1.91061  -0.00296   0.00000  -0.02386  -0.02367   1.88694
   A29        1.91067  -0.00119   0.00000  -0.00883  -0.00871   1.90197
   A30        1.91060  -0.00308   0.00000  -0.00787  -0.00864   1.90196
    D1        2.79343  -0.00021   0.00000   0.03840   0.03820   2.83162
    D2       -1.34669  -0.00087   0.00000   0.01521   0.01546  -1.33123
    D3        0.75891   0.00476   0.00000   0.08926   0.08928   0.84819
    D4       -1.39530  -0.00217   0.00000   0.01250   0.01197  -1.38332
    D5        0.74778  -0.00283   0.00000  -0.01069  -0.01076   0.73701
    D6        2.85337   0.00281   0.00000   0.06336   0.06305   2.91642
    D7        0.69910   0.00071   0.00000   0.05072   0.05078   0.74988
    D8        2.84217   0.00005   0.00000   0.02753   0.02804   2.87021
    D9       -1.33542   0.00569   0.00000   0.10158   0.10186  -1.23356
   D10        1.09798  -0.00246   0.00000  -0.04696  -0.04762   1.05036
   D11       -2.04369  -0.00202   0.00000  -0.03147  -0.03179  -2.07548
   D12       -1.05059   0.00109   0.00000  -0.02187  -0.02177  -1.07236
   D13        2.09093   0.00153   0.00000  -0.00638  -0.00594   2.08498
   D14       -3.12207  -0.00142   0.00000  -0.04477  -0.04472   3.11640
   D15        0.01945  -0.00098   0.00000  -0.02928  -0.02888  -0.00943
   D16        2.59230   0.00309   0.00000   0.08222   0.08196   2.67427
   D17       -1.59658   0.00381   0.00000   0.09180   0.09181  -1.50478
   D18        0.49786   0.00303   0.00000   0.08146   0.08133   0.57919
   D19       -1.55671   0.00158   0.00000   0.04932   0.04919  -1.50752
   D20        0.53758   0.00230   0.00000   0.05891   0.05903   0.59662
   D21        2.63203   0.00152   0.00000   0.04856   0.04855   2.68058
   D22        0.48672  -0.00216   0.00000   0.01448   0.01449   0.50121
   D23        2.58102  -0.00143   0.00000   0.02406   0.02433   2.60535
   D24       -1.60772  -0.00221   0.00000   0.01372   0.01385  -1.59388
   D25       -0.73428  -0.00153   0.00000  -0.07779  -0.07845  -0.81273
   D26        1.36008  -0.00299   0.00000  -0.09708  -0.09802   1.26206
   D27       -2.82875  -0.00111   0.00000  -0.07212  -0.07257  -2.90131
   D28       -2.80356  -0.00017   0.00000  -0.04478  -0.04485  -2.84841
   D29       -0.70920  -0.00163   0.00000  -0.06407  -0.06442  -0.77362
   D30        1.38516   0.00025   0.00000  -0.03911  -0.03896   1.34619
   D31        1.39202  -0.00082   0.00000  -0.03684  -0.03606   1.35596
   D32       -2.79681  -0.00227   0.00000  -0.05614  -0.05562  -2.85243
   D33       -0.70245  -0.00039   0.00000  -0.03118  -0.03017  -0.73262
   D34       -1.08965  -0.00001   0.00000  -0.03493  -0.03431  -1.12396
   D35        3.09914  -0.00490   0.00000  -0.09597  -0.09718   3.00196
   D36        2.05201  -0.00041   0.00000  -0.04909  -0.04788   2.00413
   D37       -0.04238  -0.00530   0.00000  -0.11013  -0.11075  -0.15313
         Item               Value     Threshold  Converged?
 Maximum Force            0.058651     0.000450     NO 
 RMS     Force            0.008381     0.000300     NO 
 Maximum Displacement     0.159865     0.001800     NO 
 RMS     Displacement     0.049151     0.001200     NO 
 Predicted change in Energy=-1.070549D-02
 Lowest energy point so far.  Saving SCF results.
 GradGradGradGradGradGradGradGradGradGradGradGradGradGradGradGradGradGrad

 Leave Link  103 at Mon Dec 30 16:44:44 2019, MaxMem= 10737418240 cpu:               1.3 elap:               0.1
 (Enter /apps/cent7/gaussian/g16-A.03/g16-haswell/g16/l202.exe)
                          Input orientation:                          
 ---------------------------------------------------------------------
 Center     Atomic      Atomic             Coordinates (Angstroms)
 Number     Number       Type             X           Y           Z
 ---------------------------------------------------------------------
      1          6           0        2.026734   -0.747185   -1.282319
      2          6           0        1.493166   -0.039848   -0.017006
      3          7           0        2.010812    1.331572    0.006923
      4          8           0        1.638847    2.130156   -1.101208
      5          6           0       -0.052759   -0.034777   -0.004532
      6          6           0        2.072548   -0.673890    1.259471
      7          1           0        1.924571   -1.823476   -1.165795
      8          1           0        1.457994   -0.463053   -2.175356
      9          1           0        3.084931   -0.517015   -1.435194
     10          1           0        2.600764    1.781541    0.689799
     11          1           0        2.021232    1.773893   -1.934574
     12          1           0       -0.429306    0.010042    1.015460
     13          1           0       -0.452813    0.818686   -0.554954
     14          1           0       -0.425259   -0.943436   -0.476936
     15          1           0        1.992796   -1.755362    1.175913
     16          1           0        3.128592   -0.419575    1.385083
     17          1           0        1.521873   -0.345092    2.140031
     18          1           0        1.888270    3.070471   -1.006568
 ---------------------------------------------------------------------
                    Distance matrix (angstroms):
                    1          2          3          4          5
     1  C    0.000000
     2  C    1.544680   0.000000
     3  N    2.446145   1.466057   0.000000
     4  O    2.909011   2.430151   1.415644   0.000000
     5  C    2.542549   1.545984   2.474948   2.958237   0.000000
     6  C    2.543259   1.538534   2.365283   3.691013   2.554036
     7  H    1.087390   2.164983   3.367051   3.964469   2.908230
     8  H    1.096226   2.199731   2.878998   2.812692   2.679230
     9  H    1.093677   2.184642   2.578897   3.034835   3.482018
    10  H    3.257793   2.245842   1.008382   2.062649   3.289725
    11  H    2.604093   2.691761   1.991273   0.983687   3.361219
    12  H    3.447508   2.182744   2.952586   3.640388   1.088200
    13  H    3.021450   2.193924   2.578411   2.528515   1.091516
    14  H    2.588325   2.169876   3.368118   3.754626   1.089763
    15  H    2.657156   2.148412   3.300912   4.517500   2.922012
    16  H    2.904557   2.187387   2.493044   3.860325   3.492863
    17  H    3.482677   2.178716   2.756884   4.079971   2.678601
    18  H    3.830105   3.287769   2.016420   0.977425   3.796608
                    6          7          8          9         10
     6  C    0.000000
     7  H    2.688002   0.000000
     8  H    3.495736   1.757174   0.000000
     9  H    2.882837   1.768008   1.788204   0.000000
    10  H    2.575399   4.110549   3.814871   3.167550   0.000000
    11  H    4.024450   3.679868   2.319297   2.574703   2.687610
    12  H    2.605107   3.695997   3.737249   4.316637   3.524995
    13  H    3.449256   3.606397   2.814204   3.882596   3.435234
    14  H    3.053982   2.602055   2.581093   3.663540   4.235987
    15  H    1.087623   2.343692   3.631403   3.089359   3.621549
    16  H    1.093473   3.150807   3.933130   2.822298   2.367897
    17  H    1.089375   3.643661   4.317471   3.905757   2.791012
    18  H    4.380540   4.896671   3.746597   3.806018   2.246474
                   11         12         13         14         15
    11  H    0.000000
    12  H    4.221256   0.000000
    13  H    2.989427   1.766538   0.000000
    14  H    3.936229   1.770984   1.764064   0.000000
    15  H    4.704421   3.001496   3.950016   3.039428   0.000000
    16  H    4.130093   3.602753   4.257169   4.046159   1.765817
    17  H    4.619725   2.279886   3.537895   3.316301   1.772048
    18  H    1.599996   4.338891   3.279506   4.663086   5.297434
                   16         17         18
    16  H    0.000000
    17  H    1.776806   0.000000
    18  H    4.408947   4.658476   0.000000
 Stoichiometry    C4H12NO(1+)
 Framework group  C1[X(C4H12NO)]
 Deg. of freedom    48
 Full point group                 C1      NOp   1
 RotChk:  IX=3 Diff= 4.95D-01
 Largest Abelian subgroup         C1      NOp   1
 Largest concise Abelian subgroup C1      NOp   1
                         Standard orientation:                         
 ---------------------------------------------------------------------
 Center     Atomic      Atomic             Coordinates (Angstroms)
 Number     Number       Type             X           Y           Z
 ---------------------------------------------------------------------
      1          6           0       -0.422914    0.948003   -1.230070
      2          6           0       -0.455666    0.024058    0.007383
      3          7           0        0.764564   -0.788496    0.018167
      4          8           0        1.972088   -0.052508    0.083434
      5          6           0       -0.563985    0.854562    1.306842
      6          6           0       -1.586903   -1.012784   -0.103744
      7          1           0       -1.425096    1.318529   -1.431958
      8          1           0        0.218168    1.821973   -1.066052
      9          1           0       -0.075092    0.400538   -2.110656
     10          1           0        0.866987   -1.790676   -0.026322
     11          1           0        2.091390    0.498186   -0.722880
     12          1           0       -1.044900    0.277004    2.093814
     13          1           0        0.419346    1.166585    1.663368
     14          1           0       -1.153385    1.751800    1.119344
     15          1           0       -2.495150   -0.502298   -0.415855
     16          1           0       -1.353050   -1.777199   -0.849844
     17          1           0       -1.764631   -1.497010    0.855775
     18          1           0        2.763567   -0.610929    0.214152
 ---------------------------------------------------------------------
 Rotational constants (GHZ):           4.3116406           2.5906686           2.5550280
 Leave Link  202 at Mon Dec 30 16:44:44 2019, MaxMem= 10737418240 cpu:               0.2 elap:               0.0
 (Enter /apps/cent7/gaussian/g16-A.03/g16-haswell/g16/l301.exe)
 Standard basis: 6-311++G(d,p) (5D, 7F)
 Ernie: Thresh=  0.10000D-02 Tol=  0.10000D-05 Strict=F.
 There are   222 symmetry adapted cartesian basis functions of A   symmetry.
 There are   216 symmetry adapted basis functions of A   symmetry.
   216 basis functions,   324 primitive gaussians,   222 cartesian basis functions
    25 alpha electrons       25 beta electrons
       nuclear repulsion energy       280.4992198810 Hartrees.
 IExCor= 4336 DFT=T Ex+Corr=M062X ExCW=0 ScaHFX=  0.540000
 ScaDFX=  1.000000  1.000000  1.000000  1.000000 ScalE2=  1.000000  1.000000
 IRadAn=      5 IRanWt=     -1 IRanGd=            0 ICorTp=0 IEmpDi=  4
 NAtoms=   18 NActive=   18 NUniq=   18 SFac= 1.00D+00 NAtFMM=   60 NAOKFM=F Big=F
 Integral buffers will be    131072 words long.
 Raffenetti 2 integral format.
 Two-electron integral symmetry is turned on.
 Leave Link  301 at Mon Dec 30 16:44:44 2019, MaxMem= 10737418240 cpu:               1.3 elap:               0.1
 (Enter /apps/cent7/gaussian/g16-A.03/g16-haswell/g16/l302.exe)
 NPDir=0 NMtPBC=     1 NCelOv=     1 NCel=       1 NClECP=     1 NCelD=      1
         NCelK=      1 NCelE2=     1 NClLst=     1 CellRange=     0.0.
 One-electron integrals computed using PRISM.
 One-electron integral symmetry used in STVInt
 NBasis=   216 RedAO= T EigKep=  1.85D-05  NBF=   216
 NBsUse=   216 1.00D-06 EigRej= -1.00D+00 NBFU=   216
 Precomputing XC quadrature grid using
 IXCGrd= 4 IRadAn=           5 IRanWt=          -1 IRanGd=           0 AccXCQ= 0.00D+00.
 Generated NRdTot=       0 NPtTot=           0 NUsed=           0 NTot=          32
 NSgBfM=   222   222   222   222   222 MxSgAt=    18 MxSgA2=    18.
 Leave Link  302 at Mon Dec 30 16:44:44 2019, MaxMem= 10737418240 cpu:               3.6 elap:               0.2
 (Enter /apps/cent7/gaussian/g16-A.03/g16-haswell/g16/l303.exe)
 DipDrv:  MaxL=1.
 Leave Link  303 at Mon Dec 30 16:44:44 2019, MaxMem= 10737418240 cpu:               1.2 elap:               0.1
 (Enter /apps/cent7/gaussian/g16-A.03/g16-haswell/g16/l401.exe)
 Initial guess from the checkpoint file:  "9_p_b.chk"
 B after Tr=     0.000000   -0.000000   -0.000000
         Rot=    0.984589    0.174705    0.005206    0.006007 Ang=  20.14 deg.
 Guess basis will be translated and rotated to current coordinates.
 JPrj=2 DoOrth=T DoCkMO=T.
 Generating alternative initial guess.
 ExpMin= 3.60D-02 ExpMax= 8.59D+03 ExpMxC= 1.30D+03 IAcc=3 IRadAn=         5 AccDes= 0.00D+00
 Harris functional with IExCor= 1009 and IRadAn=       5 diagonalized for initial guess.
 HarFok:  IExCor= 1009 AccDes= 0.00D+00 IRadAn=         5 IDoV= 1 UseB2=F ITyADJ=14
 ICtDFT=  3500011 ScaDFX=  1.000000  1.000000  1.000000  1.000000
 FoFCou: FMM=F IPFlag=           0 FMFlag=      100000 FMFlg1=           0
         NFxFlg=           0 DoJE=T BraDBF=F KetDBF=T FulRan=T
         wScrn=  0.000000 ICntrl=       500 IOpCl=  0 I1Cent=   200000004 NGrid=           0
         NMat0=    1 NMatS0=      1 NMatT0=    0 NMatD0=    1 NMtDS0=    0 NMtDT0=    0
 Petite list used in FoFCou.
 Harris En= -289.186630463816    
 Leave Link  401 at Mon Dec 30 16:44:45 2019, MaxMem= 10737418240 cpu:              10.7 elap:               0.5
 (Enter /apps/cent7/gaussian/g16-A.03/g16-haswell/g16/l502.exe)
 Integral symmetry usage will be decided dynamically.
 Closed shell SCF:
 Using DIIS extrapolation, IDIIS=  1040.
 NGot= 10737418240 LenX= 10737311970 LenY= 10737262245
 Requested convergence on RMS density matrix=1.00D-08 within 128 cycles.
 Requested convergence on MAX density matrix=1.00D-06.
 Requested convergence on             energy=1.00D-06.
 No special actions if energy rises.
 Fock matrices will be formed incrementally for  20 cycles.

 Cycle   1  Pass 1  IDiag  1:
 FoFJK:  IHMeth= 1 ICntrl=       0 DoSepK=F KAlg= 0 I1Cent=           0 FoldK=F
 IRaf= 990000000 NMat=       1 IRICut=       1 DoRegI=T DoRafI=F ISym2E= 0 IDoP0=0 IntGTp=1.
 FoFCou: FMM=F IPFlag=           0 FMFlag=      100000 FMFlg1=           0
         NFxFlg=           0 DoJE=F BraDBF=F KetDBF=F FulRan=T
         wScrn=  0.000000 ICntrl=         0 IOpCl=  0 I1Cent=           0 NGrid=           0
         NMat0=    1 NMatS0=      1 NMatT0=    0 NMatD0=    1 NMtDS0=    0 NMtDT0=    0
 Symmetry not used in FoFCou.
 E= -289.185443576166    
 DIIS: error= 3.01D-03 at cycle   1 NSaved=   1.
 NSaved= 1 IEnMin= 1 EnMin= -289.185443576166     IErMin= 1 ErrMin= 3.01D-03
 ErrMax= 3.01D-03  0.00D+00 EMaxC= 1.00D-01 BMatC= 5.59D-03 BMatP= 5.59D-03
 IDIUse=3 WtCom= 9.70D-01 WtEn= 3.01D-02
 Coeff-Com:  0.100D+01
 Coeff-En:   0.100D+01
 Coeff:      0.100D+01
 Gap=     0.479 Goal=   None    Shift=    0.000
 GapD=    0.479 DampG=2.000 DampE=1.000 DampFc=2.0000 IDamp=-1.
 RMSDP=1.39D-03 MaxDP=6.38D-02              OVMax= 1.91D-02

 Cycle   2  Pass 1  IDiag  1:
 RMSU=  1.38D-03    CP:  1.00D+00
 E= -289.192137040132     Delta-E=       -0.006693463966 Rises=F Damp=F
 DIIS: error= 1.20D-03 at cycle   2 NSaved=   2.
 NSaved= 2 IEnMin= 2 EnMin= -289.192137040132     IErMin= 2 ErrMin= 1.20D-03
 ErrMax= 1.20D-03  0.00D+00 EMaxC= 1.00D-01 BMatC= 3.13D-04 BMatP= 5.59D-03
 IDIUse=3 WtCom= 9.88D-01 WtEn= 1.20D-02
 Coeff-Com: -0.505D-02 0.101D+01
 Coeff-En:   0.000D+00 0.100D+01
 Coeff:     -0.499D-02 0.100D+01
 Gap=     0.296 Goal=   None    Shift=    0.000
 RMSDP=2.55D-04 MaxDP=1.96D-02 DE=-6.69D-03 OVMax= 5.93D-03

 Cycle   3  Pass 1  IDiag  1:
 RMSU=  2.30D-04    CP:  1.01D+00  1.07D+00
 E= -289.192372684006     Delta-E=       -0.000235643874 Rises=F Damp=F
 DIIS: error= 9.69D-04 at cycle   3 NSaved=   3.
 NSaved= 3 IEnMin= 3 EnMin= -289.192372684006     IErMin= 3 ErrMin= 9.69D-04
 ErrMax= 9.69D-04  0.00D+00 EMaxC= 1.00D-01 BMatC= 2.51D-04 BMatP= 3.13D-04
 IDIUse=3 WtCom= 9.90D-01 WtEn= 9.69D-03
 Coeff-Com: -0.670D-01 0.495D+00 0.572D+00
 Coeff-En:   0.000D+00 0.587D-01 0.941D+00
 Coeff:     -0.663D-01 0.491D+00 0.576D+00
 Gap=     0.296 Goal=   None    Shift=    0.000
 RMSDP=9.64D-05 MaxDP=3.15D-03 DE=-2.36D-04 OVMax= 2.75D-03

 Cycle   4  Pass 1  IDiag  1:
 RMSU=  9.59D-05    CP:  1.01D+00  1.08D+00  9.98D-01
 E= -289.192549690390     Delta-E=       -0.000177006384 Rises=F Damp=F
 DIIS: error= 1.33D-04 at cycle   4 NSaved=   4.
 NSaved= 4 IEnMin= 4 EnMin= -289.192549690390     IErMin= 4 ErrMin= 1.33D-04
 ErrMax= 1.33D-04  0.00D+00 EMaxC= 1.00D-01 BMatC= 3.92D-06 BMatP= 2.51D-04
 IDIUse=3 WtCom= 9.99D-01 WtEn= 1.33D-03
 Coeff-Com: -0.100D-01 0.171D-01 0.998D-01 0.893D+00
 Coeff-En:   0.000D+00 0.000D+00 0.000D+00 0.100D+01
 Coeff:     -0.998D-02 0.171D-01 0.997D-01 0.893D+00
 Gap=     0.295 Goal=   None    Shift=    0.000
 RMSDP=2.37D-05 MaxDP=5.32D-04 DE=-1.77D-04 OVMax= 8.04D-04

 Cycle   5  Pass 1  IDiag  1:
 RMSU=  2.08D-05    CP:  1.01D+00  1.08D+00  1.05D+00  9.79D-01
 E= -289.192554182685     Delta-E=       -0.000004492295 Rises=F Damp=F
 DIIS: error= 4.67D-05 at cycle   5 NSaved=   5.
 NSaved= 5 IEnMin= 5 EnMin= -289.192554182685     IErMin= 5 ErrMin= 4.67D-05
 ErrMax= 4.67D-05  0.00D+00 EMaxC= 1.00D-01 BMatC= 9.39D-07 BMatP= 3.92D-06
 IDIUse=1 WtCom= 1.00D+00 WtEn= 0.00D+00
 Coeff-Com:  0.230D-02-0.422D-01-0.203D-01 0.362D+00 0.698D+00
 Coeff:      0.230D-02-0.422D-01-0.203D-01 0.362D+00 0.698D+00
 Gap=     0.296 Goal=   None    Shift=    0.000
 RMSDP=1.08D-05 MaxDP=4.81D-04 DE=-4.49D-06 OVMax= 3.46D-04

 Cycle   6  Pass 1  IDiag  1:
 RMSU=  6.68D-06    CP:  1.01D+00  1.08D+00  1.07D+00  1.03D+00  9.16D-01
 E= -289.192555051140     Delta-E=       -0.000000868455 Rises=F Damp=F
 DIIS: error= 1.46D-05 at cycle   6 NSaved=   6.
 NSaved= 6 IEnMin= 6 EnMin= -289.192555051140     IErMin= 6 ErrMin= 1.46D-05
 ErrMax= 1.46D-05  0.00D+00 EMaxC= 1.00D-01 BMatC= 7.28D-08 BMatP= 9.39D-07
 IDIUse=1 WtCom= 1.00D+00 WtEn= 0.00D+00
 Coeff-Com:  0.182D-02-0.169D-01-0.177D-01 0.548D-01 0.245D+00 0.733D+00
 Coeff:      0.182D-02-0.169D-01-0.177D-01 0.548D-01 0.245D+00 0.733D+00
 Gap=     0.296 Goal=   None    Shift=    0.000
 RMSDP=5.55D-06 MaxDP=5.14D-04 DE=-8.68D-07 OVMax= 1.45D-04

 Cycle   7  Pass 1  IDiag  1:
 RMSU=  4.36D-06    CP:  1.01D+00  1.08D+00  1.08D+00  1.04D+00  9.23D-01
                    CP:  1.08D+00
 E= -289.192555137600     Delta-E=       -0.000000086460 Rises=F Damp=F
 DIIS: error= 5.78D-06 at cycle   7 NSaved=   7.
 NSaved= 7 IEnMin= 7 EnMin= -289.192555137600     IErMin= 7 ErrMin= 5.78D-06
 ErrMax= 5.78D-06  0.00D+00 EMaxC= 1.00D-01 BMatC= 6.40D-09 BMatP= 7.28D-08
 IDIUse=1 WtCom= 1.00D+00 WtEn= 0.00D+00
 Coeff-Com:  0.177D-03 0.581D-03-0.169D-02-0.220D-01-0.317D-01 0.140D+00
 Coeff-Com:  0.915D+00
 Coeff:      0.177D-03 0.581D-03-0.169D-02-0.220D-01-0.317D-01 0.140D+00
 Coeff:      0.915D+00
 Gap=     0.296 Goal=   None    Shift=    0.000
 RMSDP=1.91D-06 MaxDP=1.56D-04 DE=-8.65D-08 OVMax= 9.06D-05

 Cycle   8  Pass 1  IDiag  1:
 RMSU=  8.21D-07    CP:  1.01D+00  1.08D+00  1.09D+00  1.04D+00  9.48D-01
                    CP:  1.19D+00  1.24D+00
 E= -289.192555151187     Delta-E=       -0.000000013586 Rises=F Damp=F
 DIIS: error= 1.88D-06 at cycle   8 NSaved=   8.
 NSaved= 8 IEnMin= 8 EnMin= -289.192555151187     IErMin= 8 ErrMin= 1.88D-06
 ErrMax= 1.88D-06  0.00D+00 EMaxC= 1.00D-01 BMatC= 1.44D-09 BMatP= 6.40D-09
 IDIUse=1 WtCom= 1.00D+00 WtEn= 0.00D+00
 Coeff-Com: -0.194D-03 0.240D-02 0.212D-02-0.130D-01-0.469D-01-0.778D-01
 Coeff-Com:  0.312D+00 0.821D+00
 Coeff:     -0.194D-03 0.240D-02 0.212D-02-0.130D-01-0.469D-01-0.778D-01
 Coeff:      0.312D+00 0.821D+00
 Gap=     0.296 Goal=   None    Shift=    0.000
 RMSDP=8.02D-07 MaxDP=5.54D-05 DE=-1.36D-08 OVMax= 3.97D-05

 Cycle   9  Pass 1  IDiag  1:
 RMSU=  3.66D-07    CP:  1.01D+00  1.08D+00  1.09D+00  1.05D+00  9.52D-01
                    CP:  1.21D+00  1.38D+00  1.12D+00
 E= -289.192555153883     Delta-E=       -0.000000002697 Rises=F Damp=F
 DIIS: error= 5.15D-07 at cycle   9 NSaved=   9.
 NSaved= 9 IEnMin= 9 EnMin= -289.192555153883     IErMin= 9 ErrMin= 5.15D-07
 ErrMax= 5.15D-07  0.00D+00 EMaxC= 1.00D-01 BMatC= 1.14D-10 BMatP= 1.44D-09
 IDIUse=1 WtCom= 1.00D+00 WtEn= 0.00D+00
 Coeff-Com: -0.445D-04 0.220D-03 0.682D-03 0.110D-02-0.445D-02-0.415D-01
 Coeff-Com: -0.538D-01 0.166D+00 0.932D+00
 Coeff:     -0.445D-04 0.220D-03 0.682D-03 0.110D-02-0.445D-02-0.415D-01
 Coeff:     -0.538D-01 0.166D+00 0.932D+00
 Gap=     0.296 Goal=   None    Shift=    0.000
 RMSDP=3.67D-07 MaxDP=3.26D-05 DE=-2.70D-09 OVMax= 1.52D-05

 Cycle  10  Pass 1  IDiag  1:
 RMSU=  6.47D-08    CP:  1.01D+00  1.08D+00  1.09D+00  1.05D+00  9.52D-01
                    CP:  1.22D+00  1.44D+00  1.26D+00  1.21D+00
 E= -289.192555154145     Delta-E=       -0.000000000261 Rises=F Damp=F
 DIIS: error= 9.72D-08 at cycle  10 NSaved=  10.
 NSaved=10 IEnMin=10 EnMin= -289.192555154145     IErMin=10 ErrMin= 9.72D-08
 ErrMax= 9.72D-08  0.00D+00 EMaxC= 1.00D-01 BMatC= 6.32D-12 BMatP= 1.14D-10
 IDIUse=1 WtCom= 1.00D+00 WtEn= 0.00D+00
 Coeff-Com:  0.910D-05-0.185D-03-0.258D-04 0.165D-02 0.360D-02-0.239D-02
 Coeff-Com: -0.383D-01-0.420D-01 0.149D+00 0.928D+00
 Coeff:      0.910D-05-0.185D-03-0.258D-04 0.165D-02 0.360D-02-0.239D-02
 Coeff:     -0.383D-01-0.420D-01 0.149D+00 0.928D+00
 Gap=     0.296 Goal=   None    Shift=    0.000
 RMSDP=9.86D-08 MaxDP=9.58D-06 DE=-2.61D-10 OVMax= 3.47D-06

 Cycle  11  Pass 1  IDiag  1:
 RMSU=  2.44D-08    CP:  1.01D+00  1.08D+00  1.09D+00  1.05D+00  9.53D-01
                    CP:  1.22D+00  1.46D+00  1.31D+00  1.27D+00  1.10D+00
 E= -289.192555154158     Delta-E=       -0.000000000013 Rises=F Damp=F
 DIIS: error= 3.70D-08 at cycle  11 NSaved=  11.
 NSaved=11 IEnMin=11 EnMin= -289.192555154158     IErMin=11 ErrMin= 3.70D-08
 ErrMax= 3.70D-08  0.00D+00 EMaxC= 1.00D-01 BMatC= 4.77D-13 BMatP= 6.32D-12
 IDIUse=1 WtCom= 1.00D+00 WtEn= 0.00D+00
 Coeff-Com:  0.428D-05-0.561D-04-0.401D-04 0.392D-03 0.106D-02 0.133D-02
 Coeff-Com: -0.559D-02-0.174D-01-0.939D-02 0.230D+00 0.799D+00
 Coeff:      0.428D-05-0.561D-04-0.401D-04 0.392D-03 0.106D-02 0.133D-02
 Coeff:     -0.559D-02-0.174D-01-0.939D-02 0.230D+00 0.799D+00
 Gap=     0.296 Goal=   None    Shift=    0.000
 RMSDP=1.18D-08 MaxDP=4.05D-07 DE=-1.33D-11 OVMax= 4.54D-07

 Cycle  12  Pass 1  IDiag  1:
 RMSU=  7.75D-09    CP:  1.01D+00  1.08D+00  1.09D+00  1.05D+00  9.53D-01
                    CP:  1.22D+00  1.46D+00  1.31D+00  1.28D+00  1.16D+00
                    CP:  1.04D+00
 E= -289.192555154158     Delta-E=        0.000000000000 Rises=F Damp=F
 DIIS: error= 1.68D-08 at cycle  12 NSaved=  12.
 NSaved=12 IEnMin=11 EnMin= -289.192555154158     IErMin=12 ErrMin= 1.68D-08
 ErrMax= 1.68D-08  0.00D+00 EMaxC= 1.00D-01 BMatC= 7.89D-14 BMatP= 4.77D-13
 IDIUse=1 WtCom= 1.00D+00 WtEn= 0.00D+00
 Coeff-Com:  0.302D-06 0.249D-05-0.995D-05-0.571D-04-0.975D-04 0.588D-03
 Coeff-Com:  0.259D-02-0.479D-03-0.198D-01-0.361D-01 0.272D+00 0.782D+00
 Coeff:      0.302D-06 0.249D-05-0.995D-05-0.571D-04-0.975D-04 0.588D-03
 Coeff:      0.259D-02-0.479D-03-0.198D-01-0.361D-01 0.272D+00 0.782D+00
 Gap=     0.296 Goal=   None    Shift=    0.000
 RMSDP=4.14D-09 MaxDP=2.11D-07 DE= 0.00D+00 OVMax= 1.79D-07

 SCF Done:  E(RM062X) =  -289.192555154     A.U. after   12 cycles
[...]
 .0597116,0.0278685,0.3938693,0.0449597,0.0072284,0.0069426,0.0297339,0
 .0644925,-0.0548823,0.0420397,-0.0544066,-0.0156937,0.035114,0.007659,
 -0.0120972,0.040071,0.0468093,0.0735672,-0.0467372,0.0746348,-0.035156
 ,0.0697897,0.0076417,0.0004048,-0.0272585,-0.0339506,-0.0066998,0.0002
 123,-0.0042296,0.0952184,0.0777091,-0.0239731,-0.0304619,-0.0309099,0.
 0142312,-0.0063826,-0.0219213,-0.0043979,0.068401,-0.0862833,-0.006443
 6,-0.0078615,-0.0293371,0.091319,0.0104424,0.0305666,0.0184673,0.05303
 95,0.0601513,0.0416478,0.0339402,0.0372017,0.064563,-0.0598895,0.01330
 25,-0.032607,0.0092251,0.4003425,-0.0930627,0.0277558,-0.0509629,0.599
 8125,-0.0057042,0.0021599,0.0854205,0.2656864\Polar=57.1437113,-0.2215
 789,62.6773334,0.0529564,-4.6661046,60.222181\Quadrupole=-4.0350747,6.
 6835959,-2.6485212,2.2556375,-1.2480228,-6.1184056\PG=C01 [X(C4H12N1O1
 )]\NImag=0\\0.57176316,0.01919461,0.56102020,0.03547018,-0.03183449,0.
 51456090,-0.10279602,0.01514156,0.03692117,0.54231940,0.01814885,-0.08
 871335,-0.03802783,-0.00716082,0.43093122,0.04060766,-0.03089346,-0.15
 841353,0.01075258,0.01771393,0.52500390,0.00409216,0.00914806,0.001175
 07,-0.09180412,-0.04206716,-0.02673679,0.59477640,-0.00625145,-0.04277
 207,-0.00441465,-0.02194970,-0.12707551,-0.08052400,0.05502792,0.30458
 263,-0.01207967,-0.03392560,-0.00092827,-0.00664087,-0.01828743,-0.066
 47658,0.03575989,0.02440913,0.20847240,-0.00020371,0.00048655,-0.00091
 144,0.00200556,0.00511436,0.00358104,-0.07216263,0.00091527,0.01448982
 ,0.29544287,-0.00139577,0.00205048,-0.00092528,0.01921489,-0.02649292,
 0.05257783,0.02977281,-0.05727044,-0.01650964,-0.15374506,0.63719477,0
 .00266676,-0.00473816,0.00050472,-0.00234765,0.01139837,-0.01825885,-0
 .05165883,0.00319093,-0.07691323,-0.23167164,0.08761704,0.47528488,-0.
 01818693,0.00365469,0.00514057,-0.19897536,0.00182921,0.00089084,-0.01
 784120,-0.01226456,-0.00087251,-0.00148336,0.00042535,-0.00101551,0.48
 677289,0.01492757,0.00293678,0.00026991,0.01085918,-0.07467742,0.00015
 898,-0.04584304,-0.01358804,-0.00494599,-0.00102161,0.00182726,0.00013
 397,-0.00483021,0.59437623,0.03136336,0.00023370,-0.00134805,0.0011869
 8,-0.00283533,-0.08093606,-0.00426068,0.00327146,0.00033536,0.00025965
 ,-0.00135249,0.00071178,-0.00015942,0.00626738,0.59778714,0.00427239,-
 0.00548464,0.00987003,-0.09201818,0.01399611,-0.03174579,0.00182757,0.
 00888969,-0.00213738,0.00146088,-0.01059638,0.00914342,-0.01857847,0.0
 1817256,-0.03030994,0.57376239,-0.00494984,0.00874295,-0.01056186,0.01
 539941,-0.08995866,0.03482089,0.01060136,-0.01832441,0.02316015,0.0009
 1459,-0.01633542,0.00980570,0.00327686,0.00089803,0.00011268,0.0155298
 3,0.56398397,-0.00942558,0.01198808,-0.03281814,-0.03163614,0.02684650
 ,-0.14735356,0.00022928,0.02573669,-0.01147221,0.00128026,-0.00881008,
 0.01010516,-0.00613312,0.00115680,-0.00264218,-0.03991273,0.04805853,0
 .50591906,-0.05751916,-0.06024109,0.00029481,0.00182112,0.01210409,-0.
 00113978,0.00020897,0.00259857,0.00213613,0.00003341,0.00002940,0.0000
 7792,0.00022296,0.00007717,-0.00033241,0.00017454,-0.00000136,-0.00063
 332,0.06033675,-0.05893227,-0.31128347,-0.00496801,-0.00317035,-0.0121
 9812,0.00021301,0.00117574,-0.00129007,-0.00177159,-0.00015492,0.00056
 535,-0.00030669,-0.00047883,0.00011358,0.00053724,-0.00024918,0.000678
 61,0.00122197,0.06345513,0.33404332,0.00105277,-0.00231338,-0.04411050
 ,-0.00759299,-0.02574298,0.00000303,0.00197164,-0.00623531,-0.00724184
 ,-0.00043255,0.00149011,0.00113597,-0.00062436,0.00037526,0.00053295,-
 0.00047149,-0.00041203,0.00148953,-0.00090123,0.00541629,0.04991066,-0
 .09118300,0.04302335,-0.08698177,0.00442892,-0.00717878,0.01090021,-0.
 00007034,-0.00072099,-0.00091626,-0.00012595,0.00118258,-0.00003238,0.
 00114517,-0.00064746,0.00050992,-0.00091279,0.00129547,0.00219060,0.00
 229973,-0.00270130,0.00626771,0.09271937,0.04121732,-0.08750104,0.0864
 4921,-0.00662560,0.00473145,-0.01248018,-0.00022870,0.00211744,-0.0000
 0372,-0.00015251,-0.00248714,0.00083819,-0.00075619,0.00030449,0.00029
 146,0.00088654,-0.00098690,-0.00156783,0.01384270,-0.01175381,0.027398
 34,-0.04649936,0.09610469,-0.08454105,0.08757427,-0.22843663,-0.010681
 51,0.01156998,-0.02045090,0.00011414,0.00306144,-0.00254526,-0.0004795
 7,0.00005932,0.00335751,-0.00151541,0.00044952,0.00088624,0.00265262,-
 0.00389329,-0.00383576,0.00004727,-0.00003435,-0.00012541,0.09346198,-
 0.09457517,0.24883896,-0.30952706,-0.02455021,0.00183629,-0.01316010,-
 0.00268206,-0.00112440,0.00193199,-0.00067357,-0.00062920,0.00014803,0
 .00046594,-0.00051085,0.00077578,0.00155399,0.00291478,0.00043381,0.00
 008974,-0.00074260,-0.00656639,0.00013049,-0.00021449,-0.00925157,-0.0
 0159158,0.00077624,0.33568317,-0.02323745,-0.04786378,0.00088295,0.014
 44704,-0.00165334,-0.00050297,0.00111601,0.00219912,0.00111766,0.00001
 741,-0.00001893,0.00018976,0.00076622,-0.00107207,-0.00246764,-0.00030
 796,-0.00026700,0.00067011,-0.03197539,-0.00095569,0.00017574,0.013445
 60,0.00033782,-0.00159637,0.02523660,0.04951987,-0.00015656,0.00002938
 ,-0.05014818,0.02764587,0.00438539,-0.00027722,-0.00019145,0.00189153,
 0.00172766,0.00013215,-0.00019567,-0.00015494,0.00096475,-0.00252935,-
 0.00463509,0.00114942,-0.00010539,0.00164187,-0.00034338,0.00025833,-0
 .00084501,-0.02588184,-0.00473333,0.00215628,-0.00322457,0.00194752,0.
 05066548,0.00234103,0.00213173,-0.00036315,-0.01293148,0.00356932,0.00
 469169,-0.41811051,-0.02249192,-0.02046664,0.00261177,-0.00106200,0.01
 119804,0.00143835,-0.00360551,0.00011068,0.00151801,-0.00010345,0.0009
 2923,-0.00000244,0.00027418,0.00049177,-0.00012793,-0.00016014,-0.0000
 4938,0.00005271,-0.00046860,-0.00065315,0.42261887,-0.00110029,0.00140
 938,0.00025474,-0.03669261,-0.00044865,-0.00101437,-0.00904388,-0.0468
 9803,0.01711963,0.02131760,-0.01017888,0.00472485,-0.00031698,-0.00727
 205,-0.00088477,-0.00148414,0.00164074,-0.00079451,0.00030660,0.000190
 03,0.00033739,0.00024922,-0.00004942,0.00000138,0.00113459,-0.00046123
 ,-0.00073578,0.02183507,0.05984334,-0.00213111,0.00117506,-0.00021836,
 -0.00490863,-0.00443732,-0.00012445,0.04274258,0.00760025,-0.03190483,
 -0.03980614,0.01599357,-0.02251332,-0.00021307,0.00101262,0.00056592,0
 .00182903,0.00048592,0.00120706,0.00045438,0.00011717,0.00005571,0.000
 01368,-0.00008473,-0.00014057,0.00068972,-0.00052114,0.00005054,0.0059
 0745,-0.02152188,0.05366317,0.00150632,-0.00110360,0.00131886,-0.00111
 547,-0.00152004,-0.00056291,0.00804452,-0.00833109,-0.00411521,-0.2039
 9479,0.06281628,0.23218306,0.00012138,-0.00001920,0.00030390,0.0006830
 7,0.00070594,0.00059697,-0.00067291,0.00015383,-0.00003274,0.00018992,
 -0.00009254,-0.00038667,-0.00111140,0.00052242,-0.00035214,0.00190961,
 0.00036076,-0.00371874,0.19911683,0.00086129,0.00200777,0.00136983,-0.
 00027810,0.00214673,0.00608034,-0.01298139,0.00694691,0.00057092,0.039
 58536,-0.07095841,-0.00747174,0.00015233,-0.00062863,-0.00045362,-0.00
 074537,-0.00194728,-0.00149569,-0.00000429,0.00036302,-0.00132436,-0.0
 0142469,-0.00157393,-0.00247998,0.00088539,-0.00060490,0.00017383,-0.0
 0075385,0.00155207,-0.00003566,-0.04867849,0.05677673,0.00094807,0.000
 87046,0.00061997,0.00083901,0.00176782,0.00129425,0.00686844,0.0042304
 2,-0.02053344,0.21389145,-0.03661304,-0.28704253,-0.00005204,-0.000553
 24,-0.00049751,-0.00012536,-0.00084043,-0.00053651,-0.00019757,0.00000
 795,-0.00018660,-0.00052026,-0.00072105,-0.00018111,0.00002460,-0.0000
 0871,-0.00000404,-0.00086459,-0.00107140,0.00109208,-0.22349113,0.0335
 3507,0.30535204,-0.00631853,-0.00123767,-0.00144681,-0.01344240,0.0152
 6771,0.02852130,0.00222850,0.00048438,0.00081945,0.00009001,-0.0000913
 9,-0.00028696,-0.08275285,0.04067052,0.07961927,0.00126371,-0.00013048
 ,0.00148273,0.00004282,0.00003658,-0.00018853,0.00002600,-0.00022226,-
 0.00002395,-0.00074043,0.00079579,0.00171317,0.00034195,0.00024349,-0.
 00039605,-0.00016762,0.00029197,0.00004033,0.09158450,-0.00028391,0.00
 042301,0.00036619,-0.00181155,-0.00178782,0.00172714,-0.00017033,0.001
 01867,0.00084690,0.00014103,-0.00031543,-0.00005985,0.04302547,-0.0957
 7587,-0.09643595,-0.00006635,-0.00021740,-0.00026428,-0.00017848,0.000
 32315,0.00019689,-0.00006272,-0.00004970,-0.00024972,-0.00000305,0.000
 54834,-0.00012617,0.00011161,0.00013297,-0.00008063,0.00005622,0.00005
 596,0.00008065,-0.04578312,0.09911892,-0.00035449,0.00032109,0.0007746
 1,-0.00062682,0.00114230,0.00026822,-0.00037529,0.00016591,0.00005139,
 0.00006959,0.00035860,-0.00012975,0.08298867,-0.09679249,-0.24034575,-
 0.00061090,0.00029958,0.00088070,-0.00010569,-0.00005211,-0.00005357,-
 0.00018321,-0.00001083,0.00034247,0.00003760,-0.00010281,0.00040632,-0
 .00003525,0.00011519,0.00021434,-0.00009562,-0.00015202,-0.00010154,-0
 .08926422,0.10516778,0.25601328,0.00142087,-0.00034586,-0.00153128,-0.
 01161327,0.01621942,-0.02704897,0.00092948,0.00284188,-0.00176552,0.00
 007882,-0.00150220,0.00180675,-0.08295070,0.04647865,-0.07581660,-0.00
 633531,-0.00130903,0.00104858,-0.00003648,-0.00002793,0.00008157,-0.00
 016358,0.00009209,0.00095348,0.00026558,-0.00030290,0.00017284,0.00011
 213,0.00015234,0.00003361,-0.00031423,-0.00030424,0.00015032,0.0043280
 7,-0.00728395,0.00912718,0.09115117,0.00009963,-0.00031056,0.00019264,
 -0.00198684,-0.00088880,-0.00250830,0.00065803,0.00056444,-0.00053615,
 -0.00127972,-0.00107631,0.00023327,0.04802416,-0.10871834,0.10399080,-
 0.00017713,0.00010905,-0.00014138,0.00009961,-0.00004326,0.00014600,0.
 00044088,0.00012557,-0.00030815,-0.00010184,0.00003061,-0.00022899,0.0
 0010381,0.00007835,0.00003483,-0.00009259,0.00011819,0.00015877,-0.006
 59950,0.00721937,-0.01133793,-0.05075988,0.11524044,0.00021316,-0.0005
 0568,0.00082208,0.00047823,-0.00193934,-0.00013853,-0.00069030,0.00073
 242,-0.00108405,0.00132305,0.00023535,0.00059114,-0.07775022,0.1045974
 8,-0.22258321,-0.00015704,-0.00036138,0.00074184,0.00004618,-0.0001257
 5,-0.00003385,0.00010459,0.00018050,0.00024523,-0.00009731,-0.00008507
 ,0.00008961,-0.00011761,-0.00008366,-0.00004531,0.00006508,0.00006142,
 0.00028665,-0.00979262,0.01377969,-0.01860274,0.08489467,-0.11497721,0
 .23765004,0.00110828,-0.00023592,-0.00026407,-0.00838757,-0.03116856,-
 0.00166219,-0.00841069,-0.00097231,-0.00142644,0.00046799,0.00041923,0
 .00017189,-0.07247681,-0.07773162,-0.00284548,0.00176523,-0.00089102,0
 .00075944,-0.00054854,0.00044691,0.00053954,-0.00008033,0.00008940,0.0
 0007372,0.00029538,0.00024090,-0.00024606,-0.00069770,-0.00212264,0.00
 035466,0.00004561,-0.00017922,-0.00008126,0.00365794,0.01206853,-0.000
 85079,0.00360998,0.01202794,0.00147424,0.08017814,0.00041665,0.0000181
 6,-0.00004212,0.00046005,-0.00064166,-0.00027520,0.00093602,0.00089892
 ,0.00067195,-0.00021928,0.00012704,-0.00031190,-0.08167867,-0.29838282
 ,-0.01161461,0.00051704,0.00037413,0.00009717,0.00016859,0.00041648,0.
 00002858,-0.00016801,-0.00007674,-0.00005491,-0.00001158,0.00025776,0.
 00003014,0.00007492,0.00041055,0.00016866,0.00007964,-0.00005798,-0.00
 013306,-0.00352079,-0.01072496,0.00083001,-0.00421783,-0.01324415,-0.0
 0141684,0.08706370,0.31995350,0.00007651,0.00002577,-0.00002783,-0.000
 11471,-0.00042267,-0.00223858,-0.00106993,0.00017980,-0.00059166,0.000
 58639,0.00012115,0.00047524,-0.00298426,-0.01139613,-0.04558912,0.0000
 1262,-0.00051466,-0.00006858,0.00058524,-0.00009402,0.00010817,0.00003
 110,0.00018662,-0.00005403,-0.00015733,-0.00003069,-0.00007740,-0.0001
 8150,-0.00000039,0.00042930,-0.00005350,0.00000127,0.00015164,-0.00969
 872,-0.02535259,0.00014725,0.00917964,0.02518105,0.00131168,0.00433865
 ,0.01211717,0.04615423,-0.00018435,-0.00019031,0.00046282,0.00238460,0
 .01325926,-0.00058640,-0.00225819,-0.00204020,0.00063686,0.00052818,0.
 00255710,-0.00274838,0.00058427,0.00064147,0.00021294,-0.06963850,-0.0
 8373430,0.00118870,0.00032459,-0.00013109,0.00019852,-0.00008414,0.000
 14978,0.00009113,-0.00002215,-0.00016762,0.00002453,0.00014805,0.00044
 353,-0.00032928,-0.00017561,0.00035850,-0.00012787,-0.00003807,0.00012
 846,0.00011966,0.00007914,-0.00011299,0.00022385,-0.00034368,0.0000240
 6,-0.00056679,0.07462662,-0.00013495,0.00052980,-0.00085931,-0.0038128
 0,-0.01491575,0.00030234,0.00192910,0.00060074,0.00143179,-0.00047697,
 -0.00077017,0.00083544,-0.00070856,0.00048687,-0.00093368,-0.08245404,
 -0.29744179,0.00191174,-0.00015084,0.00051757,0.00021146,0.00019369,0.
 00029369,-0.00011784,0.00012641,0.00001089,0.00004462,0.00003333,0.000
 14433,-0.00012193,0.00017922,-0.00033326,-0.00008361,0.00004622,-0.000
 13174,0.00010215,-0.00004636,0.00041827,-0.00003912,0.00056234,0.00035
 201,0.00017653,0.08822427,0.32004891,0.00047344,0.00021770,0.00119899,
 0.00855187,0.02905210,-0.00270003,-0.00161242,-0.00388463,-0.00252009,
 -0.00075006,0.00514433,-0.00246387,0.00106329,-0.00024502,0.00097721,0
 .00040532,-0.00028619,-0.04224382,-0.00003712,-0.00030585,-0.00081467,
 -0.00012604,-0.00032749,0.00042140,-0.00005175,-0.00000269,-0.00011738
 ,-0.00025314,-0.00032967,-0.00063833,-0.00014006,0.00043677,0.00032550
 ,-0.00011368,-0.00015340,-0.00003365,0.00032360,-0.00021883,-0.0000037
 4,-0.00055960,-0.00017794,0.00005599,0.00179808,-0.00356720,0.04895285
 ,0.00059333,-0.00013255,0.00088535,-0.01048665,-0.00034928,0.00040807,
 -0.00007962,-0.00120026,0.00079582,0.00053544,0.00015948,-0.00022007,0
 .00058059,0.00138686,-0.00233176,-0.31633977,-0.00183388,0.00014828,-0
 .00007709,0.00009687,-0.00010963,0.00031753,0.00007670,0.00000613,0.00
 054757,-0.00017389,-0.00050535,0.00010367,0.00123217,-0.00068628,-0.00
 009413,0.00006510,-0.00007455,0.00028468,-0.00013973,0.00005539,-0.000
 54371,-0.00007728,-0.00004926,0.00023139,-0.00000065,0.00015359,-0.009
 13276,0.00089394,0.00039968,0.34212650,-0.00014098,-0.00003295,-0.0009
 1382,0.01433800,-0.00274015,-0.00074900,0.00251993,0.00005522,0.001056
 56,-0.00054256,0.00072892,-0.00087892,0.00043956,-0.00126075,0.0020588
 3,-0.00146202,-0.04644511,0.00017862,-0.00022737,-0.00003611,0.0000166
 4,0.00001326,-0.00018659,-0.00006926,-0.00022834,0.00031073,-0.0000347
 2,0.00002678,-0.00074469,0.00070200,-0.00005740,0.00010543,0.00012007,
 -0.00023088,-0.00001192,0.00012656,0.00073852,0.00051626,0.00017650,0.
 00025268,0.00022229,0.00009852,-0.03117889,0.00184983,-0.00015211,0.00
 103655,0.04796104,-0.00114410,-0.00003923,0.00165346,-0.02707487,-0.00
 180121,-0.00008583,-0.00118167,-0.00063279,-0.00014312,0.00041992,-0.0
 0074959,0.00045045,-0.00085812,0.00284448,-0.00447747,0.00205595,0.000
 32336,-0.04999547,-0.00002337,-0.00017344,-0.00012129,0.00029493,-0.00
 001343,0.00020814,0.00044289,0.00017062,-0.00061069,0.00038205,0.00076
 123,0.00033732,-0.00003014,0.00006156,-0.00001565,-0.00019045,0.000203
 96,0.00007921,-0.00169732,0.00012291,0.00031872,0.00022914,0.00002019,
 -0.00007359,0.00043570,-0.00036666,-0.00091075,0.00170534,-0.00313031,
 0.05100186,-0.00077869,0.00121551,-0.00175292,0.00305735,-0.00802926,-
 0.00952648,0.00029487,0.00037543,0.00042984,-0.00009202,-0.00034774,0.
 00005219,0.00106358,-0.00070933,-0.00067231,-0.08303786,0.04539323,0.0
 7888306,-0.00015649,0.00020619,0.00006102,0.00079361,-0.00003601,-0.00
 068114,0.00030669,0.00004605,-0.00033736,-0.00016234,0.00032563,0.0004
 6263,-0.00004386,-0.00005912,-0.00003936,-0.00032872,0.00040652,-0.000
 21129,-0.00004229,0.00000747,0.00023611,-0.00008869,-0.00007855,-0.000
 07637,0.00309261,-0.00428485,-0.00943503,-0.00852229,0.01465487,0.0262
 2918,0.08457659,0.00113391,-0.00162830,0.00219916,-0.00635844,0.006296
 76,0.01342059,-0.00022058,-0.00064643,0.00261648,-0.00003187,0.0008593
 2,-0.00149354,-0.00087655,0.00010299,-0.00014186,0.04500530,-0.1044645
 7,-0.10493316,0.00009840,0.00020137,0.00020711,-0.00020784,0.00064194,
 0.00085647,0.00007277,-0.00012430,-0.00003873,-0.00017556,0.00004050,0
 .00004516,-0.00010573,0.00027289,0.00004430,0.00009485,0.00020984,-0.0
 0018516,-0.00011900,-0.00004923,0.00002591,0.00008012,-0.00001880,-0.0
 0016136,0.01172634,-0.01179634,-0.02531742,-0.00109125,-0.00023002,0.0
 0237220,-0.04906876,0.11041154,-0.00266401,0.00327228,-0.00310480,0.00
 906517,-0.01161098,-0.02132777,0.00121812,-0.00073996,-0.00188657,-0.0
 0064205,-0.00013448,0.00191236,0.00134068,-0.00054586,0.00078654,0.076
 84903,-0.10295159,-0.23213294,-0.00007477,0.00011687,0.00024370,0.0006
 6958,-0.00056380,-0.00115392,0.00006277,0.00008597,0.00012331,-0.00006
 701,-0.00000852,-0.00041999,0.00021927,-0.00052189,0.00008940,-0.00088
 242,0.00020232,0.00025647,-0.00002947,0.00023740,0.00034234,-0.0000798
 6,0.00008561,-0.00002766,-0.00070897,0.00089867,0.00141701,-0.00058819
 ,0.00151949,0.00225968,-0.08367902,0.11052045,0.25267597,-0.00040008,-
 0.00047421,-0.00012371,0.00071367,0.00064763,-0.00021970,-0.00359717,0
 .00576291,-0.00401811,-0.02534050,0.05169748,0.03319225,0.00054072,-0.
 00036000,0.00024712,-0.00030073,-0.00025308,-0.00025364,0.00011460,-0.
 00013004,-0.00009652,0.00007937,0.00001037,0.00018196,-0.00006161,-0.0
 0000022,0.00008914,-0.00116376,0.00315955,-0.00029843,-0.00392724,0.02
 320882,0.00281176,-0.00005953,-0.00015464,0.00031547,0.00002433,-0.000
 27375,-0.00040480,-0.00032593,0.00015470,-0.00006063,0.00010939,-0.000
 11917,0.00006362,-0.00004469,0.00004830,0.00000494,0.00006795,0.000043
 91,-0.00000885,0.03357122,0.00042707,0.00096699,0.00056273,-0.00001332
 ,-0.00191401,0.00193243,-0.00232990,-0.01111910,0.00297894,0.08913235,
 -0.45744907,-0.10370671,0.00031670,0.00032977,0.00035640,0.00003014,-0
 .00003895,0.00014073,-0.00000144,0.00014806,0.00002825,-0.00023290,0.0
 0000818,-0.00019333,0.00014631,-0.00019389,-0.00003261,0.00066028,0.00
 061070,-0.00053195,-0.00487362,0.00575871,-0.00079098,-0.00011541,-0.0
 0003540,0.00000418,-0.00030371,-0.00008989,-0.00025522,0.00004955,0.00
 011628,-0.00011537,0.00004262,0.00013613,0.00011754,0.00005109,-0.0000
 6144,0.00002615,-0.00001727,-0.00007914,0.00013803,-0.08296855,0.46290
 607,-0.00037535,-0.00145780,-0.00058044,-0.00381669,0.00122871,-0.0077
 8749,-0.00230181,0.02196136,0.01365434,0.03866015,-0.09830704,-0.08705
 271,-0.00021076,-0.00025831,0.00047127,0.00150320,0.00286002,0.0011139
 5,0.00014669,-0.00005700,0.00005302,0.00019748,-0.00026275,0.00046736,
 -0.00003239,0.00007776,0.00000887,-0.00065950,0.00313053,-0.00161029,-
 0.00170829,-0.02835604,-0.00011259,0.00008816,0.00015108,-0.00016725,0
 .00011693,-0.00004074,0.00009209,0.00007446,-0.00002290,-0.00008505,-0
 .00032508,0.00017461,-0.00090261,0.00000743,-0.00012566,0.00012501,0.0
 0005723,-0.00003661,-0.00005313,-0.03142186,0.09934079,0.08236567\\-0.
 00000655,-0.00000639,0.00000119,-0.00000566,0.00002689,0.00000817,-0.0
 0000801,-0.00003365,0.00002438,0.00000011,-0.00001353,-0.00000831,0.00
 000562,-0.00001188,-0.00000212,0.00001029,0.00000656,0.00000028,0.0000
 0334,-0.00000078,0.00000062,-0.00000096,-0.00000115,0.00000077,0.00000
 159,-0.00000147,-0.00000213,0.00000334,0.00000353,-0.00000388,0.000005
 61,0.00001456,-0.00002041,-0.00000289,0.00000239,-0.00000082,-0.000001
 12,0.00000023,0.00000102,-0.00000086,0.00000351,0.00000228,-0.00000415
 ,0.00000256,0.00000322,-0.00000198,0.00000185,-0.00000389,-0.00000065,
 -0.00000156,0.00000358,0.00000292,0.00000833,-0.00000395\\\@


 THE UNDERLYING PHYSICAL LAWS NECESSARY FOR THE 
 MATHEMATICAL THEORY OF A LARGE PART OF PHYSICS AND THE
 WHOLE OF CHEMISTRY ARE THUS COMPLETELY KNOWN, AND THE
 DIFFICULTY IS ONLY THAT THE EXACT APPLICATION OF THESE
 LAWS LEADS TO EQUATIONS MUCH TOO COMPLICATED 
 TO BE SOLUBLE.

                                        -- P. A. M. DIRAC, 1929
 Job cpu time:       0 days  0 hours 29 minutes 26.1 seconds.
 Elapsed time:       0 days  0 hours  1 minutes 14.3 seconds.
 File lengths (MBytes):  RWF=     78 Int=      0 D2E=      0 Chk=      5 Scr=      1
 Normal termination of Gaussian 16 at Mon Dec 30 16:48:47 2019.
real 255.78
user 5931.80
sys 23.22
Machine:
brown-a473
brown-a473
brown-a473
brown-a473
brown-a473
brown-a473
brown-a473
brown-a473
brown-a473
brown-a473
brown-a473
brown-a473
brown-a473
brown-a473
brown-a473
brown-a473
brown-a473
brown-a473
brown-a473
brown-a473
