 Entering Gaussian System, Link 0=g16
 Input=ammonia.com
 Output=ammonia.log
 Initial command:
 /apps/cent7/gaussian/g16-A.03/g16-haswell/g16/l1.exe "/scratch/brown/finej/0062_qm/train2/Gau-400982.inp" -scrdir="/scratch/brown/finej/0062_qm/train2/"
 Entering Link 1 = /apps/cent7/gaussian/g16-A.03/g16-haswell/g16/l1.exe PID=    400987.
  
 Copyright (c) 1988,1990,1992,1993,1995,1998,2003,2009,2016,
            Gaussian, Inc.  All Rights Reserved.
  
 This is part of the Gaussian(R) 16 program.  It is based on
 the Gaussian(R) 09 system (copyright 2009, Gaussian, Inc.),
 the Gaussian(R) 03 system (copyright 2003, Gaussian, Inc.),
 the Gaussian(R) 98 system (copyright 1998, Gaussian, Inc.),
 the Gaussian(R) 94 system (copyright 1995, Gaussian, Inc.),
 the Gaussian 92(TM) system (copyright 1992, Gaussian, Inc.),
 the Gaussian 90(TM) system (copyright 1990, Gaussian, Inc.),
 the Gaussian 88(TM) system (copyright 1988, Gaussian, Inc.),
 the Gaussian 86(TM) system (copyright 1986, Carnegie Mellon
 University), and the Gaussian 82(TM) system (copyright 1983,
 Carnegie Mellon University). Gaussian is a federally registered
 trademark of Gaussian, Inc.
  
 This software contains proprietary and confidential information,
 including trade secrets, belonging to Gaussian, Inc.
  
 This software is provided under written license and may be
 used, copied, transmitted, or stored only in accord with that
 written license.
  
 The following legend is applicable only to US Government
 contracts under FAR:
  
                    RESTRICTED RIGHTS LEGEND
  
 Use, reproduction and disclosure by the US Government is
 subject to restrictions as set forth in subparagraphs (a)
 and (c) of the Commercial Computer Software - Restricted
 Rights clause in FAR 52.227-19.
  
 Gaussian, Inc.
 340 Quinnipiac St., Bldg. 40, Wallingford CT 06492
  
  
 ---------------------------------------------------------------
 Warning -- This program may not be used in any manner that
 competes with the business of Gaussian, Inc. or will provide
 assistance to any competitor of Gaussian, Inc.  The licensee
 of this program is prohibited from giving any competitor of
 Gaussian, Inc. access to this program.  By using this program,
 the user acknowledges that Gaussian, Inc. is engaged in the
 business of creating and licensing software in the field of
 computational chemistry and represents and warrants to the
 licensee that it is not a competitor of Gaussian, Inc. and that
 it will not use this program in any manner prohibited above.
 ---------------------------------------------------------------
  

 Cite this work as:
 Gaussian 16, Revision A.03,
 M. J. Frisch, G. W. Trucks, H. B. Schlegel, G. E. Scuseria, 
 M. A. Robb, J. R. Cheeseman, G. Scalmani, V. Barone, 
 G. A. Petersson, H. Nakatsuji, X. Li, M. Caricato, A. V. Marenich, 
 J. Bloino, B. G. Janesko, R. Gomperts, B. Mennucci, H. P. Hratchian, 
 J. V. Ortiz, A. F. Izmaylov, J. L. Sonnenberg, D. Williams-Young, 
 F. Ding, F. Lipparini, F. Egidi, J. Goings, B. Peng, A. Petrone, 
 T. Henderson, D. Ranasinghe, V. G. Zakrzewski, J. Gao, N. Rega, 
 G. Zheng, W. Liang, M. Hada, M. Ehara, K. Toyota, R. Fukuda, 
 J. Hasegawa, M. Ishida, T. Nakajima, Y. Honda, O. Kitao, H. Nakai, 
 T. Vreven, K. Throssell, J. A. Montgomery, Jr., J. E. Peralta, 
 F. Ogliaro, M. J. Bearpark, J. J. Heyd, E. N. Brothers, K. N. Kudin, 
 V. N. Staroverov, T. A. Keith, R. Kobayashi, J. Normand, 
 K. Raghavachari, A. P. Rendell, J. C. Burant, S. S. Iyengar, 
 J. Tomasi, M. Cossi, J. M. Millam, M. Klene, C. Adamo, R. Cammi, 
 J. W. Ochterski, R. L. Martin, K. Morokuma, O. Farkas, 
 J. B. Foresman, and D. J. Fox, Gaussian, Inc., Wallingford CT, 2016.
 
 ******************************************
 Gaussian 16:  ES64L-G16RevA.03 25-Dec-2016
                13-Oct-2019 
 ******************************************
 %nprocshared=24
 Will use up to   24 processors via shared memory.
 %mem=10GB
 %chk=ammonia.chk
 -------------------------------------------------------------------
 #P opt freq m062x/6-311++g(d,p) geom=connectivity temperature=0.001
 -------------------------------------------------------------------
 1/18=20,19=15,26=3,38=1,57=2,112=-1000/1,3;
 2/9=110,12=2,17=6,18=5,40=1/2;
 3/5=4,6=6,7=1111,11=2,25=1,30=1,71=1,74=-55/1,2,3;
 4//1;
 5/5=2,38=5/2;
 6/7=2,8=2,9=2,10=2,28=1/1;
 7//1,2,3,16;
 1/18=20,19=15,26=3/3(2);
 2/9=110/2;
 99//99;
 2/9=110/2;
 3/5=4,6=6,7=1111,11=2,25=1,30=1,71=1,74=-55/1,2,3;
 4/5=5,16=3,69=1/1;
 5/5=2,38=5/2;
 7//1,2,3,16;
 1/18=20,19=15,26=3/3(-5);
 2/9=110/2;
 6/7=2,8=2,9=2,10=2,19=2,28=1/1;
 99/9=1/99;
 Leave Link    1 at Sun Oct 13 19:34:48 2019, MaxMem=  1342177280 cpu:               2.3 elap:               0.4
 (Enter /apps/cent7/gaussian/g16-A.03/g16-haswell/g16/l101.exe)
 -------------------
 Title Card Required
 -------------------
 Symbolic Z-matrix:
 Charge =  0 Multiplicity = 1
 N                     0.01212   1.03636   0. 
 H                     0.34544   0.09355   0. 
 H                     0.34546   1.50776   0.8165 
 H                     0.34546   1.50776  -0.8165 
 
 ITRead=  0  0  0  0
 MicOpt= -1 -1 -1 -1
 NAtoms=      4 NQM=        4 NQMF=       0 NMMI=      0 NMMIF=      0
                NMic=       0 NMicF=      0.
                    Isotopes and Nuclear Properties:
 (Nuclear quadrupole moments (NQMom) in fm**2, nuclear magnetic moments (NMagM)
  in nuclear magnetons)

  Atom         1           2           3           4
 IAtWgt=          14           1           1           1
 AtmWgt=  14.0030740   1.0078250   1.0078250   1.0078250
 NucSpn=           2           1           1           1
 AtZEff=  -0.0000000  -0.0000000  -0.0000000  -0.0000000
 NQMom=    2.0440000   0.0000000   0.0000000   0.0000000
 NMagM=    0.4037610   2.7928460   2.7928460   2.7928460
 AtZNuc=   7.0000000   1.0000000   1.0000000   1.0000000
 Leave Link  101 at Sun Oct 13 19:34:52 2019, MaxMem=  1342177280 cpu:              17.5 elap:               3.7
 (Enter /apps/cent7/gaussian/g16-A.03/g16-haswell/g16/l103.exe)

 GradGradGradGradGradGradGradGradGradGradGradGradGradGradGradGradGradGrad
 Berny optimization.
 Initialization pass.
                           ----------------------------
                           !    Initial Parameters    !
                           ! (Angstroms and Degrees)  !
 --------------------------                            --------------------------
 ! Name  Definition              Value          Derivative Info.                !
 --------------------------------------------------------------------------------
 ! R1    R(1,2)                  1.0            estimate D2E/DX2                !
 ! R2    R(1,3)                  1.0            estimate D2E/DX2                !
 ! R3    R(1,4)                  1.0            estimate D2E/DX2                !
 ! A1    A(2,1,3)              109.4712         estimate D2E/DX2                !
 ! A2    A(2,1,4)              109.4712         estimate D2E/DX2                !
 ! A3    A(3,1,4)              109.4713         estimate D2E/DX2                !
 ! D1    D(2,1,4,3)           -120.0            estimate D2E/DX2                !
 --------------------------------------------------------------------------------
 Trust Radius=3.00D-01 FncErr=1.00D-07 GrdErr=1.00D-06 EigMax=2.50D+02 EigMin=1.00D-04
 Number of steps in this run=     20 maximum allowed number of steps=    100.
 GradGradGradGradGradGradGradGradGradGradGradGradGradGradGradGradGradGrad

 Leave Link  103 at Sun Oct 13 19:34:52 2019, MaxMem=  1342177280 cpu:               0.4 elap:               0.0
 (Enter /apps/cent7/gaussian/g16-A.03/g16-haswell/g16/l202.exe)
                          Input orientation:                          
 ---------------------------------------------------------------------
 Center     Atomic      Atomic             Coordinates (Angstroms)
 Number     Number       Type             X           Y           Z
 ---------------------------------------------------------------------
      1          7           0        0.012121    1.036364    0.000000
      2          1           0        0.345443    0.093551    0.000000
      3          1           0        0.345460    1.507764    0.816497
      4          1           0        0.345460    1.507764   -0.816497
 ---------------------------------------------------------------------
                    Distance matrix (angstroms):
                    1          2          3          4
     1  N    0.000000
     2  H    1.000000   0.000000
     3  H    1.000000   1.632993   0.000000
     4  H    1.000000   1.632993   1.632993   0.000000
 Stoichiometry    H3N
 Framework group  C3V[C3(N),3SGV(H)]
 Deg. of freedom     2
 Full point group                 C3V     NOp   6
 Largest Abelian subgroup         CS      NOp   2
 Largest concise Abelian subgroup CS      NOp   2
                         Standard orientation:                         
 ---------------------------------------------------------------------
 Center     Atomic      Atomic             Coordinates (Angstroms)
 Number     Number       Type             X           Y           Z
 ---------------------------------------------------------------------
      1          7           0        0.000000    0.000000    0.100000
      2          1           0        0.000000    0.942809   -0.233333
      3          1           0       -0.816497   -0.471405   -0.233333
      4          1           0        0.816497   -0.471405   -0.233333
 ---------------------------------------------------------------------
 Rotational constants (GHZ):         311.9520310         311.9520310         188.0456786
 Leave Link  202 at Sun Oct 13 19:34:52 2019, MaxMem=  1342177280 cpu:               3.4 elap:               0.7
 (Enter /apps/cent7/gaussian/g16-A.03/g16-haswell/g16/l301.exe)
 Standard basis: 6-311++G(d,p) (5D, 7F)
 Ernie: Thresh=  0.10000D-02 Tol=  0.10000D-05 Strict=F.
 There are    30 symmetry adapted cartesian basis functions of A'  symmetry.
 There are    14 symmetry adapted cartesian basis functions of A"  symmetry.
 There are    29 symmetry adapted basis functions of A'  symmetry.
 There are    14 symmetry adapted basis functions of A"  symmetry.
    43 basis functions,    63 primitive gaussians,    44 cartesian basis functions
     5 alpha electrons        5 beta electrons
       nuclear repulsion energy        12.0848827635 Hartrees.
 IExCor= 4336 DFT=T Ex+Corr=M062X ExCW=0 ScaHFX=  0.540000
 ScaDFX=  1.000000  1.000000  1.000000  1.000000 ScalE2=  1.000000  1.000000
 IRadAn=      5 IRanWt=     -1 IRanGd=            0 ICorTp=0 IEmpDi=  4
 NAtoms=    4 NActive=    4 NUniq=    2 SFac= 4.00D+00 NAtFMM=   60 NAOKFM=F Big=F
 Integral buffers will be    131072 words long.
 Raffenetti 2 integral format.
 Two-electron integral symmetry is turned on.
 Leave Link  301 at Sun Oct 13 19:34:53 2019, MaxMem=  1342177280 cpu:               2.1 elap:               0.4
 (Enter /apps/cent7/gaussian/g16-A.03/g16-haswell/g16/l302.exe)
 NPDir=0 NMtPBC=     1 NCelOv=     1 NCel=       1 NClECP=     1 NCelD=      1
         NCelK=      1 NCelE2=     1 NClLst=     1 CellRange=     0.0.
 One-electron integrals computed using PRISM.
 One-electron integral symmetry used in STVInt
 NBasis=    43 RedAO= T EigKep=  2.72D-03  NBF=    29    14
 NBsUse=    43 1.00D-06 EigRej= -1.00D+00 NBFU=    29    14
 Precomputing XC quadrature grid using
 IXCGrd= 4 IRadAn=           5 IRanWt=          -1 IRanGd=           0 AccXCQ= 0.00D+00.
 Generated NRdTot=       0 NPtTot=           0 NUsed=           0 NTot=          32
 NSgBfM=    44    44    44    44    44 MxSgAt=     4 MxSgA2=     4.
 Leave Link  302 at Sun Oct 13 19:34:55 2019, MaxMem=  1342177280 cpu:              11.2 elap:               2.3
 (Enter /apps/cent7/gaussian/g16-A.03/g16-haswell/g16/l303.exe)
 DipDrv:  MaxL=1.
 Leave Link  303 at Sun Oct 13 19:34:56 2019, MaxMem=  1342177280 cpu:               2.8 elap:               0.6
 (Enter /apps/cent7/gaussian/g16-A.03/g16-haswell/g16/l401.exe)
 ExpMin= 3.60D-02 ExpMax= 6.29D+03 ExpMxC= 9.49D+02 IAcc=3 IRadAn=         5 AccDes= 0.00D+00
 Harris functional with IExCor= 1009 and IRadAn=       5 diagonalized for initial guess.
 HarFok:  IExCor= 1009 AccDes= 0.00D+00 IRadAn=         5 IDoV= 1 UseB2=F ITyADJ=14
 ICtDFT=  3500011 ScaDFX=  1.000000  1.000000  1.000000  1.000000
 FoFCou: FMM=F IPFlag=           0 FMFlag=      100000 FMFlg1=           0
         NFxFlg=           0 DoJE=T BraDBF=F KetDBF=T FulRan=T
         wScrn=  0.000000 ICntrl=       500 IOpCl=  0 I1Cent=   200000004 NGrid=           0
         NMat0=    1 NMatS0=      1 NMatT0=    0 NMatD0=    1 NMtDS0=    0 NMtDT0=    0
 Petite list used in FoFCou.
 Harris En= -56.5523656346551    
 JPrj=0 DoOrth=F DoCkMO=F.
 Initial guess orbital symmetries:
       Occupied  (A1) (A1) (E) (E) (A1)
       Virtual   (A1) (E) (E) (A1) (E) (E) (A1) (E) (E) (A1) (E)
                 (E) (A1) (A1) (E) (E) (A1) (E) (E) (A2) (A1) (E)
                 (E) (E) (E) (A1) (E) (E) (A1) (E) (E) (A1) (E)
                 (E) (A1) (E) (E) (A1)
 The electronic state of the initial guess is 1-A1.
 Leave Link  401 at Sun Oct 13 19:34:59 2019, MaxMem=  1342177280 cpu:              16.9 elap:               3.5
 (Enter /apps/cent7/gaussian/g16-A.03/g16-haswell/g16/l502.exe)
 Keep R1 ints in memory in symmetry-blocked form, NReq=21281180.
 FoFCou: FMM=F IPFlag=           0 FMFlag=           0 FMFlg1=           0
         NFxFlg=           0 DoJE=F BraDBF=F KetDBF=F FulRan=T
         wScrn=  0.000000 ICntrl=       600 IOpCl=  0 I1Cent=           0 NGrid=           0
         NMat0=    1 NMatS0=    946 NMatT0=    0 NMatD0=    1 NMtDS0=    0 NMtDT0=    0
 Petite list used in FoFCou.
 Closed shell SCF:
 Using DIIS extrapolation, IDIIS=  1040.
 NGot=  1342177280 LenX=  1341940482 LenY=  1341938105
 Requested convergence on RMS density matrix=1.00D-08 within 128 cycles.
 Requested convergence on MAX density matrix=1.00D-06.
 Requested convergence on             energy=1.00D-06.
 No special actions if energy rises.

 Cycle   1  Pass 1  IDiag  1:
 E= -56.4573112866546    
 DIIS: error= 6.63D-02 at cycle   1 NSaved=   1.
 NSaved= 1 IEnMin= 1 EnMin= -56.4573112866546     IErMin= 1 ErrMin= 6.63D-02
 ErrMax= 6.63D-02  0.00D+00 EMaxC= 1.00D-01 BMatC= 1.21D-01 BMatP= 1.21D-01
 IDIUse=3 WtCom= 3.37D-01 WtEn= 6.63D-01
 Coeff-Com:  0.100D+01
 Coeff-En:   0.100D+01
 Coeff:      0.100D+01
 Gap=     0.203 Goal=   None    Shift=    0.000
 GapD=    0.203 DampG=1.000 DampE=0.500 DampFc=0.5000 IDamp=-1.
 Damping current iteration by 5.00D-01
 RMSDP=9.22D-03 MaxDP=1.18D-01              OVMax= 2.15D-01

 Cycle   2  Pass 1  IDiag  1:
 E= -56.4981683668983     Delta-E=       -0.040857080244 Rises=F Damp=T
 DIIS: error= 1.22D-02 at cycle   2 NSaved=   2.
 NSaved= 2 IEnMin= 2 EnMin= -56.4981683668983     IErMin= 2 ErrMin= 1.22D-02
 ErrMax= 1.22D-02  0.00D+00 EMaxC= 1.00D-01 BMatC= 3.63D-03 BMatP= 1.21D-01
 IDIUse=3 WtCom= 8.78D-01 WtEn= 1.22D-01
 Coeff-Com:  0.202D-01 0.980D+00
 Coeff-En:   0.903D-01 0.910D+00
 Coeff:      0.288D-01 0.971D+00
 Gap=     0.327 Goal=   None    Shift=    0.000
 RMSDP=1.34D-03 MaxDP=1.72D-02 DE=-4.09D-02 OVMax= 1.22D-01

 Cycle   3  Pass 1  IDiag  1:
 E= -56.5453922679029     Delta-E=       -0.047223901005 Rises=F Damp=F
 DIIS: error= 2.43D-03 at cycle   3 NSaved=   3.
 NSaved= 3 IEnMin= 3 EnMin= -56.5453922679029     IErMin= 3 ErrMin= 2.43D-03
 ErrMax= 2.43D-03  0.00D+00 EMaxC= 1.00D-01 BMatC= 1.06D-04 BMatP= 3.63D-03
 IDIUse=3 WtCom= 9.76D-01 WtEn= 2.43D-02
 Coeff-Com: -0.260D-01 0.544D-01 0.972D+00
 Coeff-En:   0.000D+00 0.000D+00 0.100D+01
 Coeff:     -0.254D-01 0.531D-01 0.972D+00
 Gap=     0.330 Goal=   None    Shift=    0.000
 RMSDP=2.08D-04 MaxDP=2.16D-03 DE=-4.72D-02 OVMax= 3.47D-03

 Cycle   4  Pass 1  IDiag  1:
 E= -56.5454960228501     Delta-E=       -0.000103754947 Rises=F Damp=F
 DIIS: error= 2.15D-04 at cycle   4 NSaved=   4.
 NSaved= 4 IEnMin= 4 EnMin= -56.5454960228501     IErMin= 4 ErrMin= 2.15D-04
 ErrMax= 2.15D-04  0.00D+00 EMaxC= 1.00D-01 BMatC= 1.84D-06 BMatP= 1.06D-04
 IDIUse=3 WtCom= 9.98D-01 WtEn= 2.15D-03
 Coeff-Com:  0.348D-02-0.727D-02-0.149D-01 0.102D+01
 Coeff-En:   0.000D+00 0.000D+00 0.000D+00 0.100D+01
 Coeff:      0.347D-02-0.726D-02-0.149D-01 0.102D+01
 Gap=     0.330 Goal=   None    Shift=    0.000
 RMSDP=5.84D-05 MaxDP=6.97D-04 DE=-1.04D-04 OVMax= 7.68D-04

 Cycle   5  Pass 1  IDiag  1:
 E= -56.5454977250152     Delta-E=       -0.000001702165 Rises=F Damp=F
 DIIS: error= 3.93D-05 at cycle   5 NSaved=   5.
 NSaved= 5 IEnMin= 5 EnMin= -56.5454977250152     IErMin= 5 ErrMin= 3.93D-05
 ErrMax= 3.93D-05  0.00D+00 EMaxC= 1.00D-01 BMatC= 2.10D-08 BMatP= 1.84D-06
 IDIUse=1 WtCom= 1.00D+00 WtEn= 0.00D+00
 Coeff-Com:  0.760D-03-0.169D-02-0.198D-01 0.551D-01 0.966D+00
 Coeff:      0.760D-03-0.169D-02-0.198D-01 0.551D-01 0.966D+00
 Gap=     0.330 Goal=   None    Shift=    0.000
 RMSDP=1.95D-05 MaxDP=2.40D-04 DE=-1.70D-06 OVMax= 2.08D-04

 Cycle   6  Pass 1  IDiag  1:
 E= -56.5454977830572     Delta-E=       -0.000000058042 Rises=F Damp=F
 DIIS: error= 7.72D-06 at cycle   6 NSaved=   6.
 NSaved= 6 IEnMin= 6 EnMin= -56.5454977830572     IErMin= 6 ErrMin= 7.72D-06
 ErrMax= 7.72D-06  0.00D+00 EMaxC= 1.00D-01 BMatC= 2.35D-09 BMatP= 2.10D-08
 IDIUse=1 WtCom= 1.00D+00 WtEn= 0.00D+00
 Coeff-Com: -0.331D-03 0.525D-03 0.321D-02-0.570D-01-0.285D-01 0.108D+01
 Coeff:     -0.331D-03 0.525D-03 0.321D-02-0.570D-01-0.285D-01 0.108D+01
 Gap=     0.330 Goal=   None    Shift=    0.000
 RMSDP=4.16D-06 MaxDP=4.71D-05 DE=-5.80D-08 OVMax= 5.86D-05

 Cycle   7  Pass 1  IDiag  1:
 E= -56.5454977872010     Delta-E=       -0.000000004144 Rises=F Damp=F
 DIIS: error= 8.77D-07 at cycle   7 NSaved=   7.
 NSaved= 7 IEnMin= 7 EnMin= -56.5454977872010     IErMin= 7 ErrMin= 8.77D-07
 ErrMax= 8.77D-07  0.00D+00 EMaxC= 1.00D-01 BMatC= 1.47D-11 BMatP= 2.35D-09
 IDIUse=1 WtCom= 1.00D+00 WtEn= 0.00D+00
 Coeff-Com:  0.433D-04-0.465D-04-0.493D-03 0.640D-02-0.151D-02-0.178D+00
 Coeff-Com:  0.117D+01
 Coeff:      0.433D-04-0.465D-04-0.493D-03 0.640D-02-0.151D-02-0.178D+00
 Coeff:      0.117D+01
 Gap=     0.330 Goal=   None    Shift=    0.000
 RMSDP=5.85D-07 MaxDP=6.46D-06 DE=-4.14D-09 OVMax= 1.00D-05

 Cycle   8  Pass 1  IDiag  1:
 E= -56.5454977872718     Delta-E=       -0.000000000071 Rises=F Damp=F
 DIIS: error= 2.03D-07 at cycle   8 NSaved=   8.
 NSaved= 8 IEnMin= 8 EnMin= -56.5454977872718     IErMin= 8 ErrMin= 2.03D-07
 ErrMax= 2.03D-07  0.00D+00 EMaxC= 1.00D-01 BMatC= 7.32D-13 BMatP= 1.47D-11
 IDIUse=1 WtCom= 1.00D+00 WtEn= 0.00D+00
 Coeff-Com:  0.233D-05-0.701D-05 0.270D-04 0.272D-03 0.744D-03-0.550D-02
 Coeff-Com: -0.843D-01 0.109D+01
 Coeff:      0.233D-05-0.701D-05 0.270D-04 0.272D-03 0.744D-03-0.550D-02
 Coeff:     -0.843D-01 0.109D+01
 Gap=     0.330 Goal=   None    Shift=    0.000
 RMSDP=5.21D-08 MaxDP=4.54D-07 DE=-7.08D-11 OVMax= 1.28D-06

 Cycle   9  Pass 1  IDiag  1:
 E= -56.5454977872736     Delta-E=       -0.000000000002 Rises=F Damp=F
 DIIS: error= 2.60D-08 at cycle   9 NSaved=   9.
 NSaved= 9 IEnMin= 9 EnMin= -56.5454977872736     IErMin= 9 ErrMin= 2.60D-08
 ErrMax= 2.60D-08  0.00D+00 EMaxC= 1.00D-01 BMatC= 1.64D-14 BMatP= 7.32D-13
 IDIUse=1 WtCom= 1.00D+00 WtEn= 0.00D+00
 Coeff-Com: -0.792D-06 0.120D-05 0.125D-05-0.888D-04 0.548D-04 0.275D-02
 Coeff-Com: -0.640D-02-0.261D+00 0.127D+01
 Coeff:     -0.792D-06 0.120D-05 0.125D-05-0.888D-04 0.548D-04 0.275D-02
 Coeff:     -0.640D-02-0.261D+00 0.127D+01
 Gap=     0.330 Goal=   None    Shift=    0.000
 RMSDP=8.64D-09 MaxDP=5.82D-08 DE=-1.78D-12 OVMax= 2.91D-07

 SCF Done:  E(RM062X) =  -56.5454977873     A.U. after    9 cycles
            NFock=  9  Conv=0.86D-08     -V/T= 2.0027
 KE= 5.639250826110D+01 PE=-1.562833229165D+02 EE= 3.126043410464D+01
 Leave Link  502 at Sun Oct 13 19:35:15 2019, MaxMem=  1342177280 cpu:              75.3 elap:              15.6
 (Enter /apps/cent7/gaussian/g16-A.03/g16-haswell/g16/l601.exe)
 Copying SCF densities to generalized density rwf, IOpCl= 0 IROHF=0.

 **********************************************************************

            Population analysis using the SCF density.

 **********************************************************************

 Orbital symmetries:
       Occupied  (A1) (A1) (E) (E) (A1)
       Virtual   (A1) (E) (E) (A1) (E) (E) (A1) (E) (E) (A1) (E)
                 (E) (A1) (A1) (E) (E) (A1) (E) (E) (A2) (A1) (E)
                 (E) (E) (E) (A1) (E) (E) (A1) (E) (E) (A1) (E)
                 (E) (A1) (E) (E) (A1)
 The electronic state is 1-A1.
 Alpha  occ. eigenvalues --  -14.71815  -0.95924  -0.54124  -0.54124  -0.33227
 Alpha virt. eigenvalues --   -0.00190   0.03451   0.03451   0.12812   0.15662
 Alpha virt. eigenvalues --    0.15662   0.17844   0.23174   0.23174   0.24317
 Alpha virt. eigenvalues --    0.53620   0.53620   0.67162   0.82256   0.85635
 Alpha virt. eigenvalues --    0.85635   1.05631   1.17842   1.17842   1.56681
 Alpha virt. eigenvalues --    1.65750   1.72749   1.72749   2.00655   2.00655
 Alpha virt. eigenvalues --    2.28559   2.49439   2.49439   2.64648   2.72774
 Alpha virt. eigenvalues --    2.72774   2.93799   3.15324   3.15324   4.11091
 Alpha virt. eigenvalues --    4.86607   4.86607  35.75548
          Condensed to atoms (all electrons):
               1          2          3          4
     1  N    6.547238   0.387724   0.387724   0.387724
     2  H    0.387724   0.444630  -0.034578  -0.034578
     3  H    0.387724  -0.034578   0.444630  -0.034578
     4  H    0.387724  -0.034578  -0.034578   0.444630
 Mulliken charges:
               1
     1  N   -0.710410
     2  H    0.236803
     3  H    0.236803
     4  H    0.236803
 Sum of Mulliken charges =  -0.00000
 Mulliken charges with hydrogens summed into heavy atoms:
               1
     1  N   -0.000000
 Electronic spatial extent (au):  <R**2>=             26.7381
 Charge=             -0.0000 electrons
 Dipole moment (field-independent basis, Debye):
    X=             -0.0000    Y=              0.0000    Z=             -1.6157  Tot=              1.6157
 Quadrupole moment (field-independent basis, Debye-Ang):
   XX=             -6.1874   YY=             -6.1874   ZZ=             -9.6597
   XY=             -0.0000   XZ=              0.0000   YZ=             -0.0000
 Traceless Quadrupole moment (field-independent basis, Debye-Ang):
   XX=              1.1574   YY=              1.1574   ZZ=             -2.3149
   XY=             -0.0000   XZ=              0.0000   YZ=             -0.0000
 Octapole moment (field-independent basis, Debye-Ang**2):
  XXX=             -0.0000  YYY=              0.9428  ZZZ=             -1.5509  XYY=              0.0000
  XXY=             -0.9428  XXZ=             -0.8785  XZZ=              0.0000  YZZ=             -0.0000
  YYZ=             -0.8785  XYZ=              0.0000
 Hexadecapole moment (field-independent basis, Debye-Ang**3):
 XXXX=            -10.1581 YYYY=            -10.1581 ZZZZ=            -13.6816 XXXY=              0.0000
 XXXZ=              0.0000 YYYX=             -0.0000 YYYZ=             -0.3266 ZZZX=             -0.0000
 ZZZY=              0.0000 XXYY=             -3.3860 XXZZ=             -4.0938 YYZZ=             -4.0938
 XXYZ=              0.3266 YYXZ=             -0.0000 ZZXY=              0.0000
 N-N= 1.208488276353D+01 E-N=-1.562833229993D+02  KE= 5.639250826110D+01
 Symmetry A'   KE= 5.370458224825D+01
 Symmetry A"   KE= 2.687926012857D+00
 No NMR shielding tensors so no spin-rotation constants.
 Leave Link  601 at Sun Oct 13 19:35:17 2019, MaxMem=  1342177280 cpu:               8.7 elap:               1.8
 (Enter /apps/cent7/gaussian/g16-A.03/g16-haswell/g16/l701.exe)
 ... and contract with generalized density number  0.
 Compute integral first derivatives.
 Leave Link  701 at Sun Oct 13 19:35:19 2019, MaxMem=  1342177280 cpu:               9.6 elap:               2.0
 (Enter /apps/cent7/gaussian/g16-A.03/g16-haswell/g16/l702.exe)
 L702 exits ... SP integral derivatives will be done elsewhere.
 Leave Link  702 at Sun Oct 13 19:35:19 2019, MaxMem=  1342177280 cpu:               1.2 elap:               0.2
 (Enter /apps/cent7/gaussian/g16-A.03/g16-haswell/g16/l703.exe)
 Integral derivatives from FoFJK, PRISM(SPDF).
 Compute integral first derivatives, UseDBF=F ICtDFT=           0.
 Calling FoFJK, ICntrl=      2127 FMM=F ISym2X=1 I1Cent= 0 IOpClX= 0 NMat=1 NMatS=1 NMatT=0.
 FoFJK:  IHMeth= 1 ICntrl=    2127 DoSepK=F KAlg= 0 I1Cent=           0 FoldK=F
 IRaf=         0 NMat=       1 IRICut=       1 DoRegI=T DoRafI=F ISym2E= 1 IDoP0=0 IntGTp=1.
 FoFCou: FMM=F IPFlag=           0 FMFlag=      100000 FMFlg1=         800
         NFxFlg=           0 DoJE=F BraDBF=F KetDBF=F FulRan=T
         wScrn=  0.000000 ICntrl=      2127 IOpCl=  0 I1Cent=           0 NGrid=           0
         NMat0=    1 NMatS0=      1 NMatT0=    0 NMatD0=    1 NMtDS0=    0 NMtDT0=    0
 Petite list used in FoFCou.
 Leave Link  703 at Sun Oct 13 19:35:22 2019, MaxMem=  1342177280 cpu:              12.3 elap:               2.6
 (Enter /apps/cent7/gaussian/g16-A.03/g16-haswell/g16/l716.exe)
 Dipole        =-2.22044605D-16 4.44089210D-16-6.35656917D-01
 ***** Axes restored to original set *****
 -------------------------------------------------------------------
 Center     Atomic                   Forces (Hartrees/Bohr)
 Number     Number              X              Y              Z
 -------------------------------------------------------------------
      1        7          -0.013155413    0.000000159    0.000000000
      2        1           0.004385028   -0.009133558   -0.000000001
      3        1           0.004385193    0.004566699    0.007909848
      4        1           0.004385193    0.004566701   -0.007909847
 -------------------------------------------------------------------
 Cartesian Forces:  Max     0.013155413 RMS     0.006331245
 Leave Link  716 at Sun Oct 13 19:35:22 2019, MaxMem=  1342177280 cpu:               2.1 elap:               0.4
 (Enter /apps/cent7/gaussian/g16-A.03/g16-haswell/g16/l103.exe)

 GradGradGradGradGradGradGradGradGradGradGradGradGradGradGradGradGradGrad
 Berny optimization.
 FormGI is forming the generalized inverse of G from B-inverse, IUseBI=4.
 Internal  Forces:  Max     0.010072864 RMS     0.006647039
 Search for a local minimum.
 Step number   1 out of a maximum of   20
 All quantities printed in internal units (Hartrees-Bohrs-Radians)
 RMS Force = .66470D-02 SwitMx=.10000D-02 MixMth= 1
 Mixed Optimization -- RFO/linear search
 Second derivative matrix not updated -- first step.
 The second derivative matrix:
                          R1        R2        R3        A1        A2
           R1           0.47688
           R2           0.00000   0.47688
           R3           0.00000   0.00000   0.47688
           A1           0.00000   0.00000   0.00000   0.16000
           A2           0.00000   0.00000   0.00000   0.00000   0.16000
           A3           0.00000   0.00000   0.00000   0.00000   0.00000
           D1           0.00000   0.00000   0.00000   0.00000   0.00000
                          A3        D1
           A3           0.16000
           D1           0.00000   0.01028
 ITU=  0
     Eigenvalues ---    0.05635   0.16000   0.16000   0.47688   0.47688
     Eigenvalues ---    0.47688
 RFO step:  Lambda=-7.07129844D-04 EMin= 5.63503304D-02
 Linear search not attempted -- first point.
 Iteration  1 RMS(Cart)=  0.01220715 RMS(Int)=  0.00023305
 Iteration  2 RMS(Cart)=  0.00015539 RMS(Int)=  0.00012958
 Iteration  3 RMS(Cart)=  0.00000004 RMS(Int)=  0.00012958
 ITry= 1 IFail=0 DXMaxC= 2.05D-02 DCOld= 1.00D+10 DXMaxT= 3.00D-01 DXLimC= 3.00D+00 Rises=F
 ClnCor:  largest displacement from symmetrization is 5.11D-04 for atom     4.
 Variable       Old X    -DE/DX   Delta X   Delta X   Delta X     New X
                                 (Linear)    (Quad)   (Total)
    R1        1.88973   0.01007   0.00000   0.02109   0.02123   1.91096
    R2        1.88973   0.01007   0.00000   0.02109   0.02123   1.91096
    R3        1.88973   0.01007   0.00000   0.02109   0.02123   1.91096
    A1        1.91063  -0.00016   0.00000  -0.01054  -0.01140   1.89923
    A2        1.91063  -0.00111   0.00000  -0.01168  -0.01140   1.89923
    A3        1.91063  -0.00111   0.00000  -0.01168  -0.01140   1.89923
    D1       -2.09440   0.00155   0.00000   0.02720   0.02732  -2.06707
         Item               Value     Threshold  Converged?
 Maximum Force            0.010073     0.000450     NO 
 RMS     Force            0.006647     0.000300     NO 
 Maximum Displacement     0.020529     0.001800     NO 
 RMS     Displacement     0.012227     0.001200     NO 
 Predicted change in Energy=-3.536067D-04
 Lowest energy point so far.  Saving SCF results.
 GradGradGradGradGradGradGradGradGradGradGradGradGradGradGradGradGradGrad

 Leave Link  103 at Sun Oct 13 19:35:26 2019, MaxMem=  1342177280 cpu:              18.7 elap:               3.9
 (Enter /apps/cent7/gaussian/g16-A.03/g16-haswell/g16/l202.exe)
                          Input orientation:                          
 ---------------------------------------------------------------------
 Center     Atomic      Atomic             Coordinates (Angstroms)
 Number     Number       Type             X           Y           Z
 ---------------------------------------------------------------------
      1          7           0        0.001258    1.036364    0.000000
      2          1           0        0.349045    0.086814   -0.000000
      3          1           0        0.349062    1.511132    0.822330
      4          1           0        0.349062    1.511132   -0.822330
 ---------------------------------------------------------------------
                    Distance matrix (angstroms):
                    1          2          3          4
     1  N    0.000000
     2  H    1.011237   0.000000
     3  H    1.011237   1.644661   0.000000
     4  H    1.011237   1.644661   1.644661   0.000000
 Stoichiometry    H3N
 Framework group  C3V[C3(N),3SGV(H)]
 Deg. of freedom     2
 Full point group                 C3V     NOp   6
 RotChk:  IX=0 Diff= 4.01D-16
 Largest Abelian subgroup         CS      NOp   2
 Largest concise Abelian subgroup CS      NOp   2
                         Standard orientation:                         
 ---------------------------------------------------------------------
 Center     Atomic      Atomic             Coordinates (Angstroms)
 Number     Number       Type             X           Y           Z
 ---------------------------------------------------------------------
      1          7           0       -0.000000   -0.000000    0.104340
      2          1           0        0.000000    0.949545   -0.243459
      3          1           0       -0.822330   -0.474773   -0.243459
      4          1           0        0.822330   -0.474773   -0.243459
 ---------------------------------------------------------------------
 Rotational constants (GHZ):         303.7454335         303.7454335         185.3870593
 Leave Link  202 at Sun Oct 13 19:35:26 2019, MaxMem=  1342177280 cpu:               2.3 elap:               0.4
 (Enter /apps/cent7/gaussian/g16-A.03/g16-haswell/g16/l301.exe)
 Standard basis: 6-311++G(d,p) (5D, 7F)
 Ernie: Thresh=  0.10000D-02 Tol=  0.10000D-05 Strict=F.
 There are    30 symmetry adapted cartesian basis functions of A'  symmetry.
 There are    14 symmetry adapted cartesian basis functions of A"  symmetry.
 There are    29 symmetry adapted basis functions of A'  symmetry.
 There are    14 symmetry adapted basis functions of A"  symmetry.
    43 basis functions,    63 primitive gaussians,    44 cartesian basis functions
     5 alpha electrons        5 beta electrons
       nuclear repulsion energy        11.9544999899 Hartrees.
 IExCor= 4336 DFT=T Ex+Corr=M062X ExCW=0 ScaHFX=  0.540000
 ScaDFX=  1.000000  1.000000  1.000000  1.000000 ScalE2=  1.000000  1.000000
 IRadAn=      5 IRanWt=     -1 IRanGd=            0 ICorTp=0 IEmpDi=  4
 NAtoms=    4 NActive=    4 NUniq=    2 SFac= 4.00D+00 NAtFMM=   60 NAOKFM=F Big=F
 Integral buffers will be    131072 words long.
 Raffenetti 2 integral format.
 Two-electron integral symmetry is turned on.
 Leave Link  301 at Sun Oct 13 19:35:27 2019, MaxMem=  1342177280 cpu:               2.3 elap:               0.5
 (Enter /apps/cent7/gaussian/g16-A.03/g16-haswell/g16/l302.exe)
 NPDir=0 NMtPBC=     1 NCelOv=     1 NCel=       1 NClECP=     1 NCelD=      1
         NCelK=      1 NCelE2=     1 NClLst=     1 CellRange=     0.0.
 One-electron integrals computed using PRISM.
 One-electron integral symmetry used in STVInt
 NBasis=    43 RedAO= T EigKep=  2.72D-03  NBF=    29    14
 NBsUse=    43 1.00D-06 EigRej= -1.00D+00 NBFU=    29    14
 Precomputing XC quadrature grid using
 IXCGrd= 4 IRadAn=           5 IRanWt=          -1 IRanGd=           0 AccXCQ= 0.00D+00.
 Generated NRdTot=       0 NPtTot=           0 NUsed=           0 NTot=          32
 NSgBfM=    44    44    44    44    44 MxSgAt=     4 MxSgA2=     4.
 Leave Link  302 at Sun Oct 13 19:35:30 2019, MaxMem=  1342177280 cpu:              14.9 elap:               3.1
 (Enter /apps/cent7/gaussian/g16-A.03/g16-haswell/g16/l303.exe)
 DipDrv:  MaxL=1.
 Leave Link  303 at Sun Oct 13 19:35:31 2019, MaxMem=  1342177280 cpu:               3.1 elap:               0.7
 (Enter /apps/cent7/gaussian/g16-A.03/g16-haswell/g16/l401.exe)
 Initial guess from the checkpoint file:  "ammonia.chk"
 B after Tr=    -0.000000   -0.000000   -0.000000
         Rot=    1.000000   -0.000000   -0.000000   -0.000000 Ang=   0.00 deg.
 Guess basis will be translated and rotated to current coordinates.
 JPrj=2 DoOrth=T DoCkMO=T.
 Initial guess orbital symmetries:
       Occupied  (A1) (A1) (E) (E) (A1)
       Virtual   (A1) (E) (E) (A1) (E) (E) (A1) (E) (E) (A1) (E)
                 (E) (A1) (A1) (E) (E) (A1) (E) (E) (A2) (A1) (E)
                 (E) (E) (E) (A1) (E) (E) (A1) (E) (E) (A1) (E)
                 (E) (A1) (E) (E) (A1)
 The electronic state of the initial guess is 1-A1.
 Generating alternative initial guess.
 ExpMin= 3.60D-02 ExpMax= 6.29D+03 ExpMxC= 9.49D+02 IAcc=3 IRadAn=         5 AccDes= 0.00D+00
 Harris functional with IExCor= 1009 and IRadAn=       5 diagonalized for initial guess.
 HarFok:  IExCor= 1009 AccDes= 0.00D+00 IRadAn=         5 IDoV= 1 UseB2=F ITyADJ=14
 ICtDFT=  3500011 ScaDFX=  1.000000  1.000000  1.000000  1.000000
 FoFCou: FMM=F IPFlag=           0 FMFlag=      100000 FMFlg1=           0
         NFxFlg=           0 DoJE=T BraDBF=F KetDBF=T FulRan=T
         wScrn=  0.000000 ICntrl=       500 IOpCl=  0 I1Cent=   200000004 NGrid=           0
         NMat0=    1 NMatS0=      1 NMatT0=    0 NMatD0=    1 NMtDS0=    0 NMtDT0=    0
 Petite list used in FoFCou.
 Harris En= -56.5504974337353    
 Leave Link  401 at Sun Oct 13 19:35:35 2019, MaxMem=  1342177280 cpu:              21.9 elap:               4.5
 (Enter /apps/cent7/gaussian/g16-A.03/g16-haswell/g16/l502.exe)
 Keep R1 ints in memory in symmetry-blocked form, NReq=21281180.
 FoFCou: FMM=F IPFlag=           0 FMFlag=           0 FMFlg1=           0
         NFxFlg=           0 DoJE=F BraDBF=F KetDBF=F FulRan=T
         wScrn=  0.000000 ICntrl=       600 IOpCl=  0 I1Cent=           0 NGrid=           0
         NMat0=    1 NMatS0=    946 NMatT0=    0 NMatD0=    1 NMtDS0=    0 NMtDT0=    0
 Petite list used in FoFCou.
 Closed shell SCF:
 Using DIIS extrapolation, IDIIS=  1040.
 NGot=  1342177280 LenX=  1341940482 LenY=  1341938105
 Requested convergence on RMS density matrix=1.00D-08 within 128 cycles.
 Requested convergence on MAX density matrix=1.00D-06.
 Requested convergence on             energy=1.00D-06.
 No special actions if energy rises.

 Cycle   1  Pass 1  IDiag  1:
 E= -56.5457645282090    
 DIIS: error= 1.62D-03 at cycle   1 NSaved=   1.
 NSaved= 1 IEnMin= 1 EnMin= -56.5457645282090     IErMin= 1 ErrMin= 1.62D-03
 ErrMax= 1.62D-03  0.00D+00 EMaxC= 1.00D-01 BMatC= 1.35D-04 BMatP= 1.35D-04
 IDIUse=3 WtCom= 9.84D-01 WtEn= 1.62D-02
 Coeff-Com:  0.100D+01
 Coeff-En:   0.100D+01
 Coeff:      0.100D+01
 Gap=     0.328 Goal=   None    Shift=    0.000
 GapD=    0.328 DampG=1.000 DampE=1.000 DampFc=1.0000 IDamp=-1.
 RMSDP=3.19D-04 MaxDP=4.05D-03              OVMax= 5.57D-03

 Cycle   2  Pass 1  IDiag  1:
 E= -56.5458559227286     Delta-E=       -0.000091394520 Rises=F Damp=F
 DIIS: error= 1.39D-03 at cycle   2 NSaved=   2.
 NSaved= 2 IEnMin= 2 EnMin= -56.5458559227286     IErMin= 2 ErrMin= 1.39D-03
 ErrMax= 1.39D-03  0.00D+00 EMaxC= 1.00D-01 BMatC= 5.32D-05 BMatP= 1.35D-04
 IDIUse=3 WtCom= 9.86D-01 WtEn= 1.39D-02
 Coeff-Com:  0.339D+00 0.661D+00
 Coeff-En:   0.000D+00 0.100D+01
 Coeff:      0.334D+00 0.666D+00
 Gap=     0.332 Goal=   None    Shift=    0.000
 RMSDP=1.19D-04 MaxDP=2.27D-03 DE=-9.14D-05 OVMax= 2.92D-03

 Cycle   3  Pass 1  IDiag  1:
 E= -56.5458915040858     Delta-E=       -0.000035581357 Rises=F Damp=F
 DIIS: error= 5.98D-04 at cycle   3 NSaved=   3.
 NSaved= 3 IEnMin= 3 EnMin= -56.5458915040858     IErMin= 3 ErrMin= 5.98D-04
 ErrMax= 5.98D-04  0.00D+00 EMaxC= 1.00D-01 BMatC= 8.31D-06 BMatP= 5.32D-05
 IDIUse=3 WtCom= 9.94D-01 WtEn= 5.98D-03
 Coeff-Com: -0.437D-01 0.265D+00 0.779D+00
 Coeff-En:   0.000D+00 0.537D-01 0.946D+00
 Coeff:     -0.434D-01 0.263D+00 0.780D+00
 Gap=     0.331 Goal=   None    Shift=    0.000
 RMSDP=3.95D-05 MaxDP=4.84D-04 DE=-3.56D-05 OVMax= 1.02D-03

 Cycle   4  Pass 1  IDiag  1:
 E= -56.5458985704553     Delta-E=       -0.000007066370 Rises=F Damp=F
 DIIS: error= 4.01D-05 at cycle   4 NSaved=   4.
 NSaved= 4 IEnMin= 4 EnMin= -56.5458985704553     IErMin= 4 ErrMin= 4.01D-05
 ErrMax= 4.01D-05  0.00D+00 EMaxC= 1.00D-01 BMatC= 2.66D-08 BMatP= 8.31D-06
 IDIUse=1 WtCom= 1.00D+00 WtEn= 0.00D+00
 Coeff-Com: -0.477D-02-0.168D-01-0.571D-02 0.103D+01
 Coeff:     -0.477D-02-0.168D-01-0.571D-02 0.103D+01
 Gap=     0.331 Goal=   None    Shift=    0.000
 RMSDP=1.77D-05 MaxDP=1.85D-04 DE=-7.07D-06 OVMax= 2.68D-04

 Cycle   5  Pass 1  IDiag  1:
 E= -56.5458986564131     Delta-E=       -0.000000085958 Rises=F Damp=F
 DIIS: error= 8.96D-06 at cycle   5 NSaved=   5.
 NSaved= 5 IEnMin= 5 EnMin= -56.5458986564131     IErMin= 5 ErrMin= 8.96D-06
 ErrMax= 8.96D-06  0.00D+00 EMaxC= 1.00D-01 BMatC= 3.17D-09 BMatP= 2.66D-08
 IDIUse=1 WtCom= 1.00D+00 WtEn= 0.00D+00
 Coeff-Com:  0.175D-02-0.196D-01-0.501D-01 0.876D-01 0.980D+00
 Coeff:      0.175D-02-0.196D-01-0.501D-01 0.876D-01 0.980D+00
 Gap=     0.331 Goal=   None    Shift=    0.000
 RMSDP=4.44D-06 MaxDP=4.56D-05 DE=-8.60D-08 OVMax= 7.98D-05

 Cycle   6  Pass 1  IDiag  1:
 E= -56.5458986628843     Delta-E=       -0.000000006471 Rises=F Damp=F
 DIIS: error= 1.29D-06 at cycle   6 NSaved=   6.
 NSaved= 6 IEnMin= 6 EnMin= -56.5458986628843     IErMin= 6 ErrMin= 1.29D-06
 ErrMax= 1.29D-06  0.00D+00 EMaxC= 1.00D-01 BMatC= 4.04D-11 BMatP= 3.17D-09
 IDIUse=1 WtCom= 1.00D+00 WtEn= 0.00D+00
 Coeff-Com: -0.621D-04 0.246D-02 0.660D-02-0.293D-01-0.162D+00 0.118D+01
 Coeff:     -0.621D-04 0.246D-02 0.660D-02-0.293D-01-0.162D+00 0.118D+01
 Gap=     0.331 Goal=   None    Shift=    0.000
 RMSDP=1.18D-06 MaxDP=1.40D-05 DE=-6.47D-09 OVMax= 1.65D-05

 Cycle   7  Pass 1  IDiag  1:
 E= -56.5458986630768     Delta-E=       -0.000000000193 Rises=F Damp=F
 DIIS: error= 1.50D-07 at cycle   7 NSaved=   7.
 NSaved= 7 IEnMin= 7 EnMin= -56.5458986630768     IErMin= 7 ErrMin= 1.50D-07
 ErrMax= 1.50D-07  0.00D+00 EMaxC= 1.00D-01 BMatC= 5.26D-13 BMatP= 4.04D-11
 IDIUse=1 WtCom= 1.00D+00 WtEn= 0.00D+00
 Coeff-Com: -0.847D-05-0.157D-03-0.491D-03 0.317D-02 0.149D-01-0.221D+00
 Coeff-Com:  0.120D+01
 Coeff:     -0.847D-05-0.157D-03-0.491D-03 0.317D-02 0.149D-01-0.221D+00
 Coeff:      0.120D+01
 Gap=     0.331 Goal=   None    Shift=    0.000
 RMSDP=8.60D-08 MaxDP=8.93D-07 DE=-1.93D-10 OVMax= 2.05D-06

 Cycle   8  Pass 1  IDiag  1:
 E= -56.5458986630797     Delta-E=       -0.000000000003 Rises=F Damp=F
 DIIS: error= 2.27D-08 at cycle   8 NSaved=   8.
 NSaved= 8 IEnMin= 8 EnMin= -56.5458986630797     IErMin= 8 ErrMin= 2.27D-08
 ErrMax= 2.27D-08  0.00D+00 EMaxC= 1.00D-01 BMatC= 7.96D-15 BMatP= 5.26D-13
 IDIUse=1 WtCom= 1.00D+00 WtEn= 0.00D+00
 Coeff-Com:  0.279D-05-0.131D-04-0.234D-05-0.122D-03-0.154D-04 0.194D-01
 Coeff-Com: -0.192D+00 0.117D+01
 Coeff:      0.279D-05-0.131D-04-0.234D-05-0.122D-03-0.154D-04 0.194D-01
 Coeff:     -0.192D+00 0.117D+01
 Gap=     0.331 Goal=   None    Shift=    0.000
 RMSDP=1.13D-08 MaxDP=1.44D-07 DE=-2.86D-12 OVMax= 1.05D-07

 Cycle   9  Pass 1  IDiag  1:
 E= -56.5458986630797     Delta-E=       -0.000000000000 Rises=F Damp=F
 DIIS: error= 1.74D-09 at cycle   9 NSaved=   9.
 NSaved= 9 IEnMin= 9 EnMin= -56.5458986630797     IErMin= 9 ErrMin= 1.74D-09
 ErrMax= 1.74D-09  0.00D+00 EMaxC= 1.00D-01 BMatC= 4.07D-17 BMatP= 7.96D-15
 IDIUse=1 WtCom= 1.00D+00 WtEn= 0.00D+00
 Coeff-Com: -0.166D-06 0.275D-05 0.426D-05-0.141D-04-0.919D-04 0.386D-04
 Coeff-Com:  0.983D-02-0.131D+00 0.112D+01
 Coeff:     -0.166D-06 0.275D-05 0.426D-05-0.141D-04-0.919D-04 0.386D-04
 Coeff:      0.983D-02-0.131D+00 0.112D+01
 Gap=     0.331 Goal=   None    Shift=    0.000
 RMSDP=1.38D-09 MaxDP=1.83D-08 DE=-2.84D-14 OVMax= 1.51D-08

 SCF Done:  E(RM062X) =  -56.5458986631     A.U. after    9 cycles
            NFock=  9  Conv=0.14D-08     -V/T= 2.0036
 KE= 5.634096992606D+01 PE=-1.559942700016D+02 EE= 3.115290142260D+01
 Leave Link  502 at Sun Oct 13 19:35:52 2019, MaxMem=  1342177280 cpu:              77.8 elap:              16.3
 (Enter /apps/cent7/gaussian/g16-A.03/g16-haswell/g16/l701.exe)
 ... and contract with generalized density number  0.
 Compute integral first derivatives.
 Leave Link  701 at Sun Oct 13 19:35:53 2019, MaxMem=  1342177280 cpu:               9.0 elap:               1.9
 (Enter /apps/cent7/gaussian/g16-A.03/g16-haswell/g16/l702.exe)
 L702 exits ... SP integral derivatives will be done elsewhere.
 Leave Link  702 at Sun Oct 13 19:35:54 2019, MaxMem=  1342177280 cpu:               1.1 elap:               0.2
 (Enter /apps/cent7/gaussian/g16-A.03/g16-haswell/g16/l703.exe)
 Integral derivatives from FoFJK, PRISM(SPDF).
 Compute integral first derivatives, UseDBF=F ICtDFT=           0.
 Calling FoFJK, ICntrl=      2127 FMM=F ISym2X=1 I1Cent= 0 IOpClX= 0 NMat=1 NMatS=1 NMatT=0.
 FoFJK:  IHMeth= 1 ICntrl=    2127 DoSepK=F KAlg= 0 I1Cent=           0 FoldK=F
 IRaf=         0 NMat=       1 IRICut=       1 DoRegI=T DoRafI=F ISym2E= 1 IDoP0=0 IntGTp=1.
 FoFCou: FMM=F IPFlag=           0 FMFlag=      100000 FMFlg1=         800
         NFxFlg=           0 DoJE=F BraDBF=F KetDBF=F FulRan=T
         wScrn=  0.000000 ICntrl=      2127 IOpCl=  0 I1Cent=           0 NGrid=           0
         NMat0=    1 NMatS0=      1 NMatT0=    0 NMatD0=    1 NMtDS0=    0 NMtDT0=    0
 Petite list used in FoFCou.
 Leave Link  703 at Sun Oct 13 19:35:56 2019, MaxMem=  1342177280 cpu:              13.0 elap:               2.7
 (Enter /apps/cent7/gaussian/g16-A.03/g16-haswell/g16/l716.exe)
 Dipole        =-4.44089210D-16 2.22044605D-16-6.52263592D-01
 ***** Axes restored to original set *****
 -------------------------------------------------------------------
 Center     Atomic                   Forces (Hartrees/Bohr)
 Number     Number              X              Y              Z
 -------------------------------------------------------------------
      1        7          -0.003470945    0.000000042    0.000000000
      2        1           0.001156981   -0.000060053   -0.000000000
      3        1           0.001156982    0.000030006    0.000051995
      4        1           0.001156982    0.000030006   -0.000051995
 -------------------------------------------------------------------
 Cartesian Forces:  Max     0.003470945 RMS     0.001157371
 Leave Link  716 at Sun Oct 13 19:35:57 2019, MaxMem=  1342177280 cpu:               2.0 elap:               0.4
 (Enter /apps/cent7/gaussian/g16-A.03/g16-haswell/g16/l103.exe)

 GradGradGradGradGradGradGradGradGradGradGradGradGradGradGradGradGradGrad
 Berny optimization.
 Using GEDIIS/GDIIS optimizer.
 FormGI is forming the generalized inverse of G from B-inverse, IUseBI=4.
 Internal  Forces:  Max     0.001506487 RMS     0.000883613
 Search for a local minimum.
 Step number   2 out of a maximum of   20
 All quantities printed in internal units (Hartrees-Bohrs-Radians)
 RMS Force = .88361D-03 SwitMx=.10000D-02 MixMth= 2
 Mixed Optimization -- En-DIIS/RFO-DIIS
 Update second derivatives using D2CorX and points    1    2
 DE= -4.01D-04 DEPred=-3.54D-04 R= 1.13D+00
 TightC=F SS=  1.41D+00  RLast= 4.99D-02 DXNew= 5.0454D-01 1.4967D-01
 Trust test= 1.13D+00 RLast= 4.99D-02 DXMaxT set to 3.00D-01
 The second derivative matrix:
                          R1        R2        R3        A1        A2
           R1           0.48434
           R2           0.00746   0.48434
           R3           0.00746   0.00746   0.48434
           A1           0.02616   0.02616   0.02616   0.15535
           A2           0.02612   0.02612   0.02612  -0.00465   0.15535
           A3           0.02612   0.02612   0.02612  -0.00465  -0.00465
           D1          -0.00326  -0.00326  -0.00326   0.00072   0.00072
                          A3        D1
           A3           0.15535
           D1           0.00072   0.01018
 ITU=  1  0
 Use linear search instead of GDIIS.
     Eigenvalues ---    0.04844   0.15641   0.16000   0.47688   0.47688
     Eigenvalues ---    0.50616
 RFO step:  Lambda=-7.75671584D-05 EMin= 4.84420266D-02
 Quartic linear search produced a step of  0.16645.
 Iteration  1 RMS(Cart)=  0.00961059 RMS(Int)=  0.00027368
 Iteration  2 RMS(Cart)=  0.00015218 RMS(Int)=  0.00022094
 Iteration  3 RMS(Cart)=  0.00000001 RMS(Int)=  0.00022094
 ITry= 1 IFail=0 DXMaxC= 2.00D-02 DCOld= 1.00D+10 DXMaxT= 3.00D-01 DXLimC= 3.00D+00 Rises=F
 ClnCor:  largest displacement from symmetrization is 3.55D-04 for atom     4.
 Variable       Old X    -DE/DX   Delta X   Delta X   Delta X     New X
                                 (Linear)    (Quad)   (Total)
    R1        1.91096   0.00045   0.00353  -0.00005   0.00358   1.91454
    R2        1.91096   0.00045   0.00353  -0.00005   0.00358   1.91454
    R3        1.91096   0.00045   0.00353  -0.00005   0.00358   1.91454
    A1        1.89923  -0.00018  -0.00190  -0.01202  -0.01475   1.88449
    A2        1.89923  -0.00113  -0.00190  -0.01294  -0.01475   1.88449
    A3        1.89923  -0.00113  -0.00190  -0.01294  -0.01475   1.88449
    D1       -2.06707   0.00151   0.00455   0.02925   0.03368  -2.03340
         Item               Value     Threshold  Converged?
 Maximum Force            0.001506     0.000450     NO 
 RMS     Force            0.000884     0.000300     NO 
 Maximum Displacement     0.020050     0.001800     NO 
 RMS     Displacement     0.009631     0.001200     NO 
 Predicted change in Energy=-4.318216D-05
 Lowest energy point so far.  Saving SCF results.
 GradGradGradGradGradGradGradGradGradGradGradGradGradGradGradGradGradGrad

 Leave Link  103 at Sun Oct 13 19:35:59 2019, MaxMem=  1342177280 cpu:               8.6 elap:               1.7
 (Enter /apps/cent7/gaussian/g16-A.03/g16-haswell/g16/l202.exe)
                          Input orientation:                          
 ---------------------------------------------------------------------
 Center     Atomic      Atomic             Coordinates (Angstroms)
 Number     Number       Type             X           Y           Z
 ---------------------------------------------------------------------
      1          7           0       -0.009352    1.036364    0.000000
      2          1           0        0.352568    0.090080   -0.000000
      3          1           0        0.352585    1.509499    0.819502
      4          1           0        0.352585    1.509499   -0.819502
 ---------------------------------------------------------------------
                    Distance matrix (angstroms):
                    1          2          3          4
     1  N    0.000000
     2  H    1.013133   0.000000
     3  H    1.013133   1.639004   0.000000
     4  H    1.013133   1.639004   1.639004   0.000000
 Stoichiometry    H3N
 Framework group  C3V[C3(N),3SGV(H)]
 Deg. of freedom     2
 Full point group                 C3V     NOp   6
 RotChk:  IX=0 Diff= 1.24D-15
 Largest Abelian subgroup         CS      NOp   2
 Largest concise Abelian subgroup CS      NOp   2
                         Standard orientation:                         
 ---------------------------------------------------------------------
 Center     Atomic      Atomic             Coordinates (Angstroms)
 Number     Number       Type             X           Y           Z
 ---------------------------------------------------------------------
      1          7           0       -0.000000    0.000000    0.108579
      2          1           0        0.000000    0.946279   -0.253352
      3          1           0       -0.819502   -0.473140   -0.253352
      4          1           0        0.819502   -0.473140   -0.253352
 ---------------------------------------------------------------------
 Rotational constants (GHZ):         300.9271414         300.9271414         186.6688923
 Leave Link  202 at Sun Oct 13 19:35:59 2019, MaxMem=  1342177280 cpu:               0.4 elap:               0.1
 (Enter /apps/cent7/gaussian/g16-A.03/g16-haswell/g16/l301.exe)
 Standard basis: 6-311++G(d,p) (5D, 7F)
 Ernie: Thresh=  0.10000D-02 Tol=  0.10000D-05 Strict=F.
 There are    30 symmetry adapted cartesian basis functions of A'  symmetry.
 There are    14 symmetry adapted cartesian basis functions of A"  symmetry.
 There are    29 symmetry adapted basis functions of A'  symmetry.
 There are    14 symmetry adapted basis functions of A"  symmetry.
    43 basis functions,    63 primitive gaussians,    44 cartesian basis functions
     5 alpha electrons        5 beta electrons
       nuclear repulsion energy        11.9372602260 Hartrees.
 IExCor= 4336 DFT=T Ex+Corr=M062X ExCW=0 ScaHFX=  0.540000
 ScaDFX=  1.000000  1.000000  1.000000  1.000000 ScalE2=  1.000000  1.000000
 IRadAn=      5 IRanWt=     -1 IRanGd=            0 ICorTp=0 IEmpDi=  4
 NAtoms=    4 NActive=    4 NUniq=    2 SFac= 4.00D+00 NAtFMM=   60 NAOKFM=F Big=F
 Integral buffers will be    131072 words long.
 Raffenetti 2 integral format.
 Two-electron integral symmetry is turned on.
 Leave Link  301 at Sun Oct 13 19:35:59 2019, MaxMem=  1342177280 cpu:               3.1 elap:               0.7
 (Enter /apps/cent7/gaussian/g16-A.03/g16-haswell/g16/l302.exe)
 NPDir=0 NMtPBC=     1 NCelOv=     1 NCel=       1 NClECP=     1 NCelD=      1
         NCelK=      1 NCelE2=     1 NClLst=     1 CellRange=     0.0.
 One-electron integrals computed using PRISM.
 One-electron integral symmetry used in STVInt
 NBasis=    43 RedAO= T EigKep=  2.62D-03  NBF=    29    14
 NBsUse=    43 1.00D-06 EigRej= -1.00D+00 NBFU=    29    14
 Precomputing XC quadrature grid using
 IXCGrd= 4 IRadAn=           5 IRanWt=          -1 IRanGd=           0 AccXCQ= 0.00D+00.
 Generated NRdTot=       0 NPtTot=           0 NUsed=           0 NTot=          32
 NSgBfM=    44    44    44    44    44 MxSgAt=     4 MxSgA2=     4.
 Leave Link  302 at Sun Oct 13 19:36:02 2019, MaxMem=  1342177280 cpu:              14.7 elap:               3.1
 (Enter /apps/cent7/gaussian/g16-A.03/g16-haswell/g16/l303.exe)
 DipDrv:  MaxL=1.
 Leave Link  303 at Sun Oct 13 19:36:03 2019, MaxMem=  1342177280 cpu:               2.8 elap:               0.5
 (Enter /apps/cent7/gaussian/g16-A.03/g16-haswell/g16/l401.exe)
 Initial guess from the checkpoint file:  "ammonia.chk"
 B after Tr=     0.000000   -0.000000    0.000000
         Rot=    1.000000    0.000000   -0.000000    0.000000 Ang=   0.00 deg.
 Guess basis will be translated and rotated to current coordinates.
 JPrj=2 DoOrth=T DoCkMO=T.
 Initial guess orbital symmetries:
       Occupied  (A1) (A1) (E) (E) (A1)
       Virtual   (A1) (E) (E) (A1) (E) (E) (A1) (E) (E) (A1) (E)
                 (E) (A1) (A1) (E) (E) (A1) (E) (E) (A2) (A1) (E)
                 (E) (E) (E) (A1) (E) (E) (A1) (E) (E) (A1) (E)
                 (E) (A1) (E) (E) (A1)
 The electronic state of the initial guess is 1-A1.
 Generating alternative initial guess.
 ExpMin= 3.60D-02 ExpMax= 6.29D+03 ExpMxC= 9.49D+02 IAcc=3 IRadAn=         5 AccDes= 0.00D+00
 Harris functional with IExCor= 1009 and IRadAn=       5 diagonalized for initial guess.
 HarFok:  IExCor= 1009 AccDes= 0.00D+00 IRadAn=         5 IDoV= 1 UseB2=F ITyADJ=14
 ICtDFT=  3500011 ScaDFX=  1.000000  1.000000  1.000000  1.000000
 FoFCou: FMM=F IPFlag=           0 FMFlag=      100000 FMFlg1=           0
         NFxFlg=           0 DoJE=T BraDBF=F KetDBF=T FulRan=T
         wScrn=  0.000000 ICntrl=       500 IOpCl=  0 I1Cent=   200000004 NGrid=           0
         NMat0=    1 NMatS0=      1 NMatT0=    0 NMatD0=    1 NMtDS0=    0 NMtDT0=    0
 Petite list used in FoFCou.
 Harris En= -56.5501163233210    
 Leave Link  401 at Sun Oct 13 19:36:10 2019, MaxMem=  1342177280 cpu:              32.9 elap:               6.9
 (Enter /apps/cent7/gaussian/g16-A.03/g16-haswell/g16/l502.exe)
 Keep R1 ints in memory in symmetry-blocked form, NReq=21281180.
 FoFCou: FMM=F IPFlag=           0 FMFlag=           0 FMFlg1=           0
         NFxFlg=           0 DoJE=F BraDBF=F KetDBF=F FulRan=T
         wScrn=  0.000000 ICntrl=       600 IOpCl=  0 I1Cent=           0 NGrid=           0
         NMat0=    1 NMatS0=    946 NMatT0=    0 NMatD0=    1 NMtDS0=    0 NMtDT0=    0
 Petite list used in FoFCou.
 Closed shell SCF:
 Using DIIS extrapolation, IDIIS=  1040.
 NGot=  1342177280 LenX=  1341940482 LenY=  1341938105
 Requested convergence on RMS density matrix=1.00D-08 within 128 cycles.
 Requested convergence on MAX density matrix=1.00D-06.
 Requested convergence on             energy=1.00D-06.
 No special actions if energy rises.

 Cycle   1  Pass 1  IDiag  1:
 E= -56.5459008975148    
 DIIS: error= 1.52D-03 at cycle   1 NSaved=   1.
 NSaved= 1 IEnMin= 1 EnMin= -56.5459008975148     IErMin= 1 ErrMin= 1.52D-03
 ErrMax= 1.52D-03  0.00D+00 EMaxC= 1.00D-01 BMatC= 4.87D-05 BMatP= 4.87D-05
 IDIUse=3 WtCom= 9.85D-01 WtEn= 1.52D-02
 Coeff-Com:  0.100D+01
 Coeff-En:   0.100D+01
 Coeff:      0.100D+01
 Gap=     0.332 Goal=   None    Shift=    0.000
 GapD=    0.332 DampG=1.000 DampE=1.000 DampFc=1.0000 IDamp=-1.
 RMSDP=2.71D-04 MaxDP=2.71D-03              OVMax= 3.49D-03

 Cycle   2  Pass 1  IDiag  1:
 E= -56.5459475360346     Delta-E=       -0.000046638520 Rises=F Damp=F
 DIIS: error= 4.83D-04 at cycle   2 NSaved=   2.
 NSaved= 2 IEnMin= 2 EnMin= -56.5459475360346     IErMin= 2 ErrMin= 4.83D-04
 ErrMax= 4.83D-04  0.00D+00 EMaxC= 1.00D-01 BMatC= 6.99D-06 BMatP= 4.87D-05
 IDIUse=3 WtCom= 9.95D-01 WtEn= 4.83D-03
 Coeff-Com:  0.121D+00 0.879D+00
 Coeff-En:   0.000D+00 0.100D+01
 Coeff:      0.121D+00 0.879D+00
 Gap=     0.334 Goal=   None    Shift=    0.000
 RMSDP=6.25D-05 MaxDP=1.16D-03 DE=-4.66D-05 OVMax= 1.47D-03

 Cycle   3  Pass 1  IDiag  1:
 E= -56.5459503260538     Delta-E=       -0.000002790019 Rises=F Damp=F
 DIIS: error= 4.27D-04 at cycle   3 NSaved=   3.
 NSaved= 3 IEnMin= 3 EnMin= -56.5459503260538     IErMin= 3 ErrMin= 4.27D-04
 ErrMax= 4.27D-04  0.00D+00 EMaxC= 1.00D-01 BMatC= 4.40D-06 BMatP= 6.99D-06
 IDIUse=3 WtCom= 9.96D-01 WtEn= 4.27D-03
 Coeff-Com: -0.711D-01 0.453D+00 0.618D+00
 Coeff-En:   0.000D+00 0.330D+00 0.670D+00
 Coeff:     -0.708D-01 0.452D+00 0.619D+00
 Gap=     0.333 Goal=   None    Shift=    0.000
 RMSDP=2.70D-05 MaxDP=3.08D-04 DE=-2.79D-06 OVMax= 6.62D-04

 Cycle   4  Pass 1  IDiag  1:
 E= -56.5459538947470     Delta-E=       -0.000003568693 Rises=F Damp=F
 DIIS: error= 1.53D-05 at cycle   4 NSaved=   4.
 NSaved= 4 IEnMin= 4 EnMin= -56.5459538947470     IErMin= 4 ErrMin= 1.53D-05
 ErrMax= 1.53D-05  0.00D+00 EMaxC= 1.00D-01 BMatC= 7.76D-09 BMatP= 4.40D-06
 IDIUse=1 WtCom= 1.00D+00 WtEn= 0.00D+00
 Coeff-Com:  0.108D-01-0.111D+00-0.126D+00 0.123D+01
 Coeff:      0.108D-01-0.111D+00-0.126D+00 0.123D+01
 Gap=     0.333 Goal=   None    Shift=    0.000
 RMSDP=1.02D-05 MaxDP=1.05D-04 DE=-3.57D-06 OVMax= 1.57D-04

 Cycle   5  Pass 1  IDiag  1:
 E= -56.5459539186305     Delta-E=       -0.000000023884 Rises=F Damp=F
 DIIS: error= 2.17D-06 at cycle   5 NSaved=   5.
 NSaved= 5 IEnMin= 5 EnMin= -56.5459539186305     IErMin= 5 ErrMin= 2.17D-06
 ErrMax= 2.17D-06  0.00D+00 EMaxC= 1.00D-01 BMatC= 9.62D-11 BMatP= 7.76D-09
 IDIUse=1 WtCom= 1.00D+00 WtEn= 0.00D+00
 Coeff-Com:  0.477D-03-0.619D-03-0.333D-03-0.664D-01 0.107D+01
 Coeff:      0.477D-03-0.619D-03-0.333D-03-0.664D-01 0.107D+01
 Gap=     0.333 Goal=   None    Shift=    0.000
 RMSDP=1.96D-06 MaxDP=2.35D-05 DE=-2.39D-08 OVMax= 2.35D-05

 Cycle   6  Pass 1  IDiag  1:
 E= -56.5459539191184     Delta-E=       -0.000000000488 Rises=F Damp=F
 DIIS: error= 5.93D-07 at cycle   6 NSaved=   6.
 NSaved= 6 IEnMin= 6 EnMin= -56.5459539191184     IErMin= 6 ErrMin= 5.93D-07
 ErrMax= 5.93D-07  0.00D+00 EMaxC= 1.00D-01 BMatC= 8.42D-12 BMatP= 9.62D-11
 IDIUse=1 WtCom= 1.00D+00 WtEn= 0.00D+00
 Coeff-Com: -0.344D-03 0.342D-02 0.401D-02-0.534D-01 0.238D-01 0.102D+01
 Coeff:     -0.344D-03 0.342D-02 0.401D-02-0.534D-01 0.238D-01 0.102D+01
 Gap=     0.333 Goal=   None    Shift=    0.000
 RMSDP=3.33D-07 MaxDP=3.68D-06 DE=-4.88D-10 OVMax= 5.97D-06

 Cycle   7  Pass 1  IDiag  1:
 E= -56.5459539191451     Delta-E=       -0.000000000027 Rises=F Damp=F
 DIIS: error= 7.76D-08 at cycle   7 NSaved=   7.
 NSaved= 7 IEnMin= 7 EnMin= -56.5459539191451     IErMin= 7 ErrMin= 7.76D-08
 ErrMax= 7.76D-08  0.00D+00 EMaxC= 1.00D-01 BMatC= 1.48D-13 BMatP= 8.42D-12
 IDIUse=1 WtCom= 1.00D+00 WtEn= 0.00D+00
 Coeff-Com:  0.150D-04-0.248D-03-0.297D-03 0.669D-02-0.476D-01-0.218D-01
 Coeff-Com:  0.106D+01
 Coeff:      0.150D-04-0.248D-03-0.297D-03 0.669D-02-0.476D-01-0.218D-01
 Coeff:      0.106D+01
 Gap=     0.333 Goal=   None    Shift=    0.000
 RMSDP=2.03D-08 MaxDP=1.56D-07 DE=-2.67D-11 OVMax= 7.50D-07

 Cycle   8  Pass 1  IDiag  1:
 E= -56.5459539191456     Delta-E=       -0.000000000000 Rises=F Damp=F
 DIIS: error= 8.48D-09 at cycle   8 NSaved=   8.
 NSaved= 8 IEnMin= 8 EnMin= -56.5459539191456     IErMin= 8 ErrMin= 8.48D-09
 ErrMax= 8.48D-09  0.00D+00 EMaxC= 1.00D-01 BMatC= 1.33D-15 BMatP= 1.48D-13
 IDIUse=1 WtCom= 1.00D+00 WtEn= 0.00D+00
 Coeff-Com:  0.364D-05-0.227D-04-0.240D-04-0.518D-04 0.668D-02-0.137D-01
 Coeff-Com: -0.149D+00 0.116D+01
 Coeff:      0.364D-05-0.227D-04-0.240D-04-0.518D-04 0.668D-02-0.137D-01
 Coeff:     -0.149D+00 0.116D+01
 Gap=     0.333 Goal=   None    Shift=    0.000
 RMSDP=8.63D-09 MaxDP=1.15D-07 DE=-4.83D-13 OVMax= 5.88D-08

 SCF Done:  E(RM062X) =  -56.5459539191     A.U. after    8 cycles
            NFock=  8  Conv=0.86D-08     -V/T= 2.0037
 KE= 5.633713504080D+01 PE=-1.559560433723D+02 EE= 3.113569418633D+01
 Leave Link  502 at Sun Oct 13 19:36:30 2019, MaxMem=  1342177280 cpu:              96.6 elap:              20.1
 (Enter /apps/cent7/gaussian/g16-A.03/g16-haswell/g16/l701.exe)
 ... and contract with generalized density number  0.
 Compute integral first derivatives.
 Leave Link  701 at Sun Oct 13 19:36:33 2019, MaxMem=  1342177280 cpu:              12.6 elap:               2.6
 (Enter /apps/cent7/gaussian/g16-A.03/g16-haswell/g16/l702.exe)
 L702 exits ... SP integral derivatives will be done elsewhere.
 Leave Link  702 at Sun Oct 13 19:36:33 2019, MaxMem=  1342177280 cpu:               1.4 elap:               0.3
 (Enter /apps/cent7/gaussian/g16-A.03/g16-haswell/g16/l703.exe)
 Integral derivatives from FoFJK, PRISM(SPDF).
 Compute integral first derivatives, UseDBF=F ICtDFT=           0.
 Calling FoFJK, ICntrl=      2127 FMM=F ISym2X=1 I1Cent= 0 IOpClX= 0 NMat=1 NMatS=1 NMatT=0.
 FoFJK:  IHMeth= 1 ICntrl=    2127 DoSepK=F KAlg= 0 I1Cent=           0 FoldK=F
 IRaf=         0 NMat=       1 IRICut=       1 DoRegI=T DoRafI=F ISym2E= 1 IDoP0=0 IntGTp=1.
 FoFCou: FMM=F IPFlag=           0 FMFlag=      100000 FMFlg1=         800
         NFxFlg=           0 DoJE=F BraDBF=F KetDBF=F FulRan=T
         wScrn=  0.000000 ICntrl=      2127 IOpCl=  0 I1Cent=           0 NGrid=           0
         NMat0=    1 NMatS0=      1 NMatT0=    0 NMatD0=    1 NMtDS0=    0 NMtDT0=    0
 Petite list used in FoFCou.
 Leave Link  703 at Sun Oct 13 19:36:36 2019, MaxMem=  1342177280 cpu:              15.0 elap:               3.1
 (Enter /apps/cent7/gaussian/g16-A.03/g16-haswell/g16/l716.exe)
 Dipole        =-2.22044605D-16-2.22044605D-16-6.73106831D-01
 ***** Axes restored to original set *****
 -------------------------------------------------------------------
 Center     Atomic                   Forces (Hartrees/Bohr)
 Number     Number              X              Y              Z
 -------------------------------------------------------------------
      1        7          -0.000358282    0.000000004    0.000000000
      2        1           0.000119432    0.000428144    0.000000000
      3        1           0.000119425   -0.000214074   -0.000370785
      4        1           0.000119425   -0.000214074    0.000370785
 -------------------------------------------------------------------
 Cartesian Forces:  Max     0.000428144 RMS     0.000245133
 Leave Link  716 at Sun Oct 13 19:36:36 2019, MaxMem=  1342177280 cpu:               1.6 elap:               0.3
 (Enter /apps/cent7/gaussian/g16-A.03/g16-haswell/g16/l103.exe)

 GradGradGradGradGradGradGradGradGradGradGradGradGradGradGradGradGradGrad
 Berny optimization.
 Using GEDIIS/GDIIS optimizer.
 FormGI is forming the generalized inverse of G from B-inverse, IUseBI=4.
 Internal  Forces:  Max     0.000365163 RMS     0.000313237
 Search for a local minimum.
 Step number   3 out of a maximum of   20
 All quantities printed in internal units (Hartrees-Bohrs-Radians)
 RMS Force = .31324D-03 SwitMx=.10000D-02 MixMth= 2
 Mixed Optimization -- En-DIIS/RFO-DIIS
 Swapping is turned off.
 Update second derivatives using D2CorX and points    1    2    3
 DE= -5.53D-05 DEPred=-4.32D-05 R= 1.28D+00
 TightC=F SS=  1.41D+00  RLast= 4.27D-02 DXNew= 5.0454D-01 1.2817D-01
 Trust test= 1.28D+00 RLast= 4.27D-02 DXMaxT set to 3.00D-01
 The second derivative matrix:
                          R1        R2        R3        A1        A2
           R1           0.50123
           R2           0.02434   0.50123
           R3           0.02434   0.02434   0.50123
           A1           0.05002   0.05002   0.05002   0.12743
           A2           0.03449   0.03449   0.03449  -0.03362   0.13251
           A3           0.03449   0.03449   0.03449  -0.03362  -0.02749
           D1           0.01769   0.01769   0.01769   0.00661  -0.00462
                          A3        D1
           A3           0.13251
           D1          -0.00462   0.02709
 ITU=  1  1  0
     Eigenvalues ---    0.03731   0.15425   0.16000   0.47688   0.47688
     Eigenvalues ---    0.55521
 En-DIIS/RFO-DIIS/Sim-DIIS IScMMF=       -3 using points:     3    2
 RFO step:  Lambda=-5.98251364D-06.
 NNeg= 0 NGDIIS= 2 SimSw=  2.50D-03 Rises=F DC= -5.53D-05 SmlDif=  1.00D-05
 NRisDI= 0 DoIntr=F SqrtH=F CThrHd= 10.0 CDAdj=  3.0
 RMS Error=  0.4354654045D-02 NUsed= 2 OKEnD=T EnDIS=F
 InvSVX:  RCond= 4.53D-04 Info=           0 Equed=N FErr=  1.55D-15 BErr=  7.75D-17
 DidBck=F Rises=F RFO-DIIS coefs:    1.26711   -0.26711
 Iteration  1 RMS(Cart)=  0.00289832 RMS(Int)=  0.00006785
 Iteration  2 RMS(Cart)=  0.00001064 RMS(Int)=  0.00006691
 Iteration  3 RMS(Cart)=  0.00000000 RMS(Int)=  0.00006691
 ITry= 1 IFail=0 DXMaxC= 5.22D-03 DCOld= 1.00D+10 DXMaxT= 3.00D-01 DXLimC= 3.00D+00 Rises=F
 ClnCor:  largest displacement from symmetrization is 3.26D-05 for atom     4.
 Variable       Old X    -DE/DX   Delta X   Delta X   Delta X     New X
                                 (Linear)    (Quad)   (Total)
    R1        1.91454  -0.00036   0.00096  -0.00103  -0.00006   1.91448
    R2        1.91454  -0.00036   0.00096  -0.00103  -0.00006   1.91448
    R3        1.91454  -0.00036   0.00096  -0.00103  -0.00006   1.91448
    A1        1.88449  -0.00005  -0.00394  -0.00002  -0.00412   1.88036
    A2        1.88449  -0.00029  -0.00394  -0.00015  -0.00412   1.88036
    A3        1.88449  -0.00029  -0.00394  -0.00015  -0.00412   1.88036
    D1       -2.03340   0.00037   0.00900   0.00019   0.00910  -2.02430
         Item               Value     Threshold  Converged?
 Maximum Force            0.000365     0.000450     YES
 RMS     Force            0.000313     0.000300     NO 
 Maximum Displacement     0.005216     0.001800     NO 
 RMS     Displacement     0.002898     0.001200     NO 
 Predicted change in Energy=-2.983315D-06
 Lowest energy point so far.  Saving SCF results.
 GradGradGradGradGradGradGradGradGradGradGradGradGradGradGradGradGradGrad

 Leave Link  103 at Sun Oct 13 19:36:43 2019, MaxMem=  1342177280 cpu:              32.1 elap:               6.7
 (Enter /apps/cent7/gaussian/g16-A.03/g16-haswell/g16/l202.exe)
                          Input orientation:                          
 ---------------------------------------------------------------------
 Center     Atomic      Atomic             Coordinates (Angstroms)
 Number     Number       Type             X           Y           Z
 ---------------------------------------------------------------------
      1          7           0       -0.012112    1.036364    0.000000
      2          1           0        0.353487    0.091531   -0.000000
      3          1           0        0.353504    1.508774    0.818246
      4          1           0        0.353504    1.508774   -0.818246
 ---------------------------------------------------------------------
                    Distance matrix (angstroms):
                    1          2          3          4
     1  N    0.000000
     2  H    1.013101   0.000000
     3  H    1.013101   1.636492   0.000000
     4  H    1.013101   1.636492   1.636492   0.000000
 Stoichiometry    H3N
 Framework group  C3V[C3(N),3SGV(H)]
 Deg. of freedom     2
 Full point group                 C3V     NOp   6
 RotChk:  IX=0 Diff= 2.62D-16
 Largest Abelian subgroup         CS      NOp   2
 Largest concise Abelian subgroup CS      NOp   2
                         Standard orientation:                         
 ---------------------------------------------------------------------
 Center     Atomic      Atomic             Coordinates (Angstroms)
 Number     Number       Type             X           Y           Z
 ---------------------------------------------------------------------
      1          7           0       -0.000000    0.000000    0.109683
      2          1           0       -0.000000    0.944829   -0.255928
      3          1           0       -0.818246   -0.472414   -0.255928
      4          1           0        0.818246   -0.472414   -0.255928
 ---------------------------------------------------------------------
 Rotational constants (GHZ):         300.4782950         300.4782950         187.2425260
 Leave Link  202 at Sun Oct 13 19:36:44 2019, MaxMem=  1342177280 cpu:               4.5 elap:               0.9
 (Enter /apps/cent7/gaussian/g16-A.03/g16-haswell/g16/l301.exe)
 Standard basis: 6-311++G(d,p) (5D, 7F)
 Ernie: Thresh=  0.10000D-02 Tol=  0.10000D-05 Strict=F.
 There are    30 symmetry adapted cartesian basis functions of A'  symmetry.
 There are    14 symmetry adapted cartesian basis functions of A"  symmetry.
 There are    29 symmetry adapted basis functions of A'  symmetry.
 There are    14 symmetry adapted basis functions of A"  symmetry.
    43 basis functions,    63 primitive gaussians,    44 cartesian basis functions
     5 alpha electrons        5 beta electrons
       nuclear repulsion energy        11.9391032213 Hartrees.
 IExCor= 4336 DFT=T Ex+Corr=M062X ExCW=0 ScaHFX=  0.540000
 ScaDFX=  1.000000  1.000000  1.000000  1.000000 ScalE2=  1.000000  1.000000
 IRadAn=      5 IRanWt=     -1 IRanGd=            0 ICorTp=0 IEmpDi=  4
 NAtoms=    4 NActive=    4 NUniq=    2 SFac= 4.00D+00 NAtFMM=   60 NAOKFM=F Big=F
 Integral buffers will be    131072 words long.
 Raffenetti 2 integral format.
 Two-electron integral symmetry is turned on.
 Leave Link  301 at Sun Oct 13 19:36:44 2019, MaxMem=  1342177280 cpu:               1.8 elap:               0.4
 (Enter /apps/cent7/gaussian/g16-A.03/g16-haswell/g16/l302.exe)
 NPDir=0 NMtPBC=     1 NCelOv=     1 NCel=       1 NClECP=     1 NCelD=      1
         NCelK=      1 NCelE2=     1 NClLst=     1 CellRange=     0.0.
 One-electron integrals computed using PRISM.
 One-electron integral symmetry used in STVInt
 NBasis=    43 RedAO= T EigKep=  2.59D-03  NBF=    29    14
 NBsUse=    43 1.00D-06 EigRej= -1.00D+00 NBFU=    29    14
 Precomputing XC quadrature grid using
 IXCGrd= 4 IRadAn=           5 IRanWt=          -1 IRanGd=           0 AccXCQ= 0.00D+00.
 Generated NRdTot=       0 NPtTot=           0 NUsed=           0 NTot=          32
 NSgBfM=    44    44    44    44    44 MxSgAt=     4 MxSgA2=     4.
 Leave Link  302 at Sun Oct 13 19:36:48 2019, MaxMem=  1342177280 cpu:              15.9 elap:               3.3
 (Enter /apps/cent7/gaussian/g16-A.03/g16-haswell/g16/l303.exe)
 DipDrv:  MaxL=1.
 Leave Link  303 at Sun Oct 13 19:36:49 2019, MaxMem=  1342177280 cpu:               5.3 elap:               1.1
 (Enter /apps/cent7/gaussian/g16-A.03/g16-haswell/g16/l401.exe)
 Initial guess from the checkpoint file:  "ammonia.chk"
 B after Tr=     0.000000    0.000000   -0.000000
         Rot=    1.000000    0.000000    0.000000   -0.000000 Ang=   0.00 deg.
 Guess basis will be translated and rotated to current coordinates.
 JPrj=2 DoOrth=T DoCkMO=T.
 Initial guess orbital symmetries:
       Occupied  (A1) (A1) (E) (E) (A1)
       Virtual   (A1) (E) (E) (A1) (E) (E) (A1) (E) (E) (A1) (E)
                 (E) (A1) (A1) (E) (E) (A1) (E) (E) (A2) (A1) (E)
                 (E) (E) (E) (A1) (E) (E) (A1) (E) (E) (A1) (E)
                 (E) (A1) (E) (E) (A1)
 The electronic state of the initial guess is 1-A1.
 Leave Link  401 at Sun Oct 13 19:36:53 2019, MaxMem=  1342177280 cpu:              19.9 elap:               4.2
 (Enter /apps/cent7/gaussian/g16-A.03/g16-haswell/g16/l502.exe)
 Keep R1 ints in memory in symmetry-blocked form, NReq=21281180.
 FoFCou: FMM=F IPFlag=           0 FMFlag=           0 FMFlg1=           0
         NFxFlg=           0 DoJE=F BraDBF=F KetDBF=F FulRan=T
         wScrn=  0.000000 ICntrl=       600 IOpCl=  0 I1Cent=           0 NGrid=           0
         NMat0=    1 NMatS0=    946 NMatT0=    0 NMatD0=    1 NMtDS0=    0 NMtDT0=    0
 Petite list used in FoFCou.
 Closed shell SCF:
 Using DIIS extrapolation, IDIIS=  1040.
 NGot=  1342177280 LenX=  1341940482 LenY=  1341938105
 Requested convergence on RMS density matrix=1.00D-08 within 128 cycles.
 Requested convergence on MAX density matrix=1.00D-06.
 Requested convergence on             energy=1.00D-06.
 No special actions if energy rises.

 Cycle   1  Pass 1  IDiag  1:
 E= -56.5459535013704    
 DIIS: error= 4.13D-04 at cycle   1 NSaved=   1.
 NSaved= 1 IEnMin= 1 EnMin= -56.5459535013704     IErMin= 1 ErrMin= 4.13D-04
 ErrMax= 4.13D-04  0.00D+00 EMaxC= 1.00D-01 BMatC= 3.24D-06 BMatP= 3.24D-06
 IDIUse=3 WtCom= 9.96D-01 WtEn= 4.13D-03
 Coeff-Com:  0.100D+01
 Coeff-En:   0.100D+01
 Coeff:      0.100D+01
 Gap=     0.333 Goal=   None    Shift=    0.000
 RMSDP=7.10D-05 MaxDP=7.33D-04              OVMax= 8.43D-04

 Cycle   2  Pass 1  IDiag  1:
 E= -56.5459566805292     Delta-E=       -0.000003179159 Rises=F Damp=F
 DIIS: error= 8.22D-05 at cycle   2 NSaved=   2.
 NSaved= 2 IEnMin= 2 EnMin= -56.5459566805292     IErMin= 2 ErrMin= 8.22D-05
 ErrMax= 8.22D-05  0.00D+00 EMaxC= 1.00D-01 BMatC= 2.10D-07 BMatP= 3.24D-06
 IDIUse=1 WtCom= 1.00D+00 WtEn= 0.00D+00
 Coeff-Com:  0.321D-02 0.997D+00
 Coeff:      0.321D-02 0.997D+00
 Gap=     0.334 Goal=   None    Shift=    0.000
 RMSDP=1.38D-05 MaxDP=2.30D-04 DE=-3.18D-06 OVMax= 3.07D-04

 Cycle   3  Pass 1  IDiag  1:
 E= -56.5459567507527     Delta-E=       -0.000000070223 Rises=F Damp=F
 DIIS: error= 8.74D-05 at cycle   3 NSaved=   3.
 NSaved= 3 IEnMin= 3 EnMin= -56.5459567507527     IErMin= 2 ErrMin= 8.22D-05
 ErrMax= 8.74D-05  0.00D+00 EMaxC= 1.00D-01 BMatC= 1.88D-07 BMatP= 2.10D-07
 IDIUse=1 WtCom= 1.00D+00 WtEn= 0.00D+00
 Coeff-Com: -0.644D-01 0.516D+00 0.548D+00
 Coeff:     -0.644D-01 0.516D+00 0.548D+00
 Gap=     0.333 Goal=   None    Shift=    0.000
 RMSDP=5.37D-06 MaxDP=7.12D-05 DE=-7.02D-08 OVMax= 1.33D-04

 Cycle   4  Pass 1  IDiag  1:
 E= -56.5459569013496     Delta-E=       -0.000000150597 Rises=F Damp=F
 DIIS: error= 4.79D-06 at cycle   4 NSaved=   4.
 NSaved= 4 IEnMin= 4 EnMin= -56.5459569013496     IErMin= 4 ErrMin= 4.79D-06
 ErrMax= 4.79D-06  0.00D+00 EMaxC= 1.00D-01 BMatC= 7.26D-10 BMatP= 1.88D-07
 IDIUse=1 WtCom= 1.00D+00 WtEn= 0.00D+00
 Coeff-Com:  0.913D-04-0.537D-01-0.198D-01 0.107D+01
 Coeff:      0.913D-04-0.537D-01-0.198D-01 0.107D+01
 Gap=     0.333 Goal=   None    Shift=    0.000
 RMSDP=1.87D-06 MaxDP=1.83D-05 DE=-1.51D-07 OVMax= 3.05D-05

 Cycle   5  Pass 1  IDiag  1:
 E= -56.5459569027310     Delta-E=       -0.000000001381 Rises=F Damp=F
 DIIS: error= 1.03D-06 at cycle   5 NSaved=   5.
 NSaved= 5 IEnMin= 5 EnMin= -56.5459569027310     IErMin= 5 ErrMin= 1.03D-06
 ErrMax= 1.03D-06  0.00D+00 EMaxC= 1.00D-01 BMatC= 1.76D-11 BMatP= 7.26D-10
 IDIUse=1 WtCom= 1.00D+00 WtEn= 0.00D+00
 Coeff-Com:  0.278D-02-0.240D-01-0.222D-01 0.575D-01 0.986D+00
 Coeff:      0.278D-02-0.240D-01-0.222D-01 0.575D-01 0.986D+00
 Gap=     0.333 Goal=   None    Shift=    0.000
 RMSDP=7.14D-07 MaxDP=8.35D-06 DE=-1.38D-09 OVMax= 8.60D-06

 Cycle   6  Pass 1  IDiag  1:
 E= -56.5459569028024     Delta-E=       -0.000000000071 Rises=F Damp=F
 DIIS: error= 2.10D-07 at cycle   6 NSaved=   6.
 NSaved= 6 IEnMin= 6 EnMin= -56.5459569028024     IErMin= 6 ErrMin= 2.10D-07
 ErrMax= 2.10D-07  0.00D+00 EMaxC= 1.00D-01 BMatC= 1.05D-12 BMatP= 1.76D-11
 IDIUse=1 WtCom= 1.00D+00 WtEn= 0.00D+00
 Coeff-Com: -0.406D-03 0.473D-02 0.370D-02-0.542D-01-0.882D-01 0.113D+01
 Coeff:     -0.406D-03 0.473D-02 0.370D-02-0.542D-01-0.882D-01 0.113D+01
 Gap=     0.333 Goal=   None    Shift=    0.000
 RMSDP=1.44D-07 MaxDP=1.65D-06 DE=-7.14D-11 OVMax= 2.23D-06

 Cycle   7  Pass 1  IDiag  1:
 E= -56.5459569028060     Delta-E=       -0.000000000004 Rises=F Damp=F
 DIIS: error= 1.69D-08 at cycle   7 NSaved=   7.
 NSaved= 7 IEnMin= 7 EnMin= -56.5459569028060     IErMin= 7 ErrMin= 1.69D-08
 ErrMax= 1.69D-08  0.00D+00 EMaxC= 1.00D-01 BMatC= 9.13D-15 BMatP= 1.05D-12
 IDIUse=1 WtCom= 1.00D+00 WtEn= 0.00D+00
 Coeff-Com:  0.168D-04-0.308D-03-0.120D-03 0.715D-02-0.914D-02-0.164D+00
 Coeff-Com:  0.117D+01
 Coeff:      0.168D-04-0.308D-03-0.120D-03 0.715D-02-0.914D-02-0.164D+00
 Coeff:      0.117D+01
 Gap=     0.333 Goal=   None    Shift=    0.000
 RMSDP=8.02D-09 MaxDP=5.61D-08 DE=-3.61D-12 OVMax= 2.62D-07

 SCF Done:  E(RM062X) =  -56.5459569028     A.U. after    7 cycles
            NFock=  7  Conv=0.80D-08     -V/T= 2.0037
 KE= 5.633877541560D+01 PE=-1.559601110462D+02 EE= 3.113627550645D+01
 Leave Link  502 at Sun Oct 13 19:37:10 2019, MaxMem=  1342177280 cpu:              81.0 elap:              16.9
 (Enter /apps/cent7/gaussian/g16-A.03/g16-haswell/g16/l701.exe)
 ... and contract with generalized density number  0.
 Compute integral first derivatives.
 Leave Link  701 at Sun Oct 13 19:37:13 2019, MaxMem=  1342177280 cpu:              13.9 elap:               2.9
 (Enter /apps/cent7/gaussian/g16-A.03/g16-haswell/g16/l702.exe)
 L702 exits ... SP integral derivatives will be done elsewhere.
 Leave Link  702 at Sun Oct 13 19:37:13 2019, MaxMem=  1342177280 cpu:               1.8 elap:               0.3
 (Enter /apps/cent7/gaussian/g16-A.03/g16-haswell/g16/l703.exe)
 Integral derivatives from FoFJK, PRISM(SPDF).
 Compute integral first derivatives, UseDBF=F ICtDFT=           0.
 Calling FoFJK, ICntrl=      2127 FMM=F ISym2X=1 I1Cent= 0 IOpClX= 0 NMat=1 NMatS=1 NMatT=0.
 FoFJK:  IHMeth= 1 ICntrl=    2127 DoSepK=F KAlg= 0 I1Cent=           0 FoldK=F
 IRaf=         0 NMat=       1 IRICut=       1 DoRegI=T DoRafI=F ISym2E= 1 IDoP0=0 IntGTp=1.
 FoFCou: FMM=F IPFlag=           0 FMFlag=      100000 FMFlg1=         800
         NFxFlg=           0 DoJE=F BraDBF=F KetDBF=F FulRan=T
         wScrn=  0.000000 ICntrl=      2127 IOpCl=  0 I1Cent=           0 NGrid=           0
         NMat0=    1 NMatS0=      1 NMatT0=    0 NMatD0=    1 NMtDS0=    0 NMtDT0=    0
 Petite list used in FoFCou.
 Leave Link  703 at Sun Oct 13 19:37:16 2019, MaxMem=  1342177280 cpu:              15.9 elap:               3.4
 (Enter /apps/cent7/gaussian/g16-A.03/g16-haswell/g16/l716.exe)
 Dipole        = 2.22044605D-16 4.44089210D-16-6.78784552D-01
 ***** Axes restored to original set *****
 -------------------------------------------------------------------
 Center     Atomic                   Forces (Hartrees/Bohr)
 Number     Number              X              Y              Z
 -------------------------------------------------------------------
      1        7           0.000106531   -0.000000001    0.000000000
      2        1          -0.000035509    0.000083022    0.000000000
      3        1          -0.000035511   -0.000041510   -0.000071899
      4        1          -0.000035511   -0.000041510    0.000071899
 -------------------------------------------------------------------
 Cartesian Forces:  Max     0.000106531 RMS     0.000054627
 Leave Link  716 at Sun Oct 13 19:37:17 2019, MaxMem=  1342177280 cpu:               1.8 elap:               0.3
 (Enter /apps/cent7/gaussian/g16-A.03/g16-haswell/g16/l103.exe)

 GradGradGradGradGradGradGradGradGradGradGradGradGradGradGradGradGradGrad
 Berny optimization.
 Using GEDIIS/GDIIS optimizer.
 FormGI is forming the generalized inverse of G from B-inverse, IUseBI=4.
 Internal  Forces:  Max     0.000090242 RMS     0.000059130
 Search for a local minimum.
 Step number   4 out of a maximum of   20
 All quantities printed in internal units (Hartrees-Bohrs-Radians)
 RMS Force = .59130D-04 SwitMx=.10000D-02 MixMth= 2
 Mixed Optimization -- En-DIIS/RFO-DIIS
 Swapping is turned off.
 Update second derivatives using D2CorX and points    1    2    3    4
 DE= -2.98D-06 DEPred=-2.98D-06 R= 1.00D+00
 TightC=F SS=  1.41D+00  RLast= 1.16D-02 DXNew= 5.0454D-01 3.4704D-02
 Trust test= 1.00D+00 RLast= 1.16D-02 DXMaxT set to 3.00D-01
 The second derivative matrix:
                          R1        R2        R3        A1        A2
           R1           0.48152
           R2           0.00464   0.48152
           R3           0.00464   0.00464   0.48152
           A1           0.02092   0.02092   0.02092   0.11469
           A2           0.01900   0.01900   0.01900  -0.04482   0.12626
           A3           0.01900   0.01900   0.01900  -0.04482  -0.03374
           D1           0.00071   0.00071   0.00071   0.00597  -0.01022
                          A3        D1
           A3           0.12626
           D1          -0.01022   0.03406
 ITU=  1  1  1  0
     Eigenvalues ---    0.03928   0.15540   0.16000   0.47688   0.47688
     Eigenvalues ---    0.49416
 En-DIIS/RFO-DIIS/Sim-DIIS IScMMF=       -3 using points:     4    3    2
 RFO step:  Lambda=-5.43342011D-08.
 NNeg= 0 NGDIIS= 3 SimSw=  2.50D-01 Rises=F DC= -2.98D-06 SmlDif=  1.00D-05
 NRisDI= 0 DoIntr=F SqrtH=F CThrHd= 10.0 CDAdj=  3.0
 RMS Error=  0.2056602022D-03 NUsed= 3 OKEnD=F EnDIS=F
 InvSVX:  RCond= 3.13D-07 Info=           0 Equed=N FErr=  3.78D-14 BErr=  1.10D-16
 DidBck=F Rises=F RFO-DIIS coefs:    1.16118   -0.21930    0.05812
 Iteration  1 RMS(Cart)=  0.00014876 RMS(Int)=  0.00001515
 Iteration  2 RMS(Cart)=  0.00000004 RMS(Int)=  0.00001515
 ITry= 1 IFail=0 DXMaxC= 3.26D-04 DCOld= 1.00D+10 DXMaxT= 3.00D-01 DXLimC= 3.00D+00 Rises=F
 ClnCor:  largest displacement from symmetrization is 1.96D-06 for atom     4.
 Variable       Old X    -DE/DX   Delta X   Delta X   Delta X     New X
                                 (Linear)    (Quad)   (Total)
    R1        1.91448  -0.00009  -0.00022  -0.00000  -0.00022   1.91426
    R2        1.91448  -0.00009  -0.00022  -0.00000  -0.00022   1.91426
    R3        1.91448  -0.00009  -0.00022  -0.00000  -0.00022   1.91426
    A1        1.88036   0.00000   0.00019  -0.00001   0.00021   1.88057
[...]
 activities (A**4/AMU), depolarization ratios for plane and unpolarized
 incident light, reduced masses (AMU), force constants (mDyne/A),
 and normal coordinates:
                      1                      2                      3
                     A1                      E                      E
 Frequencies --   1026.4898              1670.2613              1670.2756
 Red. masses --      1.1824                 1.0674                 1.0674
 Frc consts  --      0.7341                 1.7544                 1.7545
 IR Inten    --    218.6720                29.2205                29.1778
  Atom  AN      X      Y      Z        X      Y      Z        X      Y      Z
     1   7     0.00  -0.00  -0.12    -0.00  -0.07   0.00    -0.07   0.00  -0.00
     2   1    -0.00   0.20   0.54     0.00  -0.14  -0.24     0.77   0.00   0.00
     3   1    -0.17  -0.10   0.54    -0.39   0.54   0.12     0.09  -0.39   0.21
     4   1     0.17  -0.10   0.54     0.39   0.54   0.12     0.09   0.39  -0.21
                      4                      5                      6
                     A1                      E                      E
 Frequencies --   3523.9558              3657.8088              3657.8410
 Red. masses --      1.0254                 1.0912                 1.0912
 Frc consts  --      7.5024                 8.6021                 8.6023
 IR Inten    --      0.3521                 8.5108                 8.5987
  Atom  AN      X      Y      Z        X      Y      Z        X      Y      Z
     1   7     0.00   0.00   0.04    -0.08  -0.00   0.00     0.00  -0.08   0.00
     2   1     0.00   0.55  -0.17    -0.02   0.00  -0.00     0.00   0.76  -0.29
     3   1    -0.48  -0.28  -0.17     0.57   0.34   0.25     0.34   0.18   0.14
     4   1     0.48  -0.28  -0.17     0.57  -0.34  -0.25    -0.34   0.18   0.14

 -------------------
 - Thermochemistry -
 -------------------
 Temperature     0.001 Kelvin.  Pressure   1.00000 Atm.
 Atom     1 has atomic number  7 and mass  14.00307
 Atom     2 has atomic number  1 and mass   1.00783
 Atom     3 has atomic number  1 and mass   1.00783
 Atom     4 has atomic number  1 and mass   1.00783
 Molecular mass:    17.02655 amu.
 Principal axes and moments of inertia in atomic units:
                           1         2         3
     Eigenvalues --     6.00623   6.00623   9.63852
           X            0.82161   0.57005   0.00000
           Y           -0.57005   0.82161   0.00000
           Z            0.00000  -0.00000   1.00000
 This molecule is an oblate symmetric top.
 Rotational symmetry number  3.
 Rotational temperatures (Kelvin)     14.42068    14.42068     8.98622
 Rotational constants (GHZ):         300.47829   300.47829   187.24253
 Zero-point vibrational energy      90955.9 (Joules/Mol)
                                   21.73897 (Kcal/Mol)
 Vibrational temperatures:   1476.89  2403.13  2403.15  5070.19  5262.77
          (Kelvin)           5262.82
 
 Zero-point correction=                           0.034643 (Hartree/Particle)
 Thermal correction to Energy=                    0.034643
 Thermal correction to Enthalpy=                  0.034643
 Thermal correction to Gibbs Free Energy=         0.034643
 Sum of electronic and zero-point Energies=            -56.511314
 Sum of electronic and thermal Energies=               -56.511314
 Sum of electronic and thermal Enthalpies=             -56.511314
 Sum of electronic and thermal Free Energies=          -56.511314
 
                     E (Thermal)             CV                S
                      KCal/Mol        Cal/Mol-Kelvin    Cal/Mol-Kelvin
 Total                   21.739              5.962            -54.323
 Electronic               0.000              0.000              0.000
 Translational            0.000              2.981            -28.183
 Rotational               0.000              2.981            -26.140
 Vibrational             21.739              0.000              0.000
                       Q            Log10(Q)             Ln(Q)
 Total Bot                                 -Inf              -Inf
 Total V=0                           -13.609264        -31.336488
 Vib (Bot)                                 -Inf              -Inf
 Vib (V=0)                             0.000000          0.000000
 Electronic      0.100000D+01          0.000000          0.000000
 Translational   0.568927D-07         -7.244943        -16.682098
 Rotational      0.432194D-06         -6.364321        -14.654390
 
                                                         Title Card Required
                                                             IR Spectrum
 
     33   3                                                                1                     1                                   
     66   5                                                                6                     0                                   
     55   2                                                                7                     2                                   
     88   4                                                                0                     6                                   
 
     XX   X                                                                X                     X                                   
                                                                           X                     X                                   
                                                                           X                     X                                   
                                                                           X                     X                                   
                                                                           X                     X                                   
                                                                                                 X                                   
                                                                                                 X                                   
                                                                                                 X                                   
                                                                                                 X                                   
                                                                                                 X                                   
                                                                                                 X                                   
                                                                                                 X                                   
                                                                                                 X                                   
                                                                                                 X                                   
                                                                                                 X                                   
                                                                                                 X                                   
                                                                                                 X                                   
                                                                                                 X                                   
                                                                                                 X                                   
                                                                                                 X                                   
 
 ***** Axes restored to original set *****
 -------------------------------------------------------------------
 Center     Atomic                   Forces (Hartrees/Bohr)
 Number     Number              X              Y              Z
 -------------------------------------------------------------------
      1        7           0.000106533   -0.000000001    0.000000000
      2        1          -0.000035510    0.000083023    0.000000000
      3        1          -0.000035512   -0.000041511   -0.000071899
      4        1          -0.000035512   -0.000041511    0.000071899
 -------------------------------------------------------------------
 Cartesian Forces:  Max     0.000106533 RMS     0.000054628
 Force constants in Cartesian coordinates: 
                1             2             3             4             5 
      1  0.210277D+00
      2 -0.156506D-03  0.672780D+00
      3  0.000000D+00  0.000000D+00  0.672736D+00
      4 -0.700989D-01  0.173483D+00  0.000000D+00  0.682588D-01
      5  0.119966D+00 -0.386348D+00  0.000000D+00 -0.139602D+00  0.417949D+00
      6  0.000000D+00  0.000000D+00 -0.622647D-01  0.000000D+00  0.000000D+00
      7 -0.700967D-01 -0.867036D-01 -0.150186D+00  0.920024D-03  0.982070D-02
      8 -0.599451D-01 -0.143249D+00 -0.140304D+00 -0.169385D-01 -0.157917D-01
      9 -0.103847D+00 -0.140308D+00 -0.305280D+00 -0.156085D-02  0.297825D-02
     10 -0.700967D-01 -0.867036D-01  0.150185D+00  0.920024D-03  0.982070D-02
     11 -0.599452D-01 -0.143249D+00  0.140304D+00 -0.169385D-01 -0.157917D-01
     12  0.103847D+00  0.140309D+00 -0.305280D+00  0.156084D-02 -0.297825D-02
                6             7             8             9            10 
      6  0.590511D-01
      7  0.138881D-01  0.682639D-01
      8 -0.330987D-01  0.698040D-01  0.148773D+00
      9  0.159822D-02  0.120904D+00  0.155404D+00  0.328222D+00
     10 -0.138881D-01  0.920281D-03  0.711748D-02 -0.154496D-01  0.682639D-01
     11  0.330987D-01  0.711748D-02  0.102930D-01 -0.180382D-01  0.698041D-01
     12  0.159823D-02  0.154496D-01  0.180382D-01 -0.244867D-01 -0.120904D+00
               11            12 
     11  0.148773D+00
     12 -0.155404D+00  0.328222D+00
 FormGI is forming the generalized inverse of G from B-inverse, IUseBI=4.
 Force constants in internal coordinates: 
                1             2             3             4             5 
      1  0.466378D+00
      2 -0.185767D-02  0.466322D+00
      3 -0.185767D-02 -0.186073D-02  0.466322D+00
      4  0.723415D-02  0.724190D-02 -0.792551D-02  0.545836D-01
      5  0.178252D-01 -0.279333D-02  0.202555D-01 -0.426460D-01  0.127878D+00
      6 -0.279846D-02  0.178664D-01  0.202674D-01 -0.426408D-01 -0.224499D-01
      7 -0.161385D-01 -0.161712D-01 -0.114790D-01 -0.201102D-01 -0.413907D-02
                6             7 
      6  0.127839D+00
      7 -0.412507D-02  0.277168D-01
 Leave Link  716 at Sun Oct 13 19:38:37 2019, MaxMem=  1342177280 cpu:               5.0 elap:               0.9
 (Enter /apps/cent7/gaussian/g16-A.03/g16-haswell/g16/l103.exe)

 GradGradGradGradGradGradGradGradGradGradGradGradGradGradGradGradGradGrad
 Berny optimization.
 Red2BG is reusing G-inverse.
 Internal  Forces:  Max     0.000090243 RMS     0.000059130
 Search for a local minimum.
 Step number   1 out of a maximum of    2
 All quantities printed in internal units (Hartrees-Bohrs-Radians)
 Second derivative matrix not updated -- analytic derivatives used.
 The second derivative matrix:
                          R1        R2        R3        A1        A2
           R1           0.46638
           R2          -0.00186   0.46632
           R3          -0.00186  -0.00186   0.46632
           A1           0.00723   0.00724  -0.00793   0.05458
           A2           0.01783  -0.00279   0.02026  -0.04265   0.12788
           A3          -0.00280   0.01787   0.02027  -0.04264  -0.02245
           D1          -0.01614  -0.01617  -0.01148  -0.02011  -0.00414
                          A3        D1
           A3           0.12784
           D1          -0.00413   0.02772
 ITU=  0
     Eigenvalues ---    0.03936   0.14337   0.14897   0.46616   0.46954
     Eigenvalues ---    0.46964
 Angle between quadratic step and forces=  46.95 degrees.
 Linear search not attempted -- first point.
 Iteration  1 RMS(Cart)=  0.00012796 RMS(Int)=  0.00000003
 Iteration  2 RMS(Cart)=  0.00000002 RMS(Int)=  0.00000002
 ITry= 1 IFail=0 DXMaxC= 2.52D-04 DCOld= 1.00D+10 DXMaxT= 3.00D-01 DXLimC= 3.00D+00 Rises=F
 ClnCor:  largest displacement from symmetrization is 7.03D-08 for atom     3.
 Variable       Old X    -DE/DX   Delta X   Delta X   Delta X     New X
                                 (Linear)    (Quad)   (Total)
    R1        1.91448  -0.00009   0.00000  -0.00021  -0.00021   1.91427
    R2        1.91448  -0.00009   0.00000  -0.00021  -0.00021   1.91427
    R3        1.91448  -0.00009   0.00000  -0.00021  -0.00021   1.91427
    A1        1.88036   0.00000   0.00000   0.00015   0.00015   1.88052
    A2        1.88036   0.00000   0.00000   0.00015   0.00015   1.88052
    A3        1.88036   0.00000   0.00000   0.00015   0.00015   1.88052
    D1       -2.02430  -0.00000   0.00000  -0.00034  -0.00034  -2.02463
         Item               Value     Threshold  Converged?
 Maximum Force            0.000090     0.000450     YES
 RMS     Force            0.000059     0.000300     YES
 Maximum Displacement     0.000252     0.001800     YES
 RMS     Displacement     0.000128     0.001200     YES
 Predicted change in Energy=-3.031860D-08
 Optimization completed.
    -- Stationary point found.
                           ----------------------------
                           !   Optimized Parameters   !
                           ! (Angstroms and Degrees)  !
 --------------------------                            --------------------------
 ! Name  Definition              Value          Derivative Info.                !
 --------------------------------------------------------------------------------
 ! R1    R(1,2)                  1.0131         -DE/DX =   -0.0001              !
 ! R2    R(1,3)                  1.0131         -DE/DX =   -0.0001              !
 ! R3    R(1,4)                  1.0131         -DE/DX =   -0.0001              !
 ! A1    A(2,1,3)              107.7368         -DE/DX =    0.0                 !
 ! A2    A(2,1,4)              107.7368         -DE/DX =    0.0                 !
 ! A3    A(3,1,4)              107.7368         -DE/DX =    0.0                 !
 ! D1    D(2,1,4,3)           -115.9837         -DE/DX =    0.0                 !
 --------------------------------------------------------------------------------
 GradGradGradGradGradGradGradGradGradGradGradGradGradGradGradGradGradGrad

 Leave Link  103 at Sun Oct 13 19:38:37 2019, MaxMem=  1342177280 cpu:               3.3 elap:               0.6
 (Enter /apps/cent7/gaussian/g16-A.03/g16-haswell/g16/l9999.exe)

 ----------------------------------------------------------------------

 Electric dipole moment (input orientation):
 (Debye = 10**-18 statcoulomb cm , SI units = C m)
                  (au)            (Debye)         (10**-30 SI)
   Tot        0.678785D+00      0.172530D+01      0.575498D+01
   x          0.678785D+00      0.172530D+01      0.575498D+01
   y          0.000000D+00      0.000000D+00      0.000000D+00
   z          0.000000D+00      0.000000D+00      0.000000D+00

 Dipole polarizability, Alpha (input orientation).
 (esu units = cm**3 , SI units = C**2 m**2 J**-1)
 Alpha(0;0):
               (au)            (10**-24 esu)      (10**-40 SI)
   iso        0.111948D+02      0.165889D+01      0.184577D+01
   aniso      0.119601D+01      0.177231D+00      0.197196D+00
   xx         0.119921D+02      0.177705D+01      0.197723D+01
   yx        -0.154738D-02     -0.229297D-03     -0.255128D-03
   yy         0.107969D+02      0.159994D+01      0.178017D+01
   zx         0.000000D+00      0.000000D+00      0.000000D+00
   zy         0.000000D+00      0.000000D+00      0.000000D+00
   zz         0.107953D+02      0.159969D+01      0.177990D+01

 ----------------------------------------------------------------------

 Dipole orientation:
     7          0.00002360          1.95844355         -0.02291250
     1          0.00000230          0.17297576          0.66799162
     1         -1.54622622          2.85119590          0.66799162
     1          1.54629472          2.85115901          0.66799162

 Electric dipole moment (dipole orientation):
 (Debye = 10**-18 statcoulomb cm , SI units = C m)
                  (au)            (Debye)         (10**-30 SI)
   Tot        0.678785D+00      0.172530D+01      0.575498D+01
   x          0.000000D+00      0.000000D+00      0.000000D+00
   y          0.000000D+00      0.000000D+00      0.000000D+00
   z          0.678785D+00      0.172530D+01      0.575498D+01

 Dipole polarizability, Alpha (dipole orientation).
 (esu units = cm**3 , SI units = C**2 m**2 J**-1)
 Alpha(0;0):
               (au)            (10**-24 esu)      (10**-40 SI)
   iso        0.111948D+02      0.165889D+01      0.184577D+01
   aniso      0.119601D+01      0.177231D+00      0.197196D+00
   xx         0.107953D+02      0.159969D+01      0.177990D+01
   yx         0.000000D+00      0.000000D+00      0.000000D+00
   yy         0.107969D+02      0.159994D+01      0.178017D+01
   zx         0.000000D+00      0.000000D+00      0.000000D+00
   zy        -0.153297D-02     -0.227163D-03     -0.252753D-03
   zz         0.119921D+02      0.177705D+01      0.197723D+01

 ----------------------------------------------------------------------
 1\1\GINC-BROWN-FE02\Freq\RM062X\6-311++G(d,p)\H3N1\FINEJ\13-Oct-2019\0
 \\#P Geom=AllCheck Guess=TCheck SCRF=Check GenChk RM062X/6-311++G(d,p)
  Freq\\Title Card Required\\0,1\N,-0.0121122864,1.0363638441,0.\H,0.35
 34870448,0.0915305681,-0.000000116\H,0.3535041231,1.508773773,0.818245
 8619\H,0.3535041231,1.5087739739,-0.8182457459\\Version=ES64L-G16RevA.
 03\State=1-A1\HF=-56.5459569\RMSD=1.796e-09\RMSF=5.463e-05\ZeroPoint=0
 .0346433\Thermal=0.0346433\Dipole=0.6787845,-0.0000082,0.\DipoleDeriv=
 -0.6974018,-0.0003348,0.,0.0004997,-0.4540464,0.,0.,0.,-0.4528196,0.23
 23831,0.1364371,0.,0.098744,0.1103276,0.,0.,0.,0.1921106,0.2324441,-0.
 0681355,-0.11817,-0.0494976,0.1717632,-0.0355743,-0.0857559,-0.035425,
 0.130565,0.2324441,-0.0681356,0.11817,-0.0494976,0.1717632,0.0355744,0
 .0857559,0.035425,0.130565\Polar=11.9921082,-0.0015474,10.796919,0.,0.
 ,10.7952752\Quadrupole=-1.6653322,0.8326661,0.8326661,0.0000301,0.,0.\
 PG=C03V [C3(N1),3SGV(H1)]\NImag=0\\0.21027735,-0.00015651,0.67278013,0
 .,0.,0.67273627,-0.07009888,0.17348266,0.00000002,0.06825883,0.1199657
 7,-0.38634828,-0.00000004,-0.13960196,0.41794880,0.00000001,-0.0000000
 4,-0.06226473,-0.00000002,0.00000004,0.05905109,-0.07009671,-0.0867035
 8,-0.15018551,0.00092002,0.00982070,0.01388813,0.06826388,-0.05994514,
 -0.14324941,-0.14030442,-0.01693847,-0.01579166,-0.03309872,0.06980404
 ,0.14877295,-0.10384704,-0.14030849,-0.30528029,-0.00156085,0.00297825
 ,0.00159822,0.12090437,0.15540433,0.32822189,-0.07009671,-0.08670362,0
 .15018548,0.00092002,0.00982070,-0.01388813,0.00092028,0.00711748,-0.0
 1544963,0.06826388,-0.05994517,-0.14324948,0.14030446,-0.01693847,-0.0
 1579167,0.03309871,0.00711748,0.01029304,-0.01803820,0.06980407,0.1487
 7303,0.10384702,0.14030853,-0.30528022,0.00156084,-0.00297825,0.001598
 23,0.01544963,0.01803821,-0.02448674,-0.12090436,-0.15540438,0.3282218
 1\\-0.00010653,0.,0.,0.00003551,-0.00008302,0.,0.00003551,0.00004151,0
 .00007190,0.00003551,0.00004151,-0.00007190\\\@


 HIGGLEDY-PIGGLEDY
 NIC'LAUS COPERNICUS
 LOOKED AT THE UNIVERSE,
 SPOKE TO THE THRONG;
 GIVE UP YOUR PTOLOMY,
 RISE UP AND FOLLOW ME,
 HELIOCENTRICALLY
 PTOLEMY'S WRONG.
   -- NANCY L. STARK
 Job cpu time:       0 days  0 hours  5 minutes 33.1 seconds.
 Elapsed time:       0 days  0 hours  1 minutes  8.7 seconds.
 File lengths (MBytes):  RWF=      6 Int=      0 D2E=      0 Chk=      1 Scr=      1
 Normal termination of Gaussian 16 at Sun Oct 13 19:38:38 2019.
