 Entering Gaussian System, Link 0=g16
 Input=ammonia_p.com
 Output=ammonia_p.log
 Initial command:
 /apps/cent7/gaussian/g16-A.03/g16-haswell/g16/l1.exe "/scratch/brown/finej/0062_qm/train2/Gau-406905.inp" -scrdir="/scratch/brown/finej/0062_qm/train2/"
 Entering Link 1 = /apps/cent7/gaussian/g16-A.03/g16-haswell/g16/l1.exe PID=    406906.
  
 Copyright (c) 1988,1990,1992,1993,1995,1998,2003,2009,2016,
            Gaussian, Inc.  All Rights Reserved.
  
 This is part of the Gaussian(R) 16 program.  It is based on
 the Gaussian(R) 09 system (copyright 2009, Gaussian, Inc.),
 the Gaussian(R) 03 system (copyright 2003, Gaussian, Inc.),
 the Gaussian(R) 98 system (copyright 1998, Gaussian, Inc.),
 the Gaussian(R) 94 system (copyright 1995, Gaussian, Inc.),
 the Gaussian 92(TM) system (copyright 1992, Gaussian, Inc.),
 the Gaussian 90(TM) system (copyright 1990, Gaussian, Inc.),
 the Gaussian 88(TM) system (copyright 1988, Gaussian, Inc.),
 the Gaussian 86(TM) system (copyright 1986, Carnegie Mellon
 University), and the Gaussian 82(TM) system (copyright 1983,
 Carnegie Mellon University). Gaussian is a federally registered
 trademark of Gaussian, Inc.
  
 This software contains proprietary and confidential information,
 including trade secrets, belonging to Gaussian, Inc.
  
 This software is provided under written license and may be
 used, copied, transmitted, or stored only in accord with that
 written license.
  
 The following legend is applicable only to US Government
 contracts under FAR:
  
                    RESTRICTED RIGHTS LEGEND
  
 Use, reproduction and disclosure by the US Government is
 subject to restrictions as set forth in subparagraphs (a)
 and (c) of the Commercial Computer Software - Restricted
 Rights clause in FAR 52.227-19.
  
 Gaussian, Inc.
 340 Quinnipiac St., Bldg. 40, Wallingford CT 06492
  
  
 ---------------------------------------------------------------
 Warning -- This program may not be used in any manner that
 competes with the business of Gaussian, Inc. or will provide
 assistance to any competitor of Gaussian, Inc.  The licensee
 of this program is prohibited from giving any competitor of
 Gaussian, Inc. access to this program.  By using this program,
 the user acknowledges that Gaussian, Inc. is engaged in the
 business of creating and licensing software in the field of
 computational chemistry and represents and warrants to the
 licensee that it is not a competitor of Gaussian, Inc. and that
 it will not use this program in any manner prohibited above.
 ---------------------------------------------------------------
  

 Cite this work as:
 Gaussian 16, Revision A.03,
 M. J. Frisch, G. W. Trucks, H. B. Schlegel, G. E. Scuseria, 
 M. A. Robb, J. R. Cheeseman, G. Scalmani, V. Barone, 
 G. A. Petersson, H. Nakatsuji, X. Li, M. Caricato, A. V. Marenich, 
 J. Bloino, B. G. Janesko, R. Gomperts, B. Mennucci, H. P. Hratchian, 
 J. V. Ortiz, A. F. Izmaylov, J. L. Sonnenberg, D. Williams-Young, 
 F. Ding, F. Lipparini, F. Egidi, J. Goings, B. Peng, A. Petrone, 
 T. Henderson, D. Ranasinghe, V. G. Zakrzewski, J. Gao, N. Rega, 
 G. Zheng, W. Liang, M. Hada, M. Ehara, K. Toyota, R. Fukuda, 
 J. Hasegawa, M. Ishida, T. Nakajima, Y. Honda, O. Kitao, H. Nakai, 
 T. Vreven, K. Throssell, J. A. Montgomery, Jr., J. E. Peralta, 
 F. Ogliaro, M. J. Bearpark, J. J. Heyd, E. N. Brothers, K. N. Kudin, 
 V. N. Staroverov, T. A. Keith, R. Kobayashi, J. Normand, 
 K. Raghavachari, A. P. Rendell, J. C. Burant, S. S. Iyengar, 
 J. Tomasi, M. Cossi, J. M. Millam, M. Klene, C. Adamo, R. Cammi, 
 J. W. Ochterski, R. L. Martin, K. Morokuma, O. Farkas, 
 J. B. Foresman, and D. J. Fox, Gaussian, Inc., Wallingford CT, 2016.
 
 ******************************************
 Gaussian 16:  ES64L-G16RevA.03 25-Dec-2016
                13-Oct-2019 
 ******************************************
 %chk=ammonia_p.chk
 %nprocshared=24
 Will use up to   24 processors via shared memory.
 %mem=10GB
 -------------------------------------------------------------------
 #P opt freq m062x/6-311++g(d,p) geom=connectivity temperature=0.001
 -------------------------------------------------------------------
 1/18=20,19=15,26=3,38=1,57=2,112=-1000/1,3;
 2/9=110,12=2,17=6,18=5,40=1/2;
 3/5=4,6=6,7=1111,11=2,25=1,30=1,71=1,74=-55/1,2,3;
 4//1;
 5/5=2,38=5/2;
 6/7=2,8=2,9=2,10=2,28=1/1;
 7//1,2,3,16;
 1/18=20,19=15,26=3/3(2);
 2/9=110/2;
 99//99;
 2/9=110/2;
 3/5=4,6=6,7=1111,11=2,25=1,30=1,71=1,74=-55/1,2,3;
 4/5=5,16=3,69=1/1;
 5/5=2,38=5/2;
 7//1,2,3,16;
 1/18=20,19=15,26=3/3(-5);
 2/9=110/2;
 6/7=2,8=2,9=2,10=2,19=2,28=1/1;
 99/9=1/99;
 Leave Link    1 at Sun Oct 13 19:38:53 2019, MaxMem=  1342177280 cpu:               2.4 elap:               0.4
 (Enter /apps/cent7/gaussian/g16-A.03/g16-haswell/g16/l101.exe)
 -------------------
 Title Card Required
 -------------------
 Symbolic Z-matrix:
 Charge =  1 Multiplicity = 1
 N                     0.01212   1.03636   0. 
 H                     0.34544   0.09355   0. 
 H                     0.34546   1.50776   0.8165 
 H                     0.34546   1.50776  -0.8165 
 H                    -0.98788   1.03638   0. 
 
 ITRead=  0  0  0  0  0
 MicOpt= -1 -1 -1 -1 -1
 NAtoms=      5 NQM=        5 NQMF=       0 NMMI=      0 NMMIF=      0
                NMic=       0 NMicF=      0.
                    Isotopes and Nuclear Properties:
 (Nuclear quadrupole moments (NQMom) in fm**2, nuclear magnetic moments (NMagM)
  in nuclear magnetons)

  Atom         1           2           3           4           5
 IAtWgt=          14           1           1           1           1
 AtmWgt=  14.0030740   1.0078250   1.0078250   1.0078250   1.0078250
 NucSpn=           2           1           1           1           1
 AtZEff=  -0.0000000  -0.0000000  -0.0000000  -0.0000000  -0.0000000
 NQMom=    2.0440000   0.0000000   0.0000000   0.0000000   0.0000000
 NMagM=    0.4037610   2.7928460   2.7928460   2.7928460   2.7928460
 AtZNuc=   7.0000000   1.0000000   1.0000000   1.0000000   1.0000000
 Leave Link  101 at Sun Oct 13 19:38:58 2019, MaxMem=  1342177280 cpu:              22.0 elap:               4.6
 (Enter /apps/cent7/gaussian/g16-A.03/g16-haswell/g16/l103.exe)

 GradGradGradGradGradGradGradGradGradGradGradGradGradGradGradGradGradGrad
 Berny optimization.
 Initialization pass.
                           ----------------------------
                           !    Initial Parameters    !
                           ! (Angstroms and Degrees)  !
 --------------------------                            --------------------------
 ! Name  Definition              Value          Derivative Info.                !
 --------------------------------------------------------------------------------
 ! R1    R(1,2)                  1.0            estimate D2E/DX2                !
 ! R2    R(1,3)                  1.0            estimate D2E/DX2                !
 ! R3    R(1,4)                  1.0            estimate D2E/DX2                !
 ! R4    R(1,5)                  1.0            estimate D2E/DX2                !
 ! A1    A(2,1,3)              109.4712         estimate D2E/DX2                !
 ! A2    A(2,1,4)              109.4712         estimate D2E/DX2                !
 ! A3    A(2,1,5)              109.4712         estimate D2E/DX2                !
 ! A4    A(3,1,4)              109.4712         estimate D2E/DX2                !
 ! A5    A(3,1,5)              109.4712         estimate D2E/DX2                !
 ! A6    A(4,1,5)              109.4712         estimate D2E/DX2                !
 ! D1    D(2,1,4,3)           -120.0            estimate D2E/DX2                !
 ! D2    D(2,1,5,3)            120.0            estimate D2E/DX2                !
 ! D3    D(2,1,5,4)           -120.0            estimate D2E/DX2                !
 ! D4    D(3,1,5,4)            120.0            estimate D2E/DX2                !
 --------------------------------------------------------------------------------
 Trust Radius=3.00D-01 FncErr=1.00D-07 GrdErr=1.00D-06 EigMax=2.50D+02 EigMin=1.00D-04
 Number of steps in this run=     24 maximum allowed number of steps=    100.
 GradGradGradGradGradGradGradGradGradGradGradGradGradGradGradGradGradGrad

 Leave Link  103 at Sun Oct 13 19:38:58 2019, MaxMem=  1342177280 cpu:               0.6 elap:               0.1
 (Enter /apps/cent7/gaussian/g16-A.03/g16-haswell/g16/l202.exe)
                          Input orientation:                          
 ---------------------------------------------------------------------
 Center     Atomic      Atomic             Coordinates (Angstroms)
 Number     Number       Type             X           Y           Z
 ---------------------------------------------------------------------
      1          7           0        0.012121    1.036364    0.000000
      2          1           0        0.345443    0.093550    0.000000
      3          1           0        0.345460    1.507764    0.816497
      4          1           0        0.345460    1.507764   -0.816497
      5          1           0       -0.987879    1.036376    0.000000
 ---------------------------------------------------------------------
                    Distance matrix (angstroms):
                    1          2          3          4          5
     1  N    0.000000
     2  H    1.000000   0.000000
     3  H    1.000000   1.632993   0.000000
     4  H    1.000000   1.632993   1.632993   0.000000
     5  H    1.000000   1.632993   1.632993   1.632993   0.000000
 Stoichiometry    H4N(1+)
 Framework group  TD[O(N),4C3(H)]
 Deg. of freedom     1
 Full point group                 TD      NOp  24
 Largest Abelian subgroup         D2      NOp   4
 Largest concise Abelian subgroup D2      NOp   4
                         Standard orientation:                         
 ---------------------------------------------------------------------
 Center     Atomic      Atomic             Coordinates (Angstroms)
 Number     Number       Type             X           Y           Z
 ---------------------------------------------------------------------
      1          7           0        0.000000    0.000000    0.000000
      2          1           0        0.577350    0.577350    0.577350
      3          1           0       -0.577350   -0.577350    0.577350
      4          1           0       -0.577350    0.577350   -0.577350
      5          1           0        0.577350   -0.577350   -0.577350
 ---------------------------------------------------------------------
 Rotational constants (GHZ):         188.0456641         188.0456641         188.0456641
 Leave Link  202 at Sun Oct 13 19:39:00 2019, MaxMem=  1342177280 cpu:               9.4 elap:               1.9
 (Enter /apps/cent7/gaussian/g16-A.03/g16-haswell/g16/l301.exe)
 Standard basis: 6-311++G(d,p) (5D, 7F)
 Ernie: Thresh=  0.10000D-02 Tol=  0.10000D-05 Strict=F.
 There are    15 symmetry adapted cartesian basis functions of A   symmetry.
 There are    12 symmetry adapted cartesian basis functions of B1  symmetry.
 There are    12 symmetry adapted cartesian basis functions of B2  symmetry.
 There are    12 symmetry adapted cartesian basis functions of B3  symmetry.
 There are    14 symmetry adapted basis functions of A   symmetry.
 There are    12 symmetry adapted basis functions of B1  symmetry.
 There are    12 symmetry adapted basis functions of B2  symmetry.
 There are    12 symmetry adapted basis functions of B3  symmetry.
    50 basis functions,    72 primitive gaussians,    51 cartesian basis functions
     5 alpha electrons        5 beta electrons
       nuclear repulsion energy        16.7612831289 Hartrees.
 IExCor= 4336 DFT=T Ex+Corr=M062X ExCW=0 ScaHFX=  0.540000
 ScaDFX=  1.000000  1.000000  1.000000  1.000000 ScalE2=  1.000000  1.000000
 IRadAn=      5 IRanWt=     -1 IRanGd=            0 ICorTp=0 IEmpDi=  4
 NAtoms=    5 NActive=    5 NUniq=    2 SFac= 4.00D+00 NAtFMM=   60 NAOKFM=F Big=F
 Integral buffers will be    131072 words long.
 Raffenetti 2 integral format.
 Two-electron integral symmetry is turned on.
 Leave Link  301 at Sun Oct 13 19:39:01 2019, MaxMem=  1342177280 cpu:               2.5 elap:               0.5
 (Enter /apps/cent7/gaussian/g16-A.03/g16-haswell/g16/l302.exe)
 NPDir=0 NMtPBC=     1 NCelOv=     1 NCel=       1 NClECP=     1 NCelD=      1
         NCelK=      1 NCelE2=     1 NClLst=     1 CellRange=     0.0.
 One-electron integrals computed using PRISM.
 One-electron integral symmetry used in STVInt
 NBasis=    50 RedAO= T EigKep=  1.08D-03  NBF=    14    12    12    12
 NBsUse=    50 1.00D-06 EigRej= -1.00D+00 NBFU=    14    12    12    12
 Precomputing XC quadrature grid using
 IXCGrd= 4 IRadAn=           5 IRanWt=          -1 IRanGd=           0 AccXCQ= 0.00D+00.
 Generated NRdTot=       0 NPtTot=           0 NUsed=           0 NTot=          32
 NSgBfM=    51    51    51    51    51 MxSgAt=     5 MxSgA2=     5.
 Leave Link  302 at Sun Oct 13 19:39:03 2019, MaxMem=  1342177280 cpu:              13.1 elap:               2.8
 (Enter /apps/cent7/gaussian/g16-A.03/g16-haswell/g16/l303.exe)
 DipDrv:  MaxL=1.
 Leave Link  303 at Sun Oct 13 19:39:04 2019, MaxMem=  1342177280 cpu:               2.2 elap:               0.4
 (Enter /apps/cent7/gaussian/g16-A.03/g16-haswell/g16/l401.exe)
 ExpMin= 3.60D-02 ExpMax= 6.29D+03 ExpMxC= 9.49D+02 IAcc=3 IRadAn=         5 AccDes= 0.00D+00
 Harris functional with IExCor= 1009 and IRadAn=       5 diagonalized for initial guess.
 HarFok:  IExCor= 1009 AccDes= 0.00D+00 IRadAn=         5 IDoV= 1 UseB2=F ITyADJ=14
 ICtDFT=  3500011 ScaDFX=  1.000000  1.000000  1.000000  1.000000
 FoFCou: FMM=F IPFlag=           0 FMFlag=      100000 FMFlg1=           0
         NFxFlg=           0 DoJE=T BraDBF=F KetDBF=T FulRan=T
         wScrn=  0.000000 ICntrl=       500 IOpCl=  0 I1Cent=   200000004 NGrid=           0
         NMat0=    1 NMatS0=      1 NMatT0=    0 NMatD0=    1 NMtDS0=    0 NMtDT0=    0
 Petite list used in FoFCou.
 Harris En= -56.9459820897580    
 JPrj=0 DoOrth=F DoCkMO=F.
 Initial guess orbital symmetries:
       Occupied  (A1) (A1) (T2) (T2) (T2)
       Virtual   (A1) (T2) (T2) (T2) (T2) (T2) (T2) (A1) (T2) (T2)
                 (T2) (A1) (T2) (T2) (T2) (T2) (T2) (T2) (A1) (E)
                 (E) (A1) (T1) (T1) (T1) (T2) (T2) (T2) (T2) (T2)
                 (T2) (A1) (T2) (T2) (T2) (E) (E) (A1) (T2) (T2)
                 (T2) (T2) (T2) (T2) (A1)
 The electronic state of the initial guess is 1-A1.
 Leave Link  401 at Sun Oct 13 19:39:10 2019, MaxMem=  1342177280 cpu:              27.1 elap:               5.7
 (Enter /apps/cent7/gaussian/g16-A.03/g16-haswell/g16/l502.exe)
 Keep R1 ints in memory in symmetry-blocked form, NReq=21753690.
 FoFCou: FMM=F IPFlag=           0 FMFlag=           0 FMFlg1=           0
         NFxFlg=           0 DoJE=F BraDBF=F KetDBF=F FulRan=T
         wScrn=  0.000000 ICntrl=       600 IOpCl=  0 I1Cent=           0 NGrid=           0
         NMat0=    1 NMatS0=   1275 NMatT0=    0 NMatD0=    1 NMtDS0=    0 NMtDT0=    0
 Petite list used in FoFCou.
 Closed shell SCF:
 Using DIIS extrapolation, IDIIS=  1040.
 NGot=  1342177280 LenX=  1341961490 LenY=  1341958448
 Requested convergence on RMS density matrix=1.00D-08 within 128 cycles.
 Requested convergence on MAX density matrix=1.00D-06.
 Requested convergence on             energy=1.00D-06.
 No special actions if energy rises.

 Cycle   1  Pass 1  IDiag  1:
 E= -56.8559733284956    
 DIIS: error= 3.13D-02 at cycle   1 NSaved=   1.
 NSaved= 1 IEnMin= 1 EnMin= -56.8559733284956     IErMin= 1 ErrMin= 3.13D-02
 ErrMax= 3.13D-02  0.00D+00 EMaxC= 1.00D-01 BMatC= 4.67D-02 BMatP= 4.67D-02
 IDIUse=3 WtCom= 6.87D-01 WtEn= 3.13D-01
 Coeff-Com:  0.100D+01
 Coeff-En:   0.100D+01
 Coeff:      0.100D+01
 Gap=     0.652 Goal=   None    Shift=    0.000
 GapD=    0.652 DampG=2.000 DampE=0.500 DampFc=1.0000 IDamp=-1.
 RMSDP=2.50D-03 MaxDP=6.81D-02              OVMax= 6.71D-02

 Cycle   2  Pass 1  IDiag  1:
 E= -56.8621213199392     Delta-E=       -0.006147991444 Rises=F Damp=F
 DIIS: error= 2.93D-02 at cycle   2 NSaved=   2.
 NSaved= 2 IEnMin= 2 EnMin= -56.8621213199392     IErMin= 2 ErrMin= 2.93D-02
 ErrMax= 2.93D-02  0.00D+00 EMaxC= 1.00D-01 BMatC= 2.34D-02 BMatP= 4.67D-02
 IDIUse=3 WtCom= 7.07D-01 WtEn= 2.93D-01
 Coeff-Com:  0.407D+00 0.593D+00
 Coeff-En:   0.415D+00 0.585D+00
 Coeff:      0.409D+00 0.591D+00
 Gap=     0.710 Goal=   None    Shift=    0.000
 RMSDP=1.39D-03 MaxDP=3.56D-02 DE=-6.15D-03 OVMax= 3.82D-02

 Cycle   3  Pass 1  IDiag  1:
 E= -56.8791058260170     Delta-E=       -0.016984506078 Rises=F Damp=F
 DIIS: error= 3.82D-03 at cycle   3 NSaved=   3.
 NSaved= 3 IEnMin= 3 EnMin= -56.8791058260170     IErMin= 3 ErrMin= 3.82D-03
 ErrMax= 3.82D-03  0.00D+00 EMaxC= 1.00D-01 BMatC= 4.12D-04 BMatP= 2.34D-02
 IDIUse=3 WtCom= 9.62D-01 WtEn= 3.82D-02
 Coeff-Com: -0.866D-02 0.109D+00 0.900D+00
 Coeff-En:   0.000D+00 0.000D+00 0.100D+01
 Coeff:     -0.833D-02 0.104D+00 0.904D+00
 Gap=     0.702 Goal=   None    Shift=    0.000
 RMSDP=1.69D-04 MaxDP=4.31D-03 DE=-1.70D-02 OVMax= 4.55D-03

 Cycle   4  Pass 1  IDiag  1:
 E= -56.8794043803687     Delta-E=       -0.000298554352 Rises=F Damp=F
 DIIS: error= 1.24D-04 at cycle   4 NSaved=   4.
 NSaved= 4 IEnMin= 4 EnMin= -56.8794043803687     IErMin= 4 ErrMin= 1.24D-04
 ErrMax= 1.24D-04  0.00D+00 EMaxC= 1.00D-01 BMatC= 5.12D-07 BMatP= 4.12D-04
 IDIUse=3 WtCom= 9.99D-01 WtEn= 1.24D-03
 Coeff-Com:  0.241D-03-0.110D-01-0.485D-01 0.106D+01
 Coeff-En:   0.000D+00 0.000D+00 0.000D+00 0.100D+01
 Coeff:      0.241D-03-0.109D-01-0.484D-01 0.106D+01
 Gap=     0.702 Goal=   None    Shift=    0.000
 RMSDP=6.49D-06 MaxDP=1.67D-04 DE=-2.99D-04 OVMax= 1.49D-04

 Cycle   5  Pass 1  IDiag  1:
 E= -56.8794047460956     Delta-E=       -0.000000365727 Rises=F Damp=F
 DIIS: error= 5.86D-06 at cycle   5 NSaved=   5.
 NSaved= 5 IEnMin= 5 EnMin= -56.8794047460956     IErMin= 5 ErrMin= 5.86D-06
 ErrMax= 5.86D-06  0.00D+00 EMaxC= 1.00D-01 BMatC= 1.21D-09 BMatP= 5.12D-07
 IDIUse=1 WtCom= 1.00D+00 WtEn= 0.00D+00
 Coeff-Com:  0.265D-04 0.460D-03 0.237D-02-0.736D-01 0.107D+01
 Coeff:      0.265D-04 0.460D-03 0.237D-02-0.736D-01 0.107D+01
 Gap=     0.702 Goal=   None    Shift=    0.000
 RMSDP=4.83D-07 MaxDP=1.03D-05 DE=-3.66D-07 OVMax= 8.99D-06

 Cycle   6  Pass 1  IDiag  1:
 E= -56.8794047471505     Delta-E=       -0.000000001055 Rises=F Damp=F
 DIIS: error= 4.07D-07 at cycle   6 NSaved=   6.
 NSaved= 6 IEnMin= 6 EnMin= -56.8794047471505     IErMin= 6 ErrMin= 4.07D-07
 ErrMax= 4.07D-07  0.00D+00 EMaxC= 1.00D-01 BMatC= 4.18D-12 BMatP= 1.21D-09
 IDIUse=1 WtCom= 1.00D+00 WtEn= 0.00D+00
 Coeff-Com: -0.537D-05 0.614D-04 0.125D-03-0.603D-02-0.775D-01 0.108D+01
 Coeff:     -0.537D-05 0.614D-04 0.125D-03-0.603D-02-0.775D-01 0.108D+01
 Gap=     0.702 Goal=   None    Shift=    0.000
 RMSDP=7.25D-08 MaxDP=6.63D-07 DE=-1.05D-09 OVMax= 1.20D-06

 Cycle   7  Pass 1  IDiag  1:
 E= -56.8794047471586     Delta-E=       -0.000000000008 Rises=F Damp=F
 DIIS: error= 3.25D-08 at cycle   7 NSaved=   7.
 NSaved= 7 IEnMin= 7 EnMin= -56.8794047471586     IErMin= 7 ErrMin= 3.25D-08
 ErrMax= 3.25D-08  0.00D+00 EMaxC= 1.00D-01 BMatC= 4.87D-14 BMatP= 4.18D-12
 IDIUse=1 WtCom= 1.00D+00 WtEn= 0.00D+00
 Coeff-Com:  0.437D-06-0.620D-05-0.953D-05 0.568D-03 0.399D-02-0.107D+00
 Coeff-Com:  0.110D+01
 Coeff:      0.437D-06-0.620D-05-0.953D-05 0.568D-03 0.399D-02-0.107D+00
 Coeff:      0.110D+01
 Gap=     0.702 Goal=   None    Shift=    0.000
 RMSDP=8.22D-09 MaxDP=1.06D-07 DE=-8.14D-12 OVMax= 6.88D-08

 SCF Done:  E(RM062X) =  -56.8794047472     A.U. after    7 cycles
            NFock=  7  Conv=0.82D-08     -V/T= 2.0010
 KE= 5.682151859429D+01 PE=-1.624465151442D+02 EE= 3.198430867380D+01
 Leave Link  502 at Sun Oct 13 19:39:28 2019, MaxMem=  1342177280 cpu:              88.8 elap:              18.5
 (Enter /apps/cent7/gaussian/g16-A.03/g16-haswell/g16/l601.exe)
 Copying SCF densities to generalized density rwf, IOpCl= 0 IROHF=0.

 **********************************************************************

            Population analysis using the SCF density.

 **********************************************************************

 Orbital symmetries:
       Occupied  (A1) (A1) (T2) (T2) (T2)
       Virtual   (A1) (T2) (T2) (T2) (T2) (T2) (T2) (A1) (T2) (T2)
                 (T2) (A1) (T2) (T2) (T2) (A1) (T2) (T2) (T2) (E)
                 (E) (A1) (T1) (T1) (T1) (T2) (T2) (T2) (T2) (T2)
                 (T2) (A1) (T2) (T2) (T2) (E) (E) (A1) (T2) (T2)
                 (T2) (T2) (T2) (T2) (A1)
 The electronic state is 1-A1.
 Alpha  occ. eigenvalues --  -15.11485  -1.37021  -0.90942  -0.90942  -0.90942
 Alpha virt. eigenvalues --   -0.20725  -0.13430  -0.13430  -0.13430  -0.08140
 Alpha virt. eigenvalues --   -0.08140  -0.08140  -0.03112   0.01211   0.01211
 Alpha virt. eigenvalues --    0.01211   0.10608   0.24706   0.24706   0.24706
 Alpha virt. eigenvalues --    0.52650   0.53353   0.53353   0.53353   0.74962
 Alpha virt. eigenvalues --    0.74962   0.76878   1.25238   1.25238   1.25238
 Alpha virt. eigenvalues --    1.52538   1.52538   1.52538   1.84330   1.84330
 Alpha virt. eigenvalues --    1.84330   2.18291   2.24832   2.24832   2.24832
 Alpha virt. eigenvalues --    2.41966   2.41966   2.70292   2.78782   2.78782
 Alpha virt. eigenvalues --    2.78782   4.55731   4.55731   4.55731  35.46623
          Condensed to atoms (all electrons):
               1          2          3          4          5
     1  N    6.128189   0.343684   0.343684   0.343684   0.343684
     2  H    0.343684   0.320542  -0.013319  -0.013319  -0.013319
     3  H    0.343684  -0.013319   0.320542  -0.013319  -0.013319
     4  H    0.343684  -0.013319  -0.013319   0.320542  -0.013319
     5  H    0.343684  -0.013319  -0.013319  -0.013319   0.320542
 Mulliken charges:
               1
     1  N   -0.502926
     2  H    0.375732
     3  H    0.375732
     4  H    0.375732
     5  H    0.375732
 Sum of Mulliken charges =   1.00000
 Mulliken charges with hydrogens summed into heavy atoms:
               1
     1  N    1.000000
 Electronic spatial extent (au):  <R**2>=             24.0893
 Charge=              1.0000 electrons
 Dipole moment (field-independent basis, Debye):
    X=              0.0000    Y=              0.0000    Z=              0.0000  Tot=              0.0000
 Quadrupole moment (field-independent basis, Debye-Ang):
   XX=             -4.3960   YY=             -4.3960   ZZ=             -4.3960
   XY=              0.0000   XZ=              0.0000   YZ=              0.0000
 Traceless Quadrupole moment (field-independent basis, Debye-Ang):
   XX=              0.0000   YY=              0.0000   ZZ=             -0.0000
   XY=              0.0000   XZ=              0.0000   YZ=              0.0000
 Octapole moment (field-independent basis, Debye-Ang**2):
  XXX=              0.0000  YYY=              0.0000  ZZZ=              0.0000  XYY=             -0.0000
  XXY=              0.0000  XXZ=              0.0000  XZZ=              0.0000  YZZ=              0.0000
  YYZ=              0.0000  XYZ=              1.7095
 Hexadecapole moment (field-independent basis, Debye-Ang**3):
 XXXX=             -7.2502 YYYY=             -7.2502 ZZZZ=             -7.2502 XXXY=              0.0000
 XXXZ=              0.0000 YYYX=              0.0000 YYYZ=              0.0000 ZZZX=              0.0000
 ZZZY=              0.0000 XXYY=             -1.6263 XXZZ=             -1.6263 YYZZ=             -1.6263
 XXYZ=              0.0000 YYXZ=              0.0000 ZZXY=              0.0000
 N-N= 1.676128312894D+01 E-N=-1.624465159290D+02  KE= 5.682151859429D+01
 Symmetry A    KE= 4.803181147194D+01
 Symmetry B1   KE= 2.929902374118D+00
 Symmetry B2   KE= 2.929902374118D+00
 Symmetry B3   KE= 2.929902374118D+00
 No NMR shielding tensors so no spin-rotation constants.
 Leave Link  601 at Sun Oct 13 19:39:31 2019, MaxMem=  1342177280 cpu:              13.3 elap:               2.8
 (Enter /apps/cent7/gaussian/g16-A.03/g16-haswell/g16/l701.exe)
 ... and contract with generalized density number  0.
 Compute integral first derivatives.
 Leave Link  701 at Sun Oct 13 19:39:33 2019, MaxMem=  1342177280 cpu:               9.1 elap:               1.9
 (Enter /apps/cent7/gaussian/g16-A.03/g16-haswell/g16/l702.exe)
 L702 exits ... SP integral derivatives will be done elsewhere.
 Leave Link  702 at Sun Oct 13 19:39:33 2019, MaxMem=  1342177280 cpu:               2.0 elap:               0.4
 (Enter /apps/cent7/gaussian/g16-A.03/g16-haswell/g16/l703.exe)
 Integral derivatives from FoFJK, PRISM(SPDF).
 Compute integral first derivatives, UseDBF=F ICtDFT=           0.
 Calling FoFJK, ICntrl=      2127 FMM=F ISym2X=1 I1Cent= 0 IOpClX= 0 NMat=1 NMatS=1 NMatT=0.
 FoFJK:  IHMeth= 1 ICntrl=    2127 DoSepK=F KAlg= 0 I1Cent=           0 FoldK=F
 IRaf=         0 NMat=       1 IRICut=       1 DoRegI=T DoRafI=F ISym2E= 1 IDoP0=0 IntGTp=1.
 FoFCou: FMM=F IPFlag=           0 FMFlag=      100000 FMFlg1=         800
         NFxFlg=           0 DoJE=F BraDBF=F KetDBF=F FulRan=T
         wScrn=  0.000000 ICntrl=      2127 IOpCl=  0 I1Cent=           0 NGrid=           0
         NMat0=    1 NMatS0=      1 NMatT0=    0 NMatD0=    1 NMtDS0=    0 NMtDT0=    0
 Petite list used in FoFCou.
 Leave Link  703 at Sun Oct 13 19:39:36 2019, MaxMem=  1342177280 cpu:              14.2 elap:               2.9
 (Enter /apps/cent7/gaussian/g16-A.03/g16-haswell/g16/l716.exe)
 Dipole        = 2.22044605D-16 4.44089210D-16 1.55431223D-15
 ***** Axes restored to original set *****
 -------------------------------------------------------------------
 Center     Atomic                   Forces (Hartrees/Bohr)
 Number     Number              X              Y              Z
 -------------------------------------------------------------------
      1        7          -0.000000000    0.000000000   -0.000000000
      2        1           0.007723166   -0.021845277   -0.000000000
      3        1           0.007723574    0.010922494    0.018918482
      4        1           0.007723574    0.010922494   -0.018918482
      5        1          -0.023170313    0.000000288    0.000000000
 -------------------------------------------------------------------
 Cartesian Forces:  Max     0.023170313 RMS     0.011965098
 Leave Link  716 at Sun Oct 13 19:39:36 2019, MaxMem=  1342177280 cpu:               1.5 elap:               0.3
 (Enter /apps/cent7/gaussian/g16-A.03/g16-haswell/g16/l103.exe)

 GradGradGradGradGradGradGradGradGradGradGradGradGradGradGradGradGradGrad
 Berny optimization.
 FormGI is forming the generalized inverse of G from B-inverse, IUseBI=4.
 Internal  Forces:  Max     0.023170314 RMS     0.012385054
 Search for a local minimum.
 Step number   1 out of a maximum of   24
 All quantities printed in internal units (Hartrees-Bohrs-Radians)
 RMS Force = .12385D-01 SwitMx=.10000D-02 MixMth= 1
 Mixed Optimization -- RFO/linear search
 Second derivative matrix not updated -- first step.
 The second derivative matrix:
                          R1        R2        R3        R4        A1
           R1           0.47688
           R2           0.00000   0.47688
           R3           0.00000   0.00000   0.47688
           R4           0.00000   0.00000   0.00000   0.47688
           A1           0.00000   0.00000   0.00000   0.00000   0.16000
           A2           0.00000   0.00000   0.00000   0.00000   0.00000
           A3           0.00000   0.00000   0.00000   0.00000   0.00000
           A4           0.00000   0.00000   0.00000   0.00000   0.00000
           A5           0.00000   0.00000   0.00000   0.00000   0.00000
           A6           0.00000   0.00000   0.00000   0.00000   0.00000
           D1           0.00000   0.00000   0.00000   0.00000   0.00000
           D2           0.00000   0.00000   0.00000   0.00000   0.00000
           D3           0.00000   0.00000   0.00000   0.00000   0.00000
           D4           0.00000   0.00000   0.00000   0.00000   0.00000
                          A2        A3        A4        A5        A6
           A2           0.16000
           A3           0.00000   0.16000
           A4           0.00000   0.00000   0.16000
           A5           0.00000   0.00000   0.00000   0.16000
           A6           0.00000   0.00000   0.00000   0.00000   0.16000
           D1           0.00000   0.00000   0.00000   0.00000   0.00000
           D2           0.00000   0.00000   0.00000   0.00000   0.00000
           D3           0.00000   0.00000   0.00000   0.00000   0.00000
           D4           0.00000   0.00000   0.00000   0.00000   0.00000
                          D1        D2        D3        D4
           D1           0.01028
           D2           0.00000   0.01028
           D3           0.00000   0.00000   0.01028
           D4           0.00000   0.00000   0.00000   0.01028
 ITU=  0
     Eigenvalues ---    0.05635   0.06236   0.09013   0.16000   0.16000
     Eigenvalues ---    0.47688   0.47688   0.47688   0.47688
 RFO step:  Lambda=-4.46136749D-03 EMin= 5.63503380D-02
 Linear search not attempted -- first point.
 Iteration  1 RMS(Cart)=  0.02573011 RMS(Int)=  0.00000000
 Iteration  2 RMS(Cart)=  0.00000000 RMS(Int)=  0.00000000
 ITry= 1 IFail=0 DXMaxC= 4.81D-02 DCOld= 1.00D+10 DXMaxT= 3.00D-01 DXLimC= 3.00D+00 Rises=F
 ClnCor:  largest displacement from symmetrization is 1.65D-14 for atom     3.
 Variable       Old X    -DE/DX   Delta X   Delta X   Delta X     New X
                                 (Linear)    (Quad)   (Total)
    R1        1.88973   0.02317   0.00000   0.04814   0.04814   1.93786
    R2        1.88973   0.02317   0.00000   0.04814   0.04814   1.93786
    R3        1.88973   0.02317   0.00000   0.04814   0.04814   1.93786
    R4        1.88973   0.02317   0.00000   0.04814   0.04814   1.93786
    A1        1.91063  -0.00000   0.00000  -0.00000   0.00000   1.91063
    A2        1.91063   0.00000   0.00000  -0.00000   0.00000   1.91063
    A3        1.91063  -0.00000   0.00000  -0.00000   0.00000   1.91063
    A4        1.91063   0.00000   0.00000   0.00000  -0.00000   1.91063
    A5        1.91063   0.00000   0.00000   0.00000   0.00000   1.91063
    A6        1.91063  -0.00000   0.00000  -0.00000  -0.00000   1.91063
    D1       -2.09440   0.00000   0.00000   0.00000   0.00000  -2.09440
    D2        2.09440  -0.00000   0.00000  -0.00000   0.00000   2.09440
    D3       -2.09440   0.00000   0.00000   0.00000  -0.00000  -2.09440
    D4        2.09440   0.00000   0.00000   0.00000  -0.00000   2.09440
         Item               Value     Threshold  Converged?
 Maximum Force            0.023170     0.000450     NO 
 RMS     Force            0.012385     0.000300     NO 
 Maximum Displacement     0.048137     0.001800     NO 
 RMS     Displacement     0.025730     0.001200     NO 
 Predicted change in Energy=-2.251357D-03
 Lowest energy point so far.  Saving SCF results.
 GradGradGradGradGradGradGradGradGradGradGradGradGradGradGradGradGradGrad

 Leave Link  103 at Sun Oct 13 19:39:38 2019, MaxMem=  1342177280 cpu:               9.5 elap:               1.9
 (Enter /apps/cent7/gaussian/g16-A.03/g16-haswell/g16/l202.exe)
                          Input orientation:                          
 ---------------------------------------------------------------------
 Center     Atomic      Atomic             Coordinates (Angstroms)
 Number     Number       Type             X           Y           Z
 ---------------------------------------------------------------------
      1          7           0        0.012121    1.036364    0.000000
      2          1           0        0.353933    0.069534   -0.000000
      3          1           0        0.353951    1.519772    0.837295
      4          1           0        0.353951    1.519772   -0.837295
      5          1           0       -1.013352    1.036376    0.000000
 ---------------------------------------------------------------------
                    Distance matrix (angstroms):
                    1          2          3          4          5
     1  N    0.000000
     2  H    1.025473   0.000000
     3  H    1.025473   1.674590   0.000000
     4  H    1.025473   1.674590   1.674590   0.000000
     5  H    1.025473   1.674590   1.674590   1.674590   0.000000
 Stoichiometry    H4N(1+)
 Framework group  TD[O(N),4C3(H)]
 Deg. of freedom     1
 Full point group                 TD      NOp  24
 RotChk:  IX=0 Diff= 6.11D-15
 Largest Abelian subgroup         D2      NOp   4
 Largest concise Abelian subgroup D2      NOp   4
                         Standard orientation:                         
 ---------------------------------------------------------------------
 Center     Atomic      Atomic             Coordinates (Angstroms)
 Number     Number       Type             X           Y           Z
 ---------------------------------------------------------------------
      1          7           0        0.000000    0.000000    0.000000
      2          1           0        0.592057    0.592057    0.592057
      3          1           0       -0.592057   -0.592057    0.592057
      4          1           0       -0.592057    0.592057   -0.592057
      5          1           0        0.592057   -0.592057   -0.592057
 ---------------------------------------------------------------------
 Rotational constants (GHZ):         178.8195607         178.8195607         178.8195607
 Leave Link  202 at Sun Oct 13 19:39:38 2019, MaxMem=  1342177280 cpu:               0.3 elap:               0.1
 (Enter /apps/cent7/gaussian/g16-A.03/g16-haswell/g16/l301.exe)
 Standard basis: 6-311++G(d,p) (5D, 7F)
 Ernie: Thresh=  0.10000D-02 Tol=  0.10000D-05 Strict=F.
 There are    15 symmetry adapted cartesian basis functions of A   symmetry.
 There are    12 symmetry adapted cartesian basis functions of B1  symmetry.
 There are    12 symmetry adapted cartesian basis functions of B2  symmetry.
 There are    12 symmetry adapted cartesian basis functions of B3  symmetry.
 There are    14 symmetry adapted basis functions of A   symmetry.
 There are    12 symmetry adapted basis functions of B1  symmetry.
 There are    12 symmetry adapted basis functions of B2  symmetry.
 There are    12 symmetry adapted basis functions of B3  symmetry.
    50 basis functions,    72 primitive gaussians,    51 cartesian basis functions
     5 alpha electrons        5 beta electrons
       nuclear repulsion energy        16.3449317674 Hartrees.
 IExCor= 4336 DFT=T Ex+Corr=M062X ExCW=0 ScaHFX=  0.540000
 ScaDFX=  1.000000  1.000000  1.000000  1.000000 ScalE2=  1.000000  1.000000
 IRadAn=      5 IRanWt=     -1 IRanGd=            0 ICorTp=0 IEmpDi=  4
 NAtoms=    5 NActive=    5 NUniq=    2 SFac= 4.00D+00 NAtFMM=   60 NAOKFM=F Big=F
 Integral buffers will be    131072 words long.
 Raffenetti 2 integral format.
 Two-electron integral symmetry is turned on.
 Leave Link  301 at Sun Oct 13 19:39:39 2019, MaxMem=  1342177280 cpu:               2.0 elap:               0.4
 (Enter /apps/cent7/gaussian/g16-A.03/g16-haswell/g16/l302.exe)
 NPDir=0 NMtPBC=     1 NCelOv=     1 NCel=       1 NClECP=     1 NCelD=      1
         NCelK=      1 NCelE2=     1 NClLst=     1 CellRange=     0.0.
 One-electron integrals computed using PRISM.
 One-electron integral symmetry used in STVInt
 NBasis=    50 RedAO= T EigKep=  1.15D-03  NBF=    14    12    12    12
 NBsUse=    50 1.00D-06 EigRej= -1.00D+00 NBFU=    14    12    12    12
 Precomputing XC quadrature grid using
 IXCGrd= 4 IRadAn=           5 IRanWt=          -1 IRanGd=           0 AccXCQ= 0.00D+00.
 Generated NRdTot=       0 NPtTot=           0 NUsed=           0 NTot=          32
 NSgBfM=    51    51    51    51    51 MxSgAt=     5 MxSgA2=     5.
 Leave Link  302 at Sun Oct 13 19:39:43 2019, MaxMem=  1342177280 cpu:              20.2 elap:               4.2
 (Enter /apps/cent7/gaussian/g16-A.03/g16-haswell/g16/l303.exe)
 DipDrv:  MaxL=1.
 Leave Link  303 at Sun Oct 13 19:39:43 2019, MaxMem=  1342177280 cpu:               1.9 elap:               0.4
 (Enter /apps/cent7/gaussian/g16-A.03/g16-haswell/g16/l401.exe)
 Initial guess from the checkpoint file:  "ammonia_p.chk"
 B after Tr=     0.000000    0.000000   -0.000000
         Rot=    1.000000    0.000000    0.000000   -0.000000 Ang=   0.00 deg.
 Guess basis will be translated and rotated to current coordinates.
 JPrj=2 DoOrth=T DoCkMO=T.
 Initial guess orbital symmetries:
       Occupied  (A1) (A1) (T2) (T2) (T2)
       Virtual   (A1) (T2) (T2) (T2) (T2) (T2) (T2) (A1) (T2) (T2)
                 (T2) (A1) (T2) (T2) (T2) (A1) (T2) (T2) (T2) (E)
                 (E) (A1) (T1) (T1) (T1) (T2) (T2) (T2) (T2) (T2)
                 (T2) (A1) (T2) (T2) (T2) (E) (E) (A1) (T2) (T2)
                 (T2) (T2) (T2) (T2) (A1)
 The electronic state of the initial guess is 1-A1.
 Generating alternative initial guess.
 ExpMin= 3.60D-02 ExpMax= 6.29D+03 ExpMxC= 9.49D+02 IAcc=3 IRadAn=         5 AccDes= 0.00D+00
 Harris functional with IExCor= 1009 and IRadAn=       5 diagonalized for initial guess.
 HarFok:  IExCor= 1009 AccDes= 0.00D+00 IRadAn=         5 IDoV= 1 UseB2=F ITyADJ=14
 ICtDFT=  3500011 ScaDFX=  1.000000  1.000000  1.000000  1.000000
 FoFCou: FMM=F IPFlag=           0 FMFlag=      100000 FMFlg1=           0
         NFxFlg=           0 DoJE=T BraDBF=F KetDBF=T FulRan=T
         wScrn=  0.000000 ICntrl=       500 IOpCl=  0 I1Cent=   200000004 NGrid=           0
         NMat0=    1 NMatS0=      1 NMatT0=    0 NMatD0=    1 NMtDS0=    0 NMtDT0=    0
 Petite list used in FoFCou.
 Harris En= -56.9457306339698    
 Leave Link  401 at Sun Oct 13 19:39:49 2019, MaxMem=  1342177280 cpu:              24.7 elap:               5.2
 (Enter /apps/cent7/gaussian/g16-A.03/g16-haswell/g16/l502.exe)
 Keep R1 ints in memory in symmetry-blocked form, NReq=21753690.
 FoFCou: FMM=F IPFlag=           0 FMFlag=           0 FMFlg1=           0
         NFxFlg=           0 DoJE=F BraDBF=F KetDBF=F FulRan=T
         wScrn=  0.000000 ICntrl=       600 IOpCl=  0 I1Cent=           0 NGrid=           0
         NMat0=    1 NMatS0=   1275 NMatT0=    0 NMatD0=    1 NMtDS0=    0 NMtDT0=    0
 Petite list used in FoFCou.
 Closed shell SCF:
 Using DIIS extrapolation, IDIIS=  1040.
 NGot=  1342177280 LenX=  1341961490 LenY=  1341958448
 Requested convergence on RMS density matrix=1.00D-08 within 128 cycles.
 Requested convergence on MAX density matrix=1.00D-06.
 Requested convergence on             energy=1.00D-06.
 No special actions if energy rises.

 Cycle   1  Pass 1  IDiag  1:
 E= -56.8810254402850    
 DIIS: error= 3.90D-03 at cycle   1 NSaved=   1.
 NSaved= 1 IEnMin= 1 EnMin= -56.8810254402850     IErMin= 1 ErrMin= 3.90D-03
 ErrMax= 3.90D-03  0.00D+00 EMaxC= 1.00D-01 BMatC= 7.08D-04 BMatP= 7.08D-04
 IDIUse=3 WtCom= 9.61D-01 WtEn= 3.90D-02
 Coeff-Com:  0.100D+01
 Coeff-En:   0.100D+01
 Coeff:      0.100D+01
 Gap=     0.689 Goal=   None    Shift=    0.000
 GapD=    0.689 DampG=2.000 DampE=1.000 DampFc=2.0000 IDamp=-1.
 RMSDP=4.38D-04 MaxDP=6.44D-03              OVMax= 9.04D-03

 Cycle   2  Pass 1  IDiag  1:
 E= -56.8814361790192     Delta-E=       -0.000410738734 Rises=F Damp=F
 DIIS: error= 2.81D-03 at cycle   2 NSaved=   2.
 NSaved= 2 IEnMin= 2 EnMin= -56.8814361790192     IErMin= 2 ErrMin= 2.81D-03
 ErrMax= 2.81D-03  0.00D+00 EMaxC= 1.00D-01 BMatC= 2.28D-04 BMatP= 7.08D-04
 IDIUse=3 WtCom= 9.72D-01 WtEn= 2.81D-02
 Coeff-Com:  0.316D+00 0.684D+00
 Coeff-En:   0.000D+00 0.100D+01
 Coeff:      0.307D+00 0.693D+00
 Gap=     0.687 Goal=   None    Shift=    0.000
 RMSDP=1.69D-04 MaxDP=4.50D-03 DE=-4.11D-04 OVMax= 4.36D-03

 Cycle   3  Pass 1  IDiag  1:
 E= -56.8815819637769     Delta-E=       -0.000145784758 Rises=F Damp=F
 DIIS: error= 1.04D-03 at cycle   3 NSaved=   3.
 NSaved= 3 IEnMin= 3 EnMin= -56.8815819637769     IErMin= 3 ErrMin= 1.04D-03
 ErrMax= 1.04D-03  0.00D+00 EMaxC= 1.00D-01 BMatC= 2.82D-05 BMatP= 2.28D-04
 IDIUse=3 WtCom= 9.90D-01 WtEn= 1.04D-02
 Coeff-Com: -0.226D-01 0.250D+00 0.773D+00
 Coeff-En:   0.000D+00 0.174D-02 0.998D+00
 Coeff:     -0.224D-01 0.247D+00 0.775D+00
 Gap=     0.686 Goal=   None    Shift=    0.000
 RMSDP=4.26D-05 MaxDP=9.08D-04 DE=-1.46D-04 OVMax= 1.25D-03

 Cycle   4  Pass 1  IDiag  1:
 E= -56.8816029006177     Delta-E=       -0.000020936841 Rises=F Damp=F
 DIIS: error= 2.23D-05 at cycle   4 NSaved=   4.
 NSaved= 4 IEnMin= 4 EnMin= -56.8816029006177     IErMin= 4 ErrMin= 2.23D-05
 ErrMax= 2.23D-05  0.00D+00 EMaxC= 1.00D-01 BMatC= 9.39D-09 BMatP= 2.82D-05
 IDIUse=1 WtCom= 1.00D+00 WtEn= 0.00D+00
 Coeff-Com:  0.131D-02-0.292D-01-0.743D-01 0.110D+01
 Coeff:      0.131D-02-0.292D-01-0.743D-01 0.110D+01
 Gap=     0.686 Goal=   None    Shift=    0.000
 RMSDP=2.45D-06 MaxDP=5.37D-05 DE=-2.09D-05 OVMax= 5.02D-05

 Cycle   5  Pass 1  IDiag  1:
 E= -56.8816029124947     Delta-E=       -0.000000011877 Rises=F Damp=F
 DIIS: error= 1.65D-06 at cycle   5 NSaved=   5.
 NSaved= 5 IEnMin= 5 EnMin= -56.8816029124947     IErMin= 5 ErrMin= 1.65D-06
 ErrMax= 1.65D-06  0.00D+00 EMaxC= 1.00D-01 BMatC= 6.46D-11 BMatP= 9.39D-09
 IDIUse=1 WtCom= 1.00D+00 WtEn= 0.00D+00
 Coeff-Com:  0.887D-04-0.752D-03-0.145D-02-0.334D-01 0.104D+01
 Coeff:      0.887D-04-0.752D-03-0.145D-02-0.334D-01 0.104D+01
 Gap=     0.686 Goal=   None    Shift=    0.000
 RMSDP=1.92D-07 MaxDP=4.20D-06 DE=-1.19D-08 OVMax= 3.44D-06

 Cycle   6  Pass 1  IDiag  1:
 E= -56.8816029125597     Delta-E=       -0.000000000065 Rises=F Damp=F
 DIIS: error= 4.58D-08 at cycle   6 NSaved=   6.
 NSaved= 6 IEnMin= 6 EnMin= -56.8816029125597     IErMin= 6 ErrMin= 4.58D-08
 ErrMax= 4.58D-08  0.00D+00 EMaxC= 1.00D-01 BMatC= 1.07D-13 BMatP= 6.46D-11
 IDIUse=1 WtCom= 1.00D+00 WtEn= 0.00D+00
 Coeff-Com: -0.107D-04 0.173D-03 0.367D-03-0.163D-02-0.781D-01 0.108D+01
 Coeff:     -0.107D-04 0.173D-03 0.367D-03-0.163D-02-0.781D-01 0.108D+01
 Gap=     0.686 Goal=   None    Shift=    0.000
 RMSDP=1.90D-08 MaxDP=2.34D-07 DE=-6.50D-11 OVMax= 1.31D-07

 Cycle   7  Pass 1  IDiag  1:
 E= -56.8816029125598     Delta-E=       -0.000000000000 Rises=F Damp=F
 DIIS: error= 2.48D-09 at cycle   7 NSaved=   7.
 NSaved= 7 IEnMin= 7 EnMin= -56.8816029125598     IErMin= 7 ErrMin= 2.48D-09
 ErrMax= 2.48D-09  0.00D+00 EMaxC= 1.00D-01 BMatC= 3.21D-16 BMatP= 1.07D-13
 IDIUse=1 WtCom= 1.00D+00 WtEn= 0.00D+00
 Coeff-Com:  0.106D-05-0.164D-04-0.371D-04 0.169D-03 0.738D-02-0.117D+00
 Coeff-Com:  0.111D+01
 Coeff:      0.106D-05-0.164D-04-0.371D-04 0.169D-03 0.738D-02-0.117D+00
 Coeff:      0.111D+01
 Gap=     0.686 Goal=   None    Shift=    0.000
 RMSDP=6.83D-10 MaxDP=5.74D-09 DE=-1.56D-13 OVMax= 7.16D-09

 SCF Done:  E(RM062X) =  -56.8816029126     A.U. after    7 cycles
            NFock=  7  Conv=0.68D-09     -V/T= 2.0040
 KE= 5.665711618680D+01 PE=-1.615805380621D+02 EE= 3.169688719533D+01
 Leave Link  502 at Sun Oct 13 19:40:26 2019, MaxMem=  1342177280 cpu:             179.0 elap:              37.3
 (Enter /apps/cent7/gaussian/g16-A.03/g16-haswell/g16/l701.exe)
 ... and contract with generalized density number  0.
 Compute integral first derivatives.
 Leave Link  701 at Sun Oct 13 19:40:30 2019, MaxMem=  1342177280 cpu:              20.9 elap:               4.3
 (Enter /apps/cent7/gaussian/g16-A.03/g16-haswell/g16/l702.exe)
 L702 exits ... SP integral derivatives will be done elsewhere.
 Leave Link  702 at Sun Oct 13 19:40:31 2019, MaxMem=  1342177280 cpu:               1.8 elap:               0.4
 (Enter /apps/cent7/gaussian/g16-A.03/g16-haswell/g16/l703.exe)
 Integral derivatives from FoFJK, PRISM(SPDF).
 Compute integral first derivatives, UseDBF=F ICtDFT=           0.
 Calling FoFJK, ICntrl=      2127 FMM=F ISym2X=1 I1Cent= 0 IOpClX= 0 NMat=1 NMatS=1 NMatT=0.
 FoFJK:  IHMeth= 1 ICntrl=    2127 DoSepK=F KAlg= 0 I1Cent=           0 FoldK=F
 IRaf=         0 NMat=       1 IRICut=       1 DoRegI=T DoRafI=F ISym2E= 1 IDoP0=0 IntGTp=1.
 FoFCou: FMM=F IPFlag=           0 FMFlag=      100000 FMFlg1=         800
         NFxFlg=           0 DoJE=F BraDBF=F KetDBF=F FulRan=T
         wScrn=  0.000000 ICntrl=      2127 IOpCl=  0 I1Cent=           0 NGrid=           0
         NMat0=    1 NMatS0=      1 NMatT0=    0 NMatD0=    1 NMtDS0=    0 NMtDT0=    0
 Petite list used in FoFCou.
 Leave Link  703 at Sun Oct 13 19:40:36 2019, MaxMem=  1342177280 cpu:              24.1 elap:               5.1
 (Enter /apps/cent7/gaussian/g16-A.03/g16-haswell/g16/l716.exe)
 Dipole        = 4.44089210D-16 1.55431223D-15 6.66133815D-16
 ***** Axes restored to original set *****
 -------------------------------------------------------------------
 Center     Atomic                   Forces (Hartrees/Bohr)
 Number     Number              X              Y              Z
 -------------------------------------------------------------------
      1        7          -0.000000000    0.000000000   -0.000000000
      2        1           0.000089419   -0.000252926   -0.000000000
      3        1           0.000089424    0.000126461    0.000219039
      4        1           0.000089424    0.000126461   -0.000219039
      5        1          -0.000268267    0.000000003    0.000000000
 -------------------------------------------------------------------
 Cartesian Forces:  Max     0.000268267 RMS     0.000138533
 Leave Link  716 at Sun Oct 13 19:40:36 2019, MaxMem=  1342177280 cpu:               1.9 elap:               0.4
 (Enter /apps/cent7/gaussian/g16-A.03/g16-haswell/g16/l103.exe)

 GradGradGradGradGradGradGradGradGradGradGradGradGradGradGradGradGradGrad
 Berny optimization.
 Using GEDIIS/GDIIS optimizer.
 FormGI is forming the generalized inverse of G from B-inverse, IUseBI=4.
 Internal  Forces:  Max     0.000268267 RMS     0.000143395
 Search for a local minimum.
 Step number   2 out of a maximum of   24
 All quantities printed in internal units (Hartrees-Bohrs-Radians)
 RMS Force = .14339D-03 SwitMx=.10000D-02 MixMth= 2
 Mixed Optimization -- En-DIIS/RFO-DIIS
 Update second derivatives using D2CorX and points    1    2
 DE= -2.20D-03 DEPred=-2.25D-03 R= 9.76D-01
 TightC=F SS=  1.41D+00  RLast= 9.63D-02 DXNew= 5.0454D-01 2.8882D-01
 Trust test= 9.76D-01 RLast= 9.63D-02 DXMaxT set to 3.00D-01
 The second derivative matrix:
                          R1        R2        R3        R4        A1
           R1           0.47661
           R2          -0.00028   0.47661
           R3          -0.00028  -0.00028   0.47661
           R4          -0.00028  -0.00028  -0.00028   0.47661
           A1          -0.00000  -0.00000  -0.00000  -0.00000   0.16000
           A2           0.00000   0.00000   0.00000   0.00000  -0.00000
           A3          -0.00000  -0.00000  -0.00000  -0.00000   0.00000
           A4          -0.00000  -0.00000  -0.00000  -0.00000   0.00000
           A5           0.00000   0.00000   0.00000   0.00000  -0.00000
           A6          -0.00000  -0.00000  -0.00000  -0.00000   0.00000
           D1           0.00000   0.00000   0.00000   0.00000  -0.00000
           D2          -0.00000  -0.00000  -0.00000  -0.00000   0.00000
           D3          -0.00000  -0.00000  -0.00000  -0.00000   0.00000
           D4          -0.00000  -0.00000  -0.00000  -0.00000   0.00000
                          A2        A3        A4        A5        A6
           A2           0.16000
           A3          -0.00000   0.16000
           A4          -0.00000   0.00000   0.16000
           A5           0.00000  -0.00000  -0.00000   0.16000
           A6          -0.00000   0.00000   0.00000  -0.00000   0.16000
           D1           0.00000  -0.00000  -0.00000   0.00000  -0.00000
           D2          -0.00000   0.00000   0.00000  -0.00000   0.00000
           D3          -0.00000   0.00000   0.00000  -0.00000   0.00000
           D4          -0.00000   0.00000   0.00000  -0.00000   0.00000
                          D1        D2        D3        D4
           D1           0.01028
           D2          -0.00000   0.01028
           D3          -0.00000   0.00000   0.01028
           D4          -0.00000   0.00000   0.00000   0.01028
 ITU=  1  0
 Use linear search instead of GDIIS.
     Eigenvalues ---    0.05635   0.06236   0.09013   0.16000   0.16000
     Eigenvalues ---    0.47577   0.47688   0.47688   0.47688
 RFO step:  Lambda= 0.00000000D+00 EMin= 5.63503380D-02
 Quartic linear search produced a step of  0.01272.
 Iteration  1 RMS(Cart)=  0.00032735 RMS(Int)=  0.00000000
 Iteration  2 RMS(Cart)=  0.00000000 RMS(Int)=  0.00000000
 ITry= 1 IFail=0 DXMaxC= 6.12D-04 DCOld= 1.00D+10 DXMaxT= 3.00D-01 DXLimC= 3.00D+00 Rises=F
 ClnCor:  largest displacement from symmetrization is 2.38D-14 for atom     3.
 Variable       Old X    -DE/DX   Delta X   Delta X   Delta X     New X
                                 (Linear)    (Quad)   (Total)
    R1        1.93786   0.00027   0.00061   0.00000   0.00061   1.93848
    R2        1.93786   0.00027   0.00061   0.00000   0.00061   1.93848
    R3        1.93786   0.00027   0.00061  -0.00000   0.00061   1.93848
    R4        1.93786   0.00027   0.00061  -0.00000   0.00061   1.93848
    A1        1.91063   0.00000  -0.00000   0.00000   0.00000   1.91063
    A2        1.91063  -0.00000   0.00000  -0.00000  -0.00000   1.91063
    A3        1.91063   0.00000  -0.00000   0.00000   0.00000   1.91063
    A4        1.91063   0.00000  -0.00000   0.00000   0.00000   1.91063
    A5        1.91063  -0.00000   0.00000  -0.00000  -0.00000   1.91063
    A6        1.91063   0.00000  -0.00000   0.00000   0.00000   1.91063
    D1       -2.09440  -0.00000   0.00000  -0.00000   0.00000  -2.09440
    D2        2.09440  -0.00000   0.00000  -0.00000   0.00000   2.09440
    D3       -2.09440   0.00000  -0.00000   0.00000   0.00000  -2.09440
    D4        2.09440   0.00000  -0.00000   0.00000   0.00000   2.09440
         Item               Value     Threshold  Converged?
 Maximum Force            0.000268     0.000450     YES
 RMS     Force            0.000143     0.000300     YES
 Maximum Displacement     0.000612     0.001800     YES
 RMS     Displacement     0.000327     0.001200     YES
 Predicted change in Energy=-3.002840D-07
 Optimization completed.
    -- Stationary point found.
                           ----------------------------
                           !   Optimized Parameters   !
                           ! (Angstroms and Degrees)  !
 --------------------------                            --------------------------
 ! Name  Definition              Value          Derivative Info.                !
 --------------------------------------------------------------------------------
 ! R1    R(1,2)                  1.0255         -DE/DX =    0.0003              !
 ! R2    R(1,3)                  1.0255         -DE/DX =    0.0003              !
 ! R3    R(1,4)                  1.0255         -DE/DX =    0.0003              !
 ! R4    R(1,5)                  1.0255         -DE/DX =    0.0003              !
 ! A1    A(2,1,3)              109.4712         -DE/DX =    0.0                 !
 ! A2    A(2,1,4)              109.4712         -DE/DX =    0.0                 !
 ! A3    A(2,1,5)              109.4712         -DE/DX =    0.0                 !
 ! A4    A(3,1,4)              109.4712         -DE/DX =    0.0                 !
 ! A5    A(3,1,5)              109.4712         -DE/DX =    0.0                 !
 ! A6    A(4,1,5)              109.4712         -DE/DX =    0.0                 !
 ! D1    D(2,1,4,3)           -120.0            -DE/DX =    0.0                 !
 ! D2    D(2,1,5,3)            120.0            -DE/DX =    0.0                 !
 ! D3    D(2,1,5,4)           -120.0            -DE/DX =    0.0                 !
 ! D4    D(3,1,5,4)            120.0            -DE/DX =    0.0                 !
 --------------------------------------------------------------------------------
 Lowest energy point so far.  Saving SCF results.
 Largest change from initial coordinates is atom    2       0.025 Angstoms.
 GradGradGradGradGradGradGradGradGradGradGradGradGradGradGradGradGradGrad

 Leave Link  103 at Sun Oct 13 19:40:43 2019, MaxMem=  1342177280 cpu:              34.3 elap:               7.1
 (Enter /apps/cent7/gaussian/g16-A.03/g16-haswell/g16/l202.exe)
                          Input orientation:                          
 ---------------------------------------------------------------------
 Center     Atomic      Atomic             Coordinates (Angstroms)
 Number     Number       Type             X           Y           Z
 ---------------------------------------------------------------------
      1          7           0        0.012121    1.036364    0.000000
      2          1           0        0.353933    0.069534   -0.000000
      3          1           0        0.353951    1.519772    0.837295
      4          1           0        0.353951    1.519772   -0.837295
      5          1           0       -1.013352    1.036376    0.000000
 ---------------------------------------------------------------------
                    Distance matrix (angstroms):
                    1          2          3          4          5
     1  N    0.000000
     2  H    1.025473   0.000000
     3  H    1.025473   1.674590   0.000000
     4  H    1.025473   1.674590   1.674590   0.000000
     5  H    1.025473   1.674590   1.674590   1.674590   0.000000
 Stoichiometry    H4N(1+)
 Framework group  TD[O(N),4C3(H)]
 Deg. of freedom     1
 Full point group                 TD      NOp  24
 RotChk:  IX=0 Diff= 1.15D-14
 Largest Abelian subgroup         D2      NOp   4
 Largest concise Abelian subgroup D2      NOp   4
                         Standard orientation:                         
 ---------------------------------------------------------------------
 Center     Atomic      Atomic             Coordinates (Angstroms)
 Number     Number       Type             X           Y           Z
 ---------------------------------------------------------------------
      1          7           0        0.000000    0.000000    0.000000
      2          1           0        0.592057    0.592057    0.592057
      3          1           0       -0.592057   -0.592057    0.592057
      4          1           0       -0.592057    0.592057   -0.592057
      5          1           0        0.592057   -0.592057   -0.592057
 ---------------------------------------------------------------------
 Rotational constants (GHZ):         178.8195607         178.8195607         178.8195607
 Leave Link  202 at Sun Oct 13 19:40:46 2019, MaxMem=  1342177280 cpu:              10.8 elap:               2.3
 (Enter /apps/cent7/gaussian/g16-A.03/g16-haswell/g16/l601.exe)
 Copying SCF densities to generalized density rwf, IOpCl= 0 IROHF=0.

 **********************************************************************

            Population analysis using the SCF density.

 **********************************************************************

 Orbital symmetries:
       Occupied  (A1) (A1) (T2) (T2) (T2)
       Virtual   (A1) (T2) (T2) (T2) (T2) (T2) (T2) (A1) (T2) (T2)
                 (T2) (A1) (T2) (T2) (T2) (A1) (T2) (T2) (T2) (E)
                 (E) (A1) (T1) (T1) (T1) (T2) (T2) (T2) (T2) (T2)
                 (T2) (A1) (T2) (T2) (T2) (E) (E) (A1) (T2) (T2)
                 (T2) (T2) (T2) (T2) (A1)
 The electronic state is 1-A1.
 Alpha  occ. eigenvalues --  -15.11781  -1.35278  -0.89559  -0.89559  -0.89559
 Alpha virt. eigenvalues --   -0.20985  -0.13571  -0.13571  -0.13571  -0.08486
 Alpha virt. eigenvalues --   -0.08486  -0.08486  -0.03308   0.00952   0.00952
 Alpha virt. eigenvalues --    0.00952   0.09705   0.24405   0.24405   0.24405
 Alpha virt. eigenvalues --    0.50240   0.53197   0.53197   0.53197   0.75705
 Alpha virt. eigenvalues --    0.75705   0.77906   1.23229   1.23229   1.23229
 Alpha virt. eigenvalues --    1.50637   1.50637   1.50637   1.81648   1.81648
 Alpha virt. eigenvalues --    1.81648   2.13723   2.27492   2.27492   2.27492
 Alpha virt. eigenvalues --    2.38463   2.38463   2.72223   2.74594   2.74594
 Alpha virt. eigenvalues --    2.74594   4.47072   4.47072   4.47072  35.39119
          Condensed to atoms (all electrons):
               1          2          3          4          5
     1  N    6.159489   0.339151   0.339151   0.339151   0.339151
     2  H    0.339151   0.321114  -0.013096  -0.013096  -0.013096
     3  H    0.339151  -0.013096   0.321114  -0.013096  -0.013096
     4  H    0.339151  -0.013096  -0.013096   0.321114  -0.013096
     5  H    0.339151  -0.013096  -0.013096  -0.013096   0.321114
 Mulliken charges:
               1
     1  N   -0.516092
     2  H    0.379023
     3  H    0.379023
     4  H    0.379023
     5  H    0.379023
 Sum of Mulliken charges =   1.00000
 Mulliken charges with hydrogens summed into heavy atoms:
               1
     1  N    1.000000
 Electronic spatial extent (au):  <R**2>=             24.7306
 Charge=              1.0000 electrons
 Dipole moment (field-independent basis, Debye):
    X=             -0.0000    Y=             -0.0000    Z=             -0.0000  Tot=              0.0000
 Quadrupole moment (field-independent basis, Debye-Ang):
   XX=             -4.3531   YY=             -4.3531   ZZ=             -4.3531
   XY=             -0.0000   XZ=             -0.0000   YZ=             -0.0000
 Traceless Quadrupole moment (field-independent basis, Debye-Ang):
   XX=             -0.0000   YY=              0.0000   ZZ=             -0.0000
   XY=             -0.0000   XZ=             -0.0000   YZ=             -0.0000
 Octapole moment (field-independent basis, Debye-Ang**2):
  XXX=             -0.0000  YYY=             -0.0000  ZZZ=             -0.0000  XYY=             -0.0000
  XXY=             -0.0000  XXZ=             -0.0000  XZZ=             -0.0000  YZZ=             -0.0000
  YYZ=             -0.0000  XYZ=              1.8660
 Hexadecapole moment (field-independent basis, Debye-Ang**3):
 XXXX=             -7.5259 YYYY=             -7.5259 ZZZZ=             -7.5259 XXXY=             -0.0000
 XXXZ=             -0.0000 YYYX=             -0.0000 YYYZ=             -0.0000 ZZZX=             -0.0000
 ZZZY=             -0.0000 XXYY=             -1.6298 XXZZ=             -1.6298 YYZZ=             -1.6298
 XXYZ=             -0.0000 YYXZ=             -0.0000 ZZXY=             -0.0000
 N-N= 1.634493176742D+01 E-N=-1.615805380162D+02  KE= 5.665711618680D+01
 Symmetry A    KE= 4.801390517305D+01
 Symmetry B1   KE= 2.881070337918D+00
 Symmetry B2   KE= 2.881070337918D+00
 Symmetry B3   KE= 2.881070337918D+00
 No NMR shielding tensors so no spin-rotation constants.
 Leave Link  601 at Sun Oct 13 19:40:51 2019, MaxMem=  1342177280 cpu:              25.1 elap:               5.2
 (Enter /apps/cent7/gaussian/g16-A.03/g16-haswell/g16/l9999.exe)
 1\1\GINC-BROWN-FE02\FOpt\RM062X\6-311++G(d,p)\H4N1(1+)\FINEJ\13-Oct-20
 19\0\\#P opt freq m062x/6-311++g(d,p) geom=connectivity temperature=0.
 001\\Title Card Required\\1,1\N,0.01212121,1.03636362,0.\H,0.353933447
 9,0.0695343275,-0.0000000044\H,0.3539514982,1.5197718818,0.8372950456\
 H,0.3539514952,1.5197718883,-0.8372950431\H,-1.0133516013,1.0363763824
 ,0.0000000019\\Version=ES64L-G16RevA.03\State=1-A1\HF=-56.8816029\RMSD
 =6.827e-10\RMSF=1.385e-04\Dipole=0.,0.,0.\Quadrupole=0.,0.,0.,0.,0.,0.
 \PG=TD [O(N1),4C3(H1)]\\@


 BLACK HOLES SUCK.
 Leave Link 9999 at Sun Oct 13 19:40:51 2019, MaxMem=  1342177280 cpu:               2.5 elap:               0.5
 Job cpu time:       0 days  0 hours  9 minutes 27.7 seconds.
 Elapsed time:       0 days  0 hours  1 minutes 57.6 seconds.
 File lengths (MBytes):  RWF=      6 Int=      0 D2E=      0 Chk=      1 Scr=      1
 Normal termination of Gaussian 16 at Sun Oct 13 19:40:51 2019.
 (Enter /apps/cent7/gaussian/g16-A.03/g16-haswell/g16/l1.exe)
 Link1:  Proceeding to internal job step number  2.
 ----------------------------------------------------------------------
 #P Geom=AllCheck Guess=TCheck SCRF=Check GenChk RM062X/6-311++G(d,p) F
 req
 ----------------------------------------------------------------------
 1/10=4,29=7,30=1,38=1,40=1,112=-1000/1,3;
 2/12=2,40=1/2;
 3/5=4,6=6,7=1111,11=2,14=-4,25=1,30=1,70=2,71=2,74=-55,116=1,140=1/1,2,3;
 4/5=101/1;
 5/5=2,38=6,98=1/2;
 8/6=4,10=90,11=11/1;
 11/6=1,8=1,9=11,15=111,16=1/1,2,10;
 10/6=1/2;
 6/7=2,8=2,9=2,10=2,28=1/1;
 7/8=1,10=1,25=1/1,2,3,16;
 1/10=4,30=1/3;
 99//99;
 Leave Link    1 at Sun Oct 13 19:40:52 2019, MaxMem=  1342177280 cpu:               1.1 elap:               0.2
 (Enter /apps/cent7/gaussian/g16-A.03/g16-haswell/g16/l101.exe)
 Structure from the checkpoint file:  "ammonia_p.chk"
 -------------------
 Title Card Required
 -------------------
 Charge =  1 Multiplicity = 1
 Redundant internal coordinates found in file.  (old form).
 N,0,0.01212121,1.03636362,0.
 H,0,0.3539334479,0.0695343275,-0.0000000044
 H,0,0.3539514982,1.5197718818,0.8372950456
 H,0,0.3539514952,1.5197718883,-0.8372950431
 H,0,-1.0133516013,1.0363763824,0.0000000019
 Recover connectivity data from disk.
 ITRead=  0  0  0  0  0
 MicOpt= -1 -1 -1 -1 -1
 NAtoms=      5 NQM=        5 NQMF=       0 NMMI=      0 NMMIF=      0
                NMic=       0 NMicF=      0.
                    Isotopes and Nuclear Properties:
 (Nuclear quadrupole moments (NQMom) in fm**2, nuclear magnetic moments (NMagM)
  in nuclear magnetons)

  Atom         1           2           3           4           5
 IAtWgt=          14           1           1           1           1
 AtmWgt=  14.0030740   1.0078250   1.0078250   1.0078250   1.0078250
 NucSpn=           2           1           1           1           1
 AtZEff=   4.5500000   1.0000000   1.0000000   1.0000000   1.0000000
 NQMom=    2.0440000   0.0000000   0.0000000   0.0000000   0.0000000
 NMagM=    0.4037610   2.7928460   2.7928460   2.7928460   2.7928460
 AtZNuc=   7.0000000   1.0000000   1.0000000   1.0000000   1.0000000
 Leave Link  101 at Sun Oct 13 19:40:55 2019, MaxMem=  1342177280 cpu:              17.1 elap:               3.6
 (Enter /apps/cent7/gaussian/g16-A.03/g16-haswell/g16/l103.exe)

 GradGradGradGradGradGradGradGradGradGradGradGradGradGradGradGradGradGrad
 Berny optimization.
 Initialization pass.
                           ----------------------------
                           !    Initial Parameters    !
                           ! (Angstroms and Degrees)  !
 --------------------------                            --------------------------
 ! Name  Definition              Value          Derivative Info.                !
 --------------------------------------------------------------------------------
 ! R1    R(1,2)                  1.0255         calculate D2E/DX2 analytically  !
 ! R2    R(1,3)                  1.0255         calculate D2E/DX2 analytically  !
 ! R3    R(1,4)                  1.0255         calculate D2E/DX2 analytically  !
 ! R4    R(1,5)                  1.0255         calculate D2E/DX2 analytically  !
 ! A1    A(2,1,3)              109.4712         calculate D2E/DX2 analytically  !
 ! A2    A(2,1,4)              109.4712         calculate D2E/DX2 analytically  !
 ! A3    A(2,1,5)              109.4712         calculate D2E/DX2 analytically  !
 ! A4    A(3,1,4)              109.4712         calculate D2E/DX2 analytically  !
 ! A5    A(3,1,5)              109.4712         calculate D2E/DX2 analytically  !
 ! A6    A(4,1,5)              109.4712         calculate D2E/DX2 analytically  !
 ! D1    D(2,1,4,3)           -120.0            calculate D2E/DX2 analytically  !
 ! D2    D(2,1,5,3)            120.0            calculate D2E/DX2 analytically  !
 ! D3    D(2,1,5,4)           -120.0            calculate D2E/DX2 analytically  !
 ! D4    D(3,1,5,4)            120.0            calculate D2E/DX2 analytically  !
 --------------------------------------------------------------------------------
 Trust Radius=3.00D-01 FncErr=1.00D-07 GrdErr=1.00D-07 EigMax=2.50D+02 EigMin=1.00D-04
 Number of steps in this run=      2 maximum allowed number of steps=      2.
 GradGradGradGradGradGradGradGradGradGradGradGradGradGradGradGradGradGrad

 Leave Link  103 at Sun Oct 13 19:40:56 2019, MaxMem=  1342177280 cpu:               1.2 elap:               0.2
 (Enter /apps/cent7/gaussian/g16-A.03/g16-haswell/g16/l202.exe)
                          Input orientation:                          
 ---------------------------------------------------------------------
 Center     Atomic      Atomic             Coordinates (Angstroms)
 Number     Number       Type             X           Y           Z
 ---------------------------------------------------------------------
      1          7           0        0.012121    1.036364   -0.000000
      2          1           0        0.353933    0.069534   -0.000000
      3          1           0        0.353951    1.519772    0.837295
      4          1           0        0.353951    1.519772   -0.837295
      5          1           0       -1.013352    1.036376    0.000000
 ---------------------------------------------------------------------
                    Distance matrix (angstroms):
                    1          2          3          4          5
     1  N    0.000000
     2  H    1.025473   0.000000
     3  H    1.025473   1.674590   0.000000
     4  H    1.025473   1.674590   1.674590   0.000000
     5  H    1.025473   1.674590   1.674590   1.674590   0.000000
 Stoichiometry    H4N(1+)
 Framework group  TD[O(N),4C3(H)]
 Deg. of freedom     1
 Full point group                 TD      NOp  24
 RotChk:  IX=0 Diff= 5.87D-15
 Largest Abelian subgroup         D2      NOp   4
 Largest concise Abelian subgroup D2      NOp   4
                         Standard orientation:                         
 ---------------------------------------------------------------------
 Center     Atomic      Atomic             Coordinates (Angstroms)
 Number     Number       Type             X           Y           Z
 ---------------------------------------------------------------------
      1          7           0        0.000000    0.000000    0.000000
      2          1           0        0.592057    0.592057    0.592057
      3          1           0       -0.592057   -0.592057    0.592057
      4          1           0       -0.592057    0.592057   -0.592057
      5          1           0        0.592057   -0.592057   -0.592057
 ---------------------------------------------------------------------
 Rotational constants (GHZ):         178.8195607         178.8195607         178.8195607
 Leave Link  202 at Sun Oct 13 19:40:58 2019, MaxMem=  1342177280 cpu:              12.3 elap:               2.5
 (Enter /apps/cent7/gaussian/g16-A.03/g16-haswell/g16/l301.exe)
 Standard basis: 6-311++G(d,p) (5D, 7F)
 Ernie: Thresh=  0.10000D-02 Tol=  0.10000D-05 Strict=F.
 There are    15 symmetry adapted cartesian basis functions of A   symmetry.
 There are    12 symmetry adapted cartesian basis functions of B1  symmetry.
 There are    12 symmetry adapted cartesian basis functions of B2  symmetry.
 There are    12 symmetry adapted cartesian basis functions of B3  symmetry.
 There are    14 symmetry adapted basis functions of A   symmetry.
 There are    12 symmetry adapted basis functions of B1  symmetry.
 There are    12 symmetry adapted basis functions of B2  symmetry.
 There are    12 symmetry adapted basis functions of B3  symmetry.
    50 basis functions,    72 primitive gaussians,    51 cartesian basis functions
     5 alpha electrons        5 beta electrons
       nuclear repulsion energy        16.3449317674 Hartrees.
 IExCor= 4336 DFT=T Ex+Corr=M062X ExCW=0 ScaHFX=  0.540000
 ScaDFX=  1.000000  1.000000  1.000000  1.000000 ScalE2=  1.000000  1.000000
 IRadAn=      5 IRanWt=     -1 IRanGd=            0 ICorTp=0 IEmpDi=  4
 NAtoms=    5 NActive=    5 NUniq=    2 SFac= 4.00D+00 NAtFMM=   60 NAOKFM=F Big=F
 Integral buffers will be    131072 words long.
 Raffenetti 2 integral format.
 Two-electron integral symmetry is turned on.
 Leave Link  301 at Sun Oct 13 19:40:59 2019, MaxMem=  1342177280 cpu:               2.3 elap:               0.5
 (Enter /apps/cent7/gaussian/g16-A.03/g16-haswell/g16/l302.exe)
 NPDir=0 NMtPBC=     1 NCelOv=     1 NCel=       1 NClECP=     1 NCelD=      1
         NCelK=      1 NCelE2=     1 NClLst=     1 CellRange=     0.0.
 One-electron integrals computed using PRISM.
 One-electron integral symmetry used in STVInt
 NBasis=    50 RedAO= T EigKep=  1.15D-03  NBF=    14    12    12    12
 NBsUse=    50 1.00D-06 EigRej= -1.00D+00 NBFU=    14    12    12    12
 Precomputing XC quadrature grid using
 IXCGrd= 4 IRadAn=           5 IRanWt=          -1 IRanGd=           0 AccXCQ= 0.00D+00.
 Generated NRdTot=       0 NPtTot=           0 NUsed=           0 NTot=          32
 NSgBfM=    51    51    51    51    51 MxSgAt=     5 MxSgA2=     5.
 Leave Link  302 at Sun Oct 13 19:41:07 2019, MaxMem=  1342177280 cpu:              41.4 elap:               8.6
 (Enter /apps/cent7/gaussian/g16-A.03/g16-haswell/g16/l303.exe)
 DipDrv:  MaxL=1.
 Leave Link  303 at Sun Oct 13 19:41:08 2019, MaxMem=  1342177280 cpu:               5.8 elap:               1.2
 (Enter /apps/cent7/gaussian/g16-A.03/g16-haswell/g16/l401.exe)
 Initial guess from the checkpoint file:  "ammonia_p.chk"
 B after Tr=    -0.000000   -0.000000   -0.000000
         Rot=    1.000000   -0.000000   -0.000000    0.000000 Ang=   0.00 deg.
 Guess basis will be translated and rotated to current coordinates.
 JPrj=2 DoOrth=T DoCkMO=T.
 Initial guess orbital symmetries:
       Occupied  (A1) (A1) (T2) (T2) (T2)
       Virtual   (A1) (T2) (T2) (T2) (T2) (T2) (T2) (A1) (T2) (T2)
                 (T2) (A1) (T2) (T2) (T2) (A1) (T2) (T2) (T2) (E)
                 (E) (A1) (T1) (T1) (T1) (T2) (T2) (T2) (T2) (T2)
                 (T2) (A1) (T2) (T2) (T2) (E) (E) (A1) (T2) (T2)
                 (T2) (T2) (T2) (T2) (A1)
 The electronic state of the initial guess is 1-A1.
 Leave Link  401 at Sun Oct 13 19:41:13 2019, MaxMem=  1342177280 cpu:              20.4 elap:               4.3
 (Enter /apps/cent7/gaussian/g16-A.03/g16-haswell/g16/l502.exe)
 Keep R1 ints in memory in symmetry-blocked form, NReq=21753690.
 FoFCou: FMM=F IPFlag=           0 FMFlag=           0 FMFlg1=           0
         NFxFlg=           0 DoJE=F BraDBF=F KetDBF=F FulRan=T
         wScrn=  0.000000 ICntrl=       600 IOpCl=  0 I1Cent=           0 NGrid=           0
         NMat0=    1 NMatS0=   1275 NMatT0=    0 NMatD0=    1 NMtDS0=    0 NMtDT0=    0
 Petite list used in FoFCou.
 Closed shell SCF:
 Using DIIS extrapolation, IDIIS=  1040.
 NGot=  1342177280 LenX=  1341961490 LenY=  1341958448
 Requested convergence on RMS density matrix=1.00D-08 within 128 cycles.
 Requested convergence on MAX density matrix=1.00D-06.
 Requested convergence on             energy=1.00D-06.
 No special actions if energy rises.

 Cycle   1  Pass 1  IDiag  1:
 E= -56.8816029125597    
 DIIS: error= 3.16D-10 at cycle   1 NSaved=   1.
 NSaved= 1 IEnMin= 1 EnMin= -56.8816029125597     IErMin= 1 ErrMin= 3.16D-10
 ErrMax= 3.16D-10  0.00D+00 EMaxC= 1.00D-01 BMatC= 2.40D-18 BMatP= 2.40D-18
 IDIUse=1 WtCom= 1.00D+00 WtEn= 0.00D+00
 Coeff-Com:  0.100D+01
 Coeff:      0.100D+01
 Gap=     0.686 Goal=   None    Shift=    0.000
 Skip diagonalization as Alpha Fock matrix is already diagonal.
 RMSDP=0.00D+00 MaxDP=0.00D+00              OVMax= 0.00D+00

 SCF Done:  E(RM062X) =  -56.8816029126     A.U. after    1 cycles
            NFock=  1  Conv=0.00D+00     -V/T= 2.0040
 KE= 5.665711618680D+01 PE=-1.615805380162D+02 EE= 3.169688714942D+01
 Leave Link  502 at Sun Oct 13 19:41:25 2019, MaxMem=  1342177280 cpu:              57.6 elap:              12.0
 (Enter /apps/cent7/gaussian/g16-A.03/g16-haswell/g16/l801.exe)
 DoSCS=F DFT=T ScalE2(SS,OS)=  1.000000  1.000000
 Range of M.O.s used for correlation:     1    50
 NBasis=    50 NAE=     5 NBE=     5 NFC=     0 NFV=     0
 NROrb=     50 NOA=     5 NOB=     5 NVA=    45 NVB=    45

 **** Warning!!: The largest alpha MO coefficient is  0.18374692D+02

 Leave Link  801 at Sun Oct 13 19:41:25 2019, MaxMem=  1342177280 cpu:               2.1 elap:               0.4
 (Enter /apps/cent7/gaussian/g16-A.03/g16-haswell/g16/l1101.exe)
 Using compressed storage, NAtomX=     5.
 Will process      6 centers per pass.
 Leave Link 1101 at Sun Oct 13 19:41:30 2019, MaxMem=  1342177280 cpu:              21.6 elap:               4.5
 (Enter /apps/cent7/gaussian/g16-A.03/g16-haswell/g16/l1102.exe)
 Symmetrizing basis deriv contribution to polar:
 IMax=3 JMax=2 DiffMx= 0.00D+00
 Leave Link 1102 at Sun Oct 13 19:41:30 2019, MaxMem=  1342177280 cpu:               4.2 elap:               0.9
 (Enter /apps/cent7/gaussian/g16-A.03/g16-haswell/g16/l1110.exe)
 Forming Gx(P) for the SCF density, NAtomX=     5.
 Integral derivatives from FoFJK, PRISM(SPDF).
 Do as many integral derivatives as possible in FoFJK.
 G2DrvN: MDV=    1342176784.
 G2DrvN: will do     6 centers at a time, making    1 passes.
 Calling FoFCou, ICntrl=  3107 FMM=F I1Cent=   0 AccDes= 0.00D+00.
 FoFJK:  IHMeth= 1 ICntrl=    3107 DoSepK=F KAlg= 0 I1Cent=           0 FoldK=F
 IRaf=         0 NMat=       1 IRICut=       1 DoRegI=T DoRafI=F ISym2E= 1 IDoP0=0 IntGTp=1.
 FoFCou: FMM=F IPFlag=           0 FMFlag=      100000 FMFlg1=           0
         NFxFlg=           0 DoJE=F BraDBF=F KetDBF=F FulRan=T
         wScrn=  0.000000 ICntrl=      3107 IOpCl=  0 I1Cent=           0 NGrid=           0
         NMat0=    1 NMatS0=      1 NMatT0=    0 NMatD0=    1 NMtDS0=    0 NMtDT0=    0
 Petite list used in FoFCou.
 End of G2Drv F.D. properties file   721 does not exist.
 End of G2Drv F.D. properties file   722 does not exist.
 End of G2Drv F.D. properties file   788 does not exist.
 Leave Link 1110 at Sun Oct 13 19:41:38 2019, MaxMem=  1342177280 cpu:              36.7 elap:               7.7
 (Enter /apps/cent7/gaussian/g16-A.03/g16-haswell/g16/l1002.exe)
 Minotr:  Closed shell wavefunction.
          IDoAtm=11111
          Direct CPHF calculation.
          Differentiating once with respect to electric field.
                with respect to dipole field.
          Differentiating once with respect to nuclear coordinates.
          Using symmetry in CPHF.
          Requested convergence is 1.0D-08 RMS, and 1.0D-07 maximum.
          Secondary convergence is 1.0D-12 RMS, and 1.0D-12 maximum.
          NewPWx=T KeepS1=F KeepF1=F KeepIn=T MapXYZ=F SortEE=F KeepMc=T.
         1526 words used for storage of precomputed grid.
 Keep R1 ints in memory in symmetry-blocked form, NReq=21674225.
 FoFCou: FMM=F IPFlag=           0 FMFlag=           0 FMFlg1=           0
         NFxFlg=           0 DoJE=F BraDBF=F KetDBF=F FulRan=T
         wScrn=  0.000000 ICntrl=       600 IOpCl=  0 I1Cent=           0 NGrid=           0
         NMat0=    1 NMatS0=   1275 NMatT0=    0 NMatD0=    1 NMtDS0=    0 NMtDT0=    0
 Petite list used in FoFCou.
          MDV=    1342177280 using IRadAn=       1.
          Solving linear equations simultaneously, MaxMat=       0.
          There are     9 degrees of freedom in the 1st order CPHF.  IDoFFX=4 NUNeed=     9.
      9 vectors produced by pass  0 Test12= 2.50D-15 1.11D-08 XBig12= 2.38D+00 7.11D-01.
 AX will form     9 AO Fock derivatives at one time.
      9 vectors produced by pass  1 Test12= 2.50D-15 1.11D-08 XBig12= 4.48D-02 8.69D-02.
      9 vectors produced by pass  2 Test12= 2.50D-15 1.11D-08 XBig12= 4.04D-04 9.37D-03.
      9 vectors produced by pass  3 Test12= 2.50D-15 1.11D-08 XBig12= 7.46D-07 2.68D-04.
      9 vectors produced by pass  4 Test12= 2.50D-15 1.11D-08 XBig12= 6.68D-10 9.63D-06.
      7 vectors produced by pass  5 Test12= 2.50D-15 1.11D-08 XBig12= 1.53D-12 4.91D-07.
      3 vectors produced by pass  6 Test12= 2.50D-15 1.11D-08 XBig12= 2.10D-15 1.36D-08.
 InvSVY:  IOpt=1 It=  1 EMax= 4.44D-16
 Solved reduced A of dimension    55 with     9 vectors.
 FullF1:  Do perturbations      1 to       9.
 Isotropic polarizability for W=    0.000000        8.22 Bohr**3.
 End of Minotr F.D. properties file   721 does not exist.
 End of Minotr F.D. properties file   722 does not exist.
 End of Minotr F.D. properties file   788 does not exist.
 Leave Link 1002 at Sun Oct 13 19:42:12 2019, MaxMem=  1342177280 cpu:             164.4 elap:              34.2
 (Enter /apps/cent7/gaussian/g16-A.03/g16-haswell/g16/l601.exe)
 Copying SCF densities to generalized density rwf, IOpCl= 0 IROHF=0.

 **********************************************************************

            Population analysis using the SCF density.

 **********************************************************************

 Orbital symmetries:
       Occupied  (A1) (A1) (T2) (T2) (T2)
       Virtual   (A1) (T2) (T2) (T2) (T2) (T2) (T2) (A1) (T2) (T2)
                 (T2) (A1) (T2) (T2) (T2) (A1) (T2) (T2) (T2) (E)
                 (E) (A1) (T1) (T1) (T1) (T2) (T2) (T2) (T2) (T2)
                 (T2) (A1) (T2) (T2) (T2) (E) (E) (A1) (T2) (T2)
                 (T2) (T2) (T2) (T2) (A1)
 The electronic state is 1-A1.
 Alpha  occ. eigenvalues --  -15.11781  -1.35278  -0.89559  -0.89559  -0.89559
 Alpha virt. eigenvalues --   -0.20985  -0.13571  -0.13571  -0.13571  -0.08486
 Alpha virt. eigenvalues --   -0.08486  -0.08486  -0.03308   0.00952   0.00952
 Alpha virt. eigenvalues --    0.00952   0.09705   0.24405   0.24405   0.24405
 Alpha virt. eigenvalues --    0.50240   0.53197   0.53197   0.53197   0.75705
 Alpha virt. eigenvalues --    0.75705   0.77906   1.23229   1.23229   1.23229
 Alpha virt. eigenvalues --    1.50637   1.50637   1.50637   1.81648   1.81648
 Alpha virt. eigenvalues --    1.81648   2.13723   2.27492   2.27492   2.27492
 Alpha virt. eigenvalues --    2.38463   2.38463   2.72223   2.74594   2.74594
 Alpha virt. eigenvalues --    2.74594   4.47072   4.47072   4.47072  35.39119
          Condensed to atoms (all electrons):
               1          2          3          4          5
     1  N    6.159489   0.339151   0.339151   0.339151   0.339151
     2  H    0.339151   0.321114  -0.013096  -0.013096  -0.013096
     3  H    0.339151  -0.013096   0.321114  -0.013096  -0.013096
     4  H    0.339151  -0.013096  -0.013096   0.321114  -0.013096
     5  H    0.339151  -0.013096  -0.013096  -0.013096   0.321114
 Mulliken charges:
               1
     1  N   -0.516092
     2  H    0.379023
     3  H    0.379023
     4  H    0.379023
     5  H    0.379023
 Sum of Mulliken charges =   1.00000
 Mulliken charges with hydrogens summed into heavy atoms:
               1
     1  N    1.000000
 APT charges:
               1
     1  N   -0.310971
     2  H    0.327743
     3  H    0.327743
     4  H    0.327743
     5  H    0.327743
 Sum of APT charges =   1.00000
 APT charges with hydrogens summed into heavy atoms:
               1
     1  N    1.000000
 Electronic spatial extent (au):  <R**2>=             24.7306
 Charge=              1.0000 electrons
 Dipole moment (field-independent basis, Debye):
    X=              0.0000    Y=             -0.0000    Z=              0.0000  Tot=              0.0000
 Quadrupole moment (field-independent basis, Debye-Ang):
   XX=             -4.3531   YY=             -4.3531   ZZ=             -4.3531
   XY=              0.0000   XZ=              0.0000   YZ=             -0.0000
 Traceless Quadrupole moment (field-independent basis, Debye-Ang):
   XX=             -0.0000   YY=              0.0000   ZZ=              0.0000
   XY=              0.0000   XZ=              0.0000   YZ=             -0.0000
 Octapole moment (field-independent basis, Debye-Ang**2):
  XXX=              0.0000  YYY=             -0.0000  ZZZ=              0.0000  XYY=              0.0000
  XXY=              0.0000  XXZ=              0.0000  XZZ=             -0.0000  YZZ=              0.0000
  YYZ=              0.0000  XYZ=              1.8660
 Hexadecapole moment (field-independent basis, Debye-Ang**3):
 XXXX=             -7.5259 YYYY=             -7.5259 ZZZZ=             -7.5259 XXXY=              0.0000
 XXXZ=             -0.0000 YYYX=              0.0000 YYYZ=              0.0000 ZZZX=              0.0000
 ZZZY=             -0.0000 XXYY=             -1.6298 XXZZ=             -1.6298 YYZZ=             -1.6298
 XXYZ=              0.0000 YYXZ=             -0.0000 ZZXY=              0.0000
 N-N= 1.634493176742D+01 E-N=-1.615805380162D+02  KE= 5.665711618680D+01
 Symmetry A    KE= 4.801390517305D+01
[...]
                      KCal/Mol        Cal/Mol-Kelvin    Cal/Mol-Kelvin
 Total                   31.174              5.962            -55.830
 Electronic               0.000              0.000              0.000
 Translational            0.000              2.981            -28.011
 Rotational               0.000              2.981            -27.818
 Vibrational             31.174              0.000              0.000
                       Q            Log10(Q)             Ln(Q)
 Total Bot                                 -Inf              -Inf
 Total V=0                           -13.938470        -32.094512
 Vib (Bot)                                 -Inf              -Inf
 Vib (V=0)                             0.000000          0.000000
 Electronic      0.100000D+01          0.000000          0.000000
 Translational   0.620181D-07         -7.207482        -16.595840
 Rotational      0.185786D-06         -6.730988        -15.498673
 
                                                         Title Card Required
                                                             IR Spectrum
 
      3   3                                                           1        1                                                     
      5   3                                                           7        4                                                     
      0   9                                                           2        8                                                     
      4   3                                                           5        4                                                     
 
      X                                                                        X                                                     
      X                                                                        X                                                     
      X                                                                        X                                                     
      X                                                                        X                                                     
      X                                                                        X                                                     
      X                                                                        X                                                     
      X                                                                        X                                                     
      X                                                                        X                                                     
      X                                                                        X                                                     
      X                                                                        X                                                     
      X                                                                        X                                                     
      X                                                                        X                                                     
      X                                                                        X                                                     
      X                                                                        X                                                     
      X                                                                        X                                                     
      X                                                                        X                                                     
      X                                                                                                                              
      X                                                                                                                              
      X                                                                                                                              
      X                                                                                                                              
 
 ***** Axes restored to original set *****
 -------------------------------------------------------------------
 Center     Atomic                   Forces (Hartrees/Bohr)
 Number     Number              X              Y              Z
 -------------------------------------------------------------------
      1        7          -0.000000000   -0.000000000   -0.000000000
      2        1           0.000089419   -0.000252926   -0.000000000
      3        1           0.000089424    0.000126461    0.000219039
      4        1           0.000089424    0.000126461   -0.000219039
      5        1          -0.000268267    0.000000003    0.000000000
 -------------------------------------------------------------------
 Cartesian Forces:  Max     0.000268267 RMS     0.000138532
 Force constants in Cartesian coordinates: 
                1             2             3             4             5 
      1  0.711673D+00
      2  0.000000D+00  0.711673D+00
      3  0.000000D+00  0.000000D+00  0.711673D+00
      4 -0.100502D+00  0.109476D+00  0.000000D+00  0.969521D-01
      5  0.109476D+00 -0.371456D+00  0.000000D+00 -0.118443D+00  0.390099D+00
      6  0.000000D+00  0.000000D+00 -0.617975D-01  0.000000D+00  0.000000D+00
      7 -0.100506D+00 -0.547403D-01 -0.948139D-01  0.541019D-02  0.451432D-02
      8 -0.547403D-01 -0.139210D+00 -0.134084D+00 -0.142979D-01 -0.123151D-01
      9 -0.948139D-01 -0.134084D+00 -0.294039D+00  0.304182D-02  0.113229D-02
     10 -0.100506D+00 -0.547403D-01  0.948139D-01  0.541019D-02  0.451432D-02
     11 -0.547403D-01 -0.139210D+00  0.134084D+00 -0.142979D-01 -0.123151D-01
     12  0.948139D-01  0.134084D+00 -0.294039D+00 -0.304182D-02 -0.113229D-02
     13 -0.410160D+00  0.433556D-05  0.000000D+00 -0.727071D-02 -0.617577D-04
     14  0.433547D-05 -0.617975D-01  0.000000D+00  0.375626D-01  0.598681D-02
     15  0.000000D+00  0.000000D+00 -0.617975D-01  0.000000D+00  0.000000D+00
                6             7             8             9            10 
      6  0.550777D-01
      7  0.139027D-01  0.969565D-01
      8 -0.295880D-01  0.592240D-01  0.138831D+00
      9  0.411361D-02  0.102580D+00  0.145066D+00  0.306341D+00
     10 -0.139027D-01  0.541055D-02  0.978320D-02 -0.108614D-01  0.969565D-01
     11  0.295880D-01  0.978320D-02  0.123278D-01 -0.153600D-01  0.592240D-01
     12  0.411361D-02  0.108614D-01  0.153600D-01 -0.205296D-01 -0.102580D+00
     13  0.000000D+00 -0.727141D-02  0.310568D-04  0.536683D-04 -0.727141D-02
     14  0.000000D+00 -0.187811D-01  0.366504D-03  0.324529D-02 -0.187811D-01
     15 -0.150740D-02 -0.325300D-01  0.324569D-02  0.411361D-02  0.325300D-01
               11            12            13            14            15 
     11  0.138831D+00
     12 -0.145066D+00  0.306341D+00
     13  0.310568D-04 -0.536683D-04  0.431973D+00
     14  0.366504D-03 -0.324529D-02 -0.469096D-05  0.550777D-01
     15 -0.324569D-02  0.411361D-02  0.000000D+00  0.000000D+00  0.550777D-01
 FormGI is forming the generalized inverse of G from B-inverse, IUseBI=4.
 Force constants in internal coordinates: 
                1             2             3             4             5 
      1  0.431973D+00
      2  0.236534D-02  0.431973D+00
      3  0.236534D-02  0.236534D-02  0.431973D+00
      4  0.236534D-02  0.236534D-02  0.236534D-02  0.431973D+00
      5  0.146913D-02  0.146913D-02 -0.922478D-03 -0.201579D-02  0.211492D-01
      6  0.230248D-02 -0.594189D-03  0.256244D-02 -0.427073D-02 -0.929070D-02
      7  0.449950D-02 -0.361118D-02 -0.399741D-02  0.310909D-02 -0.139811D-01
      8 -0.594189D-03  0.230248D-02  0.256244D-02 -0.427073D-02 -0.929070D-02
      9 -0.361118D-02  0.449950D-02 -0.399741D-02  0.310909D-02 -0.139811D-01
     10 -0.406574D-02 -0.406574D-02  0.379241D-02  0.433906D-02  0.253944D-01
     11 -0.284542D-02 -0.284542D-02 -0.200853D-02  0.769938D-02 -0.145236D-01
     12  0.234329D-02  0.234329D-02 -0.602560D-02  0.133902D-02  0.877907D-02
     13 -0.308557D-02  0.542886D-02 -0.301280D-02  0.669511D-03  0.438954D-02
     14 -0.542886D-02  0.308557D-02  0.301280D-02 -0.669512D-03 -0.438954D-02
                6             7             8             9            10 
      6  0.399679D-01
      7 -0.242341D-01  0.780786D-01
      8 -0.205209D-02  0.262667D-01  0.399679D-01
      9  0.262667D-01 -0.377001D-01 -0.242341D-01  0.780786D-01
     10 -0.306577D-01 -0.284300D-01 -0.306577D-01 -0.284300D-01  0.927810D-01
     11 -0.118399D-01  0.158786D-01 -0.118399D-01  0.158786D-01  0.644621D-02
     12 -0.101340D-01  0.760345D-02 -0.101340D-01  0.760345D-02 -0.371788D-02
     13 -0.153362D-01 -0.722759D-03  0.520219D-02  0.832621D-02 -0.185894D-02
     14 -0.520219D-02 -0.832621D-02  0.153362D-01  0.722759D-03  0.185894D-02
               11            12            13            14 
     11  0.322885D-01
     12  0.165950D-02  0.200644D-01
     13  0.829748D-03  0.100322D-01  0.203639D-01
     14 -0.829748D-03 -0.100322D-01  0.103317D-01  0.203639D-01
 Leave Link  716 at Sun Oct 13 19:42:26 2019, MaxMem=  1342177280 cpu:               3.4 elap:               0.7
 (Enter /apps/cent7/gaussian/g16-A.03/g16-haswell/g16/l103.exe)

 GradGradGradGradGradGradGradGradGradGradGradGradGradGradGradGradGradGrad
 Berny optimization.
 Red2BG is reusing G-inverse.
 Internal  Forces:  Max     0.000268267 RMS     0.000143395
 Search for a local minimum.
 Step number   1 out of a maximum of    2
 All quantities printed in internal units (Hartrees-Bohrs-Radians)
 Second derivative matrix not updated -- analytic derivatives used.
 The second derivative matrix:
                          R1        R2        R3        R4        A1
           R1           0.43197
           R2           0.00237   0.43197
           R3           0.00237   0.00237   0.43197
           R4           0.00237   0.00237   0.00237   0.43197
           A1           0.00147   0.00147  -0.00092  -0.00202   0.02115
           A2           0.00230  -0.00059   0.00256  -0.00427  -0.00929
           A3           0.00450  -0.00361  -0.00400   0.00311  -0.01398
           A4          -0.00059   0.00230   0.00256  -0.00427  -0.00929
           A5          -0.00361   0.00450  -0.00400   0.00311  -0.01398
           A6          -0.00407  -0.00407   0.00379   0.00434   0.02539
           D1          -0.00285  -0.00285  -0.00201   0.00770  -0.01452
           D2           0.00234   0.00234  -0.00603   0.00134   0.00878
           D3          -0.00309   0.00543  -0.00301   0.00067   0.00439
           D4          -0.00543   0.00309   0.00301  -0.00067  -0.00439
                          A2        A3        A4        A5        A6
           A2           0.03997
           A3          -0.02423   0.07808
           A4          -0.00205   0.02627   0.03997
           A5           0.02627  -0.03770  -0.02423   0.07808
           A6          -0.03066  -0.02843  -0.03066  -0.02843   0.09278
           D1          -0.01184   0.01588  -0.01184   0.01588   0.00645
           D2          -0.01013   0.00760  -0.01013   0.00760  -0.00372
           D3          -0.01534  -0.00072   0.00520   0.00833  -0.00186
           D4          -0.00520  -0.00833   0.01534   0.00072   0.00186
                          D1        D2        D3        D4
           D1           0.03229
           D2           0.00166   0.02006
           D3           0.00083   0.01003   0.02036
           D4          -0.00083  -0.01003   0.01033   0.02036
 ITU=  0
     Eigenvalues ---    0.04145   0.04675   0.07126   0.14096   0.14133
     Eigenvalues ---    0.43001   0.43002   0.43015   0.43907
 Angle between quadratic step and forces=   0.00 degrees.
 Linear search not attempted -- first point.
 Iteration  1 RMS(Cart)=  0.00032659 RMS(Int)=  0.00000000
 Iteration  2 RMS(Cart)=  0.00000000 RMS(Int)=  0.00000000
 ITry= 1 IFail=0 DXMaxC= 6.11D-04 DCOld= 1.00D+10 DXMaxT= 3.00D-01 DXLimC= 3.00D+00 Rises=F
 ClnCor:  largest displacement from symmetrization is 2.78D-12 for atom     5.
 Variable       Old X    -DE/DX   Delta X   Delta X   Delta X     New X
                                 (Linear)    (Quad)   (Total)
    R1        1.93786   0.00027   0.00000   0.00061   0.00061   1.93847
    R2        1.93786   0.00027   0.00000   0.00061   0.00061   1.93847
    R3        1.93786   0.00027   0.00000   0.00061   0.00061   1.93847
    R4        1.93786   0.00027   0.00000   0.00061   0.00061   1.93847
    A1        1.91063   0.00000   0.00000  -0.00000  -0.00000   1.91063
    A2        1.91063  -0.00000   0.00000  -0.00000   0.00000   1.91063
    A3        1.91063  -0.00000   0.00000   0.00000  -0.00000   1.91063
    A4        1.91063  -0.00000   0.00000   0.00000  -0.00000   1.91063
    A5        1.91063  -0.00000   0.00000  -0.00000   0.00000   1.91063
    A6        1.91063   0.00000   0.00000  -0.00000   0.00000   1.91063
    D1       -2.09440   0.00000   0.00000   0.00000   0.00000  -2.09440
    D2        2.09440  -0.00000   0.00000  -0.00000   0.00000   2.09440
    D3       -2.09440  -0.00000   0.00000   0.00000  -0.00000  -2.09440
    D4        2.09440   0.00000   0.00000   0.00000   0.00000   2.09440
         Item               Value     Threshold  Converged?
 Maximum Force            0.000268     0.000450     YES
 RMS     Force            0.000143     0.000300     YES
 Maximum Displacement     0.000611     0.001800     YES
 RMS     Displacement     0.000327     0.001200     YES
 Predicted change in Energy=-3.278165D-07
 Optimization completed.
    -- Stationary point found.
                           ----------------------------
                           !   Optimized Parameters   !
                           ! (Angstroms and Degrees)  !
 --------------------------                            --------------------------
 ! Name  Definition              Value          Derivative Info.                !
 --------------------------------------------------------------------------------
 ! R1    R(1,2)                  1.0255         -DE/DX =    0.0003              !
 ! R2    R(1,3)                  1.0255         -DE/DX =    0.0003              !
 ! R3    R(1,4)                  1.0255         -DE/DX =    0.0003              !
 ! R4    R(1,5)                  1.0255         -DE/DX =    0.0003              !
 ! A1    A(2,1,3)              109.4712         -DE/DX =    0.0                 !
 ! A2    A(2,1,4)              109.4712         -DE/DX =    0.0                 !
 ! A3    A(2,1,5)              109.4712         -DE/DX =    0.0                 !
 ! A4    A(3,1,4)              109.4712         -DE/DX =    0.0                 !
 ! A5    A(3,1,5)              109.4712         -DE/DX =    0.0                 !
 ! A6    A(4,1,5)              109.4712         -DE/DX =    0.0                 !
 ! D1    D(2,1,4,3)           -120.0            -DE/DX =    0.0                 !
 ! D2    D(2,1,5,3)            120.0            -DE/DX =    0.0                 !
 ! D3    D(2,1,5,4)           -120.0            -DE/DX =    0.0                 !
 ! D4    D(3,1,5,4)            120.0            -DE/DX =    0.0                 !
 --------------------------------------------------------------------------------
 GradGradGradGradGradGradGradGradGradGradGradGradGradGradGradGradGradGrad

 Leave Link  103 at Sun Oct 13 19:42:28 2019, MaxMem=  1342177280 cpu:              10.5 elap:               2.1
 (Enter /apps/cent7/gaussian/g16-A.03/g16-haswell/g16/l9999.exe)
 Dipole is zero, so no output in dipole orientation.

 ----------------------------------------------------------------------

 Electric dipole moment (input orientation):
 (Debye = 10**-18 statcoulomb cm , SI units = C m)
                  (au)            (Debye)         (10**-30 SI)
   Tot        0.000000D+00      0.000000D+00      0.000000D+00
   x          0.000000D+00      0.000000D+00      0.000000D+00
   y          0.000000D+00      0.000000D+00      0.000000D+00
   z          0.000000D+00      0.000000D+00      0.000000D+00

 Dipole polarizability, Alpha (input orientation).
 (esu units = cm**3 , SI units = C**2 m**2 J**-1)
 Alpha(0;0):
               (au)            (10**-24 esu)      (10**-40 SI)
   iso        0.821539D+01      0.121740D+01      0.135454D+01
   aniso      0.000000D+00      0.000000D+00      0.000000D+00
   xx         0.821539D+01      0.121740D+01      0.135454D+01
   yx         0.000000D+00      0.000000D+00      0.000000D+00
   yy         0.821539D+01      0.121740D+01      0.135454D+01
   zx         0.000000D+00      0.000000D+00      0.000000D+00
   zy         0.000000D+00      0.000000D+00      0.000000D+00
   zz         0.821539D+01      0.121740D+01      0.135454D+01

 ----------------------------------------------------------------------
 1\1\GINC-BROWN-FE02\Freq\RM062X\6-311++G(d,p)\H4N1(1+)\FINEJ\13-Oct-20
 19\0\\#P Geom=AllCheck Guess=TCheck SCRF=Check GenChk RM062X/6-311++G(
 d,p) Freq\\Title Card Required\\1,1\N,0.01212121,1.03636362,0.\H,0.353
 9334479,0.0695343275,-0.0000000044\H,0.3539514982,1.5197718818,0.83729
 50456\H,0.3539514952,1.5197718883,-0.8372950431\H,-1.0133516013,1.0363
 763824,0.0000000019\\Version=ES64L-G16RevA.03\State=1-A1\HF=-56.881602
 9\RMSD=0.000e+00\RMSF=1.385e-04\ZeroPoint=0.0496797\Thermal=0.0496797\
 Dipole=0.,0.,0.\DipoleDeriv=-0.3109706,0.,0.,0.,-0.3109706,0.,0.,0.,-0
 .3109706,0.3005828,-0.0384073,0.,-0.0384073,0.3956408,0.,0.,0.,0.28700
 43,0.3005843,0.0192044,0.0332633,0.0192044,0.3141627,0.0470401,0.03326
 33,0.0470401,0.368481,0.3005843,0.0192044,-0.0332633,0.0192044,0.31416
 27,-0.0470401,-0.0332633,-0.0470401,0.368481,0.4092193,-0.0000015,0.,-
 0.0000015,0.2870043,0.,0.,0.,0.2870043\Polar=8.2153941,0.,8.2153941,0.
 ,0.,8.2153941\Quadrupole=0.,0.,0.,0.,0.,0.\PG=TD [O(N1),4C3(H1)]\NImag
 =0\\0.71167315,0.,0.71167315,0.,0.,0.71167315,-0.10050172,0.10947634,0
 .,0.09695205,0.10947634,-0.37145562,0.,-0.11844322,0.39009900,0.,0.,-0
 .06179752,0.,0.,0.05507771,-0.10050581,-0.05474034,-0.09481388,0.00541
 019,0.00451432,0.01390267,0.09695647,-0.05474034,-0.13921000,-0.134083
 53,-0.01429788,-0.01231509,-0.02958805,0.05922396,0.13883082,-0.094813
 88,-0.13408353,-0.29403906,0.00304182,0.00113229,0.00411361,0.10257981
 ,0.14506592,0.30634146,-0.10050580,-0.05474034,0.09481388,0.00541019,0
 .00451432,-0.01390267,0.00541055,0.00978320,-0.01086142,0.09695647,-0.
 05474034,-0.13921000,0.13408353,-0.01429788,-0.01231509,0.02958805,0.0
 0978320,0.01232777,-0.01535996,0.05922396,0.13883082,0.09481388,0.1340
 8353,-0.29403905,-0.00304182,-0.00113229,0.00411361,0.01086142,0.01535
 996,-0.02052962,-0.10257980,-0.14506592,0.30634146,-0.41015982,0.00000
 434,0.,-0.00727071,-0.00006176,0.,-0.00727141,0.00003106,0.00005367,-0
 .00727141,0.00003106,-0.00005367,0.43197334,0.00000434,-0.06179752,0.,
 0.03756265,0.00598681,0.,-0.01878115,0.00036650,0.00324529,-0.01878115
 ,0.00036650,-0.00324529,-0.00000469,0.05507771,0.,0.,-0.06179752,0.,0.
 ,-0.00150740,-0.03253002,0.00324569,0.00411361,0.03253002,-0.00324569,
 0.00411361,0.,0.,0.05507771\\0.,0.,0.,-0.00008942,0.00025293,0.,-0.000
 08942,-0.00012646,-0.00021904,-0.00008942,-0.00012646,0.00021904,0.000
 26827,0.,0.\\\@


 Some scientists claim that hydrogen, because it is so
 plentiful, is the basic building block of the universe. 
 I dispute that. I say that stupidity is far more
 abundant than hydrogen, and THAT is the basic building 
 block of the universe.
                   --Frank Zappa
 Job cpu time:       0 days  0 hours  7 minutes 42.8 seconds.
 Elapsed time:       0 days  0 hours  1 minutes 35.8 seconds.
 File lengths (MBytes):  RWF=      6 Int=      0 D2E=      0 Chk=      1 Scr=      1
 Normal termination of Gaussian 16 at Sun Oct 13 19:42:28 2019.
