Title Card Required                                                     
Freq      RM062X                                                      6-311++G(d,p)       
Number of atoms                            I                4
Info1-9                                    I   N=           9
          18          18        1002           0           0         100
           6          18        -502
Full Title                                 C   N=           2
Title Card Required     
Route                                      C   N=           6
#P opt freq m062x/6-311++g(d,p) geom=connectivity temperatur
e=0.001     
Charge                                     I                0
Multiplicity                               I                1
Number of electrons                        I               10
Number of alpha electrons                  I                5
Number of beta electrons                   I                5
Number of basis functions                  I               43
Number of independent functions            I               43
Number of point charges in /Mol/           I                0
Number of translation vectors              I                0
Atomic numbers                             I   N=           4
           7           1           1           1
Nuclear charges                            R   N=           4
  7.00000000E+00  1.00000000E+00  1.00000000E+00  1.00000000E+00
Current cartesian coordinates              R   N=          12
  6.35237158E-22 -7.24756750E-17  2.07271237E-01 -2.63720548E-16  1.78546780E+00
 -4.83632886E-01 -1.54626047E+00 -8.92733900E-01 -4.83632886E-01  1.54626047E+00
 -8.92733900E-01 -4.83632886E-01
Number of symbols in /Mol/                 I                0
Force Field                                I                0
Atom Types                                 C   N=           4
                                                
Int Atom Types                             I   N=           4
           0           0           0           0
MM charges                                 R   N=           4
  0.00000000E+00  0.00000000E+00  0.00000000E+00  0.00000000E+00
Integer atomic weights                     I   N=           4
          14           1           1           1
Real atomic weights                        R   N=           4
  1.40030740E+01  1.00782504E+00  1.00782504E+00  1.00782504E+00
Atom fragment info                         I   N=           4
           0           0           0           0
Atom residue num                           I   N=           4
           0           0           0           0
Nuclear spins                              I   N=           4
           2           1           1           1
Nuclear ZEff                               R   N=           4
 -4.55000000E+00 -1.00000000E+00 -1.00000000E+00 -1.00000000E+00
Nuclear ZNuc                               R   N=           4
  7.00000000E+00  1.00000000E+00  1.00000000E+00  1.00000000E+00
Nuclear QMom                               R   N=           4
  2.04400000E+00  0.00000000E+00  0.00000000E+00  0.00000000E+00
Nuclear GFac                               R   N=           4
  4.03761000E-01  2.79284600E+00  2.79284600E+00  2.79284600E+00
MicOpt                                     I   N=           4
          -1          -1          -1          -1
Number of residues                         I                0
Number of secondary structures             I                0
Redundant internal dimensions              I   N=           4
           7           3           3           1
Redundant internal coordinate indices      I   N=          28
           1           2           0           0           1           3
           0           0           1           4           0           0
           2           1           3           0           2           1
           4           0           3           1           4           0
           2           1           4           3
Redundant internal coordinates             R   N=           7
  1.91448264E+00  1.91448264E+00  1.91448264E+00  1.88036229E+00  1.88036229E+00
  1.88036229E+00 -2.02429682E+00
ZRed-IntVec                                I   N=           7
           0           0           0           0           0           0
           0
ZRed-FPVec                                 R   N=           7
  0.00000000E+00  0.00000000E+00  0.00000000E+00  0.00000000E+00  0.00000000E+00
  0.00000000E+00  0.00000000E+00
ZRed-Constraint1                           R   N=           7
  1.91448264E+00  1.91448264E+00  1.91448264E+00  1.88036229E+00  1.88036229E+00
  1.88036229E+00 -2.02429682E+00
ZRed-Constraint2                           R   N=           7
  1.88972613E+00  1.88972612E+00  1.88972612E+00  1.91063293E+00  1.91063293E+00
  1.91063376E+00 -2.09439485E+00
SymInf integers                            I   N=          26
           2           2           1           1           1          -1
           1           1           0           0           0           0
           0           0           0           0           0           0
           0           0           0           0           0           0
           0           0
RotTr to input orientation                 R   N=          12
  1.47947500E-12  1.22781466E-07 -1.00000000E+00 -1.20503762E-05 -1.00000000E+00
 -1.22781466E-07 -1.00000000E+00  1.20503762E-05  8.78532042E-17  1.84382333E-01
  1.95844133E+00  3.33066907E-16
Number of contracted shells                I               21
Number of primitive shells                 I               34
Pure/Cartesian d shells                    I                0
Pure/Cartesian f shells                    I                0
Highest angular momentum                   I                2
Largest degree of contraction              I                6
Shell types                                I   N=          21
           0          -1          -1          -1          -1          -2
           0           0           0           0           1           0
           0           0           0           1           0           0
           0           0           1
Number of primitives per shell             I   N=          21
           6           3           1           1           1           1
           3           1           1           1           1           3
           1           1           1           1           3           1
           1           1           1
Shell to atom map                          I   N=          21
           1           1           1           1           1           1
           2           2           2           2           2           3
           3           3           3           3           4           4
           4           4           4
Primitive exponents                        R   N=          34
  6.29348000E+03  9.49044000E+02  2.18776000E+02  6.36916000E+01  1.88282000E+01
  2.72023000E+00  3.06331000E+01  7.02614000E+00  2.11205000E+00  6.84009000E-01
  2.00878000E-01  6.39000000E-02  9.13000000E-01  3.38650000E+01  5.09479000E+00
  1.15879000E+00  3.25840000E-01  1.02741000E-01  3.60000000E-02  7.50000000E-01
  3.38650000E+01  5.09479000E+00  1.15879000E+00  3.25840000E-01  1.02741000E-01
  3.60000000E-02  7.50000000E-01  3.38650000E+01  5.09479000E+00  1.15879000E+00
  3.25840000E-01  1.02741000E-01  3.60000000E-02  7.50000000E-01
Contraction coefficients                   R   N=          34
  1.96978815E-03  1.49612859E-02  7.35005308E-02  2.48936766E-01  6.02459433E-01
  2.56201759E-01  1.11906080E-01  9.21666655E-01 -2.56919183E-03  1.00000000E+00
  1.00000000E+00  1.00000000E+00  1.00000000E+00  2.54938145E-02  1.90373109E-01
  8.52161486E-01  1.00000000E+00  1.00000000E+00  1.00000000E+00  1.00000000E+00
  2.54938145E-02  1.90373109E-01  8.52161486E-01  1.00000000E+00  1.00000000E+00
  1.00000000E+00  1.00000000E+00  2.54938145E-02  1.90373109E-01  8.52161486E-01
  1.00000000E+00  1.00000000E+00  1.00000000E+00  1.00000000E+00
P(S=P) Contraction coefficients            R   N=          34
  0.00000000E+00  0.00000000E+00  0.00000000E+00  0.00000000E+00  0.00000000E+00
  0.00000000E+00  3.83119186E-02  2.37403116E-01  8.17592398E-01  1.00000000E+00
  1.00000000E+00  1.00000000E+00  0.00000000E+00  0.00000000E+00  0.00000000E+00
  0.00000000E+00  0.00000000E+00  0.00000000E+00  0.00000000E+00  0.00000000E+00
  0.00000000E+00  0.00000000E+00  0.00000000E+00  0.00000000E+00  0.00000000E+00
  0.00000000E+00  0.00000000E+00  0.00000000E+00  0.00000000E+00  0.00000000E+00
  0.00000000E+00  0.00000000E+00  0.00000000E+00  0.00000000E+00
Coordinates of each shell                  R   N=          63
  4.39473873E-22 -7.24760985E-17  2.07271237E-01  4.39473873E-22 -7.24760985E-17
  2.07271237E-01  4.39473873E-22 -7.24760985E-17  2.07271237E-01  4.39473873E-22
 -7.24760985E-17  2.07271237E-01  4.39473873E-22 -7.24760985E-17  2.07271237E-01
  4.39473873E-22 -7.24760985E-17  2.07271237E-01 -1.75813695E-16  1.78546780E+00
 -4.83632886E-01 -1.75813695E-16  1.78546780E+00 -4.83632886E-01 -1.75813695E-16
  1.78546780E+00 -4.83632886E-01 -1.75813695E-16  1.78546780E+00 -4.83632886E-01
 -1.75813695E-16  1.78546780E+00 -4.83632886E-01 -1.54626047E+00 -8.92733900E-01
 -4.83632886E-01 -1.54626047E+00 -8.92733900E-01 -4.83632886E-01 -1.54626047E+00
 -8.92733900E-01 -4.83632886E-01 -1.54626047E+00 -8.92733900E-01 -4.83632886E-01
 -1.54626047E+00 -8.92733900E-01 -4.83632886E-01  1.54626047E+00 -8.92733900E-01
 -4.83632886E-01  1.54626047E+00 -8.92733900E-01 -4.83632886E-01  1.54626047E+00
 -8.92733900E-01 -4.83632886E-01  1.54626047E+00 -8.92733900E-01 -4.83632886E-01
  1.54626047E+00 -8.92733900E-01 -4.83632886E-01
Num ILSW                                   I              100
ILSW                                       I   N=         100
           0           0           0           0           2           0
           0           0           0           0        4336          -1
           5           0           0           0           2           0
           0           0           0           0           1           0
           1           0           0           0           0           0
           0           0      100000           0          -1           0
           0           0           0           0           0           0
           0           0           0           1           0           0
           0 -2000000000           1           0           0           0
           0           0           4          52           0           0
           0           0          55           0           0           0
           0           0           0           4           0           1
           0           0           0           0           0           0
           0           0           0           0           0           0
           0           0           0           0           0           0
           0           0           0           0           0           0
           0           0           0           0
Num RLSW                                   I               52
RLSW                                       R   N=          52
  1.00000000E+00  1.00000000E+00  1.00000000E+00  1.00000000E+00  5.40000000E-01
  0.00000000E+00  0.00000000E+00  1.00000000E+00  0.00000000E+00  0.00000000E+00
  0.00000000E+00  0.00000000E+00  1.00000000E+00  0.00000000E+00  0.00000000E+00
  0.00000000E+00  0.00000000E+00  1.00000000E+00  0.00000000E+00  0.00000000E+00
  0.00000000E+00  0.00000000E+00  1.00000000E+00  0.00000000E+00  0.00000000E+00
  0.00000000E+00  0.00000000E+00  1.00000000E+00  0.00000000E+00  0.00000000E+00
  0.00000000E+00  0.00000000E+00  1.00000000E+00  0.00000000E+00  0.00000000E+00
  0.00000000E+00  0.00000000E+00  0.00000000E+00  1.00000000E+00  1.00000000E+00
  0.00000000E+00  1.00000000E+00  0.00000000E+00  0.00000000E+00  0.00000000E+00
  0.00000000E+00  0.00000000E+00  0.00000000E+00  0.00000000E+00  0.00000000E+00
  0.00000000E+00  0.00000000E+00
MxBond                                     I                3
NBond                                      I   N=           4
           3           1           1           1
IBond                                      I   N=          12
           2           3           4           1           0           0
           1           0           0           1           0           0
RBond                                      R   N=          12
  1.00000000E+00  1.00000000E+00  1.00000000E+00  1.00000000E+00  0.00000000E+00
  0.00000000E+00  1.00000000E+00  0.00000000E+00  0.00000000E+00  1.00000000E+00
  0.00000000E+00  0.00000000E+00
Virial Ratio                               R      2.003677423350657E+00
SCF Energy                                 R     -5.654595690280598E+01
Total Energy                               R     -5.654595690280598E+01
RMS Force                                  R      5.462789498922684E-05
RMS Density                                R      1.795827986212817E-09
NImag                                      I                0
Job Status                                 I                1
Nuclear derivative order                   I                2
External E-field                           R   N=          35
  0.00000000E+00  0.00000000E+00  0.00000000E+00  0.00000000E+00  0.00000000E+00
  0.00000000E+00  0.00000000E+00  0.00000000E+00  0.00000000E+00  0.00000000E+00
  0.00000000E+00  0.00000000E+00  0.00000000E+00  0.00000000E+00  0.00000000E+00
  0.00000000E+00  0.00000000E+00  0.00000000E+00  0.00000000E+00  0.00000000E+00
  0.00000000E+00  0.00000000E+00  0.00000000E+00  0.00000000E+00  0.00000000E+00
  0.00000000E+00  0.00000000E+00  0.00000000E+00  0.00000000E+00  0.00000000E+00
  0.00000000E+00  0.00000000E+00  0.00000000E+00  0.00000000E+00  0.00000000E+00
IOpCl                                      I                0
IROHF                                      I                0
Alpha Orbital Energies                     R   N=          43
 -1.47230014E+01 -9.56320538E-01 -5.34532182E-01 -5.34532182E-01 -3.36108006E-01
 -2.75517591E-03  3.42864662E-02  3.42864662E-02  1.26467683E-01  1.56142443E-01
  1.56142443E-01  1.76511974E-01  2.29041353E-01  2.29041353E-01  2.46803501E-01
  5.29388536E-01  5.29388536E-01  6.76035735E-01  8.19422634E-01  8.56121302E-01
  8.56121302E-01  1.06236278E+00  1.16835242E+00  1.16835242E+00  1.56584814E+00
  1.62627004E+00  1.72425269E+00  1.72425269E+00  1.97479932E+00  1.97479932E+00
  2.30789554E+00  2.50866986E+00  2.50866986E+00  2.65556474E+00  2.70226958E+00
  2.70226958E+00  2.90198977E+00  3.13764935E+00  3.13764935E+00  4.13405870E+00
  4.81268686E+00  4.81268686E+00  3.57212989E+01
Alpha MO coefficients                      R   N=        1849
  5.58818570E-01  4.65857484E-01  0.00000000E+00 -2.68736406E-16 -1.50895915E-03
  9.78478163E-03  0.00000000E+00  2.30392679E-15 -4.49516358E-04 -9.92534163E-04
  0.00000000E+00  1.96247283E-15 -7.55390287E-04 -5.72632578E-04  0.00000000E+00
 -1.13381808E-15  5.23973274E-04 -5.00729311E-04  0.00000000E+00 -8.60025736E-16
 -1.02638635E-15  0.00000000E+00  1.59157765E-04 -1.73372161E-03  1.20900958E-03
 -2.20694330E-04  0.00000000E+00  1.04026177E-03 -3.61323922E-04  1.59157765E-04
 -1.73372161E-03  1.20900958E-03 -2.20694330E-04 -9.00893119E-04 -5.20130885E-04
 -3.61323922E-04  1.59157765E-04 -1.73372161E-03  1.20900958E-03 -2.20694330E-04
  9.00893119E-04 -5.20130885E-04 -3.61323922E-04 -1.08973113E-01 -1.76981835E-01
  0.00000000E+00 -3.22166587E-16 -4.06217797E-02  4.79265286E-01  0.00000000E+00
 -8.48146863E-16 -6.43040207E-02  3.36926444E-01  0.00000000E+00  4.63061768E-15
 -2.79081565E-02  2.59346781E-02  0.00000000E+00  9.26909645E-15 -6.29122090E-03
 -7.33023399E-03  0.00000000E+00 -7.56570090E-16  4.35833898E-16  0.00000000E+00
  9.19585255E-02  8.77497691E-02 -8.60324044E-03  1.83173211E-03  0.00000000E+00
 -1.77395528E-02  4.29271833E-03  9.19585255E-02  8.77497691E-02 -8.60324044E-03
  1.83173211E-03  1.53629034E-02  8.86977642E-03  4.29271833E-03  9.19585255E-02
  8.77497691E-02 -8.60324044E-03  1.83173211E-03 -1.53629034E-02  8.86977642E-03
  4.29271833E-03  0.00000000E+00  0.00000000E+00  2.18165329E-01  0.00000000E+00
  0.00000000E+00  0.00000000E+00  3.22404989E-01  0.00000000E+00  0.00000000E+00
  0.00000000E+00  2.10528048E-01  0.00000000E+00  0.00000000E+00  0.00000000E+00
  1.08840289E-02  0.00000000E+00  0.00000000E+00  0.00000000E+00 -2.48538900E-02
  0.00000000E+00  0.00000000E+00 -1.32832939E-02  0.00000000E+00  0.00000000E+00
  0.00000000E+00  0.00000000E+00  1.70735705E-02  0.00000000E+00  0.00000000E+00
 -1.49470603E-01 -2.04526626E-01 -6.94920679E-02 -9.12731270E-03 -7.88771707E-03
 -1.44114061E-02 -7.92272460E-03  1.49470603E-01  2.04526626E-01  6.94920679E-02
  9.12731270E-03 -7.88771707E-03  1.44114061E-02  7.92272460E-03 -2.54038515E-16
 -4.63114935E-16  0.00000000E+00  2.18165329E-01 -6.81192735E-16  4.29632840E-15
  0.00000000E+00  3.22404989E-01  2.92680234E-15 -2.60357790E-14  0.00000000E+00
  2.10528048E-01  3.96254922E-15  2.27670042E-13  0.00000000E+00  1.08840289E-02
 -4.20348215E-14  1.39024046E-15  0.00000000E+00 -2.48538900E-02 -1.32832939E-02
  0.00000000E+00  1.72593786E-01  2.36167005E-01  8.02425282E-02  1.05393129E-02
  0.00000000E+00 -1.62081463E-02  9.14837436E-03 -8.62968928E-02 -1.18083502E-01
 -4.01212641E-02 -5.26965644E-03 -1.44114061E-02  8.75314130E-03 -4.57418718E-03
 -8.62968928E-02 -1.18083502E-01 -4.01212641E-02 -5.26965644E-03  1.44114061E-02
  8.75314130E-03 -4.57418718E-03 -3.47826991E-02 -5.82471365E-02  0.00000000E+00
  6.32758287E-16  2.54663047E-01  1.76126040E-01  0.00000000E+00 -2.39790955E-16
  3.75387089E-01  2.09991709E-01  0.00000000E+00 -2.58198253E-15  3.99695925E-01
 -1.75808189E-01  0.00000000E+00  3.80168003E-14  1.43737037E-01 -1.94476569E-02
  0.00000000E+00  5.18911969E-16  6.17837869E-16  0.00000000E+00 -4.09128215E-02
 -4.80188991E-02  4.33795866E-02  1.64403457E-02  0.00000000E+00  8.48275498E-03
  2.26216961E-02 -4.09128215E-02 -4.80188991E-02  4.33795866E-02  1.64403457E-02
 -7.34628131E-03 -4.24137749E-03  2.26216961E-02 -4.09128215E-02 -4.80188991E-02
  4.33795866E-02  1.64403457E-02  7.34628131E-03 -4.24137749E-03  2.26216961E-02
 -2.54408867E-02 -4.34913469E-02  0.00000000E+00 -3.51636054E-14 -3.24607261E-02
  1.50644826E-01  0.00000000E+00 -4.25613851E-14 -4.32318784E-02  1.17173336E-01
  0.00000000E+00  1.45803065E-13 -8.00231780E-02  2.07871852E+00  0.00000000E+00
 -1.59038928E-12 -2.26605229E-01  4.30763113E-03  0.00000000E+00 -1.46591663E-14
 -1.83732763E-14  0.00000000E+00 -3.44712961E-03 -5.37475766E-03 -3.49334500E-01
 -7.37000203E-01  0.00000000E+00 -1.73171368E-02  4.70087094E-03 -3.44712961E-03
 -5.37475766E-03 -3.49334500E-01 -7.37000203E-01  1.49970804E-02  8.65856839E-03
  4.70087094E-03 -3.44712961E-03 -5.37475766E-03 -3.49334500E-01 -7.37000203E-01
 -1.49970804E-02  8.65856839E-03  4.70087094E-03  2.66377911E-14  4.55423701E-14
  0.00000000E+00 -5.21985835E-02  5.00475011E-14 -1.03033825E-13  0.00000000E+00
 -9.13303568E-02  1.78908302E-13 -5.71330032E-13  0.00000000E+00 -1.27912857E-02
  5.08830782E-14  1.29663735E-11  0.00000000E+00 -6.01093722E-01 -2.76162611E-12
  3.01395414E-14  0.00000000E+00  1.54383161E-03 -2.52585170E-03  0.00000000E+00
 -1.47253866E-02 -3.22474575E-03 -4.57334613E-02  3.05077821E+00  0.00000000E+00
  1.48587420E-02 -7.14584274E-03  7.36269331E-03  1.61237288E-03  2.28667306E-02
 -1.52538911E+00  7.96316656E-03  1.06613297E-03  3.57292137E-03  7.36269331E-03
  1.61237288E-03  2.28667306E-02 -1.52538911E+00 -7.96316656E-03  1.06613297E-03
  3.57292137E-03  0.00000000E+00  0.00000000E+00  5.21985835E-02  0.00000000E+00
  0.00000000E+00  0.00000000E+00  9.13303568E-02  0.00000000E+00  0.00000000E+00
  0.00000000E+00  1.27912857E-02  0.00000000E+00  0.00000000E+00  0.00000000E+00
  6.01093722E-01  0.00000000E+00  0.00000000E+00  0.00000000E+00 -1.54383161E-03
  0.00000000E+00  0.00000000E+00  2.52585170E-03  0.00000000E+00  0.00000000E+00
  0.00000000E+00  0.00000000E+00  3.53140339E-03  0.00000000E+00  0.00000000E+00
 -1.27525589E-02 -2.79271174E-03 -3.96063393E-02  2.64205143E+00 -1.02612057E-02
 -7.96316656E-03 -6.18848135E-03  1.27525589E-02  2.79271174E-03  3.96063393E-02
 -2.64205143E+00 -1.02612057E-02  7.96316656E-03  6.18848135E-03  9.41001215E-05
  1.00756300E-03  0.00000000E+00 -4.24193888E-15  1.10775333E-01  5.93059332E-04
  0.00000000E+00  1.08765601E-13  1.40647954E-01 -9.18321375E-02  0.00000000E+00
  4.84247182E-13  4.45803528E-01  5.01640225E+00  0.00000000E+00 -1.34855393E-11
 -2.00787413E+00  1.73387815E-03  0.00000000E+00 -1.19579912E-13 -1.44584790E-13
  0.00000000E+00 -2.28399937E-02  1.58215041E-01 -1.48236390E+00 -5.63881391E-01
  0.00000000E+00 -7.26643748E-03 -6.71306766E-03 -2.28399937E-02  1.58215041E-01
 -1.48236390E+00 -5.63881391E-01  6.29291945E-03  3.63321874E-03 -6.71306766E-03
 -2.28399937E-02  1.58215041E-01 -1.48236390E+00 -5.63881391E-01 -6.29291945E-03
  3.63321874E-03 -6.71306766E-03  0.00000000E+00  0.00000000E+00  1.64816583E-02
  0.00000000E+00  0.00000000E+00  0.00000000E+00  5.01892568E-03  0.00000000E+00
  0.00000000E+00  0.00000000E+00  6.04818987E-03  0.00000000E+00  0.00000000E+00
  0.00000000E+00  3.14404567E+00  0.00000000E+00  0.00000000E+00  0.00000000E+00
  2.38165129E-02  0.00000000E+00  0.00000000E+00  3.15147002E-02  0.00000000E+00
  0.00000000E+00  0.00000000E+00  0.00000000E+00  2.97131743E-02  0.00000000E+00
  0.00000000E+00  6.72279715E-02 -1.06804439E-01  2.40752055E+00  1.79403698E+00
 -5.54748980E-03 -2.03577539E-02 -1.46116155E-02 -6.72279715E-02  1.06804439E-01
 -2.40752055E+00 -1.79403698E+00 -5.54748980E-03  2.03577539E-02  1.46116155E-02
 -2.50480373E-13 -4.14110983E-13  0.00000000E+00  1.64816583E-02  6.59733248E-13
  8.99309428E-13  0.00000000E+00  5.01892568E-03  1.81556501E-13  6.43005747E-12
  0.00000000E+00  6.04818987E-03  3.76869404E-12 -4.17134192E-11  0.00000000E+00
  3.14404567E+00 -1.74220165E-12 -1.58101724E-13  0.00000000E+00  2.38165129E-02
  3.15147002E-02  0.00000000E+00 -7.76281749E-02  1.23327143E-01 -2.77996527E+00
 -2.07157547E+00  0.00000000E+00 -1.73010445E-02  1.68720402E-02  3.88140874E-02
 -6.16635715E-02  1.38998263E+00  1.03578773E+00 -2.03577539E-02  1.79596196E-02
 -8.43602012E-03  3.88140874E-02 -6.16635715E-02  1.38998263E+00  1.03578773E+00
  2.03577539E-02  1.79596196E-02 -8.43602012E-03  5.12120192E-02  8.44145806E-02
  0.00000000E+00  1.72478961E-13  5.81257902E-03 -1.75289279E-01  0.00000000E+00
  1.49134648E-13  7.70388094E-02 -1.52131297E+00  0.00000000E+00  6.15812887E-13
 -6.58382828E-02  4.80389956E+00  0.00000000E+00  1.81663953E-11 -2.00823550E-01
  1.18662532E-02  0.00000000E+00  1.29202592E-13  1.83221977E-13  0.00000000E+00
  2.07356386E-02  1.64114810E-01 -3.78555723E-01 -9.29545896E-01  0.00000000E+00
 -4.39805576E-03  7.50518552E-03  2.07356386E-02  1.64114810E-01 -3.78555723E-01
 -9.29545896E-01  3.80882801E-03  2.19902788E-03  7.50518552E-03  2.07356386E-02
  1.64114810E-01 -3.78555723E-01 -9.29545896E-01 -3.80882801E-03  2.19902788E-03
  7.50518552E-03 -3.75420238E-14 -6.17066567E-14  0.00000000E+00  1.71491399E-01
 -1.07502765E-13  9.46035797E-14  0.00000000E+00  1.97353153E-01 -1.04900771E-13
  1.71869964E-12  0.00000000E+00  9.52811818E-01 -7.96626809E-13  1.11323903E-11
  0.00000000E+00 -9.78763693E-01 -1.74232029E-12  2.42180497E-14  0.00000000E+00
 -8.10411355E-03  8.19115036E-03  0.00000000E+00 -3.94845006E-02 -1.62752956E-01
 -1.73227621E+00  2.74607798E+00  0.00000000E+00 -1.69951993E-02  8.74628238E-03
  1.97422503E-02  8.13764781E-02  8.66138105E-01 -1.37303899E+00 -7.97825703E-03
 -3.17645279E-03 -4.37314119E-03  1.97422503E-02  8.13764781E-02  8.66138105E-01
 -1.37303899E+00  7.97825703E-03 -3.17645279E-03 -4.37314119E-03  0.00000000E+00
  0.00000000E+00 -1.71491399E-01  0.00000000E+00  0.00000000E+00  0.00000000E+00
 -1.97353153E-01  0.00000000E+00  0.00000000E+00  0.00000000E+00 -9.52811818E-01
  0.00000000E+00  0.00000000E+00  0.00000000E+00  9.78763693E-01  0.00000000E+00
  0.00000000E+00  0.00000000E+00  8.10411355E-03  0.00000000E+00  0.00000000E+00
 -8.19115036E-03  0.00000000E+00  0.00000000E+00  0.00000000E+00  0.00000000E+00
 -1.42979605E-03  0.00000000E+00  0.00000000E+00 -3.41945805E-02 -1.40948195E-01
 -1.50019520E+00  2.37817330E+00  1.23889505E-02  7.97825703E-03  7.57450273E-03
  3.41945805E-02  1.40948195E-01  1.50019520E+00 -2.37817330E+00  1.23889505E-02
 -7.97825703E-03 -7.57450273E-03 -2.12187751E-02 -3.34043338E-02  0.00000000E+00
 -8.03750627E-14 -8.04158712E-02  3.19167518E-02  0.00000000E+00  6.46695230E-15
 -5.92734169E-02  1.10590654E+00  0.00000000E+00  2.00592487E-13 -6.08520324E-01
  1.06647846E+01  0.00000000E+00  9.25561254E-12 -1.67709656E+00  2.63704413E-02
  0.00000000E+00  2.82148875E-14  4.64048368E-14  0.00000000E+00 -6.21427603E-02
  1.15188387E-02 -3.96458336E+00 -6.12568602E-01  0.00000000E+00 -5.61717577E-03
 -7.65980862E-03 -6.21427603E-02  1.15188387E-02 -3.96458336E+00 -6.12568601E-01
  4.86461691E-03  2.80858788E-03 -7.65980862E-03 -6.21427603E-02  1.15188387E-02
 -3.96458336E+00 -6.12568601E-01 -4.86461691E-03  2.80858788E-03 -7.65980862E-03
  3.63885593E-14  6.37930359E-14  0.00000000E+00  7.89824737E-02  7.19308890E-14
 -1.04341624E-13  0.00000000E+00  1.90577822E-01  1.61592177E-13 -1.82036594E-12
  0.00000000E+00  1.15218251E+00  9.45852510E-13 -5.53274267E-12  0.00000000E+00
 -1.82108078E+00  7.70961535E-13 -4.61050723E-14  0.00000000E+00 -1.10065380E-03
  2.15863818E-02  0.00000000E+00 -1.13746329E-01 -1.83527270E+00  3.13024164E+00
  1.89392830E-01  0.00000000E+00  4.07394091E-02 -5.14503877E-03  5.68731645E-02
  9.17636349E-01 -1.56512082E+00 -9.46964150E-02  1.05399328E-03  3.89138391E-02
  2.57251938E-03  5.68731645E-02  9.17636349E-01 -1.56512082E+00 -9.46964150E-02
 -1.05399328E-03  3.89138391E-02  2.57251938E-03  0.00000000E+00  0.00000000E+00
 -7.89824737E-02  0.00000000E+00  0.00000000E+00  0.00000000E+00 -1.90577822E-01
  0.00000000E+00  0.00000000E+00  0.00000000E+00 -1.15218251E+00  0.00000000E+00
  0.00000000E+00  0.00000000E+00  1.82108078E+00  0.00000000E+00  0.00000000E+00
  0.00000000E+00  1.10065380E-03  0.00000000E+00  0.00000000E+00 -2.15863818E-02
  0.00000000E+00  0.00000000E+00  0.00000000E+00  0.00000000E+00 -3.83053158E-02
  0.00000000E+00  0.00000000E+00 -9.85072105E-02 -1.58939278E+00  2.71086878E+00
  1.64019002E-01 -4.01308858E-02 -1.05399328E-03 -4.45573427E-03  9.85072105E-02
  1.58939278E+00 -2.71086878E+00 -1.64019002E-01 -4.01308858E-02  1.05399328E-03
  4.45573427E-03  3.95442344E-02  7.24546383E-02  0.00000000E+00 -7.24401072E-14
 -8.60772757E-03 -1.83217667E-01  0.00000000E+00 -2.15785274E-13 -2.02261358E-02
 -1.39587128E+00  0.00000000E+00 -7.20708752E-13  9.62930095E-01  6.86828448E+00
  0.00000000E+00  2.50566531E-12 -1.53750146E+00 -2.63385094E-02  0.00000000E+00
 -3.10157670E-15 -2.50590364E-14  0.00000000E+00  8.13855475E-02  1.75665349E+00
 -3.18247433E+00 -2.67796043E-01  0.00000000E+00 -2.63367656E-02  3.66748397E-02
  8.13855475E-02  1.75665349E+00 -3.18247433E+00 -2.67796043E-01  2.28083081E-02
  1.31683828E-02  3.66748397E-02  8.13855475E-02  1.75665349E+00 -3.18247433E+00
 -2.67796043E-01 -2.28083081E-02  1.31683828E-02  3.66748397E-02 -2.27723487E-02
 -4.53875663E-02  0.00000000E+00  7.92146628E-14 -2.64393240E-01  4.10859215E-01
  0.00000000E+00  1.94918995E-13 -8.19646332E-01 -1.59763551E+00  0.00000000E+00
 -4.12870984E-13  1.77128640E+00 -1.45078531E+00  0.00000000E+00 -1.45591168E-13
 -3.13235467E-01  3.57181168E-02  0.00000000E+00  2.44388688E-14  3.67435161E-14
  0.00000000E+00 -4.32551989E-02  1.74233617E-01  1.00852139E+00 -7.51070398E-02
  0.00000000E+00 -1.22793290E-01  3.33111682E-02 -4.32551989E-02  1.74233617E-01
  1.00852139E+00 -7.51070398E-02  1.06342109E-01  6.13966452E-02  3.33111682E-02
 -4.32551989E-02  1.74233617E-01  1.00852139E+00 -7.51070398E-02 -1.06342109E-01
  6.13966452E-02  3.33111682E-02 -7.95400196E-15 -1.59892947E-14  0.00000000E+00
 -2.66590925E-01 -6.19425831E-14  1.19051139E-13  0.00000000E+00 -8.14031722E-01
 -1.97959295E-13 -3.26653174E-13  0.00000000E+00  2.21694180E+00  3.79248654E-13
 -1.79514035E-12  0.00000000E+00 -1.17359562E+00  2.05266154E-13  5.21291068E-15
  0.00000000E+00 -2.58345514E-02 -4.07062204E-02  0.00000000E+00  3.23568926E-02
 -2.92371677E-01 -8.94434887E-01  1.66149242E+00  0.00000000E+00  1.49654583E-01
 -6.64415490E-02 -1.61784463E-02  1.46185838E-01  4.47217444E-01 -8.30746209E-01
  7.39195772E-02  2.16221197E-02  3.32207745E-02 -1.61784463E-02  1.46185838E-01
  4.47217444E-01 -8.30746209E-01 -7.39195772E-02  2.16221197E-02  3.32207745E-02
  0.00000000E+00  0.00000000E+00 -2.66590925E-01  0.00000000E+00  0.00000000E+00
  0.00000000E+00 -8.14031722E-01  0.00000000E+00  0.00000000E+00  0.00000000E+00
  2.21694180E+00  0.00000000E+00  0.00000000E+00  0.00000000E+00 -1.17359562E+00
  0.00000000E+00  0.00000000E+00  0.00000000E+00 -2.58345514E-02  0.00000000E+00
  0.00000000E+00 -4.07062204E-02  0.00000000E+00  0.00000000E+00  0.00000000E+00
  0.00000000E+00 -2.10553681E-02  0.00000000E+00  0.00000000E+00 -2.80218910E-02
  2.53201299E-01  7.74603334E-01 -1.43889464E+00  1.06977095E-01  7.39195772E-02
  5.75400693E-02  2.80218910E-02 -2.53201299E-01 -7.74603334E-01  1.43889464E+00
  1.06977095E-01 -7.39195772E-02 -5.75400693E-02  1.03133247E-01  2.12069683E-01
  0.00000000E+00  1.04630456E-15 -3.33309430E-02 -1.75724051E+00  0.00000000E+00
  6.24172481E-14 -3.71805400E-01  4.47921986E+00  0.00000000E+00  1.31404076E-13
 -7.67934916E-02 -3.46443657E+00  0.00000000E+00 -5.45529287E-13  1.99967647E-01
  2.37753910E-03  0.00000000E+00 -1.34127938E-14 -1.96723062E-14  0.00000000E+00
  1.71999079E-02 -9.03037797E-01  3.91986938E-01  4.70800014E-01  0.00000000E+00
  2.04367813E-01 -1.51148505E-01  1.71999079E-02 -9.03037797E-01  3.91986938E-01