Title Card Required                                                     
Freq      RM062X                                                      6-311++G(d,p)       
Number of atoms                            I                5
Info1-9                                    I   N=           9
          20          20        1002           0           0         100
           6          18        -502
Full Title                                 C   N=           2
Title Card Required     
Route                                      C   N=           6
#P opt freq m062x/6-311++g(d,p) geom=connectivity temperatur
e=0.001     
Charge                                     I                1
Multiplicity                               I                1
Number of electrons                        I               10
Number of alpha electrons                  I                5
Number of beta electrons                   I                5
Number of basis functions                  I               50
Number of independent functions            I               50
Number of point charges in /Mol/           I                0
Number of translation vectors              I                0
Atomic numbers                             I   N=           5
           7           1           1           1           1
Nuclear charges                            R   N=           5
  7.00000000E+00  1.00000000E+00  1.00000000E+00  1.00000000E+00  1.00000000E+00
Current cartesian coordinates              R   N=          15
 -0.00000000E+00  0.00000000E+00  0.00000000E+00  1.11882559E+00  1.11882559E+00
  1.11882559E+00 -1.11882559E+00 -1.11882559E+00  1.11882559E+00 -1.11882559E+00
  1.11882559E+00 -1.11882559E+00  1.11882559E+00 -1.11882559E+00 -1.11882559E+00
Number of symbols in /Mol/                 I                0
Force Field                                I                0
Atom Types                                 C   N=           5
                                                            
Int Atom Types                             I   N=           5
           0           0           0           0           0
MM charges                                 R   N=           5
  0.00000000E+00  0.00000000E+00  0.00000000E+00  0.00000000E+00  0.00000000E+00
Integer atomic weights                     I   N=           5
          14           1           1           1           1
Real atomic weights                        R   N=           5
  1.40030740E+01  1.00782504E+00  1.00782504E+00  1.00782504E+00  1.00782504E+00
Atom fragment info                         I   N=           5
           0           0           0           0           0
Atom residue num                           I   N=           5
           0           0           0           0           0
Nuclear spins                              I   N=           5
           2           1           1           1           1
Nuclear ZEff                               R   N=           5
 -4.55000000E+00 -1.00000000E+00 -1.00000000E+00 -1.00000000E+00 -1.00000000E+00
Nuclear ZNuc                               R   N=           5
  7.00000000E+00  1.00000000E+00  1.00000000E+00  1.00000000E+00  1.00000000E+00
Nuclear QMom                               R   N=           5
  2.04400000E+00  0.00000000E+00  0.00000000E+00  0.00000000E+00  0.00000000E+00
Nuclear GFac                               R   N=           5
  4.03761000E-01  2.79284600E+00  2.79284600E+00  2.79284600E+00  2.79284600E+00
MicOpt                                     I   N=           5
          -1          -1          -1          -1          -1
Number of residues                         I                0
Number of secondary structures             I                0
Redundant internal dimensions              I   N=           4
          14           4           6           4
Redundant internal coordinate indices      I   N=          56
           1           2           0           0           1           3
           0           0           1           4           0           0
           1           5           0           0           2           1
           3           0           2           1           4           0
           2           1           5           0           3           1
           4           0           3           1           5           0
           4           1           5           0           2           1
           4           3           2           1           5           3
           2           1           5           4           3           1
           5           4
Redundant internal coordinates             R   N=          14
  1.93786276E+00  1.93786276E+00  1.93786276E+00  1.93786276E+00  1.91063324E+00
  1.91063324E+00  1.91063324E+00  1.91063324E+00  1.91063324E+00  1.91063324E+00
 -2.09439510E+00  2.09439510E+00 -2.09439510E+00  2.09439510E+00
ZRed-IntVec                                I   N=          14
           0           0           0           0           0           0
           0           0           0           0           0           0
           0           0
ZRed-FPVec                                 R   N=          14
  0.00000000E+00  0.00000000E+00  0.00000000E+00  0.00000000E+00  0.00000000E+00
  0.00000000E+00  0.00000000E+00  0.00000000E+00  0.00000000E+00  0.00000000E+00
  0.00000000E+00  0.00000000E+00  0.00000000E+00  0.00000000E+00
ZRed-Constraint1                           R   N=          14
  1.93786276E+00  1.93786276E+00  1.93786276E+00  1.93786276E+00  1.91063324E+00
  1.91063324E+00  1.91063324E+00  1.91063324E+00  1.91063324E+00  1.91063324E+00
 -2.09439510E+00  2.09439510E+00 -2.09439510E+00  2.09439510E+00
ZRed-Constraint2                           R   N=          14
  1.88972612E+00  1.88972612E+00  1.88972612E+00  1.88972612E+00  1.91063323E+00
  1.91063323E+00  1.91063324E+00  1.91063324E+00  1.91063323E+00  1.91063323E+00
 -2.09439510E+00  2.09439510E+00 -2.09439510E+00  2.09439510E+00
SymInf integers                            I   N=          26
           4           4           1           1           1           1
          -1          -1          -1           1          -1          -1
          -1           1           0           0           0           0
           0           0           0           0           0           0
           0           0
RotTr to input orientation                 R   N=          12
 -5.77360431E-01 -8.16489396E-01 -2.09975820E-09  5.77345187E-01 -4.08255473E-01
 -7.07106784E-01  5.77345190E-01 -4.08255479E-01  7.07106779E-01  2.29057672E-02
  1.95844341E+00  7.19382783E-17
Number of contracted shells                I               26
Number of primitive shells                 I               41
Pure/Cartesian d shells                    I                0
Pure/Cartesian f shells                    I                0
Highest angular momentum                   I                2
Largest degree of contraction              I                6
Shell types                                I   N=          26
           0          -1          -1          -1          -1          -2
           0           0           0           0           1           0
           0           0           0           1           0           0
           0           0           1           0           0           0
           0           1
Number of primitives per shell             I   N=          26
           6           3           1           1           1           1
           3           1           1           1           1           3
           1           1           1           1           3           1
           1           1           1           3           1           1
           1           1
Shell to atom map                          I   N=          26
           1           1           1           1           1           1
           2           2           2           2           2           3
           3           3           3           3           4           4
           4           4           4           5           5           5
           5           5
Primitive exponents                        R   N=          41
  6.29348000E+03  9.49044000E+02  2.18776000E+02  6.36916000E+01  1.88282000E+01
  2.72023000E+00  3.06331000E+01  7.02614000E+00  2.11205000E+00  6.84009000E-01
  2.00878000E-01  6.39000000E-02  9.13000000E-01  3.38650000E+01  5.09479000E+00
  1.15879000E+00  3.25840000E-01  1.02741000E-01  3.60000000E-02  7.50000000E-01
  3.38650000E+01  5.09479000E+00  1.15879000E+00  3.25840000E-01  1.02741000E-01
  3.60000000E-02  7.50000000E-01  3.38650000E+01  5.09479000E+00  1.15879000E+00
  3.25840000E-01  1.02741000E-01  3.60000000E-02  7.50000000E-01  3.38650000E+01
  5.09479000E+00  1.15879000E+00  3.25840000E-01  1.02741000E-01  3.60000000E-02
  7.50000000E-01
Contraction coefficients                   R   N=          41
  1.96978815E-03  1.49612859E-02  7.35005308E-02  2.48936766E-01  6.02459433E-01
  2.56201759E-01  1.11906080E-01  9.21666655E-01 -2.56919183E-03  1.00000000E+00
  1.00000000E+00  1.00000000E+00  1.00000000E+00  2.54938145E-02  1.90373109E-01
  8.52161486E-01  1.00000000E+00  1.00000000E+00  1.00000000E+00  1.00000000E+00
  2.54938145E-02  1.90373109E-01  8.52161486E-01  1.00000000E+00  1.00000000E+00
  1.00000000E+00  1.00000000E+00  2.54938145E-02  1.90373109E-01  8.52161486E-01
  1.00000000E+00  1.00000000E+00  1.00000000E+00  1.00000000E+00  2.54938145E-02
  1.90373109E-01  8.52161486E-01  1.00000000E+00  1.00000000E+00  1.00000000E+00
  1.00000000E+00
P(S=P) Contraction coefficients            R   N=          41
  0.00000000E+00  0.00000000E+00  0.00000000E+00  0.00000000E+00  0.00000000E+00
  0.00000000E+00  3.83119186E-02  2.37403116E-01  8.17592398E-01  1.00000000E+00
  1.00000000E+00  1.00000000E+00  0.00000000E+00  0.00000000E+00  0.00000000E+00
  0.00000000E+00  0.00000000E+00  0.00000000E+00  0.00000000E+00  0.00000000E+00
  0.00000000E+00  0.00000000E+00  0.00000000E+00  0.00000000E+00  0.00000000E+00
  0.00000000E+00  0.00000000E+00  0.00000000E+00  0.00000000E+00  0.00000000E+00
  0.00000000E+00  0.00000000E+00  0.00000000E+00  0.00000000E+00  0.00000000E+00
  0.00000000E+00  0.00000000E+00  0.00000000E+00  0.00000000E+00  0.00000000E+00
  0.00000000E+00
Coordinates of each shell                  R   N=          78
  0.00000000E+00  0.00000000E+00  0.00000000E+00  0.00000000E+00  0.00000000E+00
  0.00000000E+00  0.00000000E+00  0.00000000E+00  0.00000000E+00  0.00000000E+00
  0.00000000E+00  0.00000000E+00  0.00000000E+00  0.00000000E+00  0.00000000E+00
  0.00000000E+00  0.00000000E+00  0.00000000E+00  1.11882559E+00  1.11882559E+00
  1.11882559E+00  1.11882559E+00  1.11882559E+00  1.11882559E+00  1.11882559E+00
  1.11882559E+00  1.11882559E+00  1.11882559E+00  1.11882559E+00  1.11882559E+00
  1.11882559E+00  1.11882559E+00  1.11882559E+00 -1.11882559E+00 -1.11882559E+00
  1.11882559E+00 -1.11882559E+00 -1.11882559E+00  1.11882559E+00 -1.11882559E+00
 -1.11882559E+00  1.11882559E+00 -1.11882559E+00 -1.11882559E+00  1.11882559E+00
 -1.11882559E+00 -1.11882559E+00  1.11882559E+00 -1.11882559E+00  1.11882559E+00
 -1.11882559E+00 -1.11882559E+00  1.11882559E+00 -1.11882559E+00 -1.11882559E+00
  1.11882559E+00 -1.11882559E+00 -1.11882559E+00  1.11882559E+00 -1.11882559E+00
 -1.11882559E+00  1.11882559E+00 -1.11882559E+00  1.11882559E+00 -1.11882559E+00
 -1.11882559E+00  1.11882559E+00 -1.11882559E+00 -1.11882559E+00  1.11882559E+00
 -1.11882559E+00 -1.11882559E+00  1.11882559E+00 -1.11882559E+00 -1.11882559E+00
  1.11882559E+00 -1.11882559E+00 -1.11882559E+00
Num ILSW                                   I              100
ILSW                                       I   N=         100
           0           0           0           0           2           0
           0           0           0           0        4336          -1
           5           0           0           0           2           0
           0           0           0           0           1           0
           1           0           0           0           0           0
           0           0      100000           0          -1           0
           0           0           0           0           0           0
           0           0           0           1           0           0
           0 -2000000000           1           0           0           0
           0           0           4          52           0           0
           0           0          55           0           0           0
           0           0           0           5           0           1
           0           0           0           0           0           0
           0           0           0           0           0           0
           0           0           0           0           0           0
           0           0           0           0           0           0
           0           0           0           0
Num RLSW                                   I               52
RLSW                                       R   N=          52
  1.00000000E+00  1.00000000E+00  1.00000000E+00  1.00000000E+00  5.40000000E-01
  0.00000000E+00  0.00000000E+00  1.00000000E+00  0.00000000E+00  0.00000000E+00
  0.00000000E+00  0.00000000E+00  1.00000000E+00  0.00000000E+00  0.00000000E+00
  0.00000000E+00  0.00000000E+00  1.00000000E+00  0.00000000E+00  0.00000000E+00
  0.00000000E+00  0.00000000E+00  1.00000000E+00  0.00000000E+00  0.00000000E+00
  0.00000000E+00  0.00000000E+00  1.00000000E+00  0.00000000E+00  0.00000000E+00
  0.00000000E+00  0.00000000E+00  1.00000000E+00  0.00000000E+00  0.00000000E+00
  0.00000000E+00  0.00000000E+00  0.00000000E+00  1.00000000E+00  1.00000000E+00
  0.00000000E+00  1.00000000E+00  0.00000000E+00  0.00000000E+00  0.00000000E+00
  0.00000000E+00  0.00000000E+00  0.00000000E+00  0.00000000E+00  0.00000000E+00
  0.00000000E+00  0.00000000E+00
MxBond                                     I                4
NBond                                      I   N=           5
           4           1           1           1           1
IBond                                      I   N=          20
           2           3           4           5           1           0
           0           0           1           0           0           0
           1           0           0           0           1           0
           0           0
RBond                                      R   N=          20
  1.00000000E+00  1.00000000E+00  1.00000000E+00  1.00000000E+00  1.00000000E+00
  0.00000000E+00  0.00000000E+00  0.00000000E+00  1.00000000E+00  0.00000000E+00
  0.00000000E+00  0.00000000E+00  1.00000000E+00  0.00000000E+00  0.00000000E+00
  0.00000000E+00  1.00000000E+00  0.00000000E+00  0.00000000E+00  0.00000000E+00
Virial Ratio                               R      2.003962198235000E+00
SCF Energy                                 R     -5.688160291255969E+01
Total Energy                               R     -5.688160291255969E+01
RMS Force                                  R      1.385323930400399E-04
NImag                                      I                0
Job Status                                 I                1
Nuclear derivative order                   I                2
External E-field                           R   N=          35
  0.00000000E+00  0.00000000E+00  0.00000000E+00  0.00000000E+00  0.00000000E+00
  0.00000000E+00  0.00000000E+00  0.00000000E+00  0.00000000E+00  0.00000000E+00
  0.00000000E+00  0.00000000E+00  0.00000000E+00  0.00000000E+00  0.00000000E+00
  0.00000000E+00  0.00000000E+00  0.00000000E+00  0.00000000E+00  0.00000000E+00
  0.00000000E+00  0.00000000E+00  0.00000000E+00  0.00000000E+00  0.00000000E+00
  0.00000000E+00  0.00000000E+00  0.00000000E+00  0.00000000E+00  0.00000000E+00
  0.00000000E+00  0.00000000E+00  0.00000000E+00  0.00000000E+00  0.00000000E+00
IOpCl                                      I                0
IROHF                                      I                0
Alpha Orbital Energies                     R   N=          50
 -1.51178128E+01 -1.35277685E+00 -8.95588434E-01 -8.95588434E-01 -8.95588434E-01
 -2.09850805E-01 -1.35705649E-01 -1.35705649E-01 -1.35705649E-01 -8.48603516E-02
 -8.48603516E-02 -8.48603516E-02 -3.30767353E-02  9.51929777E-03  9.51929777E-03
  9.51929777E-03  9.70547841E-02  2.44054566E-01  2.44054566E-01  2.44054566E-01
  5.02401362E-01  5.31967258E-01  5.31967258E-01  5.31967258E-01  7.57049874E-01
  7.57049874E-01  7.79061044E-01  1.23228715E+00  1.23228715E+00  1.23228715E+00
  1.50637097E+00  1.50637097E+00  1.50637097E+00  1.81648156E+00  1.81648156E+00
  1.81648156E+00  2.13722860E+00  2.27491803E+00  2.27491803E+00  2.27491803E+00
  2.38462619E+00  2.38462619E+00  2.72222977E+00  2.74593932E+00  2.74593932E+00
  2.74593932E+00  4.47071762E+00  4.47071762E+00  4.47071762E+00  3.53911856E+01
Alpha MO coefficients                      R   N=        2500
  5.58841168E-01  4.65746393E-01  0.00000000E+00  0.00000000E+00  0.00000000E+00
  1.00326380E-02  0.00000000E+00  0.00000000E+00  0.00000000E+00 -8.69337088E-05
  0.00000000E+00  0.00000000E+00  0.00000000E+00 -4.85683034E-03  0.00000000E+00
  0.00000000E+00  0.00000000E+00  4.73922193E-17  0.00000000E+00  0.00000000E+00
  2.76148004E-16  0.00000000E+00  2.41110057E-04 -1.90502961E-03  2.13076987E-03
  3.08599444E-05  5.94789437E-04  5.94789437E-04  5.94789437E-04  2.41110057E-04
 -1.90502961E-03  2.13076987E-03  3.08599444E-05 -5.94789437E-04 -5.94789437E-04
  5.94789437E-04  2.41110057E-04 -1.90502961E-03  2.13076987E-03  3.08599444E-05
 -5.94789437E-04  5.94789437E-04 -5.94789437E-04  2.41110057E-04 -1.90502961E-03
  2.13076987E-03  3.08599444E-05  5.94789437E-04 -5.94789437E-04 -5.94789437E-04
 -1.12770772E-01 -1.83665655E-01  0.00000000E+00  0.00000000E+00  0.00000000E+00
  5.04332555E-01  0.00000000E+00  0.00000000E+00  0.00000000E+00  3.30990155E-01
  0.00000000E+00  0.00000000E+00  0.00000000E+00  7.99950168E-02  0.00000000E+00
  0.00000000E+00  0.00000000E+00  1.40421738E-16  0.00000000E+00  0.00000000E+00
  1.67622721E-15  0.00000000E+00  7.86133299E-02  7.70728492E-02 -3.29607569E-02
 -1.70340721E-04 -1.16370443E-02 -1.16370443E-02 -1.16370443E-02  7.86133299E-02
  7.70728492E-02 -3.29607569E-02 -1.70340721E-04  1.16370443E-02  1.16370443E-02
 -1.16370443E-02  7.86133299E-02  7.70728492E-02 -3.29607569E-02 -1.70340721E-04
  1.16370443E-02 -1.16370443E-02  1.16370443E-02  7.86133299E-02  7.70728492E-02
 -3.29607569E-02 -1.70340721E-04 -1.16370443E-02  1.16370443E-02  1.16370443E-02
  0.00000000E+00  0.00000000E+00  0.00000000E+00  2.33432225E-01  0.00000000E+00
  0.00000000E+00  0.00000000E+00  3.55662980E-01  0.00000000E+00  0.00000000E+00
  0.00000000E+00  2.45938250E-01  0.00000000E+00  0.00000000E+00  0.00000000E+00
  1.60302168E-03  0.00000000E+00  0.00000000E+00  1.76796156E-02  0.00000000E+00
  0.00000000E+00  0.00000000E+00  1.01925224E-01  1.23108313E-01  9.52648782E-03
  1.04964900E-02 -1.24009832E-02  9.23838143E-04 -1.24009832E-02 -1.01925224E-01
 -1.23108313E-01 -9.52648782E-03 -1.04964900E-02 -1.24009832E-02  9.23838143E-04
  1.24009832E-02  1.01925224E-01  1.23108313E-01  9.52648782E-03  1.04964900E-02
  1.24009832E-02  9.23838143E-04  1.24009832E-02 -1.01925224E-01 -1.23108313E-01
 -9.52648782E-03 -1.04964900E-02  1.24009832E-02  9.23838143E-04 -1.24009832E-02
  0.00000000E+00  0.00000000E+00  2.33432225E-01  0.00000000E+00  0.00000000E+00
  0.00000000E+00  3.55662980E-01  0.00000000E+00  0.00000000E+00  0.00000000E+00
  2.45938250E-01  0.00000000E+00  0.00000000E+00  0.00000000E+00  1.60302168E-03
  0.00000000E+00  0.00000000E+00  0.00000000E+00  0.00000000E+00  1.76796156E-02
  0.00000000E+00  0.00000000E+00  1.01925224E-01  1.23108313E-01  9.52648782E-03
  1.04964900E-02  9.23838143E-04 -1.24009832E-02 -1.24009832E-02 -1.01925224E-01
 -1.23108313E-01 -9.52648782E-03 -1.04964900E-02  9.23838143E-04 -1.24009832E-02
  1.24009832E-02 -1.01925224E-01 -1.23108313E-01 -9.52648782E-03 -1.04964900E-02
  9.23838143E-04  1.24009832E-02 -1.24009832E-02  1.01925224E-01  1.23108313E-01
  9.52648782E-03  1.04964900E-02  9.23838143E-04  1.24009832E-02  1.24009832E-02
  0.00000000E+00  0.00000000E+00  0.00000000E+00  0.00000000E+00  2.33432225E-01
  0.00000000E+00  0.00000000E+00  0.00000000E+00  3.55662980E-01  0.00000000E+00
  0.00000000E+00  0.00000000E+00  2.45938250E-01  0.00000000E+00  0.00000000E+00
  0.00000000E+00  1.60302168E-03  0.00000000E+00  0.00000000E+00  0.00000000E+00
  0.00000000E+00  1.76796156E-02  1.01925224E-01  1.23108313E-01  9.52648782E-03
  1.04964900E-02 -1.24009832E-02 -1.24009832E-02  9.23838143E-04  1.01925224E-01
  1.23108313E-01  9.52648782E-03  1.04964900E-02  1.24009832E-02  1.24009832E-02
  9.23838143E-04 -1.01925224E-01 -1.23108313E-01 -9.52648782E-03 -1.04964900E-02
 -1.24009832E-02  1.24009832E-02  9.23838143E-04 -1.01925224E-01 -1.23108313E-01
 -9.52648782E-03 -1.04964900E-02  1.24009832E-02 -1.24009832E-02  9.23838143E-04
 -4.96965112E-02 -8.51122922E-02  0.00000000E+00  0.00000000E+00  0.00000000E+00
  2.69785678E-01  0.00000000E+00  0.00000000E+00  0.00000000E+00  7.16208930E-01
  0.00000000E+00  0.00000000E+00  0.00000000E+00  3.63694954E-01  0.00000000E+00
  0.00000000E+00  0.00000000E+00 -1.08614931E-15  0.00000000E+00  0.00000000E+00
  6.63844650E-16  0.00000000E+00 -2.20560111E-02 -8.60283326E-02 -2.12122531E-01
 -2.45075230E-01 -9.17886058E-03 -9.17886058E-03 -9.17886058E-03 -2.20560111E-02
 -8.60283326E-02 -2.12122531E-01 -2.45075230E-01  9.17886058E-03  9.17886058E-03
 -9.17886058E-03 -2.20560111E-02 -8.60283326E-02 -2.12122531E-01 -2.45075230E-01
  9.17886058E-03 -9.17886058E-03  9.17886058E-03 -2.20560111E-02 -8.60283326E-02
 -2.12122531E-01 -2.45075230E-01 -9.17886058E-03  9.17886058E-03  9.17886058E-03
  0.00000000E+00  0.00000000E+00 -1.15937277E-01  0.00000000E+00  0.00000000E+00
  0.00000000E+00 -1.82946174E-01  0.00000000E+00  0.00000000E+00  0.00000000E+00
 -3.39905307E-01  0.00000000E+00  0.00000000E+00  0.00000000E+00 -1.18434834E-01
  0.00000000E+00  0.00000000E+00  0.00000000E+00  0.00000000E+00  9.93051952E-03
  0.00000000E+00  0.00000000E+00  1.28926186E-02  7.35419659E-02  3.02900901E-01
  1.03666022E+00  5.23218061E-03  8.80008696E-03  8.80008696E-03 -1.28926186E-02
 -7.35419659E-02 -3.02900901E-01 -1.03666022E+00  5.23218061E-03  8.80008696E-03
 -8.80008696E-03 -1.28926186E-02 -7.35419659E-02 -3.02900901E-01 -1.03666022E+00
  5.23218061E-03 -8.80008696E-03  8.80008696E-03  1.28926186E-02  7.35419659E-02
  3.02900901E-01  1.03666022E+00  5.23218061E-03 -8.80008696E-03 -8.80008696E-03
  0.00000000E+00  0.00000000E+00  0.00000000E+00  0.00000000E+00 -1.15937277E-01
  0.00000000E+00  0.00000000E+00  0.00000000E+00 -1.82946174E-01  0.00000000E+00
  0.00000000E+00  0.00000000E+00 -3.39905307E-01  0.00000000E+00  0.00000000E+00
  0.00000000E+00 -1.18434834E-01  0.00000000E+00  0.00000000E+00  0.00000000E+00
  0.00000000E+00  9.93051952E-03  1.28926186E-02  7.35419659E-02  3.02900901E-01
  1.03666022E+00  8.80008696E-03  8.80008696E-03  5.23218061E-03  1.28926186E-02
  7.35419659E-02  3.02900901E-01  1.03666022E+00 -8.80008696E-03 -8.80008696E-03
  5.23218061E-03 -1.28926186E-02 -7.35419659E-02 -3.02900901E-01 -1.03666022E+00
  8.80008696E-03 -8.80008696E-03  5.23218061E-03 -1.28926186E-02 -7.35419659E-02
 -3.02900901E-01 -1.03666022E+00 -8.80008696E-03  8.80008696E-03  5.23218061E-03
  0.00000000E+00  0.00000000E+00  0.00000000E+00 -1.15937277E-01  0.00000000E+00
  0.00000000E+00  0.00000000E+00 -1.82946174E-01  0.00000000E+00  0.00000000E+00
  0.00000000E+00 -3.39905307E-01  0.00000000E+00  0.00000000E+00  0.00000000E+00
 -1.18434834E-01  0.00000000E+00  0.00000000E+00  9.93051952E-03  0.00000000E+00
  0.00000000E+00  0.00000000E+00  1.28926186E-02  7.35419659E-02  3.02900901E-01
  1.03666022E+00  8.80008696E-03  5.23218061E-03  8.80008696E-03 -1.28926186E-02
 -7.35419659E-02 -3.02900901E-01 -1.03666022E+00  8.80008696E-03  5.23218061E-03
 -8.80008696E-03  1.28926186E-02  7.35419659E-02  3.02900901E-01  1.03666022E+00
 -8.80008696E-03  5.23218061E-03 -8.80008696E-03 -1.28926186E-02 -7.35419659E-02
 -3.02900901E-01 -1.03666022E+00 -8.80008696E-03  5.23218061E-03  8.80008696E-03
  0.00000000E+00  0.00000000E+00  0.00000000E+00  5.49654732E-02  0.00000000E+00
  0.00000000E+00  0.00000000E+00  6.29855899E-02  0.00000000E+00  0.00000000E+00
  0.00000000E+00  4.64430152E-01  0.00000000E+00  0.00000000E+00  0.00000000E+00
  2.35080354E+00  0.00000000E+00  0.00000000E+00 -4.18377108E-02  0.00000000E+00
  0.00000000E+00  0.00000000E+00 -6.69127416E-02 -1.58386323E-01 -1.53232514E+00
 -5.40350377E-01 -9.55813172E-03  1.62414289E-02 -9.55813172E-03  6.69127416E-02
  1.58386323E-01  1.53232514E+00  5.40350377E-01 -9.55813172E-03  1.62414289E-02
  9.55813172E-03 -6.69127416E-02 -1.58386323E-01 -1.53232514E+00 -5.40350377E-01
  9.55813172E-03  1.62414289E-02  9.55813172E-03  6.69127416E-02  1.58386323E-01
  1.53232514E+00  5.40350377E-01  9.55813172E-03  1.62414289E-02 -9.55813172E-03
  0.00000000E+00  0.00000000E+00  5.49654732E-02  0.00000000E+00  0.00000000E+00
  0.00000000E+00  6.29855899E-02  0.00000000E+00  0.00000000E+00  0.00000000E+00
  4.64430152E-01  0.00000000E+00  0.00000000E+00  0.00000000E+00  2.35080354E+00
  0.00000000E+00  0.00000000E+00  0.00000000E+00  0.00000000E+00 -4.18377108E-02
  0.00000000E+00  0.00000000E+00 -6.69127416E-02 -1.58386323E-01 -1.53232514E+00
 -5.40350377E-01  1.62414289E-02 -9.55813172E-03 -9.55813172E-03  6.69127416E-02
  1.58386323E-01  1.53232514E+00  5.40350377E-01  1.62414289E-02 -9.55813172E-03
  9.55813172E-03  6.69127416E-02  1.58386323E-01  1.53232514E+00  5.40350377E-01
  1.62414289E-02  9.55813172E-03 -9.55813172E-03 -6.69127416E-02 -1.58386323E-01
 -1.53232514E+00 -5.40350377E-01  1.62414289E-02  9.55813172E-03  9.55813172E-03
  0.00000000E+00  0.00000000E+00  0.00000000E+00  0.00000000E+00  5.49654732E-02
  0.00000000E+00  0.00000000E+00  0.00000000E+00  6.29855899E-02  0.00000000E+00
  0.00000000E+00  0.00000000E+00  4.64430152E-01  0.00000000E+00  0.00000000E+00
  0.00000000E+00  2.35080354E+00  0.00000000E+00  0.00000000E+00  0.00000000E+00
  0.00000000E+00 -4.18377108E-02 -6.69127416E-02 -1.58386323E-01 -1.53232514E+00
 -5.40350377E-01 -9.55813172E-03 -9.55813172E-03  1.62414289E-02 -6.69127416E-02
 -1.58386323E-01 -1.53232514E+00 -5.40350377E-01  9.55813172E-03  9.55813172E-03
  1.62414289E-02  6.69127416E-02  1.58386323E-01  1.53232514E+00  5.40350377E-01
 -9.55813172E-03  9.55813172E-03  1.62414289E-02  6.69127416E-02  1.58386323E-01
  1.53232514E+00  5.40350377E-01  9.55813172E-03 -9.55813172E-03  1.62414289E-02
  4.64192926E-02  8.00301791E-02  0.00000000E+00  0.00000000E+00  0.00000000E+00
 -2.32476247E-01  0.00000000E+00  0.00000000E+00  0.00000000E+00 -1.14428611E+00
  0.00000000E+00  0.00000000E+00  0.00000000E+00  6.65109233E+00  0.00000000E+00
  0.00000000E+00  0.00000000E+00  5.66455271E-16  0.00000000E+00  0.00000000E+00
 -9.25168344E-16  0.00000000E+00  2.53732044E-02  2.09773809E-01 -8.10286418E-01
 -9.47404290E-01  1.61129717E-03  1.61129717E-03  1.61129717E-03  2.53732044E-02
  2.09773809E-01 -8.10286418E-01 -9.47404290E-01 -1.61129717E-03 -1.61129717E-03
  1.61129717E-03  2.53732044E-02  2.09773809E-01 -8.10286418E-01 -9.47404290E-01
 -1.61129717E-03  1.61129717E-03 -1.61129717E-03  2.53732044E-02  2.09773809E-01
 -8.10286418E-01 -9.47404290E-01  1.61129717E-03 -1.61129717E-03 -1.61129717E-03
  0.00000000E+00  0.00000000E+00  0.00000000E+00  1.45293181E-01  0.00000000E+00
  0.00000000E+00  0.00000000E+00  2.18791223E-01  0.00000000E+00  0.00000000E+00
  0.00000000E+00  7.21549813E-01  0.00000000E+00  0.00000000E+00  0.00000000E+00
 -2.05856406E+00  0.00000000E+00  0.00000000E+00 -5.92710755E-03  0.00000000E+00
  0.00000000E+00  0.00000000E+00 -2.66025679E-02 -2.03564958E-01 -1.94550004E-01
  2.41101348E+00 -2.18164594E-03 -6.14406383E-03 -2.18164594E-03  2.66025679E-02
  2.03564958E-01  1.94550004E-01 -2.41101348E+00 -2.18164594E-03 -6.14406383E-03
  2.18164594E-03 -2.66025679E-02 -2.03564958E-01 -1.94550004E-01  2.41101348E+00
  2.18164594E-03 -6.14406383E-03  2.18164594E-03  2.66025679E-02  2.03564958E-01
  1.94550004E-01 -2.41101348E+00  2.18164594E-03 -6.14406383E-03 -2.18164594E-03
  0.00000000E+00  0.00000000E+00  0.00000000E+00  0.00000000E+00  1.45293181E-01
  0.00000000E+00  0.00000000E+00  0.00000000E+00  2.18791223E-01  0.00000000E+00
  0.00000000E+00  0.00000000E+00  7.21549813E-01  0.00000000E+00  0.00000000E+00
  0.00000000E+00 -2.05856406E+00  0.00000000E+00  0.00000000E+00  0.00000000E+00
  0.00000000E+00 -5.92710755E-03 -2.66025679E-02 -2.03564958E-01 -1.94550004E-01
  2.41101348E+00 -2.18164594E-03 -2.18164594E-03 -6.14406383E-03 -2.66025679E-02
 -2.03564958E-01 -1.94550004E-01  2.41101348E+00  2.18164594E-03  2.18164594E-03
 -6.14406383E-03  2.66025679E-02  2.03564958E-01  1.94550004E-01 -2.41101348E+00
 -2.18164594E-03  2.18164594E-03 -6.14406383E-03  2.66025679E-02  2.03564958E-01
  1.94550004E-01 -2.41101348E+00  2.18164594E-03 -2.18164594E-03 -6.14406383E-03
  0.00000000E+00  0.00000000E+00  1.45293181E-01  0.00000000E+00  0.00000000E+00
  0.00000000E+00  2.18791223E-01  0.00000000E+00  0.00000000E+00  0.00000000E+00
  7.21549813E-01  0.00000000E+00  0.00000000E+00  0.00000000E+00 -2.05856406E+00
  0.00000000E+00  0.00000000E+00  0.00000000E+00  0.00000000E+00 -5.92710755E-03
  0.00000000E+00  0.00000000E+00 -2.66025679E-02 -2.03564958E-01 -1.94550004E-01
  2.41101348E+00 -6.14406383E-03 -2.18164594E-03 -2.18164594E-03  2.66025679E-02
  2.03564958E-01  1.94550004E-01 -2.41101348E+00 -6.14406383E-03 -2.18164594E-03
  2.18164594E-03  2.66025679E-02  2.03564958E-01  1.94550004E-01 -2.41101348E+00
 -6.14406383E-03  2.18164594E-03 -2.18164594E-03 -2.66025679E-02 -2.03564958E-01
 -1.94550004E-01  2.41101348E+00 -6.14406383E-03  2.18164594E-03  2.18164594E-03
 -3.23543493E-02 -5.35757774E-02  0.00000000E+00  0.00000000E+00  0.00000000E+00