 Entering Gaussian System, Link 0=/apps/cent7/gaussian/g16-A.03/g16-haswell/g16/g16
 Initial command:
 /apps/cent7/gaussian/g16-A.03/g16-haswell/g16/l1.exe "/scratch/brown/finej/gaussian/Gau-398359.inp" -scrdir="/scratch/brown/finej/gaussian/"
 Entering Link 1 = /apps/cent7/gaussian/g16-A.03/g16-haswell/g16/l1.exe PID=    398361.
  
 Copyright (c) 1988,1990,1992,1993,1995,1998,2003,2009,2016,
            Gaussian, Inc.  All Rights Reserved.
  
 This is part of the Gaussian(R) 16 program.  It is based on
 the Gaussian(R) 09 system (copyright 2009, Gaussian, Inc.),
 the Gaussian(R) 03 system (copyright 2003, Gaussian, Inc.),
 the Gaussian(R) 98 system (copyright 1998, Gaussian, Inc.),
 the Gaussian(R) 94 system (copyright 1995, Gaussian, Inc.),
 the Gaussian 92(TM) system (copyright 1992, Gaussian, Inc.),
 the Gaussian 90(TM) system (copyright 1990, Gaussian, Inc.),
 the Gaussian 88(TM) system (copyright 1988, Gaussian, Inc.),
 the Gaussian 86(TM) system (copyright 1986, Carnegie Mellon
 University), and the Gaussian 82(TM) system (copyright 1983,
 Carnegie Mellon University). Gaussian is a federally registered
 trademark of Gaussian, Inc.
  
 This software contains proprietary and confidential information,
 including trade secrets, belonging to Gaussian, Inc.
  
 This software is provided under written license and may be
 used, copied, transmitted, or stored only in accord with that
 written license.
  
 The following legend is applicable only to US Government
 contracts under FAR:
  
                    RESTRICTED RIGHTS LEGEND
  
 Use, reproduction and disclosure by the US Government is
 subject to restrictions as set forth in subparagraphs (a)
 and (c) of the Commercial Computer Software - Restricted
 Rights clause in FAR 52.227-19.
  
 Gaussian, Inc.
 340 Quinnipiac St., Bldg. 40, Wallingford CT 06492
  
  
 ---------------------------------------------------------------
 Warning -- This program may not be used in any manner that
 competes with the business of Gaussian, Inc. or will provide
 assistance to any competitor of Gaussian, Inc.  The licensee
 of this program is prohibited from giving any competitor of
 Gaussian, Inc. access to this program.  By using this program,
 the user acknowledges that Gaussian, Inc. is engaged in the
 business of creating and licensing software in the field of
 computational chemistry and represents and warrants to the
 licensee that it is not a competitor of Gaussian, Inc. and that
 it will not use this program in any manner prohibited above.
 ---------------------------------------------------------------
  

 Cite this work as:
 Gaussian 16, Revision A.03,
 M. J. Frisch, G. W. Trucks, H. B. Schlegel, G. E. Scuseria, 
 M. A. Robb, J. R. Cheeseman, G. Scalmani, V. Barone, 
 G. A. Petersson, H. Nakatsuji, X. Li, M. Caricato, A. V. Marenich, 
 J. Bloino, B. G. Janesko, R. Gomperts, B. Mennucci, H. P. Hratchian, 
 J. V. Ortiz, A. F. Izmaylov, J. L. Sonnenberg, D. Williams-Young, 
 F. Ding, F. Lipparini, F. Egidi, J. Goings, B. Peng, A. Petrone, 
 T. Henderson, D. Ranasinghe, V. G. Zakrzewski, J. Gao, N. Rega, 
 G. Zheng, W. Liang, M. Hada, M. Ehara, K. Toyota, R. Fukuda, 
 J. Hasegawa, M. Ishida, T. Nakajima, Y. Honda, O. Kitao, H. Nakai, 
 T. Vreven, K. Throssell, J. A. Montgomery, Jr., J. E. Peralta, 
 F. Ogliaro, M. J. Bearpark, J. J. Heyd, E. N. Brothers, K. N. Kudin, 
 V. N. Staroverov, T. A. Keith, R. Kobayashi, J. Normand, 
 K. Raghavachari, A. P. Rendell, J. C. Burant, S. S. Iyengar, 
 J. Tomasi, M. Cossi, J. M. Millam, M. Klene, C. Adamo, R. Cammi, 
 J. W. Ochterski, R. L. Martin, K. Morokuma, O. Farkas, 
 J. B. Foresman, and D. J. Fox, Gaussian, Inc., Wallingford CT, 2016.
 
 ******************************************
 Gaussian 16:  ES64L-G16RevA.03 25-Dec-2016
                26-Dec-2019 
 ******************************************
 %chk=benzene.chk
 %nprocshared=24
 Will use up to   24 processors via shared memory.
 %mem=10GB
 -------------------------------------------------------------------
 #p opt freq m062x/6-311++g(d,p) geom=connectivity temperature=0.001
 -------------------------------------------------------------------
 1/18=20,19=15,26=3,38=1,57=2,112=-1000/1,3;
 2/9=110,12=2,17=6,18=5,40=1/2;
 3/5=4,6=6,7=1111,11=2,25=1,30=1,71=1,74=-55/1,2,3;
 4//1;
 5/5=2,38=5/2;
 6/7=2,8=2,9=2,10=2,28=1/1;
 7//1,2,3,16;
 1/18=20,19=15,26=3/3(2);
 2/9=110/2;
 99//99;
 2/9=110/2;
 3/5=4,6=6,7=1111,11=2,25=1,30=1,71=1,74=-55/1,2,3;
 4/5=5,16=3,69=1/1;
 5/5=2,38=5/2;
 7//1,2,3,16;
 1/18=20,19=15,26=3/3(-5);
 2/9=110/2;
 6/7=2,8=2,9=2,10=2,19=2,28=1/1;
 99/9=1/99;
 Leave Link    1 at Thu Dec 26 15:49:33 2019, MaxMem=  1342177280 cpu:               0.9 elap:               0.0
 (Enter /apps/cent7/gaussian/g16-A.03/g16-haswell/g16/l101.exe)
 -------------------
 Title Card Required
 -------------------
 Symbolic Z-matrix:
 Charge =  0 Multiplicity = 1
 C                     0.38351   0.798    -0.48461 
 C                     0.58593   0.08552  -1.66724 
 C                     0.6456    2.16731  -0.44194 
 C                     1.05096   0.74261  -2.80619 
 H                     0.37906  -0.994    -1.70094 
 C                     1.10983   2.82464  -1.5816 
 H                     0.48617   2.72911   0.48997 
 C                     1.31264   2.11235  -2.76357 
 H                     1.21023   0.18148  -3.7384 
 H                     1.31619   3.90418  -1.54778 
 H                     1.67885   2.6303   -3.66177 
 H                     0.0268    0.29367   0.38907 
 
 ITRead=  0  0  0  0  0  0  0  0  0  0  0  0
 MicOpt= -1 -1 -1 -1 -1 -1 -1 -1 -1 -1 -1 -1
 NAtoms=     12 NQM=       12 NQMF=       0 NMMI=      0 NMMIF=      0
                NMic=       0 NMicF=      0.
                    Isotopes and Nuclear Properties:
 (Nuclear quadrupole moments (NQMom) in fm**2, nuclear magnetic moments (NMagM)
  in nuclear magnetons)

  Atom         1           2           3           4           5           6           7           8           9          10
 IAtWgt=          12          12          12          12           1          12           1          12           1           1
 AtmWgt=  12.0000000  12.0000000  12.0000000  12.0000000   1.0078250  12.0000000   1.0078250  12.0000000   1.0078250   1.0078250
 NucSpn=           0           0           0           0           1           0           1           0           1           1
 AtZEff=  -0.0000000  -0.0000000  -0.0000000  -0.0000000  -0.0000000  -0.0000000  -0.0000000  -0.0000000  -0.0000000  -0.0000000
 NQMom=    0.0000000   0.0000000   0.0000000   0.0000000   0.0000000   0.0000000   0.0000000   0.0000000   0.0000000   0.0000000
 NMagM=    0.0000000   0.0000000   0.0000000   0.0000000   2.7928460   0.0000000   2.7928460   0.0000000   2.7928460   2.7928460
 AtZNuc=   6.0000000   6.0000000   6.0000000   6.0000000   1.0000000   6.0000000   1.0000000   6.0000000   1.0000000   1.0000000

  Atom        11          12
 IAtWgt=           1           1
 AtmWgt=   1.0078250   1.0078250
 NucSpn=           1           1
 AtZEff=  -0.0000000  -0.0000000
 NQMom=    0.0000000   0.0000000
 NMagM=    2.7928460   2.7928460
 AtZNuc=   1.0000000   1.0000000
 Leave Link  101 at Thu Dec 26 15:49:33 2019, MaxMem=  1342177280 cpu:               5.5 elap:               0.3
 (Enter /apps/cent7/gaussian/g16-A.03/g16-haswell/g16/l103.exe)

 GradGradGradGradGradGradGradGradGradGradGradGradGradGradGradGradGradGrad
 Berny optimization.
 Initialization pass.
                           ----------------------------
                           !    Initial Parameters    !
                           ! (Angstroms and Degrees)  !
 --------------------------                            --------------------------
 ! Name  Definition              Value          Derivative Info.                !
 --------------------------------------------------------------------------------
 ! R1    R(1,2)                  1.3954         estimate D2E/DX2                !
 ! R2    R(1,3)                  1.3948         estimate D2E/DX2                !
 ! R3    R(1,12)                 1.07           estimate D2E/DX2                !
 ! R4    R(2,4)                  1.3947         estimate D2E/DX2                !
 ! R5    R(2,5)                  1.0997         estimate D2E/DX2                !
 ! R6    R(3,6)                  1.3951         estimate D2E/DX2                !
 ! R7    R(3,7)                  1.0998         estimate D2E/DX2                !
 ! R8    R(4,8)                  1.3952         estimate D2E/DX2                !
 ! R9    R(4,9)                  1.0997         estimate D2E/DX2                !
 ! R10   R(6,8)                  1.3948         estimate D2E/DX2                !
 ! R11   R(6,10)                 1.0996         estimate D2E/DX2                !
 ! R12   R(8,11)                 1.0996         estimate D2E/DX2                !
 ! A1    A(2,1,3)              119.994          estimate D2E/DX2                !
 ! A2    A(2,1,12)             119.9811         estimate D2E/DX2                !
 ! A3    A(3,1,12)             120.0249         estimate D2E/DX2                !
 ! A4    A(1,2,4)              119.9942         estimate D2E/DX2                !
 ! A5    A(1,2,5)              119.993          estimate D2E/DX2                !
 ! A6    A(4,2,5)              120.0128         estimate D2E/DX2                !
 ! A7    A(1,3,6)              120.0047         estimate D2E/DX2                !
 ! A8    A(1,3,7)              120.0113         estimate D2E/DX2                !
 ! A9    A(6,3,7)              119.984          estimate D2E/DX2                !
 ! A10   A(2,4,8)              120.0086         estimate D2E/DX2                !
 ! A11   A(2,4,9)              120.0106         estimate D2E/DX2                !
 ! A12   A(8,4,9)              119.9808         estimate D2E/DX2                !
 ! A13   A(3,6,8)              120.0            estimate D2E/DX2                !
 ! A14   A(3,6,10)             119.992          estimate D2E/DX2                !
 ! A15   A(8,6,10)             120.008          estimate D2E/DX2                !
 ! A16   A(4,8,6)              119.9985         estimate D2E/DX2                !
 ! A17   A(4,8,11)             119.9972         estimate D2E/DX2                !
 ! A18   A(6,8,11)             120.0043         estimate D2E/DX2                !
 ! D1    D(3,1,2,4)              0.0341         estimate D2E/DX2                !
 ! D2    D(3,1,2,5)           -179.9846         estimate D2E/DX2                !
 ! D3    D(12,1,2,4)          -179.9964         estimate D2E/DX2                !
 ! D4    D(12,1,2,5)            -0.0151         estimate D2E/DX2                !
 ! D5    D(2,1,3,6)              0.0131         estimate D2E/DX2                !
 ! D6    D(2,1,3,7)           -179.9995         estimate D2E/DX2                !
 ! D7    D(12,1,3,6)          -179.9563         estimate D2E/DX2                !
 ! D8    D(12,1,3,7)             0.031          estimate D2E/DX2                !
 ! D9    D(1,2,4,8)             -0.0568         estimate D2E/DX2                !
 ! D10   D(1,2,4,9)           -179.9777         estimate D2E/DX2                !
 ! D11   D(5,2,4,8)            179.9619         estimate D2E/DX2                !
 ! D12   D(5,2,4,9)              0.041          estimate D2E/DX2                !
 ! D13   D(1,3,6,8)             -0.0376         estimate D2E/DX2                !
 ! D14   D(1,3,6,10)           179.9881         estimate D2E/DX2                !
 ! D15   D(7,3,6,8)            179.975          estimate D2E/DX2                !
 ! D16   D(7,3,6,10)             0.0007         estimate D2E/DX2                !
 ! D17   D(2,4,8,6)              0.0323         estimate D2E/DX2                !
 ! D18   D(2,4,8,11)          -179.9729         estimate D2E/DX2                !
 ! D19   D(9,4,8,6)            179.9532         estimate D2E/DX2                !
 ! D20   D(9,4,8,11)            -0.052          estimate D2E/DX2                !
 ! D21   D(3,6,8,4)              0.0149         estimate D2E/DX2                !
 ! D22   D(3,6,8,11)          -179.9798         estimate D2E/DX2                !
 ! D23   D(10,6,8,4)           179.9892         estimate D2E/DX2                !
 ! D24   D(10,6,8,11)           -0.0056         estimate D2E/DX2                !
 --------------------------------------------------------------------------------
 Trust Radius=3.00D-01 FncErr=1.00D-07 GrdErr=1.00D-06 EigMax=2.50D+02 EigMin=1.00D-04
 Number of steps in this run=     64 maximum allowed number of steps=    100.
 GradGradGradGradGradGradGradGradGradGradGradGradGradGradGradGradGradGrad

 Leave Link  103 at Thu Dec 26 15:49:33 2019, MaxMem=  1342177280 cpu:               0.3 elap:               0.0
 (Enter /apps/cent7/gaussian/g16-A.03/g16-haswell/g16/l202.exe)
                          Input orientation:                          
 ---------------------------------------------------------------------
 Center     Atomic      Atomic             Coordinates (Angstroms)
 Number     Number       Type             X           Y           Z
 ---------------------------------------------------------------------
      1          6           0        0.383510    0.797998   -0.484608
      2          6           0        0.585935    0.085524   -1.667242
      3          6           0        0.645599    2.167314   -0.441939
      4          6           0        1.050964    0.742609   -2.806192
      5          1           0        0.379058   -0.993996   -1.700935
      6          6           0        1.109826    2.824639   -1.581599
      7          1           0        0.486172    2.729105    0.489967
      8          6           0        1.312642    2.112346   -2.763570
      9          1           0        1.210228    0.181484   -3.738402
     10          1           0        1.316189    3.904176   -1.547781
     11          1           0        1.678847    2.630298   -3.661769
     12          1           0        0.026796    0.293672    0.389068
 ---------------------------------------------------------------------
                    Distance matrix (angstroms):
                    1          2          3          4          5
     1  C    0.000000
     2  C    1.395427   0.000000
     3  C    1.394825   2.416356   0.000000
     4  C    2.416260   1.394712   2.789946   0.000000
     5  H    2.165806   1.099680   3.413209   2.165375   0.000000
     6  C    2.416236   2.790080   1.395138   2.416183   3.889760
     7  H    2.165528   3.413506   1.099761   3.889707   4.321228
     8  C    2.790065   2.416205   2.416183   1.395160   3.413229
     9  H    3.413316   2.165330   3.889601   1.099655   2.494768
    10  H    3.412999   3.889684   2.165471   3.413128   4.989364
    11  H    3.889675   3.412986   3.413102   2.165553   4.320860
    12  H    1.070000   2.141115   2.141033   3.385285   2.479978
                    6          7          8          9         10
     6  C    0.000000
     7  H    2.165516   0.000000
     8  C    1.394829   3.413055   0.000000
     9  H    3.412938   4.989362   2.165414   0.000000
    10  H    1.099604   2.494420   2.165365   4.320704   0.000000
    11  H    2.165331   4.320781   1.099610   2.494427   2.494641
    12  H    3.385598   2.480431   3.860065   4.295242   4.295306
                   11         12
    11  H    0.000000
    12  H    4.959675   0.000000
 Stoichiometry    C6H6
 Framework group  C1[X(C6H6)]
 Deg. of freedom    30
 Full point group                 C1      NOp   1
 Largest Abelian subgroup         C1      NOp   1
 Largest concise Abelian subgroup C1      NOp   1
                         Standard orientation:                         
 ---------------------------------------------------------------------
 Center     Atomic      Atomic             Coordinates (Angstroms)
 Number     Number       Type             X           Y           Z
 ---------------------------------------------------------------------
      1          6           0       -0.002887   -1.395778   -0.000074
      2          6           0       -1.209816   -0.695393    0.000195
      3          6           0        1.206533   -0.700912   -0.000184
      4          6           0       -1.206590    0.699315   -0.000365
      5          1           0       -2.163315   -1.243241    0.000538
      6          6           0        1.209587    0.694223    0.000252
      7          1           0        2.157903   -1.252610   -0.000404
      8          6           0        0.003160    1.394280    0.000005
      9          1           0       -2.157543    1.251520    0.000218
     10          1           0        2.163151    1.241805    0.000363
     11          1           0        0.005485    2.493888    0.000013
     12          1           0       -0.005606   -2.465774    0.000298
 ---------------------------------------------------------------------
 Rotational constants (GHZ):           5.6960729           5.6862656           2.8455826
 Leave Link  202 at Thu Dec 26 15:49:33 2019, MaxMem=  1342177280 cpu:               0.4 elap:               0.0
 (Enter /apps/cent7/gaussian/g16-A.03/g16-haswell/g16/l301.exe)
 Standard basis: 6-311++G(d,p) (5D, 7F)
 Ernie: Thresh=  0.10000D-02 Tol=  0.10000D-05 Strict=F.
 There are   180 symmetry adapted cartesian basis functions of A   symmetry.
 There are   174 symmetry adapted basis functions of A   symmetry.
   174 basis functions,   270 primitive gaussians,   180 cartesian basis functions
    21 alpha electrons       21 beta electrons
       nuclear repulsion energy       203.1706198426 Hartrees.
 IExCor= 4336 DFT=T Ex+Corr=M062X ExCW=0 ScaHFX=  0.540000
 ScaDFX=  1.000000  1.000000  1.000000  1.000000 ScalE2=  1.000000  1.000000
 IRadAn=      5 IRanWt=     -1 IRanGd=            0 ICorTp=0 IEmpDi=  4
 NAtoms=   12 NActive=   12 NUniq=   12 SFac= 1.00D+00 NAtFMM=   60 NAOKFM=F Big=F
 Integral buffers will be    131072 words long.
 Raffenetti 2 integral format.
 Two-electron integral symmetry is turned on.
 Leave Link  301 at Thu Dec 26 15:49:33 2019, MaxMem=  1342177280 cpu:               1.8 elap:               0.1
 (Enter /apps/cent7/gaussian/g16-A.03/g16-haswell/g16/l302.exe)
 NPDir=0 NMtPBC=     1 NCelOv=     1 NCel=       1 NClECP=     1 NCelD=      1
         NCelK=      1 NCelE2=     1 NClLst=     1 CellRange=     0.0.
 One-electron integrals computed using PRISM.
 One-electron integral symmetry used in STVInt
 NBasis=   174 RedAO= T EigKep=  1.07D-06  NBF=   174
 NBsUse=   174 1.00D-06 EigRej= -1.00D+00 NBFU=   174
 Precomputing XC quadrature grid using
 IXCGrd= 4 IRadAn=           5 IRanWt=          -1 IRanGd=           0 AccXCQ= 0.00D+00.
 Generated NRdTot=       0 NPtTot=           0 NUsed=           0 NTot=          32
 NSgBfM=   180   180   180   180   180 MxSgAt=    12 MxSgA2=    12.
 Leave Link  302 at Thu Dec 26 15:49:34 2019, MaxMem=  1342177280 cpu:               3.5 elap:               0.2
 (Enter /apps/cent7/gaussian/g16-A.03/g16-haswell/g16/l303.exe)
 DipDrv:  MaxL=1.
 Leave Link  303 at Thu Dec 26 15:49:34 2019, MaxMem=  1342177280 cpu:               1.3 elap:               0.1
 (Enter /apps/cent7/gaussian/g16-A.03/g16-haswell/g16/l401.exe)
 ExpMin= 3.60D-02 ExpMax= 4.56D+03 ExpMxC= 6.82D+02 IAcc=3 IRadAn=         5 AccDes= 0.00D+00
 Harris functional with IExCor= 1009 and IRadAn=       5 diagonalized for initial guess.
 HarFok:  IExCor= 1009 AccDes= 0.00D+00 IRadAn=         5 IDoV= 1 UseB2=F ITyADJ=14
 ICtDFT=  3500011 ScaDFX=  1.000000  1.000000  1.000000  1.000000
 FoFCou: FMM=F IPFlag=           0 FMFlag=      100000 FMFlg1=           0
         NFxFlg=           0 DoJE=T BraDBF=F KetDBF=T FulRan=T
         wScrn=  0.000000 ICntrl=       500 IOpCl=  0 I1Cent=   200000004 NGrid=           0
         NMat0=    1 NMatS0=      1 NMatT0=    0 NMatD0=    1 NMtDS0=    0 NMtDT0=    0
 Petite list used in FoFCou.
 Harris En= -232.118032648210    
 JPrj=0 DoOrth=F DoCkMO=F.
 Leave Link  401 at Thu Dec 26 15:49:34 2019, MaxMem=  1342177280 cpu:               6.3 elap:               0.3
 (Enter /apps/cent7/gaussian/g16-A.03/g16-haswell/g16/l502.exe)
 Keep R1 ints in memory in canonical form, NReq=140125465.
 FoFCou: FMM=F IPFlag=           0 FMFlag=           0 FMFlg1=           0
         NFxFlg=           0 DoJE=F BraDBF=F KetDBF=F FulRan=T
         wScrn=  0.000000 ICntrl=       600 IOpCl=  0 I1Cent=           0 NGrid=           0
         NMat0=    1 NMatS0=  15225 NMatT0=    0 NMatD0=    1 NMtDS0=    0 NMtDT0=    0
 Symmetry not used in FoFCou.
 Two-electron integral symmetry not used.
 Closed shell SCF:
 Using DIIS extrapolation, IDIIS=  1040.
 NGot=  1342177280 LenX=  1226198395 LenY=  1226165554
 Requested convergence on RMS density matrix=1.00D-08 within 128 cycles.
 Requested convergence on MAX density matrix=1.00D-06.
 Requested convergence on             energy=1.00D-06.
 No special actions if energy rises.

 Cycle   1  Pass 1  IDiag  1:
 E= -232.030549729910    
 DIIS: error= 4.99D-02 at cycle   1 NSaved=   1.
 NSaved= 1 IEnMin= 1 EnMin= -232.030549729910     IErMin= 1 ErrMin= 4.99D-02
 ErrMax= 4.99D-02  0.00D+00 EMaxC= 1.00D-01 BMatC= 1.82D-01 BMatP= 1.82D-01
 IDIUse=3 WtCom= 5.01D-01 WtEn= 4.99D-01
 Coeff-Com:  0.100D+01
 Coeff-En:   0.100D+01
 Coeff:      0.100D+01
 Gap=     0.336 Goal=   None    Shift=    0.000
 GapD=    0.336 DampG=1.000 DampE=0.500 DampFc=0.5000 IDamp=-1.
 Damping current iteration by 5.00D-01
 RMSDP=1.88D-02 MaxDP=5.29D-01              OVMax= 1.53D-01

 Cycle   2  Pass 1  IDiag  1:
 E= -232.115880573416     Delta-E=       -0.085330843506 Rises=F Damp=T
 DIIS: error= 9.58D-03 at cycle   2 NSaved=   2.
 NSaved= 2 IEnMin= 2 EnMin= -232.115880573416     IErMin= 2 ErrMin= 9.58D-03
 ErrMax= 9.58D-03  0.00D+00 EMaxC= 1.00D-01 BMatC= 1.31D-02 BMatP= 1.82D-01
 IDIUse=3 WtCom= 9.04D-01 WtEn= 9.58D-02
 Coeff-Com: -0.154D+00 0.115D+01
 Coeff-En:   0.000D+00 0.100D+01
 Coeff:     -0.139D+00 0.114D+01
 Gap=     0.316 Goal=   None    Shift=    0.000
 RMSDP=1.15D-02 MaxDP=3.28D-01 DE=-8.53D-02 OVMax= 7.60D-02

 Cycle   3  Pass 1  IDiag  1:
 E= -232.195666395742     Delta-E=       -0.079785822326 Rises=F Damp=F
 DIIS: error= 5.07D-03 at cycle   3 NSaved=   3.
 NSaved= 3 IEnMin= 3 EnMin= -232.195666395742     IErMin= 3 ErrMin= 5.07D-03
 ErrMax= 5.07D-03  0.00D+00 EMaxC= 1.00D-01 BMatC= 1.88D-03 BMatP= 1.31D-02
 IDIUse=3 WtCom= 9.49D-01 WtEn= 5.07D-02
 Coeff-Com: -0.962D-01 0.311D+00 0.786D+00
 Coeff-En:   0.000D+00 0.000D+00 0.100D+01
 Coeff:     -0.914D-01 0.295D+00 0.796D+00
 Gap=     0.309 Goal=   None    Shift=    0.000
 RMSDP=6.01D-04 MaxDP=1.47D-02 DE=-7.98D-02 OVMax= 9.36D-03

 Cycle   4  Pass 1  IDiag  1:
 E= -232.197389928169     Delta-E=       -0.001723532427 Rises=F Damp=F
 DIIS: error= 5.16D-04 at cycle   4 NSaved=   4.
 NSaved= 4 IEnMin= 4 EnMin= -232.197389928169     IErMin= 4 ErrMin= 5.16D-04
 ErrMax= 5.16D-04  0.00D+00 EMaxC= 1.00D-01 BMatC= 2.33D-05 BMatP= 1.88D-03
 IDIUse=3 WtCom= 9.95D-01 WtEn= 5.16D-03
 Coeff-Com: -0.148D-01 0.307D-01 0.147D+00 0.837D+00
 Coeff-En:   0.000D+00 0.000D+00 0.000D+00 0.100D+01
 Coeff:     -0.147D-01 0.306D-01 0.146D+00 0.838D+00
 Gap=     0.309 Goal=   None    Shift=    0.000
 RMSDP=1.58D-04 MaxDP=4.99D-03 DE=-1.72D-03 OVMax= 8.73D-04

 Cycle   5  Pass 1  IDiag  1:
 E= -232.197410472100     Delta-E=       -0.000020543931 Rises=F Damp=F
 DIIS: error= 1.07D-04 at cycle   5 NSaved=   5.
 NSaved= 5 IEnMin= 5 EnMin= -232.197410472100     IErMin= 5 ErrMin= 1.07D-04
 ErrMax= 1.07D-04  0.00D+00 EMaxC= 1.00D-01 BMatC= 5.64D-07 BMatP= 2.33D-05
 IDIUse=3 WtCom= 9.99D-01 WtEn= 1.07D-03
 Coeff-Com: -0.111D-02 0.153D-02 0.104D-01 0.122D+00 0.868D+00
 Coeff-En:   0.000D+00 0.000D+00 0.000D+00 0.000D+00 0.100D+01
 Coeff:     -0.111D-02 0.153D-02 0.104D-01 0.121D+00 0.868D+00
 Gap=     0.309 Goal=   None    Shift=    0.000
 RMSDP=3.34D-05 MaxDP=1.06D-03 DE=-2.05D-05 OVMax= 5.51D-04

 Cycle   6  Pass 1  IDiag  1:
 E= -232.197410625915     Delta-E=       -0.000000153815 Rises=F Damp=F
 DIIS: error= 1.15D-04 at cycle   6 NSaved=   6.
 NSaved= 6 IEnMin= 6 EnMin= -232.197410625915     IErMin= 5 ErrMin= 1.07D-04
 ErrMax= 1.15D-04  0.00D+00 EMaxC= 1.00D-01 BMatC= 4.79D-07 BMatP= 5.64D-07
 IDIUse=3 WtCom= 9.99D-01 WtEn= 1.07D-03
 Coeff-Com:  0.156D-02-0.372D-02-0.163D-01-0.512D-01 0.520D+00 0.550D+00
 Coeff-En:   0.000D+00 0.000D+00 0.000D+00 0.000D+00 0.431D+00 0.569D+00
 Coeff:      0.156D-02-0.372D-02-0.163D-01-0.511D-01 0.520D+00 0.550D+00
 Gap=     0.309 Goal=   None    Shift=    0.000
 RMSDP=1.26D-05 MaxDP=3.68D-04 DE=-1.54D-07 OVMax= 2.98D-04

 Cycle   7  Pass 1  IDiag  1:
 E= -232.197411159060     Delta-E=       -0.000000533145 Rises=F Damp=F
 DIIS: error= 6.74D-06 at cycle   7 NSaved=   7.
 NSaved= 7 IEnMin= 7 EnMin= -232.197411159060     IErMin= 7 ErrMin= 6.74D-06
 ErrMax= 6.74D-06  0.00D+00 EMaxC= 1.00D-01 BMatC= 1.38D-09 BMatP= 4.79D-07
 IDIUse=1 WtCom= 1.00D+00 WtEn= 0.00D+00
 Coeff-Com:  0.415D-04-0.116D-03-0.724D-03-0.384D-02-0.115D-01 0.295D-01
 Coeff-Com:  0.987D+00
 Coeff:      0.415D-04-0.116D-03-0.724D-03-0.384D-02-0.115D-01 0.295D-01
 Coeff:      0.987D+00
 Gap=     0.309 Goal=   None    Shift=    0.000
 RMSDP=3.69D-06 MaxDP=1.14D-04 DE=-5.33D-07 OVMax= 2.79D-05

 Cycle   8  Pass 1  IDiag  1:
 E= -232.197411160520     Delta-E=       -0.000000001459 Rises=F Damp=F
 DIIS: error= 2.51D-06 at cycle   8 NSaved=   8.
 NSaved= 8 IEnMin= 8 EnMin= -232.197411160520     IErMin= 8 ErrMin= 2.51D-06
 ErrMax= 2.51D-06  0.00D+00 EMaxC= 1.00D-01 BMatC= 4.93D-10 BMatP= 1.38D-09
 IDIUse=1 WtCom= 1.00D+00 WtEn= 0.00D+00
 Coeff-Com: -0.211D-04 0.402D-04 0.634D-04-0.649D-03-0.199D-01 0.339D-04
 Coeff-Com:  0.501D+00 0.519D+00
 Coeff:     -0.211D-04 0.402D-04 0.634D-04-0.649D-03-0.199D-01 0.339D-04
 Coeff:      0.501D+00 0.519D+00
 Gap=     0.309 Goal=   None    Shift=    0.000
 RMSDP=3.96D-07 MaxDP=1.22D-05 DE=-1.46D-09 OVMax= 6.40D-06

 Cycle   9  Pass 1  IDiag  1:
 E= -232.197411160952     Delta-E=       -0.000000000433 Rises=F Damp=F
 DIIS: error= 1.81D-07 at cycle   9 NSaved=   9.
 NSaved= 9 IEnMin= 9 EnMin= -232.197411160952     IErMin= 9 ErrMin= 1.81D-07
 ErrMax= 1.81D-07  0.00D+00 EMaxC= 1.00D-01 BMatC= 1.31D-12 BMatP= 4.93D-10
 IDIUse=1 WtCom= 1.00D+00 WtEn= 0.00D+00
 Coeff-Com:  0.317D-06 0.120D-05 0.168D-04 0.443D-04 0.125D-02-0.134D-02
 Coeff-Com: -0.617D-01-0.545D-01 0.112D+01
 Coeff:      0.317D-06 0.120D-05 0.168D-04 0.443D-04 0.125D-02-0.134D-02
 Coeff:     -0.617D-01-0.545D-01 0.112D+01
 Gap=     0.309 Goal=   None    Shift=    0.000
 RMSDP=2.61D-07 MaxDP=8.29D-06 DE=-4.33D-10 OVMax= 1.21D-06

 Cycle  10  Pass 1  IDiag  1:
 E= -232.197411160955     Delta-E=       -0.000000000002 Rises=F Damp=F
 DIIS: error= 4.32D-08 at cycle  10 NSaved=  10.
 NSaved=10 IEnMin=10 EnMin= -232.197411160955     IErMin=10 ErrMin= 4.32D-08
 ErrMax= 4.32D-08  0.00D+00 EMaxC= 1.00D-01 BMatC= 2.46D-13 BMatP= 1.31D-12
 IDIUse=1 WtCom= 1.00D+00 WtEn= 0.00D+00
 Coeff-Com:  0.609D-06-0.882D-06 0.526D-06 0.124D-04 0.442D-03-0.898D-04
 Coeff-Com: -0.145D-01-0.272D-01 0.164D+00 0.878D+00
 Coeff:      0.609D-06-0.882D-06 0.526D-06 0.124D-04 0.442D-03-0.898D-04
 Coeff:     -0.145D-01-0.272D-01 0.164D+00 0.878D+00
 Gap=     0.309 Goal=   None    Shift=    0.000
 RMSDP=1.08D-08 MaxDP=2.82D-07 DE=-2.16D-12 OVMax= 3.07D-07

 Cycle  11  Pass 1  IDiag  1:
 E= -232.197411160956     Delta-E=       -0.000000000001 Rises=F Damp=F
 DIIS: error= 2.91D-08 at cycle  11 NSaved=  11.
 NSaved=11 IEnMin=11 EnMin= -232.197411160956     IErMin=11 ErrMin= 2.91D-08
 ErrMax= 2.91D-08  0.00D+00 EMaxC= 1.00D-01 BMatC= 8.74D-14 BMatP= 2.46D-13
 IDIUse=1 WtCom= 1.00D+00 WtEn= 0.00D+00
 Coeff-Com:  0.277D-06-0.728D-06-0.287D-05-0.826D-06-0.215D-04 0.228D-03
 Coeff-Com:  0.479D-02-0.725D-02-0.131D+00 0.437D+00 0.696D+00
 Coeff:      0.277D-06-0.728D-06-0.287D-05-0.826D-06-0.215D-04 0.228D-03
 Coeff:      0.479D-02-0.725D-02-0.131D+00 0.437D+00 0.696D+00
 Gap=     0.309 Goal=   None    Shift=    0.000
 RMSDP=4.09D-09 MaxDP=6.06D-08 DE=-1.31D-12 OVMax= 1.09D-07

 SCF Done:  E(RM062X) =  -232.197411161     A.U. after   11 cycles
            NFock= 11  Conv=0.41D-08     -V/T= 2.0049
 KE= 2.310733273276D+02 PE=-9.444474977892D+02 EE= 2.780061394580D+02
 Leave Link  502 at Thu Dec 26 15:49:39 2019, MaxMem=  1342177280 cpu:              75.7 elap:               5.0
 (Enter /apps/cent7/gaussian/g16-A.03/g16-haswell/g16/l601.exe)
 Copying SCF densities to generalized density rwf, IOpCl= 0 IROHF=0.

 **********************************************************************

            Population analysis using the SCF density.

 **********************************************************************

 Orbital symmetries:
       Occupied  (A) (A) (A) (A) (A) (A) (A) (A) (A) (A) (A) (A)
                 (A) (A) (A) (A) (A) (A) (A) (A) (A)
       Virtual   (A) (A) (A) (A) (A) (A) (A) (A) (A) (A) (A) (A)
                 (A) (A) (A) (A) (A) (A) (A) (A) (A) (A) (A) (A)
                 (A) (A) (A) (A) (A) (A) (A) (A) (A) (A) (A) (A)
                 (A) (A) (A) (A) (A) (A) (A) (A) (A) (A) (A) (A)
                 (A) (A) (A) (A) (A) (A) (A) (A) (A) (A) (A) (A)
                 (A) (A) (A) (A) (A) (A) (A) (A) (A) (A) (A) (A)
                 (A) (A) (A) (A) (A) (A) (A) (A) (A) (A) (A) (A)
                 (A) (A) (A) (A) (A) (A) (A) (A) (A) (A) (A) (A)
                 (A) (A) (A) (A) (A) (A) (A) (A) (A) (A) (A) (A)
                 (A) (A) (A) (A) (A) (A) (A) (A) (A) (A) (A) (A)
                 (A) (A) (A) (A) (A) (A) (A) (A) (A) (A) (A) (A)
                 (A) (A) (A) (A) (A) (A) (A) (A) (A) (A) (A) (A)
                 (A) (A) (A) (A) (A) (A) (A) (A) (A)
 The electronic state is 1-A.
 Alpha  occ. eigenvalues --  -10.54835 -10.54804 -10.54775 -10.54725 -10.54704
 Alpha  occ. eigenvalues --  -10.54474  -0.96088  -0.84421  -0.84318  -0.68710
 Alpha  occ. eigenvalues --   -0.68532  -0.60042  -0.53248  -0.51510  -0.48982
 Alpha  occ. eigenvalues --   -0.48818  -0.43993  -0.40460  -0.40326  -0.30938
 Alpha  occ. eigenvalues --   -0.30930
 Alpha virt. eigenvalues --   -0.00042   0.01290   0.01297   0.01703   0.01717
 Alpha virt. eigenvalues --    0.03346   0.03349   0.06106   0.07205   0.09092
 Alpha virt. eigenvalues --    0.09736   0.09740   0.10406   0.12828   0.12839
 Alpha virt. eigenvalues --    0.13141   0.13496   0.13517   0.14449   0.14450
 Alpha virt. eigenvalues --    0.14890   0.16093   0.16094   0.16336   0.16357
 Alpha virt. eigenvalues --    0.16687   0.19613   0.19629   0.22802   0.22846
 Alpha virt. eigenvalues --    0.22858   0.24432   0.25573   0.27637   0.30200
 Alpha virt. eigenvalues --    0.30429   0.31904   0.32025   0.34192   0.38487
 Alpha virt. eigenvalues --    0.38638   0.38755   0.38770   0.47924   0.49561
 Alpha virt. eigenvalues --    0.56079   0.58117   0.58397   0.58563   0.59902
 Alpha virt. eigenvalues --    0.60019   0.60036   0.60786   0.60798   0.64519
 Alpha virt. eigenvalues --    0.65634   0.65654   0.71631   0.76816   0.76955
 Alpha virt. eigenvalues --    0.77333   0.77394   0.81748   0.86191   0.86834
 Alpha virt. eigenvalues --    0.86888   0.91030   0.91623   0.91643   0.92317
 Alpha virt. eigenvalues --    0.94146   0.94393   0.99132   1.04793   1.05145
 Alpha virt. eigenvalues --    1.06437   1.13356   1.13404   1.19559   1.19596
 Alpha virt. eigenvalues --    1.33804   1.34918   1.49889   1.55451   1.55702
 Alpha virt. eigenvalues --    1.55936   1.61064   1.61111   1.61410   1.68001
 Alpha virt. eigenvalues --    1.68005   1.69791   1.69983   1.74395   1.79819
 Alpha virt. eigenvalues --    1.80530   1.84999   1.85144   1.87569   1.96340
 Alpha virt. eigenvalues --    1.96385   1.97665   1.97700   2.00284   2.01525
 Alpha virt. eigenvalues --    2.05053   2.05127   2.09752   2.10475   2.34107
 Alpha virt. eigenvalues --    2.36661   2.41382   2.43349   2.43434   2.48235
 Alpha virt. eigenvalues --    2.49405   2.62548   2.63589   2.67715   2.70553
 Alpha virt. eigenvalues --    2.71688   2.73760   2.74070   2.76708   2.76863
 Alpha virt. eigenvalues --    2.80977   2.85116   2.85248   2.91214   2.95182
 Alpha virt. eigenvalues --    2.95257   2.97216   2.98039   3.13720   3.17374
 Alpha virt. eigenvalues --    3.39845   3.39968   3.52520   3.52990   3.54404
 Alpha virt. eigenvalues --    3.68559   4.01253   4.02701   4.11213   4.17488
 Alpha virt. eigenvalues --    4.18650   4.85893  23.65824  24.03626  24.04506
 Alpha virt. eigenvalues --   24.15792  24.16409  24.26799
          Condensed to atoms (all electrons):
               1          2          3          4          5          6
     1  C    6.224214  -0.648332  -0.648671   1.011264   0.014797   1.011390
     2  C   -0.648332   6.145773   0.942295  -0.668765   0.305285  -0.967107
     3  C   -0.648671   0.942295   6.146331  -0.967294  -0.014939  -0.669073
     4  C    1.011264  -0.668765  -0.967294   6.236111   0.017443   1.020289
     5  H    0.014797   0.305285  -0.014939   0.017443   0.475941   0.009574
     6  C    1.011390  -0.967107  -0.669073   1.020289   0.009574   6.235932
     7  H    0.014991  -0.014962   0.305191   0.009598  -0.000401   0.017345
     8  C   -0.992899   1.000494   1.000570  -0.706370  -0.014236  -0.706082
     9  H   -0.016781   0.022640   0.011923   0.300293   0.003288  -0.016307
    10  H   -0.016779   0.011903   0.022524  -0.016274   0.000860   0.300349
    11  H    0.009031  -0.013768  -0.013769   0.016707  -0.000465   0.016773
    12  H    0.307705   0.022548   0.022724  -0.018532   0.002718  -0.018509
               7          8          9         10         11         12
     1  C    0.014991  -0.992899  -0.016781  -0.016779   0.009031   0.307705
     2  C   -0.014962   1.000494   0.022640   0.011903  -0.013768   0.022548
     3  C    0.305191   1.000570   0.011923   0.022524  -0.013769   0.022724
     4  C    0.009598  -0.706370   0.300293  -0.016274   0.016707  -0.018532
     5  H   -0.000401  -0.014236   0.003288   0.000860  -0.000465   0.002718
     6  C    0.017345  -0.706082  -0.016307   0.300349   0.016773  -0.018509
     7  H    0.475956  -0.014267   0.000861   0.003299  -0.000465   0.002708
     8  C   -0.014267   6.241717   0.020686   0.020757   0.305648   0.013963
     9  H    0.000861   0.020686   0.474048  -0.000591   0.003094  -0.000821
    10  H    0.003299   0.020757  -0.000591   0.474024   0.003085  -0.000821
    11  H   -0.000465   0.305648   0.003094   0.003085   0.474723   0.000892
    12  H    0.002708   0.013963  -0.000821  -0.000821   0.000892   0.474780
 Mulliken charges:
               1
     1  C   -0.269930
     2  C   -0.138003
     3  C   -0.137812
     4  C   -0.234468
     5  H    0.200136
     6  C   -0.234574
     7  H    0.200145
     8  C   -0.169982
     9  H    0.197667
    10  H    0.197663
    11  H    0.198513
    12  H    0.190646
 Sum of Mulliken charges =  -0.00000
 Mulliken charges with hydrogens summed into heavy atoms:
               1
     1  C   -0.079285
     2  C    0.062133
     3  C    0.062333
     4  C   -0.036801
     6  C   -0.036911
     8  C    0.028531
 Electronic spatial extent (au):  <R**2>=            460.4318
 Charge=              0.0000 electrons
 Dipole moment (field-independent basis, Debye):
    X=             -0.0000    Y=             -0.0111    Z=              0.0008  Tot=              0.0111
 Quadrupole moment (field-independent basis, Debye-Ang):
   XX=            -31.7593   YY=            -31.7450   ZZ=            -40.6401
   XY=              0.0010   XZ=             -0.0020   YZ=             -0.0002
 Traceless Quadrupole moment (field-independent basis, Debye-Ang):
   XX=              2.9555   YY=              2.9698   ZZ=             -5.9253
   XY=              0.0010   XZ=             -0.0020   YZ=             -0.0002
 Octapole moment (field-independent basis, Debye-Ang**2):
  XXX=              0.0051  YYY=             -0.0701  ZZZ=              0.0012  XYY=             -0.0057
  XXY=             -0.0676  XXZ=              0.0040  XZZ=             -0.0001  YZZ=             -0.0817
  YYZ=              0.0037  XYZ=              0.0020
 Hexadecapole moment (field-independent basis, Debye-Ang**3):
 XXXX=           -273.1647 YYYY=           -272.1573 ZZZZ=            -49.5614 XXXY=              0.0059
 XXXZ=             -0.0129 YYYX=              0.0052 YYYZ=             -0.0049 ZZZX=             -0.0025
 ZZZY=             -0.0003 XXYY=            -90.7630 XXZZ=            -65.7055 YYZZ=            -65.3612
 XXYZ=              0.0036 YYXZ=             -0.0043 ZZXY=              0.0006
 N-N= 2.031706198426D+02 E-N=-9.444474981154D+02  KE= 2.310733273276D+02
 No NMR shielding tensors so no spin-rotation constants.
 Leave Link  601 at Thu Dec 26 15:49:39 2019, MaxMem=  1342177280 cpu:               2.2 elap:               0.1
 (Enter /apps/cent7/gaussian/g16-A.03/g16-haswell/g16/l701.exe)
 ... and contract with generalized density number  0.
 Compute integral first derivatives.
 Leave Link  701 at Thu Dec 26 15:49:40 2019, MaxMem=  1342177280 cpu:               2.9 elap:               0.2
 (Enter /apps/cent7/gaussian/g16-A.03/g16-haswell/g16/l702.exe)
 L702 exits ... SP integral derivatives will be done elsewhere.
 Leave Link  702 at Thu Dec 26 15:49:40 2019, MaxMem=  1342177280 cpu:               1.1 elap:               0.1
 (Enter /apps/cent7/gaussian/g16-A.03/g16-haswell/g16/l703.exe)
 Integral derivatives from FoFJK, PRISM(SPDF).
 Compute integral first derivatives, UseDBF=F ICtDFT=           0.
 Calling FoFJK, ICntrl=      2127 FMM=F ISym2X=0 I1Cent= 0 IOpClX= 0 NMat=1 NMatS=1 NMatT=0.
 FoFJK:  IHMeth= 1 ICntrl=    2127 DoSepK=F KAlg= 0 I1Cent=           0 FoldK=F
 IRaf=         0 NMat=       1 IRICut=       1 DoRegI=T DoRafI=F ISym2E= 0 IDoP0=0 IntGTp=1.
 FoFCou: FMM=F IPFlag=           0 FMFlag=      100000 FMFlg1=         800
         NFxFlg=           0 DoJE=F BraDBF=F KetDBF=F FulRan=T
         wScrn=  0.000000 ICntrl=      2127 IOpCl=  0 I1Cent=           0 NGrid=           0
         NMat0=    1 NMatS0=      1 NMatT0=    0 NMatD0=    1 NMtDS0=    0 NMtDT0=    0
 Symmetry not used in FoFCou.
 Leave Link  703 at Thu Dec 26 15:49:41 2019, MaxMem=  1342177280 cpu:              19.7 elap:               0.8
 (Enter /apps/cent7/gaussian/g16-A.03/g16-haswell/g16/l716.exe)
 Dipole        =-1.32635217D-05-4.36714494D-03 3.22703651D-04
 ***** Axes restored to original set *****
 -------------------------------------------------------------------
 Center     Atomic                   Forces (Hartrees/Bohr)
 Number     Number              X              Y              Z
 -------------------------------------------------------------------
      1        6           0.004048401    0.005514431   -0.010193910
      2        6          -0.001164608   -0.006405268   -0.000206276
      3        6          -0.000841377    0.003824133    0.005433138
      4        6           0.000971906   -0.003591967   -0.006232365
      5        1           0.001983064    0.010365676    0.000340283
      6        6           0.001347849    0.007008759    0.000396802
      7        1           0.001517069   -0.005451245   -0.008967018
      8        6           0.002322093    0.003183530   -0.005689492
      9        1          -0.001490801    0.005393777    0.008955810
     10        1          -0.001971302   -0.010341540   -0.000364767
     11        1          -0.003514972   -0.004966013    0.008606190
     12        1          -0.003207321   -0.004534272    0.007921605
 -------------------------------------------------------------------
 Cartesian Forces:  Max     0.010365676 RMS     0.005376815
 Leave Link  716 at Thu Dec 26 15:49:41 2019, MaxMem=  1342177280 cpu:               1.3 elap:               0.1
 (Enter /apps/cent7/gaussian/g16-A.03/g16-haswell/g16/l103.exe)

 GradGradGradGradGradGradGradGradGradGradGradGradGradGradGradGradGradGrad
 Berny optimization.
 FormGI is forming the generalized inverse of G from B-inverse, IUseBI=4.
 Internal  Forces:  Max     0.010602975 RMS     0.003662790
 Search for a local minimum.
 Step number   1 out of a maximum of   64
 All quantities printed in internal units (Hartrees-Bohrs-Radians)
 RMS Force = .36628D-02 SwitMx=.10000D-02 MixMth= 1
 Mixed Optimization -- RFO/linear search
 Second derivative matrix not updated -- first step.
 ITU=  0
     Eigenvalues ---    0.02152   0.02153   0.02154   0.02155   0.02155
     Eigenvalues ---    0.02155   0.02155   0.02156   0.02157   0.16000
     Eigenvalues ---    0.16000   0.16000   0.16000   0.16000   0.16000
     Eigenvalues ---    0.22000   0.22000   0.22000   0.33709   0.33718
     Eigenvalues ---    0.33720   0.33725   0.33726   0.37230   0.42106
     Eigenvalues ---    0.42123   0.46412   0.46453   0.46466   0.46497
 RFO step:  Lambda=-2.05222473D-03 EMin= 2.15189825D-02
 Linear search not attempted -- first point.
 Iteration  1 RMS(Cart)=  0.01224933 RMS(Int)=  0.00000340
 Iteration  2 RMS(Cart)=  0.00000279 RMS(Int)=  0.00000019
 Iteration  3 RMS(Cart)=  0.00000000 RMS(Int)=  0.00000019
 ITry= 1 IFail=0 DXMaxC= 4.12D-02 DCOld= 1.00D+10 DXMaxT= 3.00D-01 DXLimC= 3.00D+00 Rises=F
 Variable       Old X    -DE/DX   Delta X   Delta X   Delta X     New X
                                 (Linear)    (Quad)   (Total)
    R1        2.63697  -0.00353   0.00000  -0.00755  -0.00755   2.62942
    R2        2.63584  -0.00322   0.00000  -0.00686  -0.00686   2.62898
    R3        2.02201   0.00967   0.00000   0.02584   0.02584   2.04785
    R4        2.63562  -0.00339   0.00000  -0.00727  -0.00727   2.62836
    R5        2.07809  -0.01056   0.00000  -0.03113  -0.03113   2.04697
    R6        2.63643  -0.00358   0.00000  -0.00767  -0.00767   2.62876
    R7        2.07825  -0.01060   0.00000  -0.03126  -0.03126   2.04698
    R8        2.63647  -0.00364   0.00000  -0.00782  -0.00782   2.62865
    R9        2.07805  -0.01056   0.00000  -0.03113  -0.03113   2.04692
   R10        2.63584  -0.00353   0.00000  -0.00757  -0.00757   2.62827
   R11        2.07795  -0.01053   0.00000  -0.03105  -0.03105   2.04691
   R12        2.07796  -0.01054   0.00000  -0.03106  -0.03106   2.04690
    A1        2.09429  -0.00048   0.00000  -0.00204  -0.00204   2.09225
    A2        2.09407   0.00027   0.00000   0.00123   0.00123   2.09529
    A3        2.09483   0.00021   0.00000   0.00082   0.00082   2.09565
    A4        2.09429   0.00031   0.00000   0.00142   0.00142   2.09571
    A5        2.09427  -0.00017   0.00000  -0.00081  -0.00081   2.09346
    A6        2.09462  -0.00014   0.00000  -0.00061  -0.00061   2.09401
    A7        2.09448   0.00027   0.00000   0.00129   0.00128   2.09576
    A8        2.09459  -0.00018   0.00000  -0.00093  -0.00093   2.09367
    A9        2.09411  -0.00009   0.00000  -0.00036  -0.00036   2.09376
   A10        2.09455  -0.00006   0.00000  -0.00034  -0.00034   2.09420
   A11        2.09458   0.00005   0.00000   0.00027   0.00027   2.09485
   A12        2.09406   0.00002   0.00000   0.00007   0.00007   2.09413
   A13        2.09440  -0.00004   0.00000  -0.00024  -0.00024   2.09416
   A14        2.09426   0.00006   0.00000   0.00037   0.00037   2.09463
   A15        2.09453  -0.00002   0.00000  -0.00013  -0.00013   2.09440
   A16        2.09437   0.00000   0.00000  -0.00008  -0.00008   2.09429
   A17        2.09435  -0.00000   0.00000   0.00003   0.00003   2.09438
   A18        2.09447  -0.00000   0.00000   0.00005   0.00005   2.09452
    D1        0.00060  -0.00002   0.00000  -0.00070  -0.00070  -0.00010
    D2       -3.14132  -0.00001   0.00000  -0.00030  -0.00030   3.14156
    D3       -3.14153  -0.00000   0.00000  -0.00016  -0.00016   3.14150
    D4       -0.00026   0.00001   0.00000   0.00024   0.00024  -0.00003
    D5        0.00023  -0.00001   0.00000  -0.00029  -0.00029  -0.00006
    D6       -3.14158   0.00000   0.00000   0.00010   0.00010  -3.14148
    D7       -3.14083  -0.00002   0.00000  -0.00083  -0.00083   3.14153
    D8        0.00054  -0.00001   0.00000  -0.00044  -0.00044   0.00011
    D9       -0.00099   0.00003   0.00000   0.00117   0.00117   0.00018
   D10       -3.14120  -0.00001   0.00000  -0.00033  -0.00033  -3.14154
   D11        3.14093   0.00002   0.00000   0.00077   0.00077  -3.14148
   D12        0.00072  -0.00002   0.00000  -0.00073  -0.00073  -0.00001
   D13       -0.00066   0.00002   0.00000   0.00080   0.00080   0.00014
   D14        3.14138   0.00000   0.00000   0.00021   0.00021  -3.14159
   D15        3.14116   0.00001   0.00000   0.00041   0.00041   3.14157
   D16        0.00001  -0.00000   0.00000  -0.00018  -0.00018  -0.00017
   D17        0.00056  -0.00002   0.00000  -0.00066  -0.00066  -0.00009
   D18       -3.14112  -0.00001   0.00000  -0.00062  -0.00062   3.14144
   D19        3.14078   0.00002   0.00000   0.00084   0.00084  -3.14157
   D20       -0.00091   0.00002   0.00000   0.00088   0.00088  -0.00003
   D21        0.00026  -0.00001   0.00000  -0.00033  -0.00033  -0.00007
   D22       -3.14124  -0.00001   0.00000  -0.00036  -0.00036   3.14158
   D23        3.14140   0.00001   0.00000   0.00026   0.00026  -3.14152
   D24       -0.00010   0.00001   0.00000   0.00023   0.00023   0.00013
         Item               Value     Threshold  Converged?
 Maximum Force            0.010603     0.000450     NO 
 RMS     Force            0.003663     0.000300     NO 
 Maximum Displacement     0.041153     0.001800     NO 
 RMS     Displacement     0.012249     0.001200     NO 
 Predicted change in Energy=-1.032132D-03
 Lowest energy point so far.  Saving SCF results.
 GradGradGradGradGradGradGradGradGradGradGradGradGradGradGradGradGradGrad

 Leave Link  103 at Thu Dec 26 15:49:41 2019, MaxMem=  1342177280 cpu:               0.8 elap:               0.1
 (Enter /apps/cent7/gaussian/g16-A.03/g16-haswell/g16/l202.exe)
                          Input orientation:                          
 ---------------------------------------------------------------------
 Center     Atomic      Atomic             Coordinates (Angstroms)
 Number     Number       Type             X           Y           Z
 ---------------------------------------------------------------------
      1          6           0        0.385131    0.800446   -0.489090
      2          6           0        0.587661    0.091201   -1.668933
      3          6           0        0.646846    2.166179   -0.447868
      4          6           0        1.050779    0.746166   -2.805178
      5          1           0        0.384275   -0.972219   -1.702287
      6          6           0        1.110237    2.821851   -1.583855
      7          1           0        0.489737    2.719591    0.469962
      8          6           0        1.312157    2.111745   -2.762567
      9          1           0        1.208111    0.193267   -3.723239
     10          1           0        1.313671    3.885231   -1.550578
     11          1           0        1.672960    2.621951   -3.647313
     12          1           0        0.024202    0.289761    0.395944
 ---------------------------------------------------------------------
                    Distance matrix (angstroms):
                    1          2          3          4          5
     1  C    0.000000
     2  C    1.391430   0.000000
     3  C    1.391194   2.408326   0.000000
     4  C    2.410456   1.390866   2.781459   0.000000
     5  H    2.148066   1.083208   3.389993   2.147892   0.000000
     6  C    2.410470   2.781505   1.391080   2.409073   3.864713
     7  H    2.147985   3.390116   1.083217   3.864675   4.284769
     8  C    2.783448   2.409051   2.409032   1.391021   3.390574
     9  H    3.392003   2.148382   3.864642   1.083183   2.474128
    10  H    3.391879   3.864681   2.148433   3.390702   4.947889
    11  H    3.866621   3.390656   3.390736   2.148225   4.285077
    12  H    1.083676   2.149565   2.149569   3.392543   2.474837
                    6          7          8          9         10
     6  C    0.000000
     7  H    2.147938   0.000000
     8  C    1.390822   3.390442   0.000000
     9  H    3.390574   4.947858   2.148085   0.000000
    10  H    1.083176   2.473896   2.148063   4.285113   0.000000
    11  H    2.148134   4.285032   1.083173   2.473934   2.474119
    12  H    3.392721   2.475131   3.867124   4.287029   4.287083
                   11         12
    11  H    0.000000
    12  H    4.950297   0.000000
 Stoichiometry    C6H6
 Framework group  C1[X(C6H6)]
 Deg. of freedom    30
 Full point group                 C1      NOp   1
 RotChk:  IX=2 Diff= 1.99D+00
 Largest Abelian subgroup         C1      NOp   1
 Largest concise Abelian subgroup C1      NOp   1
                         Standard orientation:                         
 ---------------------------------------------------------------------
 Center     Atomic      Atomic             Coordinates (Angstroms)
 Number     Number       Type             X           Y           Z
 ---------------------------------------------------------------------
      1          6           0       -1.392135   -0.013573    0.000008
      2          6           0       -0.706852    1.197404   -0.000048
      3          6           0       -0.683584   -1.210810    0.000047
      4          6           0        0.683945    1.211250    0.000055
      5          1           0       -1.257408    2.130264   -0.000107
      6          6           0        0.707434   -1.197709   -0.000044
      7          1           0       -1.215732   -2.154302   -0.000012
      8          6           0        1.391182    0.013437    0.000000
      9          1           0        1.216602    2.154416    0.000064
     10          1           0        1.258050   -2.130496   -0.000017
     11          1           0        2.474303    0.024032   -0.000060
     12          1           0       -2.475761   -0.023903    0.000018
 ---------------------------------------------------------------------
 Rotational constants (GHZ):           5.7347057           5.7285948           2.8658243
 Leave Link  202 at Thu Dec 26 15:49:41 2019, MaxMem=  1342177280 cpu:               0.2 elap:               0.0
 (Enter /apps/cent7/gaussian/g16-A.03/g16-haswell/g16/l301.exe)
 Standard basis: 6-311++G(d,p) (5D, 7F)
 Ernie: Thresh=  0.10000D-02 Tol=  0.10000D-05 Strict=F.
 There are   180 symmetry adapted cartesian basis functions of A   symmetry.
 There are   174 symmetry adapted basis functions of A   symmetry.
   174 basis functions,   270 primitive gaussians,   180 cartesian basis functions
    21 alpha electrons       21 beta electrons
       nuclear repulsion energy       203.9805829402 Hartrees.
 IExCor= 4336 DFT=T Ex+Corr=M062X ExCW=0 ScaHFX=  0.540000
 ScaDFX=  1.000000  1.000000  1.000000  1.000000 ScalE2=  1.000000  1.000000
 IRadAn=      5 IRanWt=     -1 IRanGd=            0 ICorTp=0 IEmpDi=  4
 NAtoms=   12 NActive=   12 NUniq=   12 SFac= 1.00D+00 NAtFMM=   60 NAOKFM=F Big=F
 Integral buffers will be    131072 words long.
 Raffenetti 2 integral format.
 Two-electron integral symmetry is turned on.
 Leave Link  301 at Thu Dec 26 15:49:41 2019, MaxMem=  1342177280 cpu:               1.7 elap:               0.1
 (Enter /apps/cent7/gaussian/g16-A.03/g16-haswell/g16/l302.exe)
 NPDir=0 NMtPBC=     1 NCelOv=     1 NCel=       1 NClECP=     1 NCelD=      1
         NCelK=      1 NCelE2=     1 NClLst=     1 CellRange=     0.0.
 One-electron integrals computed using PRISM.
 One-electron integral symmetry used in STVInt
 NBasis=   174 RedAO= T EigKep=  1.04D-06  NBF=   174
 NBsUse=   174 1.00D-06 EigRej= -1.00D+00 NBFU=   174
 Precomputing XC quadrature grid using
 IXCGrd= 4 IRadAn=           5 IRanWt=          -1 IRanGd=           0 AccXCQ= 0.00D+00.
 Generated NRdTot=       0 NPtTot=           0 NUsed=           0 NTot=          32
 NSgBfM=   180   180   180   180   180 MxSgAt=    12 MxSgA2=    12.
 Leave Link  302 at Thu Dec 26 15:49:41 2019, MaxMem=  1342177280 cpu:               3.0 elap:               0.1
 (Enter /apps/cent7/gaussian/g16-A.03/g16-haswell/g16/l303.exe)
 DipDrv:  MaxL=1.
 Leave Link  303 at Thu Dec 26 15:49:41 2019, MaxMem=  1342177280 cpu:               5.2 elap:               0.2
 (Enter /apps/cent7/gaussian/g16-A.03/g16-haswell/g16/l401.exe)
 Initial guess from the checkpoint file:  "benzene.chk"
 B after Tr=     0.000000   -0.000000    0.000000
         Rot=    0.711302   -0.000000   -0.000000    0.702886 Ang= -89.32 deg.
 Guess basis will be translated and rotated to current coordinates.
 JPrj=2 DoOrth=T DoCkMO=T.
 Generating alternative initial guess.
 ExpMin= 3.60D-02 ExpMax= 4.56D+03 ExpMxC= 6.82D+02 IAcc=3 IRadAn=         5 AccDes= 0.00D+00
 Harris functional with IExCor= 1009 and IRadAn=       5 diagonalized for initial guess.
 HarFok:  IExCor= 1009 AccDes= 0.00D+00 IRadAn=         5 IDoV= 1 UseB2=F ITyADJ=14
 ICtDFT=  3500011 ScaDFX=  1.000000  1.000000  1.000000  1.000000
 FoFCou: FMM=F IPFlag=           0 FMFlag=      100000 FMFlg1=           0
         NFxFlg=           0 DoJE=T BraDBF=F KetDBF=T FulRan=T
         wScrn=  0.000000 ICntrl=       500 IOpCl=  0 I1Cent=   200000004 NGrid=           0
         NMat0=    1 NMatS0=      1 NMatT0=    0 NMatD0=    1 NMtDS0=    0 NMtDT0=    0
 Petite list used in FoFCou.
 Harris En= -232.124246088044    
 Leave Link  401 at Thu Dec 26 15:49:42 2019, MaxMem=  1342177280 cpu:               7.6 elap:               0.3
 (Enter /apps/cent7/gaussian/g16-A.03/g16-haswell/g16/l502.exe)
 Keep R1 ints in memory in canonical form, NReq=140125465.
 FoFCou: FMM=F IPFlag=           0 FMFlag=           0 FMFlg1=           0
         NFxFlg=           0 DoJE=F BraDBF=F KetDBF=F FulRan=T
         wScrn=  0.000000 ICntrl=       600 IOpCl=  0 I1Cent=           0 NGrid=           0
         NMat0=    1 NMatS0=  15225 NMatT0=    0 NMatD0=    1 NMtDS0=    0 NMtDT0=    0
 Symmetry not used in FoFCou.
 Two-electron integral symmetry not used.
 Closed shell SCF:
 Using DIIS extrapolation, IDIIS=  1040.
 NGot=  1342177280 LenX=  1226198395 LenY=  1226165554
 Requested convergence on RMS density matrix=1.00D-08 within 128 cycles.
 Requested convergence on MAX density matrix=1.00D-06.
 Requested convergence on             energy=1.00D-06.
 No special actions if energy rises.

 Cycle   1  Pass 1  IDiag  1:
 E= -232.198141796374    
 DIIS: error= 1.48D-03 at cycle   1 NSaved=   1.
 NSaved= 1 IEnMin= 1 EnMin= -232.198141796374     IErMin= 1 ErrMin= 1.48D-03
 ErrMax= 1.48D-03  0.00D+00 EMaxC= 1.00D-01 BMatC= 2.86D-04 BMatP= 2.86D-04
 IDIUse=3 WtCom= 9.85D-01 WtEn= 1.48D-02
 Coeff-Com:  0.100D+01
 Coeff-En:   0.100D+01
 Coeff:      0.100D+01
 Gap=     0.473 Goal=   None    Shift=    0.000
 GapD=    0.473 DampG=2.000 DampE=1.000 DampFc=2.0000 IDamp=-1.
 RMSDP=1.10D-03 MaxDP=4.55D-02              OVMax= 4.27D-03

 Cycle   2  Pass 1  IDiag  1:
 E= -232.198375423948     Delta-E=       -0.000233627574 Rises=F Damp=F
 DIIS: error= 6.38D-04 at cycle   2 NSaved=   2.
 NSaved= 2 IEnMin= 2 EnMin= -232.198375423948     IErMin= 2 ErrMin= 6.38D-04
 ErrMax= 6.38D-04  0.00D+00 EMaxC= 1.00D-01 BMatC= 2.86D-05 BMatP= 2.86D-04
 IDIUse=3 WtCom= 9.94D-01 WtEn= 6.38D-03
 Coeff-Com:  0.143D+00 0.857D+00
 Coeff-En:   0.000D+00 0.100D+01
 Coeff:      0.142D+00 0.858D+00
 Gap=     0.309 Goal=   None    Shift=    0.000
 RMSDP=7.36D-05 MaxDP=2.13D-03 DE=-2.34D-04 OVMax= 3.45D-03

 Cycle   3  Pass 1  IDiag  1:
 E= -232.198388954932     Delta-E=       -0.000013530984 Rises=F Damp=F
 DIIS: error= 5.24D-04 at cycle   3 NSaved=   3.
 NSaved= 3 IEnMin= 3 EnMin= -232.198388954932     IErMin= 3 ErrMin= 5.24D-04
 ErrMax= 5.24D-04  0.00D+00 EMaxC= 1.00D-01 BMatC= 1.56D-05 BMatP= 2.86D-05
 IDIUse=3 WtCom= 9.95D-01 WtEn= 5.24D-03
 Coeff-Com:  0.205D-02 0.420D+00 0.578D+00
 Coeff-En:   0.000D+00 0.336D+00 0.664D+00
 Coeff:      0.204D-02 0.420D+00 0.578D+00
 Gap=     0.309 Goal=   None    Shift=    0.000
 RMSDP=4.18D-05 MaxDP=1.13D-03 DE=-1.35D-05 OVMax= 1.75D-03

 Cycle   4  Pass 1  IDiag  1:
 E= -232.198404565508     Delta-E=       -0.000015610576 Rises=F Damp=F
 DIIS: error= 1.14D-04 at cycle   4 NSaved=   4.
 NSaved= 4 IEnMin= 4 EnMin= -232.198404565508     IErMin= 4 ErrMin= 1.14D-04
 ErrMax= 1.14D-04  0.00D+00 EMaxC= 1.00D-01 BMatC= 5.80D-07 BMatP= 1.56D-05
 IDIUse=3 WtCom= 9.99D-01 WtEn= 1.14D-03
 Coeff-Com: -0.647D-02 0.104D+00 0.216D+00 0.686D+00
 Coeff-En:   0.000D+00 0.000D+00 0.000D+00 0.100D+01
 Coeff:     -0.646D-02 0.103D+00 0.216D+00 0.687D+00
 Gap=     0.310 Goal=   None    Shift=    0.000
 RMSDP=1.43D-05 MaxDP=5.01D-04 DE=-1.56D-05 OVMax= 3.82D-04

 Cycle   5  Pass 1  IDiag  1:
 E= -232.198405102362     Delta-E=       -0.000000536854 Rises=F Damp=F
 DIIS: error= 4.71D-05 at cycle   5 NSaved=   5.
 NSaved= 5 IEnMin= 5 EnMin= -232.198405102362     IErMin= 5 ErrMin= 4.71D-05
 ErrMax= 4.71D-05  0.00D+00 EMaxC= 1.00D-01 BMatC= 9.22D-08 BMatP= 5.80D-07
 IDIUse=1 WtCom= 1.00D+00 WtEn= 0.00D+00
 Coeff-Com: -0.323D-02 0.424D-02 0.414D-01 0.319D+00 0.638D+00
 Coeff:     -0.323D-02 0.424D-02 0.414D-01 0.319D+00 0.638D+00
 Gap=     0.309 Goal=   None    Shift=    0.000
 RMSDP=5.33D-06 MaxDP=2.02D-04 DE=-5.37D-07 OVMax= 1.54D-04

 Cycle   6  Pass 1  IDiag  1:
 E= -232.198405201907     Delta-E=       -0.000000099545 Rises=F Damp=F
 DIIS: error= 6.43D-06 at cycle   6 NSaved=   6.
 NSaved= 6 IEnMin= 6 EnMin= -232.198405201907     IErMin= 6 ErrMin= 6.43D-06
 ErrMax= 6.43D-06  0.00D+00 EMaxC= 1.00D-01 BMatC= 3.50D-09 BMatP= 9.22D-08
 IDIUse=1 WtCom= 1.00D+00 WtEn= 0.00D+00
 Coeff-Com: -0.320D-03-0.927D-02-0.842D-02 0.241D-01 0.186D+00 0.808D+00
 Coeff:     -0.320D-03-0.927D-02-0.842D-02 0.241D-01 0.186D+00 0.808D+00
 Gap=     0.309 Goal=   None    Shift=    0.000
 RMSDP=2.47D-06 MaxDP=1.07D-04 DE=-9.95D-08 OVMax= 2.30D-05

 Cycle   7  Pass 1  IDiag  1:
 E= -232.198405205612     Delta-E=       -0.000000003706 Rises=F Damp=F
 DIIS: error= 1.88D-06 at cycle   7 NSaved=   7.
 NSaved= 7 IEnMin= 7 EnMin= -232.198405205612     IErMin= 7 ErrMin= 1.88D-06
 ErrMax= 1.88D-06  0.00D+00 EMaxC= 1.00D-01 BMatC= 3.31D-10 BMatP= 3.50D-09
 IDIUse=1 WtCom= 1.00D+00 WtEn= 0.00D+00
 Coeff-Com:  0.234D-04-0.448D-02-0.604D-02-0.519D-02 0.521D-01 0.343D+00
 Coeff-Com:  0.620D+00
 Coeff:      0.234D-04-0.448D-02-0.604D-02-0.519D-02 0.521D-01 0.343D+00
 Coeff:      0.620D+00
 Gap=     0.309 Goal=   None    Shift=    0.000
 RMSDP=6.32D-07 MaxDP=2.59D-05 DE=-3.71D-09 OVMax= 5.45D-06

 Cycle   8  Pass 1  IDiag  1:
 E= -232.198405205967     Delta-E=       -0.000000000355 Rises=F Damp=F
 DIIS: error= 2.64D-07 at cycle   8 NSaved=   8.
 NSaved= 8 IEnMin= 8 EnMin= -232.198405205967     IErMin= 8 ErrMin= 2.64D-07
 ErrMax= 2.64D-07  0.00D+00 EMaxC= 1.00D-01 BMatC= 1.14D-11 BMatP= 3.31D-10
 IDIUse=1 WtCom= 1.00D+00 WtEn= 0.00D+00
 Coeff-Com:  0.445D-04 0.194D-03-0.356D-03-0.374D-02-0.993D-02-0.293D-01
 Coeff-Com:  0.115D+00 0.929D+00
 Coeff:      0.445D-04 0.194D-03-0.356D-03-0.374D-02-0.993D-02-0.293D-01
 Coeff:      0.115D+00 0.929D+00
 Gap=     0.309 Goal=   None    Shift=    0.000
 RMSDP=2.72D-07 MaxDP=1.24D-05 DE=-3.55D-10 OVMax= 2.37D-06

 Cycle   9  Pass 1  IDiag  1:
 E= -232.198405205989     Delta-E=       -0.000000000022 Rises=F Damp=F
 DIIS: error= 1.09D-07 at cycle   9 NSaved=   9.
 NSaved= 9 IEnMin= 9 EnMin= -232.198405205989     IErMin= 9 ErrMin= 1.09D-07
 ErrMax= 1.09D-07  0.00D+00 EMaxC= 1.00D-01 BMatC= 8.06D-13 BMatP= 1.14D-11
 IDIUse=1 WtCom= 1.00D+00 WtEn= 0.00D+00
 Coeff-Com:  0.336D-05 0.245D-03 0.209D-03-0.149D-03-0.307D-02-0.206D-01
 Coeff-Com: -0.762D-02 0.775D-01 0.953D+00
 Coeff:      0.336D-05 0.245D-03 0.209D-03-0.149D-03-0.307D-02-0.206D-01
 Coeff:     -0.762D-02 0.775D-01 0.953D+00
 Gap=     0.309 Goal=   None    Shift=    0.000
 RMSDP=2.34D-08 MaxDP=5.29D-07 DE=-2.15D-11 OVMax= 6.98D-07

 Cycle  10  Pass 1  IDiag  1:
 E= -232.198405205990     Delta-E=       -0.000000000001 Rises=F Damp=F
 DIIS: error= 5.46D-08 at cycle  10 NSaved=  10.
 NSaved=10 IEnMin=10 EnMin= -232.198405205990     IErMin=10 ErrMin= 5.46D-08
 ErrMax= 5.46D-08  0.00D+00 EMaxC= 1.00D-01 BMatC= 1.94D-13 BMatP= 8.06D-13
 IDIUse=1 WtCom= 1.00D+00 WtEn= 0.00D+00
 Coeff-Com: -0.468D-05 0.693D-04 0.113D-03 0.429D-03 0.284D-03-0.411D-02
 Coeff-Com: -0.146D-01-0.860D-01 0.384D+00 0.720D+00
 Coeff:     -0.468D-05 0.693D-04 0.113D-03 0.429D-03 0.284D-03-0.411D-02
 Coeff:     -0.146D-01-0.860D-01 0.384D+00 0.720D+00
 Gap=     0.309 Goal=   None    Shift=    0.000
 RMSDP=1.16D-08 MaxDP=4.07D-07 DE=-1.02D-12 OVMax= 3.83D-07

 Cycle  11  Pass 1  IDiag  1:
 E= -232.198405205989     Delta-E=        0.000000000000 Rises=F Damp=F
 DIIS: error= 1.67D-08 at cycle  11 NSaved=  11.
 NSaved=11 IEnMin=10 EnMin= -232.198405205990     IErMin=11 ErrMin= 1.67D-08
 ErrMax= 1.67D-08  0.00D+00 EMaxC= 1.00D-01 BMatC= 1.56D-14 BMatP= 1.94D-13
 IDIUse=1 WtCom= 1.00D+00 WtEn= 0.00D+00
 Coeff-Com: -0.576D-06-0.193D-04-0.164D-04 0.333D-04 0.329D-03 0.183D-02
 Coeff-Com: -0.587D-03-0.139D-01-0.125D+00 0.785D-01 0.106D+01
 Coeff:     -0.576D-06-0.193D-04-0.164D-04 0.333D-04 0.329D-03 0.183D-02
 Coeff:     -0.587D-03-0.139D-01-0.125D+00 0.785D-01 0.106D+01
 Gap=     0.309 Goal=   None    Shift=    0.000
 RMSDP=4.28D-09 MaxDP=1.70D-07 DE= 4.55D-13 OVMax= 1.64D-07

 SCF Done:  E(RM062X) =  -232.198405206     A.U. after   11 cycles
            NFock= 11  Conv=0.43D-08     -V/T= 2.0042
 KE= 2.312278291974D+02 PE=-9.461943834630D+02 EE= 2.787875661194D+02
 Leave Link  502 at Thu Dec 26 15:49:46 2019, MaxMem=  1342177280 cpu:              71.0 elap:               4.8
 (Enter /apps/cent7/gaussian/g16-A.03/g16-haswell/g16/l701.exe)
 ... and contract with generalized density number  0.
 Compute integral first derivatives.
 Leave Link  701 at Thu Dec 26 15:49:47 2019, MaxMem=  1342177280 cpu:               2.4 elap:               0.1
 (Enter /apps/cent7/gaussian/g16-A.03/g16-haswell/g16/l702.exe)
 L702 exits ... SP integral derivatives will be done elsewhere.
 Leave Link  702 at Thu Dec 26 15:49:47 2019, MaxMem=  1342177280 cpu:               0.4 elap:               0.0
 (Enter /apps/cent7/gaussian/g16-A.03/g16-haswell/g16/l703.exe)
 Integral derivatives from FoFJK, PRISM(SPDF).
 Compute integral first derivatives, UseDBF=F ICtDFT=           0.
 Calling FoFJK, ICntrl=      2127 FMM=F ISym2X=0 I1Cent= 0 IOpClX= 0 NMat=1 NMatS=1 NMatT=0.
 FoFJK:  IHMeth= 1 ICntrl=    2127 DoSepK=F KAlg= 0 I1Cent=           0 FoldK=F
 IRaf=         0 NMat=       1 IRICut=       1 DoRegI=T DoRafI=F ISym2E= 0 IDoP0=0 IntGTp=1.
 FoFCou: FMM=F IPFlag=           0 FMFlag=      100000 FMFlg1=         800
         NFxFlg=           0 DoJE=F BraDBF=F KetDBF=F FulRan=T
         wScrn=  0.000000 ICntrl=      2127 IOpCl=  0 I1Cent=           0 NGrid=           0
         NMat0=    1 NMatS0=      1 NMatT0=    0 NMatD0=    1 NMtDS0=    0 NMtDT0=    0
 Symmetry not used in FoFCou.
 Leave Link  703 at Thu Dec 26 15:49:47 2019, MaxMem=  1342177280 cpu:              19.3 elap:               0.8
 (Enter /apps/cent7/gaussian/g16-A.03/g16-haswell/g16/l716.exe)
 Dipole        = 1.71687407D-04 3.08719296D-06-3.54547771D-05
 ***** Axes restored to original set *****
 -------------------------------------------------------------------
 Center     Atomic                   Forces (Hartrees/Bohr)
 Number     Number              X              Y              Z
 -------------------------------------------------------------------
      1        6           0.000091845    0.000037459   -0.000284842
      2        6          -0.000252678   -0.000629434    0.000390862
      3        6          -0.000168939    0.000110497    0.000703085
      4        6           0.000091709    0.000022967   -0.000250211
      5        1          -0.000060254   -0.000368669   -0.000051236
      6        6           0.000006792    0.000195206    0.000061602
      7        1          -0.000049870    0.000213673    0.000298623
      8        6           0.000118910    0.000096772   -0.000335101
      9        1           0.000029754   -0.000231680   -0.000262215
     10        1           0.000057777    0.000343666    0.000054270
     11        1           0.000121627    0.000184398   -0.000302059
     12        1           0.000013325    0.000025145   -0.000022778
 -------------------------------------------------------------------
 Cartesian Forces:  Max     0.000703085 RMS     0.000244762
 Leave Link  716 at Thu Dec 26 15:49:47 2019, MaxMem=  1342177280 cpu:               0.5 elap:               0.0
 (Enter /apps/cent7/gaussian/g16-A.03/g16-haswell/g16/l103.exe)

 GradGradGradGradGradGradGradGradGradGradGradGradGradGradGradGradGradGrad
 Berny optimization.
 Using GEDIIS/GDIIS optimizer.
 FormGI is forming the generalized inverse of G from B-inverse, IUseBI=4.
 Internal  Forces:  Max     0.000793079 RMS     0.000253737
 Search for a local minimum.
 Step number   2 out of a maximum of   64
 All quantities printed in internal units (Hartrees-Bohrs-Radians)
 RMS Force = .25374D-03 SwitMx=.10000D-02 MixMth= 2
 Mixed Optimization -- En-DIIS/RFO-DIIS
 Update second derivatives using D2CorX and points    1    2
 DE= -9.94D-04 DEPred=-1.03D-03 R= 9.63D-01
 TightC=F SS=  1.41D+00  RLast= 7.66D-02 DXNew= 5.0454D-01 2.2978D-01
 Trust test= 9.63D-01 RLast= 7.66D-02 DXMaxT set to 3.00D-01
 ITU=  1  0
 Use linear search instead of GDIIS.
     Eigenvalues ---    0.02152   0.02153   0.02154   0.02155   0.02155
     Eigenvalues ---    0.02155   0.02155   0.02156   0.02157   0.16000
     Eigenvalues ---    0.16000   0.16000   0.16000   0.16000   0.16001
     Eigenvalues ---    0.22000   0.22000   0.22013   0.33711   0.33718
     Eigenvalues ---    0.33722   0.33725   0.34430   0.37075   0.42095
     Eigenvalues ---    0.42120   0.46437   0.46458   0.46466   0.47854
 RFO step:  Lambda=-5.21366837D-06 EMin= 2.15190091D-02
 Quartic linear search produced a step of -0.03937.
 Iteration  1 RMS(Cart)=  0.00096582 RMS(Int)=  0.00000028
 Iteration  2 RMS(Cart)=  0.00000034 RMS(Int)=  0.00000007
 ITry= 1 IFail=0 DXMaxC= 3.00D-03 DCOld= 1.00D+10 DXMaxT= 3.00D-01 DXLimC= 3.00D+00 Rises=F
 Variable       Old X    -DE/DX   Delta X   Delta X   Delta X     New X
                                 (Linear)    (Quad)   (Total)
    R1        2.62942   0.00037   0.00030   0.00041   0.00071   2.63013
    R2        2.62898   0.00047   0.00027   0.00064   0.00091   2.62988
    R3        2.04785  -0.00003  -0.00102   0.00103   0.00001   2.04786
    R4        2.62836   0.00069   0.00029   0.00110   0.00139   2.62975
    R5        2.04697   0.00037   0.00123  -0.00028   0.00094   2.04791
    R6        2.62876   0.00059   0.00030   0.00089   0.00119   2.62995
    R7        2.04698   0.00037   0.00123  -0.00031   0.00093   2.04791
    R8        2.62865   0.00069   0.00031   0.00112   0.00143   2.63008
    R9        2.04692   0.00034   0.00123  -0.00037   0.00086   2.04777
   R10        2.62827   0.00079   0.00030   0.00135   0.00165   2.62992
   R11        2.04691   0.00035   0.00122  -0.00035   0.00087   2.04778
   R12        2.04690   0.00037   0.00122  -0.00028   0.00094   2.04784
    A1        2.09225   0.00047   0.00008   0.00182   0.00190   2.09415
    A2        2.09529  -0.00022  -0.00005  -0.00080  -0.00085   2.09444
    A3        2.09565  -0.00025  -0.00003  -0.00102  -0.00105   2.09460
    A4        2.09571  -0.00024  -0.00006  -0.00107  -0.00113   2.09458
    A5        2.09346   0.00016   0.00003   0.00075   0.00078   2.09425
    A6        2.09401   0.00009   0.00002   0.00032   0.00035   2.09436
    A7        2.09576  -0.00026  -0.00005  -0.00114  -0.00119   2.09457
    A8        2.09367   0.00016   0.00004   0.00077   0.00080   2.09447
    A9        2.09376   0.00009   0.00001   0.00038   0.00039   2.09415
   A10        2.09420   0.00001   0.00001   0.00012   0.00013   2.09433
   A11        2.09485  -0.00008  -0.00001  -0.00049  -0.00051   2.09435
   A12        2.09413   0.00007  -0.00000   0.00038   0.00037   2.09451
   A13        2.09416   0.00003   0.00001   0.00018   0.00019   2.09435
   A14        2.09463  -0.00005  -0.00001  -0.00032  -0.00033   2.09430
   A15        2.09440   0.00003   0.00001   0.00014   0.00014   2.09454
   A16        2.09429  -0.00001   0.00000   0.00010   0.00010   2.09439
   A17        2.09438   0.00001  -0.00000  -0.00003  -0.00003   2.09435
   A18        2.09452   0.00000  -0.00000  -0.00007  -0.00007   2.09445
    D1       -0.00010   0.00000   0.00003   0.00009   0.00012   0.00002
    D2        3.14156   0.00000   0.00001   0.00000   0.00002   3.14158
    D3        3.14150   0.00000   0.00001   0.00010   0.00011  -3.14158
    D4       -0.00003   0.00000  -0.00001   0.00002   0.00001  -0.00002
    D5       -0.00006   0.00000   0.00001   0.00005   0.00006   0.00000
    D6       -3.14148  -0.00000  -0.00000  -0.00012  -0.00012   3.14158
    D7        3.14153   0.00000   0.00003   0.00004   0.00007  -3.14159
    D8        0.00011  -0.00000   0.00002  -0.00013  -0.00011  -0.00001
    D9        0.00018  -0.00001  -0.00005  -0.00016  -0.00020  -0.00003
   D10       -3.14154  -0.00000   0.00001  -0.00008  -0.00007   3.14158
   D11       -3.14148  -0.00000  -0.00003  -0.00007  -0.00010  -3.14159
   D12       -0.00001   0.00000   0.00003   0.00000   0.00003   0.00002
   D13        0.00014  -0.00000  -0.00003  -0.00013  -0.00016  -0.00001
   D14       -3.14159  -0.00000  -0.00001  -0.00001  -0.00002   3.14158
   D15        3.14157   0.00000  -0.00002   0.00004   0.00002   3.14159
   D16       -0.00017   0.00000   0.00001   0.00016   0.00017   0.00000
   D17       -0.00009   0.00000   0.00003   0.00008   0.00011   0.00001
   D18        3.14144   0.00000   0.00002   0.00013   0.00016  -3.14159
   D19       -3.14157  -0.00000  -0.00003   0.00001  -0.00002  -3.14159
   D20       -0.00003   0.00000  -0.00003   0.00006   0.00003  -0.00000
   D21       -0.00007   0.00000   0.00001   0.00006   0.00007   0.00001
   D22        3.14158   0.00000   0.00001   0.00001   0.00002  -3.14158
   D23       -3.14152  -0.00000  -0.00001  -0.00006  -0.00007  -3.14159
   D24        0.00013  -0.00000  -0.00001  -0.00011  -0.00012   0.00001
         Item               Value     Threshold  Converged?
 Maximum Force            0.000793     0.000450     NO 
 RMS     Force            0.000254     0.000300     YES
 Maximum Displacement     0.003004     0.001800     NO 
 RMS     Displacement     0.000966     0.001200     YES
 Predicted change in Energy=-4.355313D-06
 Lowest energy point so far.  Saving SCF results.
 GradGradGradGradGradGradGradGradGradGradGradGradGradGradGradGradGradGrad

 Leave Link  103 at Thu Dec 26 15:49:48 2019, MaxMem=  1342177280 cpu:               0.6 elap:               0.1
 (Enter /apps/cent7/gaussian/g16-A.03/g16-haswell/g16/l202.exe)
                          Input orientation:                          
 ---------------------------------------------------------------------
 Center     Atomic      Atomic             Coordinates (Angstroms)
 Number     Number       Type             X           Y           Z
 ---------------------------------------------------------------------
      1          6           0        0.385277    0.800592   -0.489431
      2          6           0        0.587412    0.090088   -1.669028
      3          6           0        0.646750    2.166819   -0.446878
      4          6           0        1.050893    0.745623   -2.805696
      5          1           0        0.383844   -0.973808   -1.702264
      6          6           0        1.110247    2.822548   -1.583559
      7          1           0        0.489456    2.720333    0.471436
      8          6           0        1.312327    2.111957   -2.762979
      9          1           0        1.208207    0.192218   -3.723989
     10          1           0        1.313751    3.886379   -1.550142
     11          1           0        1.673243    2.622450   -3.648122
     12          1           0        0.024359    0.289969    0.395650
 ---------------------------------------------------------------------
                    Distance matrix (angstroms):
                    1          2          3          4          5
     1  C    0.000000
     2  C    1.391805   0.000000
     3  C    1.391673   2.410390   0.000000
     4  C    2.410633   1.391602   2.783371   0.000000
     5  H    2.149293   1.083707   3.392440   2.149177   0.000000
     6  C    2.410602   2.783343   1.391709   2.410552   3.867049
     7  H    2.149308   3.392546   1.083706   3.867077   4.287517
     8  C    2.783545   2.410433   2.410463   1.391777   3.392513
     9  H    3.392595   2.149112   3.867007   1.083636   2.475190
    10  H    3.392529   3.866979   2.149179   3.392618   4.950685
    11  H    3.867215   3.392447   3.392529   2.149298   4.287422
    12  H    1.083682   2.149390   2.149369   3.392641   2.475400
                    6          7          8          9         10
     6  C    0.000000
     7  H    2.149147   0.000000
     8  C    1.391693   3.392445   0.000000
     9  H    3.392591   4.950713   2.149367   0.000000
    10  H    1.083636   2.475055   2.149314   4.287607   0.000000
    11  H    2.149285   4.287387   1.083670   2.475488   2.475535
    12  H    3.392694   2.475627   3.867227   4.287480   4.287517
                   11         12
    11  H    0.000000
    12  H    4.950897   0.000000
 Stoichiometry    C6H6
 Framework group  C1[X(C6H6)]
 Deg. of freedom    30
 Full point group                 C1      NOp   1
 RotChk:  IX=1 Diff= 3.89D-01
 Largest Abelian subgroup         C1      NOp   1
 Largest concise Abelian subgroup C1      NOp   1
                         Standard orientation:                         
 ---------------------------------------------------------------------
 Center     Atomic      Atomic             Coordinates (Angstroms)
 Number     Number       Type             X           Y           Z
 ---------------------------------------------------------------------
      1          6           0       -1.342730    0.366381   -0.000001
      2          6           0       -0.353924    1.345864    0.000009
      3          6           0       -0.988574   -0.979475   -0.000006
      4          6           0        0.988608    0.979582   -0.000005
      5          1           0       -0.629604    2.393919   -0.000001
      6          6           0        0.354019   -1.345941    0.000004
      7          1           0       -1.758247   -1.742380   -0.000004
      8          6           0        1.342625   -0.366417    0.000001
      9          1           0        1.758293    1.742374   -0.000011
     10          1           0        0.629497   -2.393977    0.000012
     11          1           0        2.388080   -0.651663   -0.000003
     12          1           0       -2.388158    0.651767   -0.000002
 ---------------------------------------------------------------------
 Rotational constants (GHZ):           5.7265901           5.7263400           2.8632325
 Leave Link  202 at Thu Dec 26 15:49:48 2019, MaxMem=  1342177280 cpu:               0.5 elap:               0.0
 (Enter /apps/cent7/gaussian/g16-A.03/g16-haswell/g16/l301.exe)
 Standard basis: 6-311++G(d,p) (5D, 7F)
 Ernie: Thresh=  0.10000D-02 Tol=  0.10000D-05 Strict=F.
 There are   180 symmetry adapted cartesian basis functions of A   symmetry.
 There are   174 symmetry adapted basis functions of A   symmetry.
   174 basis functions,   270 primitive gaussians,   180 cartesian basis functions
    21 alpha electrons       21 beta electrons
       nuclear repulsion energy       203.8894071144 Hartrees.
 IExCor= 4336 DFT=T Ex+Corr=M062X ExCW=0 ScaHFX=  0.540000
 ScaDFX=  1.000000  1.000000  1.000000  1.000000 ScalE2=  1.000000  1.000000
 IRadAn=      5 IRanWt=     -1 IRanGd=            0 ICorTp=0 IEmpDi=  4
 NAtoms=   12 NActive=   12 NUniq=   12 SFac= 1.00D+00 NAtFMM=   60 NAOKFM=F Big=F
 Integral buffers will be    131072 words long.
 Raffenetti 2 integral format.
 Two-electron integral symmetry is turned on.
 Leave Link  301 at Thu Dec 26 15:49:48 2019, MaxMem=  1342177280 cpu:               1.9 elap:               0.1
 (Enter /apps/cent7/gaussian/g16-A.03/g16-haswell/g16/l302.exe)
 NPDir=0 NMtPBC=     1 NCelOv=     1 NCel=       1 NClECP=     1 NCelD=      1
         NCelK=      1 NCelE2=     1 NClLst=     1 CellRange=     0.0.
 One-electron integrals computed using PRISM.
 One-electron integral symmetry used in STVInt
 NBasis=   174 RedAO= T EigKep=  1.05D-06  NBF=   174
 NBsUse=   174 1.00D-06 EigRej= -1.00D+00 NBFU=   174
 Precomputing XC quadrature grid using
 IXCGrd= 4 IRadAn=           5 IRanWt=          -1 IRanGd=           0 AccXCQ= 0.00D+00.
 Generated NRdTot=       0 NPtTot=           0 NUsed=           0 NTot=          32
 NSgBfM=   180   180   180   180   180 MxSgAt=    12 MxSgA2=    12.
 Leave Link  302 at Thu Dec 26 15:49:48 2019, MaxMem=  1342177280 cpu:               3.1 elap:               0.2
 (Enter /apps/cent7/gaussian/g16-A.03/g16-haswell/g16/l303.exe)
 DipDrv:  MaxL=1.
 Leave Link  303 at Thu Dec 26 15:49:48 2019, MaxMem=  1342177280 cpu:               0.6 elap:               0.0
 (Enter /apps/cent7/gaussian/g16-A.03/g16-haswell/g16/l401.exe)
 Initial guess from the checkpoint file:  "benzene.chk"
 B after Tr=     0.000000    0.000000    0.000000
         Rot=    0.990486   -0.000000   -0.000000    0.137614 Ang=  15.82 deg.
 Guess basis will be translated and rotated to current coordinates.
 JPrj=2 DoOrth=T DoCkMO=T.
 Leave Link  401 at Thu Dec 26 15:49:48 2019, MaxMem=  1342177280 cpu:               3.0 elap:               0.1
 (Enter /apps/cent7/gaussian/g16-A.03/g16-haswell/g16/l502.exe)
 Keep R1 ints in memory in canonical form, NReq=140125465.
 FoFCou: FMM=F IPFlag=           0 FMFlag=           0 FMFlg1=           0
         NFxFlg=           0 DoJE=F BraDBF=F KetDBF=F FulRan=T
         wScrn=  0.000000 ICntrl=       600 IOpCl=  0 I1Cent=           0 NGrid=           0
         NMat0=    1 NMatS0=  15225 NMatT0=    0 NMatD0=    1 NMtDS0=    0 NMtDT0=    0
 Symmetry not used in FoFCou.
 Two-electron integral symmetry not used.
 Closed shell SCF:
 Using DIIS extrapolation, IDIIS=  1040.
 NGot=  1342177280 LenX=  1226198395 LenY=  1226165554
 Requested convergence on RMS density matrix=1.00D-08 within 128 cycles.
 Requested convergence on MAX density matrix=1.00D-06.
 Requested convergence on             energy=1.00D-06.
 No special actions if energy rises.

 Cycle   1  Pass 1  IDiag  1:
 E= -232.198417160783    
 DIIS: error= 9.78D-05 at cycle   1 NSaved=   1.
 NSaved= 1 IEnMin= 1 EnMin= -232.198417160783     IErMin= 1 ErrMin= 9.78D-05
 ErrMax= 9.78D-05  0.00D+00 EMaxC= 1.00D-01 BMatC= 1.33D-06 BMatP= 1.33D-06
 IDIUse=1 WtCom= 1.00D+00 WtEn= 0.00D+00
 Coeff-Com:  0.100D+01
 Coeff:      0.100D+01
 Gap=     0.473 Goal=   None    Shift=    0.000
 RMSDP=1.20D-04 MaxDP=2.54D-03              OVMax= 3.52D-04

 Cycle   2  Pass 1  IDiag  1:
 E= -232.198418319546     Delta-E=       -0.000001158763 Rises=F Damp=F
 DIIS: error= 4.76D-05 at cycle   2 NSaved=   2.
 NSaved= 2 IEnMin= 2 EnMin= -232.198418319546     IErMin= 2 ErrMin= 4.76D-05
 ErrMax= 4.76D-05  0.00D+00 EMaxC= 1.00D-01 BMatC= 1.62D-07 BMatP= 1.33D-06
 IDIUse=1 WtCom= 1.00D+00 WtEn= 0.00D+00
 Coeff-Com:  0.161D+00 0.839D+00
 Coeff:      0.161D+00 0.839D+00
 Gap=     0.309 Goal=   None    Shift=    0.000
 RMSDP=9.77D-06 MaxDP=3.65D-04 DE=-1.16D-06 OVMax= 2.04D-04

 Cycle   3  Pass 1  IDiag  1:
 E= -232.198418419498     Delta-E=       -0.000000099952 Rises=F Damp=F
 DIIS: error= 2.57D-05 at cycle   3 NSaved=   3.
 NSaved= 3 IEnMin= 3 EnMin= -232.198418419498     IErMin= 3 ErrMin= 2.57D-05
 ErrMax= 2.57D-05  0.00D+00 EMaxC= 1.00D-01 BMatC= 7.13D-08 BMatP= 1.62D-07
 IDIUse=1 WtCom= 1.00D+00 WtEn= 0.00D+00
 Coeff-Com: -0.142D-01 0.391D+00 0.623D+00
 Coeff:     -0.142D-01 0.391D+00 0.623D+00
 Gap=     0.309 Goal=   None    Shift=    0.000
 RMSDP=4.46D-06 MaxDP=1.29D-04 DE=-1.00D-07 OVMax= 9.98D-05

 Cycle   4  Pass 1  IDiag  1:
 E= -232.198418492342     Delta-E=       -0.000000072844 Rises=F Damp=F
 DIIS: error= 8.94D-06 at cycle   4 NSaved=   4.
 NSaved= 4 IEnMin= 4 EnMin= -232.198418492342     IErMin= 4 ErrMin= 8.94D-06
 ErrMax= 8.94D-06  0.00D+00 EMaxC= 1.00D-01 BMatC= 3.45D-09 BMatP= 7.13D-08
 IDIUse=1 WtCom= 1.00D+00 WtEn= 0.00D+00
 Coeff-Com: -0.126D-01 0.130D+00 0.271D+00 0.611D+00
 Coeff:     -0.126D-01 0.130D+00 0.271D+00 0.611D+00
[...]
         Item               Value     Threshold  Converged?
 Maximum Force            0.000128     0.000450     YES
 RMS     Force            0.000027     0.000300     YES
 Maximum Displacement     0.000317     0.001800     YES
 RMS     Displacement     0.000109     0.001200     YES
 Predicted change in Energy=-6.393781D-08
 Optimization completed.
    -- Stationary point found.
                           ----------------------------
                           !   Optimized Parameters   !
                           ! (Angstroms and Degrees)  !
 --------------------------                            --------------------------
 ! Name  Definition              Value          Derivative Info.                !
 --------------------------------------------------------------------------------
 ! R1    R(1,2)                  1.3918         -DE/DX =   -0.0001              !
 ! R2    R(1,3)                  1.3917         -DE/DX =    0.0                 !
 ! R3    R(1,12)                 1.0837         -DE/DX =    0.0                 !
 ! R4    R(2,4)                  1.3916         -DE/DX =    0.0                 !
 ! R5    R(2,5)                  1.0837         -DE/DX =    0.0                 !
 ! R6    R(3,6)                  1.3917         -DE/DX =    0.0                 !
 ! R7    R(3,7)                  1.0837         -DE/DX =    0.0                 !
 ! R8    R(4,8)                  1.3918         -DE/DX =   -0.0001              !
 ! R9    R(4,9)                  1.0836         -DE/DX =    0.0                 !
 ! R10   R(6,8)                  1.3917         -DE/DX =   -0.0001              !
 ! R11   R(6,10)                 1.0836         -DE/DX =    0.0                 !
 ! R12   R(8,11)                 1.0837         -DE/DX =    0.0                 !
 ! A1    A(2,1,3)              119.9858         -DE/DX =    0.0                 !
 ! A2    A(2,1,12)             120.0025         -DE/DX =    0.0                 !
 ! A3    A(3,1,12)             120.0117         -DE/DX =    0.0                 !
 ! A4    A(1,2,4)              120.0108         -DE/DX =    0.0                 !
 ! A5    A(1,2,5)              119.9914         -DE/DX =    0.0                 !
 ! A6    A(4,2,5)              119.9977         -DE/DX =    0.0                 !
 ! A7    A(1,3,6)              120.0101         -DE/DX =    0.0                 !
 ! A8    A(1,3,7)              120.0041         -DE/DX =    0.0                 !
 ! A9    A(6,3,7)              119.9858         -DE/DX =    0.0                 !
 ! A10   A(2,4,8)              119.9964         -DE/DX =    0.0                 !
 ! A11   A(2,4,9)              119.9972         -DE/DX =    0.0                 !
 ! A12   A(8,4,9)              120.0064         -DE/DX =    0.0                 !
 ! A13   A(3,6,8)              119.9972         -DE/DX =    0.0                 !
 ! A14   A(3,6,10)             119.9943         -DE/DX =    0.0                 !
 ! A15   A(8,6,10)             120.0084         -DE/DX =    0.0                 !
 ! A16   A(4,8,6)              119.9997         -DE/DX =    0.0                 !
 ! A17   A(4,8,11)             119.9972         -DE/DX =    0.0                 !
 ! A18   A(6,8,11)             120.0031         -DE/DX =    0.0                 !
 ! D1    D(3,1,2,4)              0.001          -DE/DX =    0.0                 !
 ! D2    D(3,1,2,5)            179.9991         -DE/DX =    0.0                 !
 ! D3    D(12,1,2,4)          -179.9993         -DE/DX =    0.0                 !
 ! D4    D(12,1,2,5)            -0.0011         -DE/DX =    0.0                 !
 ! D5    D(2,1,3,6)              0.0002         -DE/DX =    0.0                 !
 ! D6    D(2,1,3,7)            179.9994         -DE/DX =    0.0                 !
 ! D7    D(12,1,3,6)           180.0004         -DE/DX =    0.0                 !
 ! D8    D(12,1,3,7)            -0.0004         -DE/DX =    0.0                 !
 ! D9    D(1,2,4,8)             -0.0015         -DE/DX =    0.0                 !
 ! D10   D(1,2,4,9)            179.9991         -DE/DX =    0.0                 !
 ! D11   D(5,2,4,8)            180.0003         -DE/DX =    0.0                 !
 ! D12   D(5,2,4,9)              0.001          -DE/DX =    0.0                 !
 ! D13   D(1,3,6,8)             -0.0008         -DE/DX =    0.0                 !
 ! D14   D(1,3,6,10)           179.9993         -DE/DX =    0.0                 !
 ! D15   D(7,3,6,8)            179.9999         -DE/DX =    0.0                 !
 ! D16   D(7,3,6,10)             0.0001         -DE/DX =    0.0                 !
 ! D17   D(2,4,8,6)              0.0008         -DE/DX =    0.0                 !
 ! D18   D(2,4,8,11)          -179.9996         -DE/DX =    0.0                 !
 ! D19   D(9,4,8,6)           -179.9998         -DE/DX =    0.0                 !
 ! D20   D(9,4,8,11)            -0.0002         -DE/DX =    0.0                 !
 ! D21   D(3,6,8,4)              0.0003         -DE/DX =    0.0                 !
 ! D22   D(3,6,8,11)           180.0007         -DE/DX =    0.0                 !
 ! D23   D(10,6,8,4)          -179.9998         -DE/DX =    0.0                 !
 ! D24   D(10,6,8,11)            0.0006         -DE/DX =    0.0                 !
 --------------------------------------------------------------------------------
 GradGradGradGradGradGradGradGradGradGradGradGradGradGradGradGradGradGrad

 Leave Link  103 at Thu Dec 26 15:50:28 2019, MaxMem=  1342177280 cpu:               0.5 elap:               0.0
 (Enter /apps/cent7/gaussian/g16-A.03/g16-haswell/g16/l9999.exe)

 ----------------------------------------------------------------------

 Electric dipole moment (input orientation):
 (Debye = 10**-18 statcoulomb cm , SI units = C m)
                  (au)            (Debye)         (10**-30 SI)
   Tot        0.000000D+00      0.000000D+00      0.000000D+00
   x          0.000000D+00      0.000000D+00      0.000000D+00
   y          0.000000D+00      0.000000D+00      0.000000D+00
   z          0.000000D+00      0.000000D+00      0.000000D+00

 Dipole polarizability, Alpha (input orientation).
 (esu units = cm**3 , SI units = C**2 m**2 J**-1)
 Alpha(0;0):
               (au)            (10**-24 esu)      (10**-40 SI)
   iso        0.644050D+02      0.954384D+01      0.106190D+02
   aniso      0.362320D+02      0.536902D+01      0.597384D+01
   xx         0.442917D+02      0.656335D+01      0.730271D+01
   yx         0.645327D+01      0.956276D+00      0.106400D+01
   yy         0.751831D+02      0.111410D+02      0.123960D+02
   zx        -0.940563D+01     -0.139377D+01     -0.155078D+01
   zy         0.188275D+01      0.278994D+00      0.310423D+00
   zz         0.737402D+02      0.109272D+02      0.121581D+02

 ----------------------------------------------------------------------

 Dipole orientation:
     6         -0.67944277         -1.60761468          0.79265570
     6         -2.85799284         -0.43726328          1.68808130
     6         -0.36358636         -4.20140463          1.09058928
     6         -4.72005929         -1.86028730          2.88109293
     1         -3.10412059          1.58253353          1.45619481
     6         -2.22565000         -5.62479766          2.28361251
     1          1.33247472         -5.11326095          0.39357976
     6         -4.40390371         -4.45425505          3.17888323
     1         -6.41606371         -0.94863754          3.57811959
     1         -1.97921798         -7.64444277          2.51532283
     1         -5.85392529         -5.56241887          4.10789110
     1          0.77045118         -0.49921422         -0.13631880

 Electric dipole moment (dipole orientation):
 (Debye = 10**-18 statcoulomb cm , SI units = C m)
                  (au)            (Debye)         (10**-30 SI)
   Tot        0.000000D+00      0.000000D+00      0.000000D+00
   x          0.000000D+00      0.000000D+00      0.000000D+00
   y          0.000000D+00      0.000000D+00      0.000000D+00
   z          0.000000D+00      0.000000D+00      0.000000D+00

 Dipole polarizability, Alpha (dipole orientation).
 (esu units = cm**3 , SI units = C**2 m**2 J**-1)
 Alpha(0;0):
               (au)            (10**-24 esu)      (10**-40 SI)
   iso        0.644050D+02      0.954384D+01      0.106190D+02
   aniso      0.362320D+02      0.536902D+01      0.597384D+01
   xx         0.692830D+02      0.102667D+02      0.114232D+02
   yx        -0.250961D+01     -0.371885D+00     -0.413778D+00
   yy         0.756007D+02      0.112029D+02      0.124649D+02
   zx        -0.142426D+02     -0.211053D+01     -0.234828D+01
   zy        -0.496840D+01     -0.736241D+00     -0.819179D+00
   zz         0.483313D+02      0.716196D+01      0.796876D+01

 ----------------------------------------------------------------------
 1\1\GINC-BROWN-A509\Freq\RM062X\6-311++G(d,p)\C6H6\FINEJ\26-Dec-2019\0
 \\#P Geom=AllCheck Guess=TCheck SCRF=Check GenChk RM062X/6-311++G(d,p)
  Freq\\Title Card Required\\0,1\C,0.3852773865,0.8005917364,-0.4894310
 353\C,0.5874119193,0.0900883207,-1.669027987\C,0.6467497296,2.16681863
 83,-0.4468775533\C,1.0508926474,0.7456232683,-2.8056964262\H,0.3838444
 446,-0.973808053,-1.7022639436\C,1.1102472978,2.822547829,-1.583558594
 7\H,0.4894564129,2.7203334799,0.4714358034\C,1.3123271974,2.1119574535
 ,-2.7629794644\H,1.2082066752,0.1922183581,-3.723989397\H,1.3137510704
 ,3.8863790456,-1.5501416486\H,1.6732430564,2.6224503179,-3.6481218562\
 H,0.0243586825,0.2899692953,0.395650073\\Version=ES64L-G16RevA.03\Stat
 e=1-A\HF=-232.1984185\RMSD=4.987e-09\RMSF=4.899e-05\ZeroPoint=0.101133
 5\Thermal=0.1011335\Dipole=0.0000034,-0.0000002,-0.0000007\DipoleDeriv
 =-0.1188003,0.0358606,-0.0581753,0.0359219,-0.0333593,-0.0477333,-0.05
 8125,-0.0474783,0.0234068,-0.1289654,0.0396246,-0.020643,0.03956,0.066
 8032,0.0085165,-0.0207007,0.0082069,-0.0664424,-0.1308355,0.0045339,-0
 .0379168,0.0045488,-0.0285672,0.0628457,-0.0379052,0.0628664,0.030089,
 -0.1309195,0.0045329,-0.0378688,0.0045258,-0.028731,0.0628496,-0.03787
 56,0.0628739,0.0299089,0.1293521,-0.0412276,0.0183596,-0.0410296,-0.07
 46419,-0.0088963,0.0185025,-0.0081789,0.0740297,-0.1290431,0.0396346,-
 0.0206134,0.0395483,0.0666237,0.0084695,-0.0206752,0.008188,-0.0666142
 ,0.1313342,-0.0019475,0.037804,-0.001937,0.0319895,-0.0693951,0.037809
 4,-0.0693492,-0.0342585,-0.1187207,0.0358627,-0.0581876,0.0359373,-0.0
 331503,-0.0476896,-0.0581296,-0.0474461,0.0235172,0.1313653,-0.001962,
 0.0377924,-0.0019505,0.0320548,-0.0693235,0.0378008,-0.069297,-0.03415
 61,0.1293875,-0.0412023,0.0183628,-0.0410073,-0.0744945,-0.0088882,0.0
 184978,-0.008221,0.0740469,0.1179054,-0.0368609,0.0605578,-0.0370615,0
 .0377224,0.0546304,0.0604171,0.0539426,-0.0268142,0.11794,-0.036849,0.
 0605283,-0.0370563,0.0377505,0.0546143,0.0603836,0.0538928,-0.0267133\
 Polar=44.2916973,6.4532728,75.183145,-9.4056336,1.8827457,73.7401838\Q
 uadrupole=-3.6189205,1.9403642,1.6785564,1.1611537,-1.6919095,0.339158
 2\PG=C01 [X(C6H6)]\NImag=0\\0.20786686,0.10798430,0.67307679,-0.160567
 65,-0.00333589,0.68669232,-0.07730646,-0.00677915,0.03603425,0.2018744
 3,0.01432519,-0.18476644,-0.13094667,0.11019068,0.73233452,0.05051768,
 -0.05870031,-0.27864729,-0.13844434,0.02975014,0.63368173,-0.08044621,
 -0.04051749,0.02350177,0.01583701,0.00088448,-0.02454495,0.20063570,-0
 .06161683,-0.33404600,0.02659746,0.01706258,-0.02710487,-0.08283706,0.
 08974832,0.67692225,0.00902163,-0.04562978,-0.12765653,-0.01344235,-0.
 02745638,0.03566330,-0.14886255,0.06182705,0.69118586,0.00566279,0.020
 77103,0.02390748,-0.09645629,-0.05583621,0.06774530,-0.01503674,-0.019
 31344,0.00938636,0.20063497,0.00459659,0.07267522,0.02831986,-0.034733
 24,-0.17743125,0.04206032,-0.01931295,-0.05920745,0.03126053,0.0897140
 6,0.67671099,0.01280752,-0.02704964,-0.05392337,0.08222740,0.11429989,
 -0.26850425,0.00938632,0.03126126,-0.01910105,-0.14897509,0.06181761,0
 .69151455,0.00456870,0.00494006,0.00035904,-0.05083027,-0.05619738,0.0
 0388222,0.00658383,-0.00048013,0.00258611,0.00198242,-0.01032320,-0.00
 125116,0.04062461,-0.00367051,-0.01092810,0.00253793,-0.05619727,-0.33
 275493,-0.00960466,-0.00030975,0.00075498,-0.00352422,-0.00171250,-0.0
 0972795,-0.00334330,0.06199192,0.35124765,-0.00555029,-0.02694012,0.00
 419509,0.00388280,-0.00960097,-0.05831048,0.00270328,-0.00294078,-0.00
 383673,0.00465767,0.02613130,0.00567502,-0.00654856,0.01079444,0.05610
 895,0.00377383,-0.03003898,-0.00455832,-0.01393086,0.00172912,0.019844
 74,-0.09643940,-0.03469748,0.08214121,0.01583242,0.01706092,-0.0134408
 8,-0.00076050,0.00029383,0.00018767,0.20182009,-0.01385831,-0.02159055
 ,0.02681480,0.00172961,-0.00194489,-0.00143590,-0.05580112,-0.17741040
 ,0.11421491,0.00088493,-0.02709319,-0.02744600,0.00029626,0.00075977,0
 .00003227,0.11015111,0.73254379,0.00654618,0.08220441,0.04247109,0.019
 84539,-0.00143420,-0.07739956,0.06765833,0.04197233,-0.26830039,-0.024
 54257,-0.08282036,0.03566219,0.00018936,0.00004023,-0.00138485,-0.1383
 8411,0.03003558,0.63365146,0.00460667,-0.00326863,-0.00535485,0.006476
 82,-0.00254193,0.00159912,-0.04658151,0.01734477,0.04046582,-0.0007906
 8,-0.00029038,-0.00010121,0.00012642,-0.00019809,-0.00025507,0.0024257
 1,0.00612347,0.00856643,0.03604346,0.00532955,-0.00983099,-0.02752892,
 -0.00270749,-0.00530461,0.00051280,0.01734591,-0.13276771,-0.12425247,
 -0.00029040,-0.00083087,0.00094684,0.00025183,-0.00063892,-0.00136351,
 -0.00247527,0.01157457,0.01387724,-0.01699210,0.13645412,0.00054593,0.
 00190369,0.00313536,0.00148522,-0.00005440,0.00233203,0.04046661,-0.12
 424728,-0.26203257,-0.00010112,0.00094729,0.00023418,0.00005373,0.0001
 7671,0.00002897,0.00266525,-0.01555886,-0.01610098,-0.04585667,0.13393
 269,0.27494736,-0.00776509,-0.00051806,-0.00278570,0.00377501,-0.01386
 504,0.00654870,0.00566407,0.00459638,0.01281352,-0.08044751,-0.0615557
 1,0.00901562,0.00598291,-0.00204111,0.00359616,-0.07729356,0.01434533,
 0.05054797,0.00596260,-0.00235463,0.00347762,0.20786727,-0.00051898,-0
 .06239006,-0.03522546,-0.03004686,-0.02160453,0.08221974,0.02077290,0.
 07268557,-0.02705165,-0.04045505,-0.33380158,-0.04565713,-0.00187690,0
 .00100077,0.00200399,-0.00675921,-0.18486774,-0.05884595,-0.00252014,-
 0.00028391,0.00331933,0.10789611,0.67289933,-0.00278625,-0.03522658,-0
 .02311287,-0.00455717,0.02682379,0.04247521,0.02391539,0.02832412,-0.0
 5394355,0.02349675,0.02657531,-0.12766887,0.00370901,0.00256632,-0.003
 49222,0.03606412,-0.13109176,-0.27882296,0.00336390,0.00275261,-0.0021
 7633,-0.16060782,-0.00317229,0.68693304,0.00596541,-0.00252054,0.00336
 388,0.00242458,0.00612407,0.00856563,-0.00079046,-0.00029060,-0.000100
 98,-0.04656026,0.01735781,0.04049976,-0.00358963,0.00077257,-0.0013940
 2,0.00647303,-0.00254112,0.00159805,-0.00109211,0.00026223,-0.00032959
 ,0.00460181,-0.00326734,-0.00535592,0.03602870,-0.00235501,-0.00028391
 ,0.00275169,-0.00247526,0.01157617,0.01387896,-0.00029053,-0.00083062,
 0.00094725,0.01735946,-0.13277719,-0.12432315,0.00101025,0.00048962,-0
 .00027300,-0.00270665,-0.00530399,0.00051333,0.00026221,0.00002817,-0.
 00002663,0.00533050,-0.00982753,-0.02752548,-0.01700718,0.13645720,0.0
 0347748,0.00331806,-0.00217329,0.00266403,-0.01555739,-0.01609709,-0.0
 0010095,0.00094726,0.00023398,0.04050109,-0.12431793,-0.26216506,-0.00
 123096,0.00054042,0.00043287,0.00148459,-0.00005329,0.00233087,-0.0003
 2963,-0.00002669,-0.00013095,0.00054445,0.00190690,0.00313706,-0.04588
 758,0.13399849,0.27507168,0.00597943,-0.00187609,0.00370749,-0.0007601
 7,0.00029622,0.00018941,0.00197875,-0.01032186,-0.00125247,0.00658616,
 -0.00048088,0.00258717,-0.00109320,0.00020301,-0.00035779,-0.05080412,
 -0.05622034,0.00387569,-0.00358723,0.00100966,-0.00123020,0.00456669,0
 .00494184,0.00035821,0.00012683,0.00025179,0.00005377,0.04060481,-0.00
 204017,0.00100009,0.00256563,0.00029373,0.00075984,0.00004049,-0.00171
 120,-0.00972741,-0.00334469,-0.00031050,0.00075708,-0.00352207,0.00020
 298,-0.00012990,0.00006586,-0.05622068,-0.33291434,-0.00965436,0.00077
 217,0.00048993,0.00054014,-0.00366864,-0.01091962,0.00253907,-0.000198
 05,-0.00063832,0.00017675,0.06201188,0.35139569,0.00359488,0.00200376,
 -0.00349261,0.00018771,0.00003181,-0.00138497,0.00465675,0.02613205,0.
 00567450,0.00270399,-0.00293908,-0.00383508,-0.00035780,0.00006577,0.0
 0003158,0.00387545,-0.00965534,-0.05829455,-0.00139314,-0.00027275,0.0
 0043296,-0.00555090,-0.02693694,0.00419681,-0.00025495,-0.00136319,0.0
 0002929,-0.00653931,0.01084281,0.05609004,-0.00058939,0.00023165,-0.00
 043996,0.00662914,-0.00227665,0.00121243,0.00672724,-0.00036092,0.0021
 9111,0.00186976,-0.00167280,0.00505489,-0.00000045,-0.00006865,0.00026
 049,0.00227212,-0.00283359,0.00288632,0.00002041,-0.00015951,0.0001337
 6,-0.07232526,-0.04839771,0.08283972,-0.00360854,0.00077990,-0.0013100
 1,-0.00359775,0.00093711,-0.00118313,0.06371271,0.00023400,-0.00091719
 ,-0.00090589,-0.00211299,-0.00536481,-0.00155400,-0.00053136,-0.000613
 28,-0.00370756,-0.01028047,-0.00865975,0.02672218,-0.00051858,-0.00057
 841,0.00131678,0.00577575,0.01160826,-0.01433294,0.00029034,0.00039923
 ,-0.00078276,-0.04839891,-0.12197355,0.10834040,0.00101789,0.00071113,
 -0.00015010,0.00070316,0.00050499,0.00077466,0.05361206,0.12484744,-0.
 00043833,-0.00089721,0.00012045,0.00132494,-0.00099380,0.00222221,0.00
 207397,-0.00429153,-0.00260499,-0.00085235,-0.00274410,0.00471641,-0.0
 0004826,-0.00022329,0.00010137,0.00879498,0.01513822,-0.01603465,0.000
 44245,0.00075722,-0.00090360,0.08283865,0.10833692,-0.24764598,-0.0011
 4667,0.00066462,0.00023375,-0.00134375,-0.00002635,0.00045052,-0.09135
 003,-0.11587939,0.25946196,-0.07231654,-0.04840809,0.08283255,0.002267
 07,-0.00283255,0.00288405,0.00186770,-0.00167077,0.00505260,0.00672295
 ,-0.00036023,0.00218965,-0.00359484,0.00093654,-0.00118233,0.00663123,
 -0.00227622,0.00121297,-0.00361057,0.00078022,-0.00131054,-0.00058892,
 0.00023134,-0.00043994,0.00002064,-0.00015949,0.00013372,-0.00000020,-
 0.00006863,0.00026046,-0.00110999,0.00020911,-0.00029560,0.06371145,-0
 .04840980,-0.12199886,0.10835545,0.00577567,0.01160579,-0.01433051,-0.
 01027720,-0.00865506,0.02671702,-0.00053092,-0.00061408,-0.00370650,0.
 00070290,0.00050542,0.00077375,-0.00211245,-0.00536129,-0.00155531,0.0
 0101830,0.00071097,-0.00014991,0.00023377,-0.00091716,-0.00090551,0.00
 029026,0.00039927,-0.00078248,-0.00051839,-0.00057804,0.00131642,0.000
 20910,0.00003594,0.00015871,0.05361878,0.12486710,0.08283123,0.1083496
 1,-0.24760836,0.00879212,0.01513818,-0.01603085,-0.00085396,-0.0027448
 7,0.00471816,0.00207248,-0.00429075,-0.00260467,-0.00134272,-0.0000263
 6,0.00045043,0.00132530,-0.00099464,0.00222231,-0.00114715,0.00066494,
 0.00023357,-0.00043829,-0.00089744,0.00012067,0.00044241,0.00075712,-0
 .00090312,-0.00004823,-0.00022329,0.00010152,-0.00029560,0.00015863,-0
 .00011746,-0.09133759,-0.11589113,0.25941781\\-0.00004284,0.00001543,0
 .00015948,0.00004286,0.00001004,-0.00015051,0.00000246,-0.00003589,-0.
 00002827,-0.00000586,-0.00009720,-0.00004099,-0.00000373,-0.00001441,0
 .00000572,0.00000730,0.00011149,0.00005049,0.00000333,0.00001858,0.000
 00015,0.00001811,0.00002817,-0.00004493,-0.00000840,0.00000567,0.00003
 268,-0.00000784,-0.00002551,0.00000846,-0.00000166,-0.00000004,0.00000
 634,-0.00000372,-0.00001633,0.00000138\\\@


 Statistics are no substitute for judgment.
                            -- Henry Clay
 Job cpu time:       0 days  0 hours 13 minutes 17.7 seconds.
 Elapsed time:       0 days  0 hours  0 minutes 34.0 seconds.
 File lengths (MBytes):  RWF=     38 Int=      0 D2E=      0 Chk=      4 Scr=      1
 Normal termination of Gaussian 16 at Thu Dec 26 15:50:28 2019.
real 55.00
user 1123.09
sys 7.44
Machine:
brown-a509
brown-a509
brown-a509
brown-a509
brown-a509
brown-a509
brown-a509
brown-a509
brown-a509
brown-a509
brown-a509
brown-a509
brown-a509
brown-a509
brown-a509
brown-a509
brown-a509
brown-a509
brown-a509
brown-a509
brown-a509
brown-a509
brown-a509
brown-a509
