Title Card Required                                                     
Freq      RM062X                                                      6-311++G(d,p)       
Number of atoms                            I               12
Info1-9                                    I   N=           9
          34          34        1002           0           0         100
           6          18        -502
Full Title                                 C   N=           2
Title Card Required     
Route                                      C   N=           6
#p opt freq m062x/6-311++g(d,p) geom=connectivity temperatur
e=0.001     
Charge                                     I                0
Multiplicity                               I                1
Number of electrons                        I               42
Number of alpha electrons                  I               21
Number of beta electrons                   I               21
Number of basis functions                  I              174
Number of independent functions            I              174
Number of point charges in /Mol/           I                0
Number of translation vectors              I                0
Atomic numbers                             I   N=          12
           6           6           6           6           1           6
           1           6           1           1           1           1
Nuclear charges                            R   N=          12
  6.00000000E+00  6.00000000E+00  6.00000000E+00  6.00000000E+00  1.00000000E+00
  6.00000000E+00  1.00000000E+00  6.00000000E+00  1.00000000E+00  1.00000000E+00
  1.00000000E+00  1.00000000E+00
Current cartesian coordinates              R   N=          36
 -2.53739150E+00  6.92359719E-01 -2.02465239E-06 -6.68820296E-01  2.54331392E+00
  1.74648703E-05 -1.86813504E+00 -1.85093967E+00 -1.11733768E-05  1.86819818E+00
  1.85114138E+00 -9.96435404E-06 -1.18977919E+00  4.52385203E+00 -2.23581888E-06
  6.68998966E-01 -2.54345986E+00  7.32238559E-06 -3.32260512E+00 -3.29262070E+00
 -8.18950277E-06  2.53719365E+00 -6.92428380E-01  1.45126886E-06  3.32269238E+00
  3.29260905E+00 -2.11908839E-05  1.18957678E+00 -4.52396068E+00  2.30483505E-05
  4.51281645E+00 -1.23146436E+00 -6.34604250E-06 -4.51296504E+00  1.23166194E+00
 -3.54295165E-06
Number of symbols in /Mol/                 I                0
Force Field                                I                0
Atom Types                                 C   N=          12
                                                            
                                                            
                        
Int Atom Types                             I   N=          12
           0           0           0           0           0           0
           0           0           0           0           0           0
MM charges                                 R   N=          12
  0.00000000E+00  0.00000000E+00  0.00000000E+00  0.00000000E+00  0.00000000E+00
  0.00000000E+00  0.00000000E+00  0.00000000E+00  0.00000000E+00  0.00000000E+00
  0.00000000E+00  0.00000000E+00
Integer atomic weights                     I   N=          12
          12          12          12          12           1          12
           1          12           1           1           1           1
Real atomic weights                        R   N=          12
  1.20000000E+01  1.20000000E+01  1.20000000E+01  1.20000000E+01  1.00782504E+00
  1.20000000E+01  1.00782504E+00  1.20000000E+01  1.00782504E+00  1.00782504E+00
  1.00782504E+00  1.00782504E+00
Atom fragment info                         I   N=          12
           0           0           0           0           0           0
           0           0           0           0           0           0
Atom residue num                           I   N=          12
           0           0           0           0           0           0
           0           0           0           0           0           0
Nuclear spins                              I   N=          12
           0           0           0           0           1           0
           1           0           1           1           1           1
Nuclear ZEff                               R   N=          12
 -3.60000000E+00 -3.60000000E+00 -3.60000000E+00 -3.60000000E+00 -1.00000000E+00
 -3.60000000E+00 -1.00000000E+00 -3.60000000E+00 -1.00000000E+00 -1.00000000E+00
 -1.00000000E+00 -1.00000000E+00
Nuclear ZNuc                               R   N=          12
  6.00000000E+00  6.00000000E+00  6.00000000E+00  6.00000000E+00  1.00000000E+00
  6.00000000E+00  1.00000000E+00  6.00000000E+00  1.00000000E+00  1.00000000E+00
  1.00000000E+00  1.00000000E+00
Nuclear QMom                               R   N=          12
  0.00000000E+00  0.00000000E+00  0.00000000E+00  0.00000000E+00  0.00000000E+00
  0.00000000E+00  0.00000000E+00  0.00000000E+00  0.00000000E+00  0.00000000E+00
  0.00000000E+00  0.00000000E+00
Nuclear GFac                               R   N=          12
  0.00000000E+00  0.00000000E+00  0.00000000E+00  0.00000000E+00  2.79284600E+00
  0.00000000E+00  2.79284600E+00  0.00000000E+00  2.79284600E+00  2.79284600E+00
  2.79284600E+00  2.79284600E+00
MicOpt                                     I   N=          12
          -1          -1          -1          -1          -1          -1
          -1          -1          -1          -1          -1          -1
Number of residues                         I                0
Number of secondary structures             I                0
Redundant internal dimensions              I   N=           4
          54          12          18          24
Redundant internal coordinate indices      I   N=         216
           1           2           0           0           1           3
           0           0           1          12           0           0
           2           4           0           0           2           5
           0           0           3           6           0           0
           3           7           0           0           4           8
           0           0           4           9           0           0
           6           8           0           0           6          10
           0           0           8          11           0           0
           2           1           3           0           2           1
          12           0           3           1          12           0
           1           2           4           0           1           2
           5           0           4           2           5           0
           1           3           6           0           1           3
           7           0           6           3           7           0
           2           4           8           0           2           4
           9           0           8           4           9           0
           3           6           8           0           3           6
          10           0           8           6          10           0
           4           8           6           0           4           8
          11           0           6           8          11           0
           3           1           2           4           3           1
           2           5          12           1           2           4
          12           1           2           5           2           1
           3           6           2           1           3           7
          12           1           3           6          12           1
           3           7           1           2           4           8
           1           2           4           9           5           2
           4           8           5           2           4           9
           1           3           6           8           1           3
           6          10           7           3           6           8
           7           3           6          10           2           4
           8           6           2           4           8          11
           9           4           8           6           9           4
           8          11           3           6           8           4
           3           6           8          11          10           6
           8           4          10           6           8          11
Redundant internal coordinates             R   N=          54
  2.63013114E+00  2.62988136E+00  2.04786173E+00  2.62974629E+00  2.04790854E+00
  2.62994927E+00  2.04790806E+00  2.63007644E+00  2.04777500E+00  2.62991804E+00
  2.04777557E+00  2.04783917E+00  2.09414653E+00  2.09443876E+00  2.09460001E+00
  2.09458396E+00  2.09424559E+00  2.09435575E+00  2.09457078E+00  2.09446701E+00
  2.09414753E+00  2.09433268E+00  2.09434578E+00  2.09450684E+00  2.09434637E+00
  2.09429638E+00  2.09454256E+00  2.09439029E+00  2.09434613E+00  2.09444889E+00
  1.65847715E-05  3.14157753E+00 -3.14157975E+00 -1.88064166E-05  3.58285399E-06
  3.14158241E+00 -3.14158539E+00 -6.55696810E-06 -2.56147840E-05  3.14157776E+00
 -3.14158656E+00  1.68203354E-05 -1.47169619E-05  3.14157977E+00  3.14159176E+00
  9.32722232E-07  1.44772201E-05 -3.14158501E+00 -3.14158890E+00 -3.07787443E-06
  5.68627218E-06 -3.14158014E+00 -3.14158880E+00  1.06866678E-05
ZRed-IntVec                                I   N=          54
           0           0           0           0           0           0
           0           0           0           0           0           0
           0           0           0           0           0           0
           0           0           0           0           0           0
           0           0           0           0           0           0
           0           0           0           0           0           0
           0           0           0           0           0           0
           0           0           0           0           0           0
           0           0           0           0           0           0
ZRed-FPVec                                 R   N=          54
  0.00000000E+00  0.00000000E+00  0.00000000E+00  0.00000000E+00  0.00000000E+00
  0.00000000E+00  0.00000000E+00  0.00000000E+00  0.00000000E+00  0.00000000E+00
  0.00000000E+00  0.00000000E+00  0.00000000E+00  0.00000000E+00  0.00000000E+00
  0.00000000E+00  0.00000000E+00  0.00000000E+00  0.00000000E+00  0.00000000E+00
  0.00000000E+00  0.00000000E+00  0.00000000E+00  0.00000000E+00  0.00000000E+00
  0.00000000E+00  0.00000000E+00  0.00000000E+00  0.00000000E+00  0.00000000E+00
  0.00000000E+00  0.00000000E+00  0.00000000E+00  0.00000000E+00  0.00000000E+00
  0.00000000E+00  0.00000000E+00  0.00000000E+00  0.00000000E+00  0.00000000E+00
  0.00000000E+00  0.00000000E+00  0.00000000E+00  0.00000000E+00  0.00000000E+00
  0.00000000E+00  0.00000000E+00  0.00000000E+00  0.00000000E+00  0.00000000E+00
  0.00000000E+00  0.00000000E+00  0.00000000E+00  0.00000000E+00
ZRed-Constraint1                           R   N=          54
  2.63013114E+00  2.62988136E+00  2.04786173E+00  2.62974629E+00  2.04790854E+00
  2.62994927E+00  2.04790806E+00  2.63007644E+00  2.04777500E+00  2.62991804E+00
  2.04777557E+00  2.04783917E+00  2.09414653E+00  2.09443876E+00  2.09460001E+00
  2.09458396E+00  2.09424559E+00  2.09435575E+00  2.09457078E+00  2.09446701E+00
  2.09414753E+00  2.09433268E+00  2.09434578E+00  2.09450684E+00  2.09434637E+00
  2.09429638E+00  2.09454256E+00  2.09439029E+00  2.09434613E+00  2.09444889E+00
  1.65847782E-05  3.14157753E+00 -3.14157975E+00 -1.88064225E-05  3.58291596E-06
  3.14158241E+00 -3.14158539E+00 -6.55691731E-06 -2.56147970E-05  3.14157776E+00
 -3.14158656E+00  1.68203420E-05 -1.47169619E-05  3.14157977E+00  3.14159176E+00
  9.32722232E-07  1.44772277E-05 -3.14158501E+00 -3.14158890E+00 -3.07787443E-06
  5.68625265E-06 -3.14158014E+00 -3.14158880E+00  1.06866678E-05
ZRed-Constraint2                           R   N=          54
  2.63697487E+00  2.63583741E+00  2.02200696E+00  2.63562383E+00  2.07809437E+00
  2.63642862E+00  2.07824705E+00  2.63647030E+00  2.07804735E+00  2.63584495E+00
  2.07795046E+00  2.07796233E+00  2.09429025E+00  2.09406596E+00  2.09482897E+00
  2.09429325E+00  2.09427360E+00  2.09461841E+00  2.09447721E+00  2.09459308E+00
  2.09411500E+00  2.09454576E+00  2.09457924E+00  2.09405948E+00  2.09439550E+00
  2.09425504E+00  2.09453467E+00  2.09436817E+00  2.09434664E+00  2.09447050E+00
  5.95410909E-04 -3.14132347E+00 -3.14153045E+00 -2.64030200E-04  2.28811476E-04
 -3.14158417E+00 -3.14083040E+00  5.41923290E-04 -9.92100537E-04 -3.14120378E+00
  3.14092685E+00  7.15169852E-04 -6.56389312E-04  3.14138489E+00  3.14115654E+00
  1.25060964E-05  5.64580751E-04 -3.14112012E+00  3.14077668E+00 -9.08026346E-04
  2.59774142E-04 -3.14124082E+00  3.14140373E+00 -9.68676995E-05
SymInf integers                            I   N=          26
           1           1           1           1           1           0
           0           0           0           0           0           0
           0           0           0           0           0           0
           0           0           0           0           0           0
           0           0
RotTr to input orientation                 R   N=          12
  3.14816115E-01  2.27670937E-01 -9.21442759E-01 -1.11433902E-01 -9.55226177E-01
 -2.74090196E-01 -9.42588616E-01  1.88967973E-01 -2.75350333E-01  1.60403091E+00
  2.75194993E+00 -3.07318319E+00
Number of contracted shells                I               66
Number of primitive shells                 I              120
Pure/Cartesian d shells                    I                0
Pure/Cartesian f shells                    I                0
Highest angular momentum                   I                2
Largest degree of contraction              I                6
Shell types                                I   N=          66
           0          -1          -1          -1          -1          -2
           0          -1          -1          -1          -1          -2
           0          -1          -1          -1          -1          -2
           0          -1          -1          -1          -1          -2
           0           0           0           0           1           0
          -1          -1          -1          -1          -2           0
           0           0           0           1           0          -1
          -1          -1          -1          -2           0           0
           0           0           1           0           0           0
           0           1           0           0           0           0
           1           0           0           0           0           1
Number of primitives per shell             I   N=          66
           6           3           1           1           1           1
           6           3           1           1           1           1
           6           3           1           1           1           1
           6           3           1           1           1           1
           3           1           1           1           1           6
           3           1           1           1           1           3
           1           1           1           1           6           3
           1           1           1           1           3           1
           1           1           1           3           1           1
           1           1           3           1           1           1
           1           3           1           1           1           1
Shell to atom map                          I   N=          66
           1           1           1           1           1           1
           2           2           2           2           2           2
           3           3           3           3           3           3
           4           4           4           4           4           4
           5           5           5           5           5           6
           6           6           6           6           6           7
           7           7           7           7           8           8
           8           8           8           8           9           9
           9           9           9          10          10          10
          10          10          11          11          11          11
          11          12          12          12          12          12
Primitive exponents                        R   N=         120
  4.56324000E+03  6.82024000E+02  1.54973000E+02  4.44553000E+01  1.30290000E+01
  1.82773000E+00  2.09642000E+01  4.80331000E+00  1.45933000E+00  4.83456000E-01
  1.45585000E-01  4.38000000E-02  6.26000000E-01  4.56324000E+03  6.82024000E+02
  1.54973000E+02  4.44553000E+01  1.30290000E+01  1.82773000E+00  2.09642000E+01
  4.80331000E+00  1.45933000E+00  4.83456000E-01  1.45585000E-01  4.38000000E-02
  6.26000000E-01  4.56324000E+03  6.82024000E+02  1.54973000E+02  4.44553000E+01
  1.30290000E+01  1.82773000E+00  2.09642000E+01  4.80331000E+00  1.45933000E+00
  4.83456000E-01  1.45585000E-01  4.38000000E-02  6.26000000E-01  4.56324000E+03
  6.82024000E+02  1.54973000E+02  4.44553000E+01  1.30290000E+01  1.82773000E+00
  2.09642000E+01  4.80331000E+00  1.45933000E+00  4.83456000E-01  1.45585000E-01
  4.38000000E-02  6.26000000E-01  3.38650000E+01  5.09479000E+00  1.15879000E+00
  3.25840000E-01  1.02741000E-01  3.60000000E-02  7.50000000E-01  4.56324000E+03
  6.82024000E+02  1.54973000E+02  4.44553000E+01  1.30290000E+01  1.82773000E+00
  2.09642000E+01  4.80331000E+00  1.45933000E+00  4.83456000E-01  1.45585000E-01
  4.38000000E-02  6.26000000E-01  3.38650000E+01  5.09479000E+00  1.15879000E+00
  3.25840000E-01  1.02741000E-01  3.60000000E-02  7.50000000E-01  4.56324000E+03
  6.82024000E+02  1.54973000E+02  4.44553000E+01  1.30290000E+01  1.82773000E+00
  2.09642000E+01  4.80331000E+00  1.45933000E+00  4.83456000E-01  1.45585000E-01
  4.38000000E-02  6.26000000E-01  3.38650000E+01  5.09479000E+00  1.15879000E+00
  3.25840000E-01  1.02741000E-01  3.60000000E-02  7.50000000E-01  3.38650000E+01
  5.09479000E+00  1.15879000E+00  3.25840000E-01  1.02741000E-01  3.60000000E-02
  7.50000000E-01  3.38650000E+01  5.09479000E+00  1.15879000E+00  3.25840000E-01
  1.02741000E-01  3.60000000E-02  7.50000000E-01  3.38650000E+01  5.09479000E+00
  1.15879000E+00  3.25840000E-01  1.02741000E-01  3.60000000E-02  7.50000000E-01
Contraction coefficients                   R   N=         120
  1.96665025E-03  1.52306019E-02  7.61269097E-02  2.60801033E-01  6.16462078E-01
  2.21006028E-01  1.14660081E-01  9.19999648E-01 -3.03068213E-03  1.00000000E+00
  1.00000000E+00  1.00000000E+00  1.00000000E+00  1.96665025E-03  1.52306019E-02
  7.61269097E-02  2.60801033E-01  6.16462078E-01  2.21006028E-01  1.14660081E-01
  9.19999648E-01 -3.03068213E-03  1.00000000E+00  1.00000000E+00  1.00000000E+00
  1.00000000E+00  1.96665025E-03  1.52306019E-02  7.61269097E-02  2.60801033E-01
  6.16462078E-01  2.21006028E-01  1.14660081E-01  9.19999648E-01 -3.03068213E-03
  1.00000000E+00  1.00000000E+00  1.00000000E+00  1.00000000E+00  1.96665025E-03
  1.52306019E-02  7.61269097E-02  2.60801033E-01  6.16462078E-01  2.21006028E-01
  1.14660081E-01  9.19999648E-01 -3.03068213E-03  1.00000000E+00  1.00000000E+00
  1.00000000E+00  1.00000000E+00  2.54938145E-02  1.90373109E-01  8.52161486E-01
  1.00000000E+00  1.00000000E+00  1.00000000E+00  1.00000000E+00  1.96665025E-03
  1.52306019E-02  7.61269097E-02  2.60801033E-01  6.16462078E-01  2.21006028E-01
  1.14660081E-01  9.19999648E-01 -3.03068213E-03  1.00000000E+00  1.00000000E+00
  1.00000000E+00  1.00000000E+00  2.54938145E-02  1.90373109E-01  8.52161486E-01
  1.00000000E+00  1.00000000E+00  1.00000000E+00  1.00000000E+00  1.96665025E-03
  1.52306019E-02  7.61269097E-02  2.60801033E-01  6.16462078E-01  2.21006028E-01
  1.14660081E-01  9.19999648E-01 -3.03068213E-03  1.00000000E+00  1.00000000E+00
  1.00000000E+00  1.00000000E+00  2.54938145E-02  1.90373109E-01  8.52161486E-01
  1.00000000E+00  1.00000000E+00  1.00000000E+00  1.00000000E+00  2.54938145E-02
  1.90373109E-01  8.52161486E-01  1.00000000E+00  1.00000000E+00  1.00000000E+00
  1.00000000E+00  2.54938145E-02  1.90373109E-01  8.52161486E-01  1.00000000E+00
  1.00000000E+00  1.00000000E+00  1.00000000E+00  2.54938145E-02  1.90373109E-01
  8.52161486E-01  1.00000000E+00  1.00000000E+00  1.00000000E+00  1.00000000E+00
P(S=P) Contraction coefficients            R   N=         120
  0.00000000E+00  0.00000000E+00  0.00000000E+00  0.00000000E+00  0.00000000E+00
  0.00000000E+00  4.02486927E-02  2.37593957E-01  8.15853851E-01  1.00000000E+00
  1.00000000E+00  1.00000000E+00  0.00000000E+00  0.00000000E+00  0.00000000E+00
  0.00000000E+00  0.00000000E+00  0.00000000E+00  0.00000000E+00  4.02486927E-02
  2.37593957E-01  8.15853851E-01  1.00000000E+00  1.00000000E+00  1.00000000E+00
  0.00000000E+00  0.00000000E+00  0.00000000E+00  0.00000000E+00  0.00000000E+00
  0.00000000E+00  0.00000000E+00  4.02486927E-02  2.37593957E-01  8.15853851E-01
  1.00000000E+00  1.00000000E+00  1.00000000E+00  0.00000000E+00  0.00000000E+00
  0.00000000E+00  0.00000000E+00  0.00000000E+00  0.00000000E+00  0.00000000E+00
  4.02486927E-02  2.37593957E-01  8.15853851E-01  1.00000000E+00  1.00000000E+00
  1.00000000E+00  0.00000000E+00  0.00000000E+00  0.00000000E+00  0.00000000E+00
  0.00000000E+00  0.00000000E+00  0.00000000E+00  0.00000000E+00  0.00000000E+00
  0.00000000E+00  0.00000000E+00  0.00000000E+00  0.00000000E+00  0.00000000E+00
  4.02486927E-02  2.37593957E-01  8.15853851E-01  1.00000000E+00  1.00000000E+00
  1.00000000E+00  0.00000000E+00  0.00000000E+00  0.00000000E+00  0.00000000E+00
  0.00000000E+00  0.00000000E+00  0.00000000E+00  0.00000000E+00  0.00000000E+00
  0.00000000E+00  0.00000000E+00  0.00000000E+00  0.00000000E+00  0.00000000E+00
  4.02486927E-02  2.37593957E-01  8.15853851E-01  1.00000000E+00  1.00000000E+00
  1.00000000E+00  0.00000000E+00  0.00000000E+00  0.00000000E+00  0.00000000E+00
  0.00000000E+00  0.00000000E+00  0.00000000E+00  0.00000000E+00  0.00000000E+00
  0.00000000E+00  0.00000000E+00  0.00000000E+00  0.00000000E+00  0.00000000E+00
  0.00000000E+00  0.00000000E+00  0.00000000E+00  0.00000000E+00  0.00000000E+00
  0.00000000E+00  0.00000000E+00  0.00000000E+00  0.00000000E+00  0.00000000E+00
  0.00000000E+00  0.00000000E+00  0.00000000E+00  0.00000000E+00  0.00000000E+00
Coordinates of each shell                  R   N=         198
 -2.53739150E+00  6.92359719E-01 -2.02465239E-06 -2.53739150E+00  6.92359719E-01
 -2.02465239E-06 -2.53739150E+00  6.92359719E-01 -2.02465239E-06 -2.53739150E+00
  6.92359719E-01 -2.02465239E-06 -2.53739150E+00  6.92359719E-01 -2.02465239E-06
 -2.53739150E+00  6.92359719E-01 -2.02465239E-06 -6.68820296E-01  2.54331392E+00
  1.74648703E-05 -6.68820296E-01  2.54331392E+00  1.74648703E-05 -6.68820296E-01
  2.54331392E+00  1.74648703E-05 -6.68820296E-01  2.54331392E+00  1.74648703E-05
 -6.68820296E-01  2.54331392E+00  1.74648703E-05 -6.68820296E-01  2.54331392E+00
  1.74648703E-05 -1.86813504E+00 -1.85093967E+00 -1.11733768E-05 -1.86813504E+00
 -1.85093967E+00 -1.11733768E-05 -1.86813504E+00 -1.85093967E+00 -1.11733768E-05
 -1.86813504E+00 -1.85093967E+00 -1.11733768E-05 -1.86813504E+00 -1.85093967E+00
 -1.11733768E-05 -1.86813504E+00 -1.85093967E+00 -1.11733768E-05  1.86819818E+00
  1.85114138E+00 -9.96435404E-06  1.86819818E+00  1.85114138E+00 -9.96435404E-06
  1.86819818E+00  1.85114138E+00 -9.96435404E-06  1.86819818E+00  1.85114138E+00
 -9.96435404E-06  1.86819818E+00  1.85114138E+00 -9.96435404E-06  1.86819818E+00
  1.85114138E+00 -9.96435404E-06 -1.18977919E+00  4.52385203E+00 -2.23581888E-06
 -1.18977919E+00  4.52385203E+00 -2.23581888E-06 -1.18977919E+00  4.52385203E+00
 -2.23581888E-06 -1.18977919E+00  4.52385203E+00 -2.23581888E-06 -1.18977919E+00
  4.52385203E+00 -2.23581888E-06  6.68998966E-01 -2.54345986E+00  7.32238559E-06
  6.68998966E-01 -2.54345986E+00  7.32238559E-06  6.68998966E-01 -2.54345986E+00
  7.32238559E-06  6.68998966E-01 -2.54345986E+00  7.32238559E-06  6.68998966E-01
 -2.54345986E+00  7.32238559E-06  6.68998966E-01 -2.54345986E+00  7.32238559E-06
 -3.32260512E+00 -3.29262070E+00 -8.18950277E-06 -3.32260512E+00 -3.29262070E+00
 -8.18950277E-06 -3.32260512E+00 -3.29262070E+00 -8.18950277E-06 -3.32260512E+00
 -3.29262070E+00 -8.18950277E-06 -3.32260512E+00 -3.29262070E+00 -8.18950277E-06
  2.53719365E+00 -6.92428380E-01  1.45126886E-06  2.53719365E+00 -6.92428380E-01
  1.45126886E-06  2.53719365E+00 -6.92428380E-01  1.45126886E-06  2.53719365E+00
 -6.92428380E-01  1.45126886E-06  2.53719365E+00 -6.92428380E-01  1.45126886E-06
  2.53719365E+00 -6.92428380E-01  1.45126886E-06  3.32269238E+00  3.29260905E+00
 -2.11908839E-05  3.32269238E+00  3.29260905E+00 -2.11908839E-05  3.32269238E+00
  3.29260905E+00 -2.11908839E-05  3.32269238E+00  3.29260905E+00 -2.11908839E-05
  3.32269238E+00  3.29260905E+00 -2.11908839E-05  1.18957678E+00 -4.52396068E+00
  2.30483505E-05  1.18957678E+00 -4.52396068E+00  2.30483505E-05  1.18957678E+00
 -4.52396068E+00  2.30483505E-05  1.18957678E+00 -4.52396068E+00  2.30483505E-05
  1.18957678E+00 -4.52396068E+00  2.30483505E-05  4.51281645E+00 -1.23146436E+00
 -6.34604250E-06  4.51281645E+00 -1.23146436E+00 -6.34604250E-06  4.51281645E+00
 -1.23146436E+00 -6.34604250E-06  4.51281645E+00 -1.23146436E+00 -6.34604250E-06
  4.51281645E+00 -1.23146436E+00 -6.34604250E-06 -4.51296504E+00  1.23166194E+00
 -3.54295165E-06 -4.51296504E+00  1.23166194E+00 -3.54295165E-06 -4.51296504E+00
  1.23166194E+00 -3.54295165E-06 -4.51296504E+00  1.23166194E+00 -3.54295165E-06
 -4.51296504E+00  1.23166194E+00 -3.54295165E-06
Num ILSW                                   I              100
ILSW                                       I   N=         100
           0           0           0           0           2           0
           0           0           0           0        4336          -1
           5           0           0           0           2           0
           0           0           0           0           1           0
           1           0           0           0           0           0
           0           0      100000           0          -1           0
           0           0           0           0           0           0
           0           0           0           1           0           0
           0 -2000000000           1           0           0           0
           0           0           4          52           0           0
           0           0          55           0           0           0
           0           0           0          12           0           1
           0           0           0           0           0           0
           0           0           0           0           0           0
           0           0           0           0           0           0
           0           0           0           0           0           0
           0           0           0           0
Num RLSW                                   I               52
RLSW                                       R   N=          52
  1.00000000E+00  1.00000000E+00  1.00000000E+00  1.00000000E+00  5.40000000E-01
  0.00000000E+00  0.00000000E+00  1.00000000E+00  0.00000000E+00  0.00000000E+00
  0.00000000E+00  0.00000000E+00  1.00000000E+00  0.00000000E+00  0.00000000E+00
  0.00000000E+00  0.00000000E+00  1.00000000E+00  0.00000000E+00  0.00000000E+00
  0.00000000E+00  0.00000000E+00  1.00000000E+00  0.00000000E+00  0.00000000E+00
  0.00000000E+00  0.00000000E+00  1.00000000E+00  0.00000000E+00  0.00000000E+00
  0.00000000E+00  0.00000000E+00  1.00000000E+00  0.00000000E+00  0.00000000E+00
  0.00000000E+00  0.00000000E+00  0.00000000E+00  1.00000000E+00  1.00000000E+00
  0.00000000E+00  1.00000000E+00  0.00000000E+00  0.00000000E+00  0.00000000E+00
  0.00000000E+00  0.00000000E+00  0.00000000E+00  0.00000000E+00  0.00000000E+00
  0.00000000E+00  0.00000000E+00
MxBond                                     I                3
NBond                                      I   N=          12
           3           3           3           3           1           3
           1           3           1           1           1           1
IBond                                      I   N=          36
           2           3          12           1           4           5
           1           6           7           2           8           9
           2           0           0           3           8          10
           3           0           0           4           6          11
           4           0           0           6           0           0
           8           0           0           1           0           0
RBond                                      R   N=          36
  1.50000000E+00  1.50000000E+00  1.00000000E+00  1.50000000E+00  1.50000000E+00
  1.00000000E+00  1.50000000E+00  1.50000000E+00  1.00000000E+00  1.50000000E+00
  1.50000000E+00  1.00000000E+00  1.00000000E+00  0.00000000E+00  0.00000000E+00
  1.50000000E+00  1.50000000E+00  1.00000000E+00  1.00000000E+00  0.00000000E+00
  0.00000000E+00  1.50000000E+00  1.50000000E+00  1.00000000E+00  1.00000000E+00
  0.00000000E+00  0.00000000E+00  1.00000000E+00  0.00000000E+00  0.00000000E+00
  1.00000000E+00  0.00000000E+00  0.00000000E+00  1.00000000E+00  0.00000000E+00
  0.00000000E+00
Virial Ratio                               R      2.004255465740275E+00
SCF Energy                                 R     -2.321984184963953E+02
Total Energy                               R     -2.321984184963953E+02
RMS Force                                  R      4.899422986631999E-05
RMS Density                                R      4.987035633014165E-09
NImag                                      I                0
Job Status                                 I                1
Nuclear derivative order                   I                2