Title Card Required                                                     
Freq      RM062X                                                      6-311++G(d,p)       
Number of atoms                            I               13
Info1-9                                    I   N=           9
          36          36        1002           0           0         100
           6          18        -502
Full Title                                 C   N=           2
Title Card Required     
Route                                      C   N=           6
#p opt freq m062x/6-311++g(d,p) geom=connectivity temperatur
e=0.001     
Charge                                     I                1
Multiplicity                               I                1
Number of electrons                        I               42
Number of alpha electrons                  I               21
Number of beta electrons                   I               21
Number of basis functions                  I              181
Number of independent functions            I              181
Number of point charges in /Mol/           I                0
Number of translation vectors              I                0
Atomic numbers                             I   N=          13
           6           6           6           1           6           6
           1           1           1           1           6           1
           1
Nuclear charges                            R   N=          13
  6.00000000E+00  6.00000000E+00  6.00000000E+00  1.00000000E+00  6.00000000E+00
  6.00000000E+00  1.00000000E+00  1.00000000E+00  1.00000000E+00  1.00000000E+00
  6.00000000E+00  1.00000000E+00  1.00000000E+00
Current cartesian coordinates              R   N=          39
 -2.36270934E+00  1.18267398E+00 -7.67038963E-05 -2.34124251E+00 -1.39669303E+00
  1.16221110E-06  1.60935477E-03 -2.66007350E+00 -2.50656403E-05 -4.07988712E+00
 -2.47373414E+00  5.86897124E-05  2.36128901E+00  1.18548070E+00 -7.62829089E-05
  2.34287959E+00 -1.39385137E+00  1.23082989E-06  2.88734821E-03 -4.71292846E+00
  1.73269715E-04  4.12815237E+00  2.22655390E+00 -1.29941158E-04  4.08283449E+00
 -2.46877360E+00  5.69043946E-05 -4.13072495E+00  2.22172997E+00 -1.31305408E-04
 -1.57143997E-03  2.62816447E+00  2.29260421E-05 -2.39640383E-03  3.96600673E+00
  1.60757018E+00 -2.39369030E-03  3.96693800E+00 -1.60668139E+00
Number of symbols in /Mol/                 I                0
Force Field                                I                0
Atom Types                                 C   N=          13
                                                            
                                                            
                                    
Int Atom Types                             I   N=          13
           0           0           0           0           0           0
           0           0           0           0           0           0
           0
MM charges                                 R   N=          13
  0.00000000E+00  0.00000000E+00  0.00000000E+00  0.00000000E+00  0.00000000E+00
  0.00000000E+00  0.00000000E+00  0.00000000E+00  0.00000000E+00  0.00000000E+00
  0.00000000E+00  0.00000000E+00  0.00000000E+00
Integer atomic weights                     I   N=          13
          12          12          12           1          12          12
           1           1           1           1          12           1
           1
Real atomic weights                        R   N=          13
  1.20000000E+01  1.20000000E+01  1.20000000E+01  1.00782504E+00  1.20000000E+01
  1.20000000E+01  1.00782504E+00  1.00782504E+00  1.00782504E+00  1.00782504E+00
  1.20000000E+01  1.00782504E+00  1.00782504E+00
Atom fragment info                         I   N=          13
           0           0           0           0           0           0
           0           0           0           0           0           0
           0
Atom residue num                           I   N=          13
           0           0           0           0           0           0
           0           0           0           0           0           0
           0
Nuclear spins                              I   N=          13
           0           0           0           1           0           0
           1           1           1           1           0           1
           1
Nuclear ZEff                               R   N=          13
 -3.60000000E+00 -3.60000000E+00 -3.60000000E+00 -1.00000000E+00 -3.60000000E+00
 -3.60000000E+00 -1.00000000E+00 -1.00000000E+00 -1.00000000E+00 -1.00000000E+00
 -3.60000000E+00 -1.00000000E+00 -1.00000000E+00
Nuclear ZNuc                               R   N=          13
  6.00000000E+00  6.00000000E+00  6.00000000E+00  1.00000000E+00  6.00000000E+00
  6.00000000E+00  1.00000000E+00  1.00000000E+00  1.00000000E+00  1.00000000E+00
  6.00000000E+00  1.00000000E+00  1.00000000E+00
Nuclear QMom                               R   N=          13
  0.00000000E+00  0.00000000E+00  0.00000000E+00  0.00000000E+00  0.00000000E+00
  0.00000000E+00  0.00000000E+00  0.00000000E+00  0.00000000E+00  0.00000000E+00
  0.00000000E+00  0.00000000E+00  0.00000000E+00
Nuclear GFac                               R   N=          13
  0.00000000E+00  0.00000000E+00  0.00000000E+00  2.79284600E+00  0.00000000E+00
  0.00000000E+00  2.79284600E+00  2.79284600E+00  2.79284600E+00  2.79284600E+00
  0.00000000E+00  2.79284600E+00  2.79284600E+00
MicOpt                                     I   N=          13
          -1          -1          -1          -1          -1          -1
          -1          -1          -1          -1          -1          -1
          -1
Number of residues                         I                0
Number of secondary structures             I                0
Redundant internal dimensions              I   N=           4
          62          13          21          28
Redundant internal coordinate indices      I   N=         248
           1           2           0           0           1          10
           0           0           1          11           0           0
           2           3           0           0           2           4
           0           0           3           6           0           0
           3           7           0           0           5           6
           0           0           5           8           0           0
           5          11           0           0           6           9
           0           0          11          12           0           0
          11          13           0           0           2           1
          10           0           2           1          11           0
          10           1          11           0           1           2
           3           0           1           2           4           0
           3           2           4           0           2           3
           6           0           2           3           7           0
           6           3           7           0           6           5
           8           0           6           5          11           0
           8           5          11           0           3           6
           5           0           3           6           9           0
           5           6           9           0           1          11
           5           0           1          11          12           0
           1          11          13           0           5          11
          12           0           5          11          13           0
          12          11          13           0          10           1
           2           3          10           1           2           4
          11           1           2           3          11           1
           2           4           2           1          11           5
           2           1          11          12           2           1
          11          13          10           1          11           5
          10           1          11          12          10           1
          11          13           1           2           3           6
           1           2           3           7           4           2
           3           6           4           2           3           7
           2           3           6           5           2           3
           6           9           7           3           6           5
           7           3           6           9           8           5
           6           3           8           5           6           9
          11           5           6           3          11           5
           6           9           6           5          11           1
           6           5          11          12           6           5
          11          13           8           5          11           1
           8           5          11          12           8           5
          11          13
Redundant internal coordinates             R   N=          62
  2.57945634E+00  2.05073561E+00  2.76846798E+00  2.66178232E+00  2.04521457E+00
  2.66174093E+00  2.05285537E+00  2.57939777E+00  2.05076559E+00  2.76847358E+00
  2.04521414E+00  2.09141836E+00  2.09136654E+00  2.11044209E+00  2.11181640E+00
  2.06092682E+00  2.07367026E+00  2.11708802E+00  2.09242702E+00  2.15126772E+00
  2.06597048E+00  2.06594710E+00  2.11038964E+00  2.11181205E+00  2.06098362E+00
  2.07370681E+00  2.09242342E+00  2.11705508E+00  2.04409737E+00  1.91100739E+00
  1.91120530E+00  1.91103260E+00  1.91122793E+00  1.75282381E+00  3.14155185E+00
 -2.75201695E-05 -8.79699312E-05  3.14151797E+00  1.15529652E-04 -2.18818382E+00
  2.18885821E+00 -3.14152299E+00  9.53362973E-01 -9.52780301E-01  5.81489268E-05
  3.14151740E+00 -3.14154760E+00 -8.83453455E-05 -5.79952179E-05  3.14154867E+00
 -3.14151725E+00  8.94181039E-05 -3.14155235E+00  2.60886567E-05  8.76669836E-05
 -3.14151921E+00 -1.15372385E-04  2.18817141E+00 -2.18884678E+00  3.14152333E+00
 -9.53375189E-01  9.52791927E-01
ZRed-IntVec                                I   N=          62
           0           0           0           0           0           0
           0           0           0           0           0           0
           0           0           0           0           0           0
           0           0           0           0           0           0
           0           0           0           0           0           0
           0           0           0           0           0           0
           0           0           0           0           0           0
           0           0           0           0           0           0
           0           0           0           0           0           0
           0           0           0           0           0           0
           0           0
ZRed-FPVec                                 R   N=          62
  0.00000000E+00  0.00000000E+00  0.00000000E+00  0.00000000E+00  0.00000000E+00
  0.00000000E+00  0.00000000E+00  0.00000000E+00  0.00000000E+00  0.00000000E+00
  0.00000000E+00  0.00000000E+00  0.00000000E+00  0.00000000E+00  0.00000000E+00
  0.00000000E+00  0.00000000E+00  0.00000000E+00  0.00000000E+00  0.00000000E+00
  0.00000000E+00  0.00000000E+00  0.00000000E+00  0.00000000E+00  0.00000000E+00
  0.00000000E+00  0.00000000E+00  0.00000000E+00  0.00000000E+00  0.00000000E+00
  0.00000000E+00  0.00000000E+00  0.00000000E+00  0.00000000E+00  0.00000000E+00
  0.00000000E+00  0.00000000E+00  0.00000000E+00  0.00000000E+00  0.00000000E+00
  0.00000000E+00  0.00000000E+00  0.00000000E+00  0.00000000E+00  0.00000000E+00
  0.00000000E+00  0.00000000E+00  0.00000000E+00  0.00000000E+00  0.00000000E+00
  0.00000000E+00  0.00000000E+00  0.00000000E+00  0.00000000E+00  0.00000000E+00
  0.00000000E+00  0.00000000E+00  0.00000000E+00  0.00000000E+00  0.00000000E+00
  0.00000000E+00  0.00000000E+00
ZRed-Constraint1                           R   N=          62
  2.57945634E+00  2.05073561E+00  2.76846798E+00  2.66178232E+00  2.04521457E+00
  2.66174093E+00  2.05285537E+00  2.57939777E+00  2.05076559E+00  2.76847358E+00
  2.04521414E+00  2.09141836E+00  2.09136654E+00  2.11044209E+00  2.11181640E+00
  2.06092682E+00  2.07367026E+00  2.11708802E+00  2.09242702E+00  2.15126772E+00
  2.06597048E+00  2.06594710E+00  2.11038964E+00  2.11181205E+00  2.06098362E+00
  2.07370681E+00  2.09242342E+00  2.11705508E+00  2.04409737E+00  1.91100739E+00
  1.91120530E+00  1.91103260E+00  1.91122793E+00  1.75282381E+00  3.14155185E+00
 -2.75201736E-05 -8.79699299E-05  3.14151797E+00  1.15529651E-04 -2.18818382E+00
  2.18885821E+00 -3.14152299E+00  9.53362973E-01 -9.52780301E-01  5.81489268E-05
  3.14151740E+00 -3.14154760E+00 -8.83453455E-05 -5.79952179E-05  3.14154867E+00
 -3.14151725E+00  8.94181026E-05 -3.14155235E+00  2.60886609E-05  8.76669836E-05
 -3.14151921E+00 -1.15372385E-04  2.18817141E+00 -2.18884678E+00  3.14152333E+00
 -9.53375189E-01  9.52791927E-01
ZRed-Constraint2                           R   N=          62
  2.63697487E+00  2.02200696E+00  2.63583741E+00  2.63562383E+00  2.07809437E+00
  2.63647030E+00  2.07804735E+00  2.63584495E+00  2.07795046E+00  2.63642862E+00
  2.07796233E+00  2.02200695E+00  2.02200696E+00  2.09406596E+00  2.09429025E+00
  2.09482897E+00  2.09429325E+00  2.09427360E+00  2.09461841E+00  2.09454576E+00
  2.09457924E+00  2.09405948E+00  2.09453467E+00  2.09439550E+00  2.09425504E+00
  2.09436817E+00  2.09434664E+00  2.09447050E+00  2.09447721E+00  1.86342665E+00
  1.86360611E+00  1.86380869E+00  1.86362920E+00  1.91063320E+00 -3.14153045E+00
 -2.64030200E-04  5.95410909E-04 -3.14132347E+00  2.28811476E-04 -2.12013938E+00
  2.12050862E+00 -3.14083040E+00  1.02198672E+00 -1.02055059E+00 -9.92100537E-04
 -3.14120378E+00  3.14092685E+00  7.15169852E-04  5.64580751E-04 -3.14112012E+00
  3.14077668E+00 -9.08026346E-04  3.14140373E+00 -9.68676995E-05  2.59774142E-04
 -3.14124082E+00 -6.56389312E-04  2.11952372E+00 -2.12092483E+00  3.14138489E+00
 -1.02162031E+00  1.02111645E+00
SymInf integers                            I   N=          26
           1           1           1           1           1           0
           0           0           0           0           0           0
           0           0           0           0           0           0
           0           0           0           0           0           0
           0           0
RotTr to input orientation                 R   N=          12
  3.00805184E-01  8.38547804E-01 -4.54261842E-01 -1.45036727E-01  5.11005490E-01
  8.47253054E-01  9.42592483E-01 -1.88973460E-01  2.75333329E-01  1.59695001E+00
  2.77611616E+00 -3.03234487E+00
Number of contracted shells                I               71
Number of primitive shells                 I              127
Pure/Cartesian d shells                    I                0
Pure/Cartesian f shells                    I                0
Highest angular momentum                   I                2
Largest degree of contraction              I                6
Shell types                                I   N=          71
           0          -1          -1          -1          -1          -2
           0          -1          -1          -1          -1          -2
           0          -1          -1          -1          -1          -2
           0           0           0           0           1           0
          -1          -1          -1          -1          -2           0
          -1          -1          -1          -1          -2           0
           0           0           0           1           0           0
           0           0           1           0           0           0
           0           1           0           0           0           0
           1           0          -1          -1          -1          -1
          -2           0           0           0           0           1
           0           0           0           0           1
Number of primitives per shell             I   N=          71
           6           3           1           1           1           1
           6           3           1           1           1           1
           6           3           1           1           1           1
           3           1           1           1           1           6
           3           1           1           1           1           6
           3           1           1           1           1           3
           1           1           1           1           3           1
           1           1           1           3           1           1
           1           1           3           1           1           1
           1           6           3           1           1           1
           1           3           1           1           1           1
           3           1           1           1           1
Shell to atom map                          I   N=          71
           1           1           1           1           1           1
           2           2           2           2           2           2
           3           3           3           3           3           3
           4           4           4           4           4           5
           5           5           5           5           5           6
           6           6           6           6           6           7
           7           7           7           7           8           8
           8           8           8           9           9           9
           9           9          10          10          10          10
          10          11          11          11          11          11
          11          12          12          12          12          12
          13          13          13          13          13
Primitive exponents                        R   N=         127
  4.56324000E+03  6.82024000E+02  1.54973000E+02  4.44553000E+01  1.30290000E+01
  1.82773000E+00  2.09642000E+01  4.80331000E+00  1.45933000E+00  4.83456000E-01
  1.45585000E-01  4.38000000E-02  6.26000000E-01  4.56324000E+03  6.82024000E+02
  1.54973000E+02  4.44553000E+01  1.30290000E+01  1.82773000E+00  2.09642000E+01
  4.80331000E+00  1.45933000E+00  4.83456000E-01  1.45585000E-01  4.38000000E-02
  6.26000000E-01  4.56324000E+03  6.82024000E+02  1.54973000E+02  4.44553000E+01
  1.30290000E+01  1.82773000E+00  2.09642000E+01  4.80331000E+00  1.45933000E+00
  4.83456000E-01  1.45585000E-01  4.38000000E-02  6.26000000E-01  3.38650000E+01
  5.09479000E+00  1.15879000E+00  3.25840000E-01  1.02741000E-01  3.60000000E-02
  7.50000000E-01  4.56324000E+03  6.82024000E+02  1.54973000E+02  4.44553000E+01
  1.30290000E+01  1.82773000E+00  2.09642000E+01  4.80331000E+00  1.45933000E+00
  4.83456000E-01  1.45585000E-01  4.38000000E-02  6.26000000E-01  4.56324000E+03
  6.82024000E+02  1.54973000E+02  4.44553000E+01  1.30290000E+01  1.82773000E+00
  2.09642000E+01  4.80331000E+00  1.45933000E+00  4.83456000E-01  1.45585000E-01
  4.38000000E-02  6.26000000E-01  3.38650000E+01  5.09479000E+00  1.15879000E+00
  3.25840000E-01  1.02741000E-01  3.60000000E-02  7.50000000E-01  3.38650000E+01
  5.09479000E+00  1.15879000E+00  3.25840000E-01  1.02741000E-01  3.60000000E-02
  7.50000000E-01  3.38650000E+01  5.09479000E+00  1.15879000E+00  3.25840000E-01
  1.02741000E-01  3.60000000E-02  7.50000000E-01  3.38650000E+01  5.09479000E+00
  1.15879000E+00  3.25840000E-01  1.02741000E-01  3.60000000E-02  7.50000000E-01
  4.56324000E+03  6.82024000E+02  1.54973000E+02  4.44553000E+01  1.30290000E+01
  1.82773000E+00  2.09642000E+01  4.80331000E+00  1.45933000E+00  4.83456000E-01
  1.45585000E-01  4.38000000E-02  6.26000000E-01  3.38650000E+01  5.09479000E+00
  1.15879000E+00  3.25840000E-01  1.02741000E-01  3.60000000E-02  7.50000000E-01
  3.38650000E+01  5.09479000E+00  1.15879000E+00  3.25840000E-01  1.02741000E-01
  3.60000000E-02  7.50000000E-01
Contraction coefficients                   R   N=         127
  1.96665025E-03  1.52306019E-02  7.61269097E-02  2.60801033E-01  6.16462078E-01
  2.21006028E-01  1.14660081E-01  9.19999648E-01 -3.03068213E-03  1.00000000E+00
  1.00000000E+00  1.00000000E+00  1.00000000E+00  1.96665025E-03  1.52306019E-02
  7.61269097E-02  2.60801033E-01  6.16462078E-01  2.21006028E-01  1.14660081E-01
  9.19999648E-01 -3.03068213E-03  1.00000000E+00  1.00000000E+00  1.00000000E+00
  1.00000000E+00  1.96665025E-03  1.52306019E-02  7.61269097E-02  2.60801033E-01
  6.16462078E-01  2.21006028E-01  1.14660081E-01  9.19999648E-01 -3.03068213E-03
  1.00000000E+00  1.00000000E+00  1.00000000E+00  1.00000000E+00  2.54938145E-02
  1.90373109E-01  8.52161486E-01  1.00000000E+00  1.00000000E+00  1.00000000E+00
  1.00000000E+00  1.96665025E-03  1.52306019E-02  7.61269097E-02  2.60801033E-01
  6.16462078E-01  2.21006028E-01  1.14660081E-01  9.19999648E-01 -3.03068213E-03
  1.00000000E+00  1.00000000E+00  1.00000000E+00  1.00000000E+00  1.96665025E-03
  1.52306019E-02  7.61269097E-02  2.60801033E-01  6.16462078E-01  2.21006028E-01
  1.14660081E-01  9.19999648E-01 -3.03068213E-03  1.00000000E+00  1.00000000E+00
  1.00000000E+00  1.00000000E+00  2.54938145E-02  1.90373109E-01  8.52161486E-01
  1.00000000E+00  1.00000000E+00  1.00000000E+00  1.00000000E+00  2.54938145E-02
  1.90373109E-01  8.52161486E-01  1.00000000E+00  1.00000000E+00  1.00000000E+00
  1.00000000E+00  2.54938145E-02  1.90373109E-01  8.52161486E-01  1.00000000E+00
  1.00000000E+00  1.00000000E+00  1.00000000E+00  2.54938145E-02  1.90373109E-01
  8.52161486E-01  1.00000000E+00  1.00000000E+00  1.00000000E+00  1.00000000E+00
  1.96665025E-03  1.52306019E-02  7.61269097E-02  2.60801033E-01  6.16462078E-01
  2.21006028E-01  1.14660081E-01  9.19999648E-01 -3.03068213E-03  1.00000000E+00
  1.00000000E+00  1.00000000E+00  1.00000000E+00  2.54938145E-02  1.90373109E-01
  8.52161486E-01  1.00000000E+00  1.00000000E+00  1.00000000E+00  1.00000000E+00
  2.54938145E-02  1.90373109E-01  8.52161486E-01  1.00000000E+00  1.00000000E+00
  1.00000000E+00  1.00000000E+00
P(S=P) Contraction coefficients            R   N=         127
  0.00000000E+00  0.00000000E+00  0.00000000E+00  0.00000000E+00  0.00000000E+00
  0.00000000E+00  4.02486927E-02  2.37593957E-01  8.15853851E-01  1.00000000E+00
  1.00000000E+00  1.00000000E+00  0.00000000E+00  0.00000000E+00  0.00000000E+00
  0.00000000E+00  0.00000000E+00  0.00000000E+00  0.00000000E+00  4.02486927E-02
  2.37593957E-01  8.15853851E-01  1.00000000E+00  1.00000000E+00  1.00000000E+00
  0.00000000E+00  0.00000000E+00  0.00000000E+00  0.00000000E+00  0.00000000E+00
  0.00000000E+00  0.00000000E+00  4.02486927E-02  2.37593957E-01  8.15853851E-01
  1.00000000E+00  1.00000000E+00  1.00000000E+00  0.00000000E+00  0.00000000E+00
  0.00000000E+00  0.00000000E+00  0.00000000E+00  0.00000000E+00  0.00000000E+00
  0.00000000E+00  0.00000000E+00  0.00000000E+00  0.00000000E+00  0.00000000E+00
  0.00000000E+00  0.00000000E+00  4.02486927E-02  2.37593957E-01  8.15853851E-01
  1.00000000E+00  1.00000000E+00  1.00000000E+00  0.00000000E+00  0.00000000E+00
  0.00000000E+00  0.00000000E+00  0.00000000E+00  0.00000000E+00  0.00000000E+00
  4.02486927E-02  2.37593957E-01  8.15853851E-01  1.00000000E+00  1.00000000E+00
  1.00000000E+00  0.00000000E+00  0.00000000E+00  0.00000000E+00  0.00000000E+00
  0.00000000E+00  0.00000000E+00  0.00000000E+00  0.00000000E+00  0.00000000E+00
  0.00000000E+00  0.00000000E+00  0.00000000E+00  0.00000000E+00  0.00000000E+00
  0.00000000E+00  0.00000000E+00  0.00000000E+00  0.00000000E+00  0.00000000E+00
  0.00000000E+00  0.00000000E+00  0.00000000E+00  0.00000000E+00  0.00000000E+00
  0.00000000E+00  0.00000000E+00  0.00000000E+00  0.00000000E+00  0.00000000E+00
  0.00000000E+00  0.00000000E+00  0.00000000E+00  0.00000000E+00  0.00000000E+00
  0.00000000E+00  4.02486927E-02  2.37593957E-01  8.15853851E-01  1.00000000E+00
  1.00000000E+00  1.00000000E+00  0.00000000E+00  0.00000000E+00  0.00000000E+00
  0.00000000E+00  0.00000000E+00  0.00000000E+00  0.00000000E+00  0.00000000E+00
  0.00000000E+00  0.00000000E+00  0.00000000E+00  0.00000000E+00  0.00000000E+00
  0.00000000E+00  0.00000000E+00
Coordinates of each shell                  R   N=         213
 -2.36270934E+00  1.18267398E+00 -7.67038963E-05 -2.36270934E+00  1.18267398E+00
 -7.67038963E-05 -2.36270934E+00  1.18267398E+00 -7.67038963E-05 -2.36270934E+00
  1.18267398E+00 -7.67038963E-05 -2.36270934E+00  1.18267398E+00 -7.67038963E-05
 -2.36270934E+00  1.18267398E+00 -7.67038963E-05 -2.34124251E+00 -1.39669303E+00
  1.16221110E-06 -2.34124251E+00 -1.39669303E+00  1.16221110E-06 -2.34124251E+00
 -1.39669303E+00  1.16221110E-06 -2.34124251E+00 -1.39669303E+00  1.16221110E-06
 -2.34124251E+00 -1.39669303E+00  1.16221110E-06 -2.34124251E+00 -1.39669303E+00
  1.16221110E-06  1.60935477E-03 -2.66007350E+00 -2.50656403E-05  1.60935477E-03
 -2.66007350E+00 -2.50656403E-05  1.60935477E-03 -2.66007350E+00 -2.50656403E-05
  1.60935477E-03 -2.66007350E+00 -2.50656403E-05  1.60935477E-03 -2.66007350E+00
 -2.50656403E-05  1.60935477E-03 -2.66007350E+00 -2.50656403E-05 -4.07988712E+00
 -2.47373414E+00  5.86897124E-05 -4.07988712E+00 -2.47373414E+00  5.86897124E-05
 -4.07988712E+00 -2.47373414E+00  5.86897124E-05 -4.07988712E+00 -2.47373414E+00
  5.86897124E-05 -4.07988712E+00 -2.47373414E+00  5.86897124E-05  2.36128901E+00
  1.18548070E+00 -7.62829089E-05  2.36128901E+00  1.18548070E+00 -7.62829089E-05
  2.36128901E+00  1.18548070E+00 -7.62829089E-05  2.36128901E+00  1.18548070E+00
 -7.62829089E-05  2.36128901E+00  1.18548070E+00 -7.62829089E-05  2.36128901E+00
  1.18548070E+00 -7.62829089E-05  2.34287959E+00 -1.39385137E+00  1.23082989E-06
  2.34287959E+00 -1.39385137E+00  1.23082989E-06  2.34287959E+00 -1.39385137E+00
  1.23082989E-06  2.34287959E+00 -1.39385137E+00  1.23082989E-06  2.34287959E+00
 -1.39385137E+00  1.23082989E-06  2.34287959E+00 -1.39385137E+00  1.23082989E-06
  2.88734821E-03 -4.71292846E+00  1.73269715E-04  2.88734821E-03 -4.71292846E+00
  1.73269715E-04  2.88734821E-03 -4.71292846E+00  1.73269715E-04  2.88734821E-03
 -4.71292846E+00  1.73269715E-04  2.88734821E-03 -4.71292846E+00  1.73269715E-04
  4.12815237E+00  2.22655390E+00 -1.29941158E-04  4.12815237E+00  2.22655390E+00
 -1.29941158E-04  4.12815237E+00  2.22655390E+00 -1.29941158E-04  4.12815237E+00
  2.22655390E+00 -1.29941158E-04  4.12815237E+00  2.22655390E+00 -1.29941158E-04
  4.08283449E+00 -2.46877360E+00  5.69043946E-05  4.08283449E+00 -2.46877360E+00
  5.69043946E-05  4.08283449E+00 -2.46877360E+00  5.69043946E-05  4.08283449E+00
 -2.46877360E+00  5.69043946E-05  4.08283449E+00 -2.46877360E+00  5.69043946E-05
 -4.13072495E+00  2.22172997E+00 -1.31305408E-04 -4.13072495E+00  2.22172997E+00
 -1.31305408E-04 -4.13072495E+00  2.22172997E+00 -1.31305408E-04 -4.13072495E+00
  2.22172997E+00 -1.31305408E-04 -4.13072495E+00  2.22172997E+00 -1.31305408E-04
 -1.57143997E-03  2.62816447E+00  2.29260421E-05 -1.57143997E-03  2.62816447E+00
  2.29260421E-05 -1.57143997E-03  2.62816447E+00  2.29260421E-05 -1.57143997E-03
  2.62816447E+00  2.29260421E-05 -1.57143997E-03  2.62816447E+00  2.29260421E-05
 -1.57143997E-03  2.62816447E+00  2.29260421E-05 -2.39640383E-03  3.96600673E+00
  1.60757018E+00 -2.39640383E-03  3.96600673E+00  1.60757018E+00 -2.39640383E-03
  3.96600673E+00  1.60757018E+00 -2.39640383E-03  3.96600673E+00  1.60757018E+00
 -2.39640383E-03  3.96600673E+00  1.60757018E+00 -2.39369030E-03  3.96693800E+00
 -1.60668139E+00 -2.39369030E-03  3.96693800E+00 -1.60668139E+00 -2.39369030E-03
  3.96693800E+00 -1.60668139E+00 -2.39369030E-03  3.96693800E+00 -1.60668139E+00
 -2.39369030E-03  3.96693800E+00 -1.60668139E+00
Num ILSW                                   I              100
ILSW                                       I   N=         100
           0           0           0           0           2           0
           0           0           0           0        4336          -1
           5           0           0           0           2           0
           0           0           0           0           1           0
           1           0           0           0           0           0
           0           0      100000           0          -1           0
           0           0           0           0           0           0
           0           0           0           1           0           0
           0 -2000000000           1           0           0           0
           0           0           4          52           0           0
           0           0          55           0           0           0
           0           0           0          13           0           1
           0           0           0           0           0           0
           0           0           0           0           0           0
           0           0           0           0           0           0
           0           0           0           0           0           0
           0           0           0           0
Num RLSW                                   I               52
RLSW                                       R   N=          52
  1.00000000E+00  1.00000000E+00  1.00000000E+00  1.00000000E+00  5.40000000E-01
  0.00000000E+00  0.00000000E+00  1.00000000E+00  0.00000000E+00  0.00000000E+00
  0.00000000E+00  0.00000000E+00  1.00000000E+00  0.00000000E+00  0.00000000E+00
  0.00000000E+00  0.00000000E+00  1.00000000E+00  0.00000000E+00  0.00000000E+00
  0.00000000E+00  0.00000000E+00  1.00000000E+00  0.00000000E+00  0.00000000E+00
  0.00000000E+00  0.00000000E+00  1.00000000E+00  0.00000000E+00  0.00000000E+00
  0.00000000E+00  0.00000000E+00  1.00000000E+00  0.00000000E+00  0.00000000E+00
  0.00000000E+00  0.00000000E+00  0.00000000E+00  1.00000000E+00  1.00000000E+00
  0.00000000E+00  1.00000000E+00  0.00000000E+00  0.00000000E+00  0.00000000E+00